                         Program Version 5.0.0 -  RELEASE  -
|  1> !B3LYP D3BJ RIJCOSX def2-SVP def2/J TightSCF
|  2> *xyz -1 1
|  3> C          3.76678       -2.26611       -6.51175
|  4> C          2.49670       -1.84416       -5.73570
|  5> H          1.62642       -2.21743       -6.30895
|  6> H          2.48182       -2.45607       -4.79341
|  7> O          2.45973       -0.50920       -5.50576
|  8> H          3.82914       -1.70941       -7.42340
|  9> H          3.71764       -3.31144       -6.73483
| 10> H          4.63199       -2.06931       -5.91377
| 11> *
| 12>
| 13> %MaxCore 64000
| 14>
| 15> %pal nprocs 4
| 16> end
| 17>
| 18> %scf
| 19>   MaxIter 150
| 20> end
| 21>
| 22>
| 23>                          ****END OF INPUT****

CARTESIAN COORDINATES (ANGSTROEM)
---------------------------------
  C      3.766780   -2.266110   -6.511750
  C      2.496700   -1.844160   -5.735700
  H      1.626420   -2.217430   -6.308950
  H      2.481820   -2.456070   -4.793410
  O      2.459730   -0.509200   -5.505760
  H      3.829140   -1.709410   -7.423400
  H      3.717640   -3.311440   -6.734830
  H      4.631990   -2.069310   -5.913770

 Total Charge           Charge          ....   -1
 Multiplicity           Mult            ....    1
 Number of Electrons    NEL             ....   26
 Basis Dimension        Dim             ....   67

ORBITAL ENERGIES
----------------

  NO   OCC          E(Eh)            E(eV)
   0   2.0000     -18.747847      -510.1548
   1   2.0000      -9.972327      -271.3608
   2   2.0000      -9.957840      -270.9666
   3   2.0000      -0.631543       -17.1852
   4   2.0000      -0.495143       -13.4735
   5   2.0000      -0.342080        -9.3085
   6   2.0000      -0.228644        -6.2217
   7   2.0000      -0.206628        -5.6226
   8   2.0000      -0.150580        -4.0975
   9   2.0000      -0.134522        -3.6605
  10   2.0000      -0.072070        -1.9611
  11   2.0000       0.075720         2.0605
  12   2.0000       0.077851         2.1184
  13   0.0000       0.253892         6.9088
  14   0.0000       0.296159         8.0589
  15   0.0000       0.309732         8.4282
  16   0.0000       0.319687         8.6991
  17   0.0000       0.361456         9.8357

MULLIKEN ATOMIC CHARGES
-----------------------
   0 C :    0.096810
   1 C :    0.276972
   2 H :   -0.190308
   3 H :   -0.197066
   4 O :   -0.682781
   5 H :   -0.082405
   6 H :   -0.141387
   7 H :   -0.079837
Sum of atomic charges:   -1.0000000

LOEWDIN ATOMIC CHARGES
----------------------
   0 C :   -0.103549
   1 C :    0.013291
   2 H :   -0.090703
   3 H :   -0.093405
   4 O :   -0.641324
   5 H :   -0.020969
   6 H :   -0.043628
   7 H :   -0.019713

  Mayer bond orders larger than 0.100000
B(  0-C ,  1-C ) :   1.0016 B(  0-C ,  5-H ) :   0.9499 B(  0-C ,  6-H ) :   0.9036
B(  0-C ,  7-H ) :   0.9546 B(  1-C ,  2-H ) :   0.8534 B(  1-C ,  3-H ) :   0.8412
B(  1-C ,  4-O ) :   1.5313

Dispersion correction           -0.006238131
FINAL SINGLE POINT ENERGY      -154.191040659730

DIPOLE MOMENT
-------------
                                X             Y             Z
Electronic contribution:     -1.09635       2.94872       1.04087
Nuclear contribution   :      1.63615      -3.79938      -1.48621
                        -----------------------------------------
Total Dipole Moment    :      0.53980      -0.85066      -0.44534
                        -----------------------------------------
Magnitude (a.u.)       :      1.10152
Magnitude (Debye)      :      2.79984

Rotational constants in cm-1:     1.265582     0.329289     0.289024
Rotational constants in MHz : 37941.194363  9871.829581  8664.719106

                             ****ORCA TERMINATED NORMALLY****
TOTAL RUN TIME: 0 days 0 hours 0 minutes 7 seconds 993 msec
