                         Program Version 5.0.0 -  RELEASE  -
|  1> !B3LYP D3BJ RIJCOSX def2-SVP def2/J TightSCF
|  2> *xyz 1 1
|  3> C          4.99986       -1.59613       -5.92488
|  4> N          5.28156       -1.97413       -4.53576
|  5> C          3.76678       -2.26611       -6.51175
|  6> C          4.79250       -1.36132       -3.45730
|  7> N          3.93990       -0.37492       -3.55736
|  8> N          5.25986       -1.75422       -2.23913
|  9> H          5.92282       -2.52145       -2.18672
| 10> H          4.65468       -1.64040       -1.44202
| 11> H          5.70914       -2.87560       -4.38702
| 12> H          3.33010       -0.31764       -4.36125
| 13> H          3.69849        0.11447       -2.70833
| 14> H          4.84333       -0.51793       -5.94302
| 15> H          5.90170       -1.82250       -6.49647
| 16> H          3.63046       -1.94025       -7.52177
| 17> H          2.90710       -2.00116       -5.93240
| 18> H          3.89538       -3.32820       -6.49392
| 19> *
| 20>
| 21> %MaxCore 64000
| 22>
| 23> %pal nprocs 4
| 24> end
| 25>
| 26> %scf
| 27>   MaxIter 150
| 28> end
| 29>
| 30>
| 31>                          ****END OF INPUT****

CARTESIAN COORDINATES (ANGSTROEM)
---------------------------------
  C      4.999860   -1.596130   -5.924880
  N      5.281560   -1.974130   -4.535760
  C      3.766780   -2.266110   -6.511750
  C      4.792500   -1.361320   -3.457300
  N      3.939900   -0.374920   -3.557360
  N      5.259860   -1.754220   -2.239130
  H      5.922820   -2.521450   -2.186720
  H      4.654680   -1.640400   -1.442020
  H      5.709140   -2.875600   -4.387020
  H      3.330100   -0.317640   -4.361250
  H      3.698490    0.114470   -2.708330
  H      4.843330   -0.517930   -5.943020
  H      5.901700   -1.822500   -6.496470
  H      3.630460   -1.940250   -7.521770
  H      2.907100   -2.001160   -5.932400
  H      3.895380   -3.328200   -6.493920

 Total Charge           Charge          ....    1
 Multiplicity           Mult            ....    1
 Number of Electrons    NEL             ....   48
 Basis Dimension        Dim             ....  134

ORBITAL ENERGIES
----------------

  NO   OCC          E(Eh)            E(eV)
   0   2.0000     -14.555390      -396.0723
   1   2.0000     -14.548579      -395.8870
   2   2.0000     -14.545445      -395.8017
   3   2.0000     -10.515163      -286.1321
   4   2.0000     -10.387340      -282.6539
   5   2.0000     -10.323040      -280.9042
   6   2.0000      -1.203646       -32.7529
   7   2.0000      -1.094974       -29.7958
   8   2.0000      -1.079262       -29.3682
   9   2.0000      -0.922560       -25.1041
  10   2.0000      -0.835052       -22.7229
  11   2.0000      -0.797363       -21.6973
  12   2.0000      -0.785529       -21.3753
  13   2.0000      -0.736224       -20.0337
  14   2.0000      -0.694541       -18.8994
  15   2.0000      -0.691312       -18.8116
  16   2.0000      -0.640205       -17.4209
  17   2.0000      -0.626437       -17.0462
  18   2.0000      -0.604230       -16.4419
  19   2.0000      -0.559167       -15.2157
  20   2.0000      -0.531909       -14.4740
  21   2.0000      -0.513418       -13.9708
  22   2.0000      -0.476511       -12.9665
  23   2.0000      -0.448933       -12.2161
  24   0.0000      -0.167940        -4.5699
  25   0.0000      -0.133774        -3.6402
  26   0.0000      -0.104005        -2.8301
  27   0.0000      -0.091463        -2.4888
  28   0.0000      -0.076334        -2.0771

MULLIKEN ATOMIC CHARGES
-----------------------
   0 C :    0.039085
   1 N :   -0.114532
   2 C :    0.039295
   3 C :    0.018558
   4 N :    0.012668
   5 N :   -0.037472
   6 H :    0.162506
   7 H :    0.164398
   8 H :    0.157318
   9 H :    0.171974
  10 H :    0.167971
  11 H :    0.042682
  12 H :    0.066648
  13 H :    0.062558
  14 H :    0.007932
  15 H :    0.038411
Sum of atomic charges:    1.0000000

LOEWDIN ATOMIC CHARGES
----------------------
   0 C :    0.046981
   1 N :    0.034144
   2 C :   -0.040531
   3 C :    0.140383
   4 N :    0.071424
   5 N :    0.031756
   6 H :    0.108163
   7 H :    0.102493
   8 H :    0.101191
   9 H :    0.110274
  10 H :    0.113123
  11 H :    0.032186
  12 H :    0.047460
  13 H :    0.048557
  14 H :    0.018764
  15 H :    0.033632

  Mayer bond orders larger than 0.100000
B(  0-C ,  1-N ) :   0.9394 B(  0-C ,  2-C ) :   1.1067 B(  0-C , 11-H ) :   0.9496
B(  0-C , 12-H ) :   0.9459 B(  1-N ,  3-C ) :   1.3758 B(  1-N ,  8-H ) :   0.9120
B(  2-C , 13-H ) :   0.9606 B(  2-C , 14-H ) :   0.9625 B(  2-C , 15-H ) :   0.9655
B(  3-C ,  4-N ) :   1.4195 B(  3-C ,  5-N ) :   1.3544 B(  4-N ,  9-H ) :   0.9196
B(  4-N , 10-H ) :   0.9234 B(  5-N ,  6-H ) :   0.9272 B(  5-N ,  7-H ) :   0.9319

Dispersion correction           -0.020262152
FINAL SINGLE POINT ENERGY      -284.032348453360

DIPOLE MOMENT
-------------
                                X             Y             Z
Electronic contribution:      1.74292       1.08789       4.82244
Nuclear contribution   :     -1.95709      -1.20097      -3.70214
                        -----------------------------------------
Total Dipole Moment    :     -0.21417      -0.11308       1.12030
                        -----------------------------------------
Magnitude (a.u.)       :      1.14618
Magnitude (Debye)      :      2.91336

Rotational constants in cm-1:     0.241661     0.071598     0.061743
Rotational constants in MHz :  7244.800091  2146.442409  1851.001864

                             ****ORCA TERMINATED NORMALLY****
TOTAL RUN TIME: 0 days 0 hours 0 minutes 16 seconds 946 msec
