                         Program Version 5.0.0 -  RELEASE  -
|  1> !B3LYP D3BJ RIJCOSX def2-SVP def2/J TightSCF
|  2> *xyz 0 1
|  3> C          3.76678       -2.26611       -6.51175
|  4> C          2.49670       -1.84416       -5.73570
|  5> H          1.62642       -2.21743       -6.30895
|  6> H          2.48182       -2.45607       -4.79341
|  7> F          2.45973       -0.50920       -5.50576
|  8> H          3.82914       -1.70941       -7.42340
|  9> H          3.71764       -3.31144       -6.73483
| 10> H          4.63199       -2.06931       -5.91377
| 11> *
| 12>
| 13> %MaxCore 64000
| 14>
| 15> %pal nprocs 4
| 16> end
| 17>
| 18> %scf
| 19>   MaxIter 150
| 20> end
| 21>
| 22>
| 23>                          ****END OF INPUT****

CARTESIAN COORDINATES (ANGSTROEM)
---------------------------------
  C      3.766780   -2.266110   -6.511750
  C      2.496700   -1.844160   -5.735700
  H      1.626420   -2.217430   -6.308950
  H      2.481820   -2.456070   -4.793410
  F      2.459730   -0.509200   -5.505760
  H      3.829140   -1.709410   -7.423400
  H      3.717640   -3.311440   -6.734830
  H      4.631990   -2.069310   -5.913770

 Total Charge           Charge          ....    0
 Multiplicity           Mult            ....    1
 Number of Electrons    NEL             ....   26
 Basis Dimension        Dim             ....   67

ORBITAL ENERGIES
----------------

  NO   OCC          E(Eh)            E(eV)
   0   2.0000     -24.664487      -671.1548
   1   2.0000     -10.257873      -279.1309
   2   2.0000     -10.176743      -276.9233
   3   2.0000      -1.174348       -31.9556
   4   2.0000      -0.749479       -20.3944
   5   2.0000      -0.619510       -16.8577
   6   2.0000      -0.502403       -13.6711
   7   2.0000      -0.488499       -13.2927
   8   2.0000      -0.451494       -12.2858
   9   2.0000      -0.398708       -10.8494
  10   2.0000      -0.396962       -10.8019
  11   2.0000      -0.326246        -8.8776
  12   2.0000      -0.322735        -8.7821
  13   0.0000       0.064351         1.7511
  14   0.0000       0.109109         2.9690
  15   0.0000       0.115888         3.1535
  16   0.0000       0.136195         3.7061
  17   0.0000       0.151410         4.1201

MULLIKEN ATOMIC CHARGES
-----------------------
   0 C :   -0.021278
   1 C :    0.234966
   2 H :   -0.002138
   3 H :   -0.001458
   4 F :   -0.251576
   5 H :    0.018190
   6 H :    0.005349
   7 H :    0.017945
Sum of atomic charges:    0.0000000

LOEWDIN ATOMIC CHARGES
----------------------
   0 C :   -0.066237
   1 C :    0.106855
   2 H :    0.005022
   3 H :    0.007223
   4 F :   -0.122599
   5 H :    0.022290
   6 H :    0.025746
   7 H :    0.021700

  Mayer bond orders larger than 0.100000
B(  0-C ,  1-C ) :   1.0996 B(  0-C ,  5-H ) :   0.9702 B(  0-C ,  6-H ) :   0.9597
B(  0-C ,  7-H ) :   0.9721 B(  1-C ,  2-H ) :   0.9557 B(  1-C ,  3-H ) :   0.9530
B(  1-C ,  4-F ) :   1.0159

Dispersion correction           -0.005742869
FINAL SINGLE POINT ENERGY      -178.829516221634

DIPOLE MOMENT
-------------
                                X             Y             Z
Electronic contribution:     -2.09225       4.39786       1.82920
Nuclear contribution   :      2.16248      -5.01128      -1.96962
                        -----------------------------------------
Total Dipole Moment    :      0.07023      -0.61342      -0.14042
                        -----------------------------------------
Magnitude (a.u.)       :      0.63320
Magnitude (Debye)      :      1.60945

Rotational constants in cm-1:     1.244010     0.306580     0.270375
Rotational constants in MHz : 37294.476802  9191.037795  8105.639967

                             ****ORCA TERMINATED NORMALLY****
TOTAL RUN TIME: 0 days 0 hours 0 minutes 7 seconds 526 msec
