                         Program Version 5.0.0 -  RELEASE  -
|  1> !B3LYP D3BJ RIJCOSX def2-SVP def2/J TightSCF
|  2> *xyz 0 1
|  3> C          4.99986       -1.59613       -5.92488
|  4> C          5.28156       -1.97413       -4.53576
|  5> C          3.76678       -2.26611       -6.51175
|  6> C          4.79250       -1.36132       -3.45730
|  7> N          3.93990       -0.37492       -3.55736
|  8> N          5.25986       -1.75422       -2.23913
|  9> H          5.92282       -2.52145       -2.18672
| 10> H          4.65468       -1.64040       -1.44202
| 11> H          5.70914       -2.87560       -4.38702
| 12> H          3.33010       -0.31764       -4.36125
| 13> H          3.69849        0.11447       -2.70833
| 14> H          4.84333       -0.51793       -5.94302
| 15> H          5.90170       -1.82250       -6.49647
| 16> H          3.63046       -1.94025       -7.52177
| 17> H          2.90710       -2.00116       -5.93240
| 18> H          3.89538       -3.32820       -6.49392
| 19> *
| 20>
| 21> %MaxCore 64000
| 22>
| 23> %pal nprocs 4
| 24> end
| 25>
| 26> %scf
| 27>   MaxIter 150
| 28> end
| 29>
| 30>
| 31>                          ****END OF INPUT****

CARTESIAN COORDINATES (ANGSTROEM)
---------------------------------
  C      4.999860   -1.596130   -5.924880
  C      5.281560   -1.974130   -4.535760
  C      3.766780   -2.266110   -6.511750
  C      4.792500   -1.361320   -3.457300
  N      3.939900   -0.374920   -3.557360
  N      5.259860   -1.754220   -2.239130
  H      5.922820   -2.521450   -2.186720
  H      4.654680   -1.640400   -1.442020
  H      5.709140   -2.875600   -4.387020
  H      3.330100   -0.317640   -4.361250
  H      3.698490    0.114470   -2.708330
  H      4.843330   -0.517930   -5.943020
  H      5.901700   -1.822500   -6.496470
  H      3.630460   -1.940250   -7.521770
  H      2.907100   -2.001160   -5.932400
  H      3.895380   -3.328200   -6.493920

 Total Charge           Charge          ....    0
 Multiplicity           Mult            ....    1
 Number of Electrons    NEL             ....   48
 Basis Dimension        Dim             ....  134

ORBITAL ENERGIES
----------------

  NO   OCC          E(Eh)            E(eV)
   0   2.0000     -14.324812      -389.7979
   1   2.0000     -14.315046      -389.5322
   2   2.0000     -10.215875      -277.9881
   3   2.0000     -10.149001      -276.1684
   4   2.0000     -10.148198      -276.1465
   5   2.0000     -10.096190      -274.7313
   6   2.0000      -0.943137       -25.6641
   7   2.0000      -0.852048       -23.1854
   8   2.0000      -0.756775       -20.5929
   9   2.0000      -0.679269       -18.4839
  10   2.0000      -0.602205       -16.3868
  11   2.0000      -0.566407       -15.4127
  12   2.0000      -0.536359       -14.5951
  13   2.0000      -0.493656       -13.4331
  14   2.0000      -0.470130       -12.7929
  15   2.0000      -0.435208       -11.8426
  16   2.0000      -0.407846       -11.0981
  17   2.0000      -0.385204       -10.4819
  18   2.0000      -0.374555       -10.1922
  19   2.0000      -0.343744        -9.3538
  20   2.0000      -0.319741        -8.7006
  21   2.0000      -0.312071        -8.4919
  22   2.0000      -0.254003        -6.9118
  23   2.0000      -0.150127        -4.0852
  24   0.0000       0.042495         1.1564
  25   0.0000       0.074323         2.0224
  26   0.0000       0.091987         2.5031
  27   0.0000       0.103138         2.8065
  28   0.0000       0.113309         3.0833

MULLIKEN ATOMIC CHARGES
-----------------------
   0 C :    0.071686
   1 C :   -0.163832
   2 C :    0.083761
   3 C :   -0.076130
   4 N :   -0.026987
   5 N :   -0.072081
   6 H :    0.106814
   7 H :    0.084126
   8 H :   -0.108120
   9 H :    0.122108
  10 H :    0.094943
  11 H :   -0.036608
  12 H :   -0.022110
  13 H :   -0.014139
  14 H :   -0.029862
  15 H :   -0.013569
Sum of atomic charges:    0.0000000

LOEWDIN ATOMIC CHARGES
----------------------
   0 C :   -0.036418
   1 C :   -0.206289
   2 C :   -0.048166
   3 C :    0.015470
   4 N :    0.000761
   5 N :   -0.036999
   6 H :    0.078664
   7 H :    0.051003
   8 H :   -0.016629
   9 H :    0.079817
  10 H :    0.065351
  11 H :    0.006207
  12 H :    0.018549
  13 H :    0.009555
  14 H :    0.004901
  15 H :    0.014221

  Mayer bond orders larger than 0.100000
B(  0-C ,  1-C ) :   1.0884 B(  0-C ,  2-C ) :   1.0978 B(  0-C , 11-H ) :   0.9280
B(  0-C , 12-H ) :   0.9145 B(  1-C ,  3-C ) :   1.6766 B(  1-C ,  8-H ) :   0.9418
B(  2-C , 13-H ) :   0.9589 B(  2-C , 14-H ) :   0.9650 B(  2-C , 15-H ) :   0.9630
B(  3-C ,  4-N ) :   1.2614 B(  3-C ,  5-N ) :   1.2164 B(  4-N ,  9-H ) :   0.9361
B(  4-N , 10-H ) :   0.9444 B(  5-N ,  6-H ) :   0.9428 B(  5-N ,  7-H ) :   0.9460

Dispersion correction           -0.021196901
FINAL SINGLE POINT ENERGY      -267.559148558485

DIPOLE MOMENT
-------------
                                X             Y             Z
Electronic contribution:      1.18349       1.45097       4.67221
Nuclear contribution   :     -1.82485      -1.28952      -3.74132
                        -----------------------------------------
Total Dipole Moment    :     -0.64137       0.16145       0.93090
                        -----------------------------------------
Magnitude (a.u.)       :      1.14192
Magnitude (Debye)      :      2.90253

Rotational constants in cm-1:     0.245790     0.071632     0.062004
Rotational constants in MHz :  7368.599517  2147.482078  1858.844841

                             ****ORCA TERMINATED NORMALLY****
TOTAL RUN TIME: 0 days 0 hours 0 minutes 16 seconds 707 msec
