                         Program Version 5.0.0 -  RELEASE  -
|  1> !B3LYP D3BJ RIJCOSX def2-SVP def2/J TightSCF
|  2> *xyz 0 1
|  3> C          4.99986       -1.59613       -5.92488
|  4> N          5.28156       -1.97413       -4.53576
|  5> C          3.76678       -2.26611       -6.51175
|  6> C          4.79250       -1.36132       -3.45730
|  7> C          3.93990       -0.37492       -3.55736
|  8> N          5.25986       -1.75422       -2.23913
|  9> H          5.92282       -2.52145       -2.18672
| 10> H          4.65468       -1.64040       -1.44202
| 11> H          5.70914       -2.87560       -4.38702
| 12> H          3.33010       -0.31764       -4.36125
| 13> H          3.69849        0.11447       -2.70833
| 14> H          4.84333       -0.51793       -5.94302
| 15> H          5.90170       -1.82250       -6.49647
| 16> H          3.63046       -1.94025       -7.52177
| 17> H          2.90710       -2.00116       -5.93240
| 18> H          3.89538       -3.32820       -6.49392
| 19> *
| 20>
| 21> %MaxCore 64000
| 22>
| 23> %pal nprocs 4
| 24> end
| 25>
| 26> %scf
| 27>   MaxIter 150
| 28> end
| 29>
| 30>
| 31>                          ****END OF INPUT****

CARTESIAN COORDINATES (ANGSTROEM)
---------------------------------
  C      4.999860   -1.596130   -5.924880
  N      5.281560   -1.974130   -4.535760
  C      3.766780   -2.266110   -6.511750
  C      4.792500   -1.361320   -3.457300
  C      3.939900   -0.374920   -3.557360
  N      5.259860   -1.754220   -2.239130
  H      5.922820   -2.521450   -2.186720
  H      4.654680   -1.640400   -1.442020
  H      5.709140   -2.875600   -4.387020
  H      3.330100   -0.317640   -4.361250
  H      3.698490    0.114470   -2.708330
  H      4.843330   -0.517930   -5.943020
  H      5.901700   -1.822500   -6.496470
  H      3.630460   -1.940250   -7.521770
  H      2.907100   -2.001160   -5.932400
  H      3.895380   -3.328200   -6.493920

 Total Charge           Charge          ....    0
 Multiplicity           Mult            ....    1
 Number of Electrons    NEL             ....   48
 Basis Dimension        Dim             ....  134

ORBITAL ENERGIES
----------------

  NO   OCC          E(Eh)            E(eV)
   0   2.0000     -14.319955      -389.6658
   1   2.0000     -14.316782      -389.5794
   2   2.0000     -10.217798      -278.0404
   3   2.0000     -10.208843      -277.7967
   4   2.0000     -10.166082      -276.6332
   5   2.0000     -10.089455      -274.5480
   6   2.0000      -0.943641       -25.6778
   7   2.0000      -0.860962       -23.4280
   8   2.0000      -0.742817       -20.2131
   9   2.0000      -0.700606       -19.0645
  10   2.0000      -0.626090       -17.0368
  11   2.0000      -0.553436       -15.0598
  12   2.0000      -0.533788       -14.5251
  13   2.0000      -0.502457       -13.6726
  14   2.0000      -0.450816       -12.2673
  15   2.0000      -0.439720       -11.9654
  16   2.0000      -0.416973       -11.3464
  17   2.0000      -0.392234       -10.6732
  18   2.0000      -0.376571       -10.2470
  19   2.0000      -0.366204        -9.9649
  20   2.0000      -0.347945        -9.4681
  21   2.0000      -0.338406        -9.2085
  22   2.0000      -0.240232        -6.5371
  23   2.0000      -0.161312        -4.3895
  24   0.0000       0.046282         1.2594
  25   0.0000       0.076288         2.0759
  26   0.0000       0.086628         2.3573
  27   0.0000       0.105000         2.8572
  28   0.0000       0.116025         3.1572

MULLIKEN ATOMIC CHARGES
-----------------------
   0 C :    0.103353
   1 N :   -0.154995
   2 C :    0.052001
   3 C :   -0.002540
   4 C :   -0.079580
   5 N :   -0.093302
   6 H :    0.087333
   7 H :    0.115348
   8 H :    0.085941
   9 H :   -0.053241
  10 H :   -0.076111
  11 H :    0.015006
  12 H :   -0.004407
  13 H :    0.000942
  14 H :    0.014194
  15 H :   -0.009943
Sum of atomic charges:   -0.0000000

LOEWDIN ATOMIC CHARGES
----------------------
   0 C :    0.047007
   1 N :   -0.027833
   2 C :   -0.054827
   3 C :    0.037622
   4 C :   -0.237671
   5 N :   -0.034179
   6 H :    0.059727
   7 H :    0.073349
   8 H :    0.056687
   9 H :   -0.008377
  10 H :   -0.009328
  11 H :    0.025713
  12 H :    0.015156
  13 H :    0.021041
  14 H :    0.022670
  15 H :    0.013244

  Mayer bond orders larger than 0.100000
B(  0-C ,  1-N ) :   1.0077 B(  0-C ,  2-C ) :   1.1124 B(  0-C , 11-H ) :   0.9309
B(  0-C , 12-H ) :   0.9535 B(  1-N ,  3-C ) :   1.1763 B(  1-N ,  8-H ) :   0.9315
B(  2-C , 13-H ) :   0.9593 B(  2-C , 14-H ) :   0.9654 B(  2-C , 15-H ) :   0.9634
B(  3-C ,  4-C ) :   1.7754 B(  3-C ,  5-N ) :   1.1932 B(  4-C ,  9-H ) :   0.9243
B(  4-C , 10-H ) :   0.9276 B(  5-N ,  6-H ) :   0.9527 B(  5-N ,  7-H ) :   0.9512

Dispersion correction           -0.021089241
FINAL SINGLE POINT ENERGY      -267.553210084170

DIPOLE MOMENT
-------------
                                X             Y             Z
Electronic contribution:      2.47166      -0.15666       3.59317
Nuclear contribution   :     -2.10948      -0.95026      -3.53375
                        -----------------------------------------
Total Dipole Moment    :      0.36219      -1.10692       0.05941
                        -----------------------------------------
Magnitude (a.u.)       :      1.16619
Magnitude (Debye)      :      2.96421

Rotational constants in cm-1:     0.255209     0.072067     0.062929
Rotational constants in MHz :  7650.964615  2160.525743  1886.569524

                             ****ORCA TERMINATED NORMALLY****
TOTAL RUN TIME: 0 days 0 hours 0 minutes 16 seconds 423 msec
