                         Program Version 5.0.0 -  RELEASE  -
|  1> !B3LYP D3BJ RIJCOSX def2-SVP def2/J TightSCF
|  2> *xyz 0 1
|  3> C          4.99986       -1.59613       -5.92488
|  4> N          5.28156       -1.97413       -4.53576
|  5> C          3.76678       -2.26611       -6.51175
|  6> C          4.79250       -1.36132       -3.45730
|  7> N          3.93990       -0.37492       -3.55736
|  8> C          5.25986       -1.75422       -2.23913
|  9> H          5.92282       -2.52145       -2.18672
| 10> H          4.65468       -1.64040       -1.44202
| 11> H          5.70914       -2.87560       -4.38702
| 12> H          3.33010       -0.31764       -4.36125
| 13> H          3.69849        0.11447       -2.70833
| 14> H          4.84333       -0.51793       -5.94302
| 15> H          5.90170       -1.82250       -6.49647
| 16> H          3.63046       -1.94025       -7.52177
| 17> H          2.90710       -2.00116       -5.93240
| 18> H          3.89538       -3.32820       -6.49392
| 19> *
| 20>
| 21> %MaxCore 64000
| 22>
| 23> %pal nprocs 4
| 24> end
| 25>
| 26> %scf
| 27>   MaxIter 150
| 28> end
| 29>
| 30>
| 31>                          ****END OF INPUT****

CARTESIAN COORDINATES (ANGSTROEM)
---------------------------------
  C      4.999860   -1.596130   -5.924880
  N      5.281560   -1.974130   -4.535760
  C      3.766780   -2.266110   -6.511750
  C      4.792500   -1.361320   -3.457300
  N      3.939900   -0.374920   -3.557360
  C      5.259860   -1.754220   -2.239130
  H      5.922820   -2.521450   -2.186720
  H      4.654680   -1.640400   -1.442020
  H      5.709140   -2.875600   -4.387020
  H      3.330100   -0.317640   -4.361250
  H      3.698490    0.114470   -2.708330
  H      4.843330   -0.517930   -5.943020
  H      5.901700   -1.822500   -6.496470
  H      3.630460   -1.940250   -7.521770
  H      2.907100   -2.001160   -5.932400
  H      3.895380   -3.328200   -6.493920

 Total Charge           Charge          ....    0
 Multiplicity           Mult            ....    1
 Number of Electrons    NEL             ....   48
 Basis Dimension        Dim             ....  134

ORBITAL ENERGIES
----------------

  NO   OCC          E(Eh)            E(eV)
   0   2.0000     -14.325698      -389.8221
   1   2.0000     -14.320454      -389.6794
   2   2.0000     -10.221654      -278.1454
   3   2.0000     -10.218829      -278.0685
   4   2.0000     -10.177891      -276.9545
   5   2.0000     -10.085915      -274.4517
   6   2.0000      -0.954278       -25.9672
   7   2.0000      -0.872632       -23.7455
   8   2.0000      -0.760537       -20.6953
   9   2.0000      -0.682416       -18.5695
  10   2.0000      -0.617555       -16.8045
  11   2.0000      -0.593547       -16.1512
  12   2.0000      -0.537172       -14.6172
  13   2.0000      -0.492674       -13.4063
  14   2.0000      -0.476558       -12.9678
  15   2.0000      -0.440962       -11.9992
  16   2.0000      -0.424574       -11.5533
  17   2.0000      -0.399187       -10.8624
  18   2.0000      -0.379244       -10.3198
  19   2.0000      -0.361926        -9.8485
  20   2.0000      -0.360642        -9.8136
  21   2.0000      -0.340093        -9.2544
  22   2.0000      -0.247584        -6.7371
  23   2.0000      -0.148809        -4.0493
  24   0.0000       0.040088         1.0909
  25   0.0000       0.075147         2.0448
  26   0.0000       0.084957         2.3118
  27   0.0000       0.095447         2.5972
  28   0.0000       0.108910         2.9636

MULLIKEN ATOMIC CHARGES
-----------------------
   0 C :    0.076066
   1 N :   -0.142547
   2 C :    0.059058
   3 C :   -0.072233
   4 N :   -0.031988
   5 C :   -0.075211
   6 H :   -0.079734
   7 H :   -0.064940
   8 H :    0.114221
   9 H :    0.097622
  10 H :    0.116192
  11 H :    0.000456
  12 H :    0.005118
  13 H :    0.002974
  14 H :   -0.007497
  15 H :    0.002444
Sum of atomic charges:   -0.0000000

LOEWDIN ATOMIC CHARGES
----------------------
   0 C :    0.034088
   1 N :   -0.021981
   2 C :   -0.057380
   3 C :    0.030526
   4 N :    0.003036
   5 C :   -0.268318
   6 H :   -0.015660
   7 H :   -0.017446
   8 H :    0.078018
   9 H :    0.062061
  10 H :    0.084714
  11 H :    0.016196
  12 H :    0.019699
  13 H :    0.021176
  14 H :    0.012708
  15 H :    0.018563

  Mayer bond orders larger than 0.100000
B(  0-C ,  1-N ) :   1.0206 B(  0-C ,  2-C ) :   1.0984 B(  0-C , 11-H ) :   0.9451
B(  0-C , 12-H ) :   0.9509 B(  1-N ,  3-C ) :   1.1940 B(  1-N ,  8-H ) :   0.9302
B(  2-C , 13-H ) :   0.9575 B(  2-C , 14-H ) :   0.9622 B(  2-C , 15-H ) :   0.9637
B(  3-C ,  4-N ) :   1.2628 B(  3-C ,  5-C ) :   1.7021 B(  4-N ,  9-H ) :   0.9405
B(  4-N , 10-H ) :   0.9398 B(  5-C ,  6-H ) :   0.9336 B(  5-C ,  7-H ) :   0.9390

Dispersion correction           -0.020936293
FINAL SINGLE POINT ENERGY      -267.549002713253

DIPOLE MOMENT
-------------
                                X             Y             Z
Electronic contribution:      1.13355       1.29705       2.18047
Nuclear contribution   :     -1.82946      -1.24287      -3.25410
                        -----------------------------------------
Total Dipole Moment    :     -0.69591       0.05418      -1.07363
                        -----------------------------------------
Magnitude (a.u.)       :      1.28059
Magnitude (Debye)      :      3.25500

Rotational constants in cm-1:     0.244672     0.074506     0.064043
Rotational constants in MHz :  7335.067153  2233.624025  1919.970379

                             ****ORCA TERMINATED NORMALLY****
TOTAL RUN TIME: 0 days 0 hours 0 minutes 15 seconds 229 msec
