                         Program Version 5.0.0 -  RELEASE  -
|  1> !B3LYP D3BJ RIJCOSX def2-TZVP def2/J TightSCF xyzfile
|  2>
|  3> *xyzfile 0 1 D2.xyz
|  4>
|  5> %MaxCore 64000
|  6>
|  7> %pal nprocs 18
|  8> end
|  9>
| 10> %scf
| 11>   MaxIter 150
| 12> end
| 13>
| 14>
| 15>                          ****END OF INPUT****

CARTESIAN COORDINATES (ANGSTROEM)
---------------------------------
  C      4.999862   -1.596133   -5.924876
  N      5.281560   -1.974132   -4.535764
  C      3.766779   -2.266110   -6.511752
  C      2.496702   -1.844161   -5.735704
  H      1.626416   -2.217434   -6.308950
  H      2.481824   -2.456069   -4.793414
  F      2.459729   -0.509204   -5.505757
  C      4.792500   -1.361316   -3.457295
  C      3.939898   -0.374925   -3.557359
  N      5.259860   -1.754224   -2.239133
  H      5.922824   -2.521451   -2.186720
  H      4.654678   -1.640404   -1.442016
  H      5.709139   -2.875599   -4.387021
  H      3.330101   -0.317639   -4.361247
  H      3.698494    0.114468   -2.708333
  H      4.843333   -0.517930   -5.943019
  H      5.901695   -1.822503   -6.496467
  H      3.886191   -3.357076   -6.533604
  H      3.685602   -1.922168   -7.547128

 Total Charge           Charge          ....    0
 Multiplicity           Mult            ....    1
 Number of Electrons    NEL             ....   64
 Basis Dimension        Dim             ....  314

ORBITAL ENERGIES
----------------

  NO   OCC          E(Eh)            E(eV)
   0   2.0000     -24.679213      -671.5555
   1   2.0000     -14.310924      -389.4200
   2   2.0000     -14.301101      -389.1527
   3   2.0000     -10.249165      -278.8939
   4   2.0000     -10.200332      -277.5651
   5   2.0000     -10.198303      -277.5099
   6   2.0000     -10.177617      -276.9470
   7   2.0000     -10.052832      -273.5515
   8   2.0000      -1.225215       -33.3398
   9   2.0000      -0.954577       -25.9753
  10   2.0000      -0.873047       -23.7568
  11   2.0000      -0.782722       -21.2990
  12   2.0000      -0.709098       -19.2955
  13   2.0000      -0.691107       -18.8060
  14   2.0000      -0.611954       -16.6521
  15   2.0000      -0.566681       -15.4202
  16   2.0000      -0.545692       -14.8490
  17   2.0000      -0.516894       -14.0654
  18   2.0000      -0.513751       -13.9799
  19   2.0000      -0.495107       -13.4726
  20   2.0000      -0.481865       -13.1122
  21   2.0000      -0.455609       -12.3978
  22   2.0000      -0.424556       -11.5528
  23   2.0000      -0.408106       -11.1051
  24   2.0000      -0.386053       -10.5050
  25   2.0000      -0.376738       -10.2515
  26   2.0000      -0.359877        -9.7928
  27   2.0000      -0.341814        -9.3012
  28   2.0000      -0.334635        -9.1059
  29   2.0000      -0.304657        -8.2901
  30   2.0000      -0.244887        -6.6637
  31   2.0000      -0.159931        -4.3520
  32   0.0000       0.019895         0.5414
  33   0.0000       0.045456         1.2369
  34   0.0000       0.061856         1.6832
  35   0.0000       0.070913         1.9296
  36   0.0000       0.082813         2.2535

MULLIKEN ATOMIC CHARGES
-----------------------
   0 C :   -0.101357
   1 N :   -0.338282
   2 C :   -0.152809
   3 C :    0.016798
   4 H :    0.101467
   5 H :    0.112591
   6 F :   -0.194361
   7 C :    0.399826
   8 C :   -0.580653
   9 N :   -0.492246
  10 H :    0.195531
  11 H :    0.229134
  12 H :    0.171152
  13 H :    0.161021
  14 H :    0.059796
  15 H :    0.138822
  16 H :    0.107838
  17 H :    0.082349
  18 H :    0.083384
Sum of atomic charges:   -0.0000000

LOEWDIN ATOMIC CHARGES
----------------------
   0 C :   -0.272413
   1 N :    0.111410
   2 C :   -0.274563
   3 C :   -0.352936
   4 H :    0.120287
   5 H :    0.131378
   6 F :    0.166972
   7 C :   -0.470864
   8 C :   -0.323194
   9 N :   -0.038570
  10 H :    0.152147
  11 H :    0.166080
  12 H :    0.166908
  13 H :    0.077425
  14 H :    0.095795
  15 H :    0.146053
  16 H :    0.128913
  17 H :    0.134052
  18 H :    0.135120

  Mayer bond orders larger than 0.100000
B(  0-C ,  1-N ) :   0.9182 B(  0-C ,  2-C ) :   0.9653 B(  0-C , 15-H ) :   0.9665
B(  0-C , 16-H ) :   0.9768 B(  1-N ,  7-C ) :   1.1290 B(  1-N , 12-H ) :   0.9263
B(  2-C ,  3-C ) :   0.9856 B(  2-C , 17-H ) :   0.9473 B(  2-C , 18-H ) :   0.9560
B(  3-C ,  4-H ) :   0.9626 B(  3-C ,  5-H ) :   0.9790 B(  3-C ,  6-F ) :   0.9572
B(  7-C ,  8-C ) :   1.6381 B(  7-C ,  9-N ) :   1.0488 B(  8-C , 13-H ) :   0.9720
B(  8-C , 14-H ) :   1.0135 B(  9-N , 10-H ) :   0.9347 B(  9-N , 11-H ) :   0.9242

Dispersion correction           -0.028894130
FINAL SINGLE POINT ENERGY      -406.375607549555

DIPOLE MOMENT
-------------
                                X             Y             Z
Electronic contribution:     -2.24711       2.67004      -0.11266
Nuclear contribution   :      2.43398      -4.26587      -0.19921
                        -----------------------------------------
Total Dipole Moment    :      0.18688      -1.59583      -0.31187
                        -----------------------------------------
Magnitude (a.u.)       :      1.63673
Magnitude (Debye)      :      4.16023

Rotational constants in cm-1:     0.110089     0.049944     0.039407
Rotational constants in MHz :  3300.378855  1497.273856  1181.385913

                             ****ORCA TERMINATED NORMALLY****
TOTAL RUN TIME: 0 days 0 hours 0 minutes 17 seconds 126 msec
