                         Program Version 5.0.0 -  RELEASE  -
|  1> !LC-BLYP RIJCOSX def2-SVPD def2/J TightSCF
|  2> *xyz -1 1
|  3> C         -0.29041        0.95134       -5.15342
|  4> C         -0.05517        1.61942       -3.78858
|  5> H          0.04501        0.86230       -3.00301
|  6> H         -0.92294        2.23033       -3.51703
|  7> C          1.22302        2.46987       -3.75691
|  8> H          1.11470        3.25807       -4.53300
|  9> H          1.23773        3.01124       -2.79216
| 10> O          2.35381        1.71203       -3.93448
| 11> H         -0.38575        1.70447       -5.90748
| 12> H         -1.18723        0.36894       -5.11561
| 13> H          0.53806        0.31571       -5.38692
| 14> *
| 15>
| 16> %MaxCore 64000
| 17>
| 18> %pal nprocs 4
| 19> end
| 20>
| 21> %scf
| 22>   MaxIter 150
| 23> end
| 24>
| 25>
| 26>                          ****END OF INPUT****

CARTESIAN COORDINATES (ANGSTROEM)
---------------------------------
  C     -0.290410    0.951340   -5.153420
  C     -0.055170    1.619420   -3.788580
  H      0.045010    0.862300   -3.003010
  H     -0.922940    2.230330   -3.517030
  C      1.223020    2.469870   -3.756910
  H      1.114700    3.258070   -4.533000
  H      1.237730    3.011240   -2.792160
  O      2.353810    1.712030   -3.934480
  H     -0.385750    1.704470   -5.907480
  H     -1.187230    0.368940   -5.115610
  H      0.538060    0.315710   -5.386920

 Total Charge           Charge          ....   -1
 Multiplicity           Mult            ....    1
 Number of Electrons    NEL             ....   34
 Basis Dimension        Dim             ....  139

ORBITAL ENERGIES
----------------

  NO   OCC          E(Eh)            E(eV)
   0   2.0000     -18.625836      -506.8348
   1   2.0000      -9.904644      -269.5191
   2   2.0000      -9.901890      -269.4441
   3   2.0000      -9.894905      -269.2541
   4   2.0000      -0.772893       -21.0315
   5   2.0000      -0.684744       -18.6328
   6   2.0000      -0.571301       -15.5459
   7   2.0000      -0.469960       -12.7883
   8   2.0000      -0.379824       -10.3355
   9   2.0000      -0.373729       -10.1697
  10   2.0000      -0.324649        -8.8341
  11   2.0000      -0.288385        -7.8473
  12   2.0000      -0.262587        -7.1454
  13   2.0000      -0.253336        -6.8936
  14   2.0000      -0.211239        -5.7481
  15   2.0000      -0.070183        -1.9098
  16   2.0000      -0.066991        -1.8229
  17   0.0000       0.215628         5.8675
  18   0.0000       0.240831         6.5533
  19   0.0000       0.257509         7.0072
  20   0.0000       0.291613         7.9352
  21   0.0000       0.308079         8.3833

MULLIKEN ATOMIC CHARGES
-----------------------
   0 C :    0.818664
   1 C :   -0.314970
   2 H :   -0.128767
   3 H :   -0.161260
   4 C :    0.406897
   5 H :   -0.155312
   6 H :   -0.224599
   7 O :   -0.808784
   8 H :   -0.147862
   9 H :   -0.177319
  10 H :   -0.106688
Sum of atomic charges:   -1.0000000

LOEWDIN ATOMIC CHARGES
----------------------
   0 C :    0.081691
   1 C :   -0.123631
   2 H :    0.007448
   3 H :   -0.008239
   4 C :   -0.245699
   5 H :   -0.020182
   6 H :   -0.025972
   7 O :   -0.557836
   8 H :   -0.032447
   9 H :   -0.045931
  10 H :   -0.029201

  Mayer bond orders larger than 0.100000
B(  0-C ,  1-C ) :   1.2578 B(  0-C ,  8-H ) :   0.7765 B(  0-C ,  9-H ) :   0.7433
B(  0-C , 10-H ) :   0.7991 B(  1-C ,  2-H ) :   0.9416 B(  1-C ,  3-H ) :   0.9733
B(  1-C ,  4-C ) :   1.0538 B(  1-C ,  5-H ) :   0.1262 B(  1-C ,  6-H ) :   0.1594
B(  1-C ,  8-H ) :   0.2024 B(  1-C ,  9-H ) :   0.2297 B(  1-C , 10-H ) :   0.2191
B(  2-H ,  4-C ) :   0.1531 B(  4-C ,  5-H ) :   0.9325 B(  4-C ,  6-H ) :   0.9322
B(  4-C ,  7-O ) :   1.2738

FINAL SINGLE POINT ENERGY      -193.110601926648

DIPOLE MOMENT
-------------
                                X             Y             Z
Electronic contribution:      2.79529       0.00383       0.71781
Nuclear contribution   :     -4.97104      -0.06484      -1.04325
                        -----------------------------------------
Total Dipole Moment    :     -2.17575      -0.06101      -0.32545
                        -----------------------------------------
Magnitude (a.u.)       :      2.20080
Magnitude (Debye)      :      5.59399

Rotational constants in cm-1:     0.508668     0.174500     0.148765
Rotational constants in MHz : 15249.486055  5231.367342  4459.875680

                             ****ORCA TERMINATED NORMALLY****
TOTAL RUN TIME: 0 days 0 hours 0 minutes 11 seconds 461 msec
