                         Program Version 5.0.0 -  RELEASE  -
|  1> !LC-BLYP RIJCOSX def2-SVPD def2/J TightSCF
|  2> *xyz 1 1
|  3> C          1.63556       -1.67040       -5.29211
|  4> C          0.33848       -1.50091       -4.50540
|  5> N          2.48451       -0.50741       -5.14039
|  6> C         -0.68487       -0.52803       -5.09989
|  7> H          1.39834       -1.82924       -6.35259
|  8> H          2.15586       -2.56540       -4.93209
|  9> C          3.45115       -0.14953       -5.95259
| 10> N          3.92267        1.08956       -5.85071
| 11> N          3.96616       -1.00618       -6.86788
| 12> H          3.52139       -1.90647       -6.99527
| 13> H          4.44482       -0.62347       -7.67035
| 14> H          2.25200        0.24080       -4.49879
| 15> H          3.46428        1.64078       -5.13639
| 16> H          4.83447        1.31375       -6.22465
| 17> H          0.59489       -1.21158       -3.48231
| 18> H         -0.12653       -2.48766       -4.43418
| 19> H         -0.92267       -0.82721       -6.09931
| 20> H         -0.27317        0.45953       -5.11162
| 21> H         -1.57350       -0.53693       -4.50394
| 22> *
| 23>
| 24> %MaxCore 64000
| 25>
| 26> %pal nprocs 4
| 27> end
| 28>
| 29> %scf
| 30>   MaxIter 150
| 31> end
| 32>
| 33>
| 34>                          ****END OF INPUT****

CARTESIAN COORDINATES (ANGSTROEM)
---------------------------------
  C      1.635560   -1.670400   -5.292110
  C      0.338480   -1.500910   -4.505400
  N      2.484510   -0.507410   -5.140390
  C     -0.684870   -0.528030   -5.099890
  H      1.398340   -1.829240   -6.352590
  H      2.155860   -2.565400   -4.932090
  C      3.451150   -0.149530   -5.952590
  N      3.922670    1.089560   -5.850710
  N      3.966160   -1.006180   -6.867880
  H      3.521390   -1.906470   -6.995270
  H      4.444820   -0.623470   -7.670350
  H      2.252000    0.240800   -4.498790
  H      3.464280    1.640780   -5.136390
  H      4.834470    1.313750   -6.224650
  H      0.594890   -1.211580   -3.482310
  H     -0.126530   -2.487660   -4.434180
  H     -0.922670   -0.827210   -6.099310
  H     -0.273170    0.459530   -5.111620
  H     -1.573500   -0.536930   -4.503940

 Total Charge           Charge          ....    1
 Multiplicity           Mult            ....    1
 Number of Electrons    NEL             ....   56
 Basis Dimension        Dim             ....  236

ORBITAL ENERGIES
----------------

  NO   OCC          E(Eh)            E(eV)
   0   2.0000     -14.414101      -392.2276
   1   2.0000     -14.410667      -392.1342
   2   2.0000     -14.409069      -392.0907
   3   2.0000     -10.420413      -283.5538
   4   2.0000     -10.289443      -279.9900
   5   2.0000     -10.230407      -278.3835
   6   2.0000     -10.199804      -277.5508
   7   2.0000      -1.313082       -35.7308
   8   2.0000      -1.199739       -32.6466
   9   2.0000      -1.186048       -32.2740
  10   2.0000      -1.048135       -28.5212
  11   2.0000      -0.964243       -26.2384
  12   2.0000      -0.927947       -25.2507
  13   2.0000      -0.887876       -24.1603
  14   2.0000      -0.870651       -23.6916
  15   2.0000      -0.835373       -22.7317
  16   2.0000      -0.792005       -21.5515
  17   2.0000      -0.784919       -21.3587
  18   2.0000      -0.765331       -20.8257
  19   2.0000      -0.747468       -20.3396
  20   2.0000      -0.702522       -19.1166
  21   2.0000      -0.679084       -18.4788
  22   2.0000      -0.656752       -17.8711
  23   2.0000      -0.602038       -16.3823
  24   2.0000      -0.585157       -15.9229
  25   2.0000      -0.581814       -15.8320
  26   2.0000      -0.575820       -15.6689
  27   2.0000      -0.547076       -14.8867
  28   0.0000      -0.094413        -2.5691
  29   0.0000      -0.092454        -2.5158
  30   0.0000      -0.065838        -1.7915
  31   0.0000      -0.047921        -1.3040
  32   0.0000      -0.028103        -0.7647

MULLIKEN ATOMIC CHARGES
-----------------------
   0 C :    0.535999
   1 C :   -0.068838
   2 N :   -0.287688
   3 C :    1.002724
   4 H :   -0.055340
   5 H :   -0.220831
   6 C :    0.823777
   7 N :    0.217795
   8 N :    0.160941
   9 H :   -0.045735
  10 H :   -0.115672
  11 H :   -0.127195
  12 H :   -0.007849
  13 H :   -0.142501
  14 H :   -0.145509
  15 H :   -0.158231
  16 H :   -0.084225
  17 H :   -0.144410
  18 H :   -0.137211
Sum of atomic charges:    1.0000000

LOEWDIN ATOMIC CHARGES
----------------------
   0 C :    0.039846
   1 C :   -0.064870
   2 N :    0.058718
   3 C :    0.133372
   4 H :    0.043988
   5 H :    0.047957
   6 C :   -0.062800
   7 N :    0.274063
   8 N :    0.292652
   9 H :    0.014598
  10 H :    0.036083
  11 H :    0.052988
  12 H :    0.033176
  13 H :    0.044511
  14 H :    0.034950
  15 H :    0.042046
  16 H :   -0.004458
  17 H :   -0.019603
  18 H :    0.002785

  Mayer bond orders larger than 0.100000
B(  0-C ,  1-C ) :   1.2076 B(  0-C ,  2-N ) :   1.0702 B(  0-C ,  4-H ) :   0.7727
B(  0-C ,  5-H ) :   0.8837 B(  0-C , 11-H ) :  -0.1307 B(  0-C , 14-H ) :   0.1660
B(  0-C , 15-H ) :   0.2482 B(  1-C ,  2-N ) :   0.1166 B(  1-C ,  3-C ) :   1.2687
B(  1-C , 14-H ) :   0.8214 B(  1-C , 15-H ) :   0.7862 B(  1-C , 16-H ) :   0.2118
B(  1-C , 17-H ) :   0.2525 B(  1-C , 18-H ) :   0.2728 B(  2-N ,  4-H ) :   0.1765
B(  2-N ,  5-H ) :   0.1193 B(  2-N ,  6-C ) :   1.1576 B(  2-N ,  7-N ) :   0.3063
B(  2-N ,  8-N ) :   0.2263 B(  2-N , 11-H ) :   1.1400 B(  3-C , 16-H ) :   0.7503
B(  3-C , 17-H ) :   0.7404 B(  3-C , 18-H ) :   0.6984 B(  6-C ,  7-N ) :   1.0512
B(  6-C ,  8-N ) :   1.0390 B(  6-C ,  9-H ) :  -0.1283 B(  6-C , 10-H ) :  -0.1177
B(  6-C , 11-H ) :  -0.2628 B(  6-C , 13-H ) :  -0.1069 B(  7-N ,  8-N ) :   0.1473
B(  7-N , 12-H ) :   1.0717 B(  7-N , 13-H ) :   1.2123 B(  8-N ,  9-H ) :   1.0504
B(  8-N , 10-H ) :   1.2077 B(  9-H , 10-H ) :  -0.1620 B( 12-H , 13-H ) :  -0.1543

FINAL SINGLE POINT ENERGY      -322.646916458007

DIPOLE MOMENT
-------------
                                X             Y             Z
Electronic contribution:      7.35009       1.74005      -1.59983
Nuclear contribution   :     -5.91327      -1.13589       1.03073
                        -----------------------------------------
Total Dipole Moment    :      1.43682       0.60417      -0.56910
                        -----------------------------------------
Magnitude (a.u.)       :      1.65932
Magnitude (Debye)      :      4.21767

Rotational constants in cm-1:     0.176161     0.043658     0.038822
Rotational constants in MHz :  5281.161077  1308.843263  1163.840625

                             ****ORCA TERMINATED NORMALLY****
TOTAL RUN TIME: 0 days 0 hours 0 minutes 37 seconds 530 msec
