                         Program Version 5.0.0 -  RELEASE  -
|  1> !LC-BLYP RIJCOSX def2-SVPD def2/J TightSCF xyzfile
|  2>
|  3> *xyzfile 0 1 B.xyz
|  4>
|  5> %MaxCore 64000
|  6>
|  7> %pal nprocs 4
|  8> end
|  9>
| 10> %scf
| 11>   MaxIter 150
| 12> end
| 13>
| 14>
| 15>                          ****END OF INPUT****

CARTESIAN COORDINATES (ANGSTROEM)
---------------------------------
  C      1.635557   -1.670396   -5.292109
  C      0.338484   -1.500907   -4.505398
  N      2.484511   -0.507410   -5.140392
  C     -0.684873   -0.528026   -5.099889
  C     -0.290406    0.951335   -5.153423
  H      0.607991    1.070692   -5.764412
  C     -0.055168    1.619420   -3.788577
  H     -1.080912    1.483775   -5.689436
  H      0.045006    0.862302   -3.003015
  H     -0.922936    2.230329   -3.517028
  C      1.223022    2.469865   -3.756911
  H      1.114701    3.258074   -4.532999
  H      1.237732    3.011242   -2.792157
  O      2.353815    1.712032   -3.934477
  H      1.398337   -1.829239   -6.352591
  H      2.155864   -2.565398   -4.932091
  C      3.451149   -0.149530   -5.952589
  N      3.922667    1.089559   -5.850711
  N      3.966162   -1.006183   -6.867880
  H      3.521391   -1.906467   -6.995270
  H      4.444824   -0.623472   -7.670348
  H      2.251995    0.240804   -4.498792
  H      3.464277    1.640782   -5.136392
  H      4.834470    1.313745   -6.224653
  H     -0.937999   -0.869056   -6.110838
  H     -1.604638   -0.622496   -4.513132
  H      0.594887   -1.211578   -3.482312
  H     -0.126530   -2.487656   -4.434176

 Total Charge           Charge          ....    0
 Multiplicity           Mult            ....    1
 Number of Electrons    NEL             ....   88
 Basis Dimension        Dim             ....  359

ORBITAL ENERGIES
----------------

  NO   OCC          E(Eh)            E(eV)
   0   2.0000     -18.823691      -512.2187
   1   2.0000     -14.247756      -387.7011
   2   2.0000     -14.203719      -386.5028
   3   2.0000     -14.201788      -386.4503
   4   2.0000     -10.233993      -278.4811
   5   2.0000     -10.136794      -275.8362
   6   2.0000     -10.088652      -274.5262
   7   2.0000     -10.075643      -274.1722
   8   2.0000     -10.063619      -273.8450
   9   2.0000     -10.057225      -273.6710
  10   2.0000     -10.039190      -273.1802
  11   2.0000      -1.126785       -30.6614
  12   2.0000      -1.021927       -27.8080
  13   2.0000      -1.001939       -27.2641
  14   2.0000      -0.968449       -26.3528
  15   2.0000      -0.904695       -24.6180
  16   2.0000      -0.850317       -23.1383
  17   2.0000      -0.794337       -21.6150
  18   2.0000      -0.756620       -20.5887
  19   2.0000      -0.731968       -19.9179
  20   2.0000      -0.705708       -19.2033
  21   2.0000      -0.682937       -18.5837
  22   2.0000      -0.667239       -18.1565
  23   2.0000      -0.631064       -17.1721
  24   2.0000      -0.612471       -16.6662
  25   2.0000      -0.605571       -16.4784
  26   2.0000      -0.594235       -16.1699
  27   2.0000      -0.583813       -15.8864
  28   2.0000      -0.548426       -14.9234
  29   2.0000      -0.531988       -14.4761
  30   2.0000      -0.522850       -14.2275
  31   2.0000      -0.515051       -14.0152
  32   2.0000      -0.487825       -13.2744
  33   2.0000      -0.467675       -12.7261
  34   2.0000      -0.459524       -12.5043
  35   2.0000      -0.438172       -11.9233
  36   2.0000      -0.418651       -11.3921
  37   2.0000      -0.412068       -11.2130
  38   2.0000      -0.403897       -10.9906
  39   2.0000      -0.394703       -10.7404
  40   2.0000      -0.388043       -10.5592
  41   2.0000      -0.358960        -9.7678
  42   2.0000      -0.275294        -7.4911
  43   2.0000      -0.267959        -7.2915
  44   0.0000       0.046959         1.2778
  45   0.0000       0.074754         2.0342
  46   0.0000       0.082502         2.2450
  47   0.0000       0.091120         2.4795
  48   0.0000       0.099433         2.7057

MULLIKEN ATOMIC CHARGES
-----------------------
   0 C :    0.789333
   1 C :    0.348120
   2 N :    0.329379
   3 C :    0.346295
   4 C :    0.389512
   5 H :   -0.113739
   6 C :    0.243111
   7 H :   -0.352707
   8 H :   -0.132848
   9 H :   -0.317343
  10 C :    0.894666
  11 H :   -0.198217
  12 H :   -0.231282
  13 O :   -0.971427
  14 H :   -0.044348
  15 H :   -0.303575
  16 C :    0.682974
  17 N :    0.580891
  18 N :    0.221929
  19 H :   -0.089574
  20 H :   -0.144120
  21 H :   -0.824525
  22 H :   -0.261239
  23 H :   -0.268640
  24 H :    0.002778
  25 H :   -0.213104
  26 H :   -0.073151
  27 H :   -0.289147
Sum of atomic charges:    0.0000000

LOEWDIN ATOMIC CHARGES
----------------------
   0 C :    0.040321
   1 C :   -0.027812
   2 N :    0.080293
   3 C :   -0.041331
   4 C :   -0.037229
   5 H :    0.008644
   6 C :   -0.033117
   7 H :    0.020930
   8 H :    0.012424
   9 H :    0.019359
  10 C :   -0.090187
  11 H :    0.018763
  12 H :    0.013305
  13 O :   -0.414796
  14 H :    0.027906
  15 H :    0.030161
  16 C :   -0.069152
  17 N :    0.280069
  18 N :    0.255007
  19 H :   -0.009750
  20 H :    0.010024
  21 H :   -0.108457
  22 H :   -0.108010
  23 H :    0.016778
  24 H :    0.023115
  25 H :    0.028364
  26 H :    0.026871
  27 H :    0.027508

  Mayer bond orders larger than 0.100000
B(  0-C ,  1-C ) :   1.2014 B(  0-C ,  2-N ) :   1.0123 B(  0-C ,  3-C ) :   0.1007
B(  0-C , 14-H ) :   0.6905 B(  0-C , 15-H ) :   0.8004 B(  0-C , 21-H ) :  -0.2254
B(  0-C , 26-H ) :   0.1548 B(  0-C , 27-H ) :   0.2400 B(  1-C ,  2-N ) :   0.1230
B(  1-C ,  3-C ) :   1.2157 B(  1-C ,  4-C ) :   0.1248 B(  1-C , 24-H ) :   0.1717
B(  1-C , 25-H ) :   0.2208 B(  1-C , 26-H ) :   0.7184 B(  1-C , 27-H ) :   0.6928
B(  2-N , 14-H ) :   0.3195 B(  2-N , 15-H ) :   0.1394 B(  2-N , 16-C ) :   1.3627
B(  2-N , 17-N ) :   0.1247 B(  2-N , 18-N ) :   0.1404 B(  2-N , 21-H ) :   0.9194
B(  3-C ,  4-C ) :   1.2707 B(  3-C ,  5-H ) :   0.1840 B(  3-C ,  7-H ) :   0.1411
B(  3-C , 24-H ) :   0.6133 B(  3-C , 25-H ) :   0.7676 B(  3-C , 26-H ) :   0.1800
B(  3-C , 27-H ) :   0.1480 B(  4-C ,  5-H ) :   0.7385 B(  4-C ,  6-C ) :   1.1848
B(  4-C ,  7-H ) :   0.6788 B(  4-C ,  8-H ) :   0.1316 B(  4-C ,  9-H ) :   0.2018
B(  4-C , 10-C ) :   0.1268 B(  4-C , 24-H ) :   0.2650 B(  4-C , 25-H ) :   0.1126
B(  5-H ,  6-C ) :   0.1531 B(  5-H ,  7-H ) :  -0.1121 B(  5-H , 13-O ) :   0.1193
B(  6-C ,  7-H ) :   0.1066 B(  6-C ,  8-H ) :   0.7907 B(  6-C ,  9-H ) :   0.8717
B(  6-C , 10-C ) :   1.0624 B(  6-C , 11-H ) :   0.1088 B(  6-C , 12-H ) :   0.2385
B(  8-H ,  9-H ) :  -0.1315 B( 10-C , 11-H ) :   0.7856 B( 10-C , 12-H ) :   0.7599
B( 10-C , 13-O ) :   1.0903 B( 11-H , 13-O ) :   0.2573 B( 13-O , 21-H ) :   0.4659
B( 13-O , 22-H ) :   0.3409 B( 14-H , 25-H ) :  -0.1156 B( 16-C , 17-N ) :   0.9994
B( 16-C , 18-N ) :   0.9945 B( 16-C , 19-H ) :  -0.1151 B( 16-C , 21-H ) :  -0.5665
B( 16-C , 22-H ) :  -0.1486 B( 16-C , 23-H ) :  -0.1197 B( 17-N , 18-N ) :   0.1284
B( 17-N , 22-H ) :   1.0569 B( 17-N , 23-H ) :   1.2389 B( 18-N , 19-H ) :   1.0642
B( 18-N , 20-H ) :   1.2180 B( 19-H , 20-H ) :  -0.1648 B( 22-H , 23-H ) :  -0.1909
B( 24-H , 25-H ) :  -0.1295

FINAL SINGLE POINT ENERGY      -514.804135600002

DIPOLE MOMENT
-------------
                                X             Y             Z
Electronic contribution:      8.29910      -0.91787      -2.25530
Nuclear contribution   :     -7.46499      -1.05836       0.01518
                        -----------------------------------------
Total Dipole Moment    :      0.83410      -1.97623      -2.24012
                        -----------------------------------------
Magnitude (a.u.)       :      3.10151
Magnitude (Debye)      :      7.88341

Rotational constants in cm-1:     0.044680     0.028958     0.019773
Rotational constants in MHz :  1339.486245   868.136755   592.791310

                             ****ORCA TERMINATED NORMALLY****
TOTAL RUN TIME: 0 days 0 hours 2 minutes 15 seconds 337 msec
