                         Program Version 5.0.0 -  RELEASE  -
|  1> !LC-BLYP RIJCOSX def2-SVPD def2/J TightSCF
|  2> *xyz 0 1
|  3> C         -0.29041        0.95134       -5.15342
|  4> C         -0.05517        1.61942       -3.78858
|  5> H          0.04501        0.86230       -3.00301
|  6> H         -0.92294        2.23033       -3.51703
|  7> C          1.22302        2.46987       -3.75691
|  8> H          1.11470        3.25807       -4.53300
|  9> H          1.23773        3.01124       -2.79216
| 10> F          2.35381        1.71203       -3.93448
| 11> H         -0.38575        1.70447       -5.90748
| 12> H         -1.18723        0.36894       -5.11561
| 13> H          0.53806        0.31571       -5.38692
| 14> *
| 15>
| 16> %MaxCore 64000
| 17>
| 18> %pal nprocs 4
| 19> end
| 20>
| 21> %scf
| 22>   MaxIter 150
| 23> end
| 24>
| 25>
| 26>                          ****END OF INPUT****

CARTESIAN COORDINATES (ANGSTROEM)
---------------------------------
  C     -0.290410    0.951340   -5.153420
  C     -0.055170    1.619420   -3.788580
  H      0.045010    0.862300   -3.003010
  H     -0.922940    2.230330   -3.517030
  C      1.223020    2.469870   -3.756910
  H      1.114700    3.258070   -4.533000
  H      1.237730    3.011240   -2.792160
  F      2.353810    1.712030   -3.934480
  H     -0.385750    1.704470   -5.907480
  H     -1.187230    0.368940   -5.115610
  H      0.538060    0.315710   -5.386920

 Total Charge           Charge          ....    0
 Multiplicity           Mult            ....    1
 Number of Electrons    NEL             ....   34
 Basis Dimension        Dim             ....  139

ORBITAL ENERGIES
----------------

  NO   OCC          E(Eh)            E(eV)
   0   2.0000     -24.464224      -665.7054
   1   2.0000     -10.163576      -276.5650
   2   2.0000     -10.092894      -274.6416
   3   2.0000     -10.073411      -274.1115
   4   2.0000      -1.264693       -34.4140
   5   2.0000      -0.893534       -24.3143
   6   2.0000      -0.793365       -21.5886
   7   2.0000      -0.702536       -19.1170
   8   2.0000      -0.617525       -16.8037
   9   2.0000      -0.601853       -16.3773
  10   2.0000      -0.575057       -15.6481
  11   2.0000      -0.539499       -14.6805
  12   2.0000      -0.502429       -13.6718
  13   2.0000      -0.478543       -13.0218
  14   2.0000      -0.451684       -12.2909
  15   2.0000      -0.426670       -11.6103
  16   2.0000      -0.425885       -11.5889
  17   0.0000       0.074012         2.0140
  18   0.0000       0.098868         2.6903
  19   0.0000       0.107676         2.9300
  20   0.0000       0.126005         3.4288
  21   0.0000       0.152378         4.1464

MULLIKEN ATOMIC CHARGES
-----------------------
   0 C :    0.855794
   1 C :   -0.269570
   2 H :   -0.144634
   3 H :   -0.151367
   4 C :    0.740525
   5 H :   -0.096456
   6 H :   -0.161301
   7 F :   -0.369173
   8 H :   -0.133942
   9 H :   -0.153437
  10 H :   -0.116439
Sum of atomic charges:    0.0000000

LOEWDIN ATOMIC CHARGES
----------------------
   0 C :    0.115212
   1 C :   -0.075774
   2 H :    0.028580
   3 H :    0.029700
   4 C :    0.064391
   5 H :    0.040017
   6 H :    0.035121
   7 F :   -0.193181
   8 H :   -0.014852
   9 H :   -0.016209
  10 H :   -0.013006

  Mayer bond orders larger than 0.100000
B(  0-C ,  1-C ) :   1.2926 B(  0-C ,  8-H ) :   0.7676 B(  0-C ,  9-H ) :   0.7632
B(  0-C , 10-H ) :   0.7839 B(  1-C ,  2-H ) :   0.9256 B(  1-C ,  3-H ) :   0.9366
B(  1-C ,  4-C ) :   1.1851 B(  1-C ,  5-H ) :   0.1012 B(  1-C ,  6-H ) :   0.1298
B(  1-C ,  8-H ) :   0.1907 B(  1-C ,  9-H ) :   0.2187 B(  1-C , 10-H ) :   0.2033
B(  2-H ,  4-C ) :   0.1134 B(  4-C ,  5-H ) :   0.8912 B(  4-C ,  6-H ) :   0.8868
B(  4-C ,  7-F ) :   0.8468

FINAL SINGLE POINT ENERGY      -217.707653028795

DIPOLE MOMENT
-------------
                                X             Y             Z
Electronic contribution:      6.14838       0.40647       1.40991
Nuclear contribution   :     -6.82889      -0.09322      -1.32039
                        -----------------------------------------
Total Dipole Moment    :     -0.68050       0.31326       0.08952
                        -----------------------------------------
Magnitude (a.u.)       :      0.75447
Magnitude (Debye)      :      1.91772

Rotational constants in cm-1:     0.494282     0.164406     0.140369
Rotational constants in MHz : 14818.207649  4928.760399  4208.156468

                             ****ORCA TERMINATED NORMALLY****
TOTAL RUN TIME: 0 days 0 hours 0 minutes 9 seconds 147 msec
