                         Program Version 5.0.0 -  RELEASE  -
|  1> !LC-BLYP RIJCOSX def2-SVPD def2/J TightSCF
|  2> *xyz 0 1
|  3> C          1.63556       -1.67040       -5.29211
|  4> C          0.33848       -1.50091       -4.50540
|  5> C          2.48451       -0.50741       -5.14039
|  6> C         -0.68487       -0.52803       -5.09989
|  7> H          1.39834       -1.82924       -6.35259
|  8> H          2.15586       -2.56540       -4.93209
|  9> C          3.45115       -0.14953       -5.95259
| 10> N          3.92267        1.08956       -5.85071
| 11> N          3.96616       -1.00618       -6.86788
| 12> H          3.52139       -1.90647       -6.99527
| 13> H          4.44482       -0.62347       -7.67035
| 14> H          2.25200        0.24080       -4.49879
| 15> H          3.46428        1.64078       -5.13639
| 16> H          4.83447        1.31375       -6.22465
| 17> H          0.59489       -1.21158       -3.48231
| 18> H         -0.12653       -2.48766       -4.43418
| 19> H         -0.92267       -0.82721       -6.09931
| 20> H         -0.27317        0.45953       -5.11162
| 21> H         -1.57350       -0.53693       -4.50394
| 22> *
| 23>
| 24> %MaxCore 64000
| 25>
| 26> %pal nprocs 4
| 27> end
| 28>
| 29> %scf
| 30>   MaxIter 150
| 31> end
| 32>
| 33>
| 34>                          ****END OF INPUT****

CARTESIAN COORDINATES (ANGSTROEM)
---------------------------------
  C      1.635560   -1.670400   -5.292110
  C      0.338480   -1.500910   -4.505400
  C      2.484510   -0.507410   -5.140390
  C     -0.684870   -0.528030   -5.099890
  H      1.398340   -1.829240   -6.352590
  H      2.155860   -2.565400   -4.932090
  C      3.451150   -0.149530   -5.952590
  N      3.922670    1.089560   -5.850710
  N      3.966160   -1.006180   -6.867880
  H      3.521390   -1.906470   -6.995270
  H      4.444820   -0.623470   -7.670350
  H      2.252000    0.240800   -4.498790
  H      3.464280    1.640780   -5.136390
  H      4.834470    1.313750   -6.224650
  H      0.594890   -1.211580   -3.482310
  H     -0.126530   -2.487660   -4.434180
  H     -0.922670   -0.827210   -6.099310
  H     -0.273170    0.459530   -5.111620
  H     -1.573500   -0.536930   -4.503940

 Total Charge           Charge          ....    0
 Multiplicity           Mult            ....    1
 Number of Electrons    NEL             ....   56
 Basis Dimension        Dim             ....  236

ORBITAL ENERGIES
----------------

  NO   OCC          E(Eh)            E(eV)
   0   2.0000     -14.190134      -386.1332
   1   2.0000     -14.184484      -385.9794
   2   2.0000     -10.126761      -275.5632
   3   2.0000     -10.065604      -273.8990
   4   2.0000     -10.061671      -273.7920
   5   2.0000     -10.056278      -273.6452
   6   2.0000     -10.009863      -272.3822
   7   2.0000      -1.052801       -28.6482
   8   2.0000      -0.963794       -26.2262
   9   2.0000      -0.892629       -24.2897
  10   2.0000      -0.827028       -22.5046
  11   2.0000      -0.763342       -20.7716
  12   2.0000      -0.696885       -18.9632
  13   2.0000      -0.676005       -18.3950
  14   2.0000      -0.638699       -17.3799
  15   2.0000      -0.618242       -16.8232
  16   2.0000      -0.568462       -15.4686
  17   2.0000      -0.549271       -14.9464
  18   2.0000      -0.544036       -14.8040
  19   2.0000      -0.519322       -14.1315
  20   2.0000      -0.491128       -13.3643
  21   2.0000      -0.479209       -13.0399
  22   2.0000      -0.464441       -12.6381
  23   2.0000      -0.427331       -11.6283
  24   2.0000      -0.416118       -11.3231
  25   2.0000      -0.410487       -11.1699
  26   2.0000      -0.365738        -9.9522
  27   2.0000      -0.257606        -7.0098
  28   0.0000       0.072409         1.9704
  29   0.0000       0.093029         2.5315
  30   0.0000       0.095901         2.6096
  31   0.0000       0.113390         3.0855
  32   0.0000       0.123976         3.3735

MULLIKEN ATOMIC CHARGES
-----------------------
   0 C :    0.352338
   1 C :    0.075171
   2 C :   -0.049093
   3 C :    1.004535
   4 H :   -0.116325
   5 H :   -0.226276
   6 C :    0.296701
   7 N :    0.233988
   8 N :    0.123076
   9 H :   -0.040011
  10 H :   -0.200057
  11 H :   -0.569700
  12 H :    0.046923
  13 H :   -0.252323
  14 H :   -0.094657
  15 H :   -0.185480
  16 H :   -0.105250
  17 H :   -0.148350
  18 H :   -0.145209
Sum of atomic charges:   -0.0000000

LOEWDIN ATOMIC CHARGES
----------------------
   0 C :   -0.087288
   1 C :   -0.096247
   2 C :   -0.040979
   3 C :    0.114923
   4 H :    0.023950
   5 H :    0.024917
   6 C :   -0.245609
   7 N :    0.187152
   8 N :    0.216526
   9 H :   -0.017163
  10 H :   -0.013177
  11 H :   -0.047113
  12 H :    0.000285
  13 H :   -0.008168
  14 H :    0.025597
  15 H :    0.017642
  16 H :   -0.016005
  17 H :   -0.021196
  18 H :   -0.018046

  Mayer bond orders larger than 0.100000
B(  0-C ,  1-C ) :   1.2098 B(  0-C ,  2-C ) :   0.9325 B(  0-C ,  4-H ) :   0.7528
B(  0-C ,  5-H ) :   0.6882 B(  0-C , 11-H ) :   0.3279 B(  0-C , 14-H ) :   0.2001
B(  0-C , 15-H ) :   0.3036 B(  1-C ,  2-C ) :   0.2665 B(  1-C ,  3-C ) :   1.2473
B(  1-C , 11-H ) :  -0.1131 B(  1-C , 14-H ) :   0.7975 B(  1-C , 15-H ) :   0.6986
B(  1-C , 16-H ) :   0.2142 B(  1-C , 17-H ) :   0.2598 B(  1-C , 18-H ) :   0.2709
B(  2-C ,  4-H ) :   0.1904 B(  2-C ,  5-H ) :   0.2965 B(  2-C ,  6-C ) :   1.5757
B(  2-C ,  7-N ) :   0.3785 B(  2-C ,  8-N ) :   0.2603 B(  2-C ,  9-H ) :  -0.1218
B(  2-C , 11-H ) :   0.6489 B(  2-C , 12-H ) :  -0.1075 B(  3-C , 16-H ) :   0.7571
B(  3-C , 17-H ) :   0.7537 B(  3-C , 18-H ) :   0.6800 B(  4-H , 11-H ) :   0.1332
B(  6-C ,  7-N ) :   1.0127 B(  6-C ,  8-N ) :   1.0637 B(  7-N ,  8-N ) :   0.1029
B(  7-N , 12-H ) :   1.0435 B(  7-N , 13-H ) :   1.2119 B(  8-N ,  9-H ) :   1.0591
B(  8-N , 10-H ) :   1.1915 B(  9-H , 10-H ) :  -0.1398 B( 12-H , 13-H ) :  -0.1558

FINAL SINGLE POINT ENERGY      -306.182834230014

DIPOLE MOMENT
-------------
                                X             Y             Z
Electronic contribution:      6.36350       1.41505      -1.64725
Nuclear contribution   :     -5.84539      -1.11717       1.11949
                        -----------------------------------------
Total Dipole Moment    :      0.51811       0.29788      -0.52776
                        -----------------------------------------
Magnitude (a.u.)       :      0.79730
Magnitude (Debye)      :      2.02659

Rotational constants in cm-1:     0.177055     0.043715     0.038831
Rotational constants in MHz :  5307.971484  1310.555422  1164.112547

                             ****ORCA TERMINATED NORMALLY****
TOTAL RUN TIME: 0 days 0 hours 0 minutes 37 seconds 676 msec
