                         Program Version 5.0.0 -  RELEASE  -
|  1> !LC-BLYP RIJCOSX def2-SVPD def2/J TightSCF
|  2> *xyz 0 1
|  3> C          1.63556       -1.67040       -5.29211
|  4> C          0.33848       -1.50091       -4.50540
|  5> N          2.48451       -0.50741       -5.14039
|  6> C         -0.68487       -0.52803       -5.09989
|  7> H          1.39834       -1.82924       -6.35259
|  8> H          2.15586       -2.56540       -4.93209
|  9> C          3.45115       -0.14953       -5.95259
| 10> C          3.92267        1.08956       -5.85071
| 11> N          3.96616       -1.00618       -6.86788
| 12> H          3.52139       -1.90647       -6.99527
| 13> H          4.44482       -0.62347       -7.67035
| 14> H          2.25200        0.24080       -4.49879
| 15> H          3.46428        1.64078       -5.13639
| 16> H          4.83447        1.31375       -6.22465
| 17> H          0.59489       -1.21158       -3.48231
| 18> H         -0.12653       -2.48766       -4.43418
| 19> H         -0.92267       -0.82721       -6.09931
| 20> H         -0.27317        0.45953       -5.11162
| 21> H         -1.57350       -0.53693       -4.50394
| 22> *
| 23>
| 24> %MaxCore 64000
| 25>
| 26> %pal nprocs 4
| 27> end
| 28>
| 29> %scf
| 30>   MaxIter 150
| 31> end
| 32>
| 33>
| 34>                          ****END OF INPUT****

CARTESIAN COORDINATES (ANGSTROEM)
---------------------------------
  C      1.635560   -1.670400   -5.292110
  C      0.338480   -1.500910   -4.505400
  N      2.484510   -0.507410   -5.140390
  C     -0.684870   -0.528030   -5.099890
  H      1.398340   -1.829240   -6.352590
  H      2.155860   -2.565400   -4.932090
  C      3.451150   -0.149530   -5.952590
  C      3.922670    1.089560   -5.850710
  N      3.966160   -1.006180   -6.867880
  H      3.521390   -1.906470   -6.995270
  H      4.444820   -0.623470   -7.670350
  H      2.252000    0.240800   -4.498790
  H      3.464280    1.640780   -5.136390
  H      4.834470    1.313750   -6.224650
  H      0.594890   -1.211580   -3.482310
  H     -0.126530   -2.487660   -4.434180
  H     -0.922670   -0.827210   -6.099310
  H     -0.273170    0.459530   -5.111620
  H     -1.573500   -0.536930   -4.503940

 Total Charge           Charge          ....    0
 Multiplicity           Mult            ....    1
 Number of Electrons    NEL             ....   56
 Basis Dimension        Dim             ....  236

ORBITAL ENERGIES
----------------

  NO   OCC          E(Eh)            E(eV)
   0   2.0000     -14.188130      -386.0786
   1   2.0000     -14.187892      -386.0722
   2   2.0000     -10.131161      -275.6829
   3   2.0000     -10.124889      -275.5122
   4   2.0000     -10.095593      -274.7150
   5   2.0000     -10.077851      -274.2323
   6   2.0000      -9.995211      -271.9835
   7   2.0000      -1.065247       -28.9868
   8   2.0000      -0.978117       -26.6159
   9   2.0000      -0.899426       -24.4746
  10   2.0000      -0.831893       -22.6370
  11   2.0000      -0.773750       -21.0548
  12   2.0000      -0.711273       -19.3547
  13   2.0000      -0.696211       -18.9449
  14   2.0000      -0.642779       -17.4909
  15   2.0000      -0.604229       -16.4419
  16   2.0000      -0.580283       -15.7903
  17   2.0000      -0.570483       -15.5236
  18   2.0000      -0.549945       -14.9648
  19   2.0000      -0.520835       -14.1727
  20   2.0000      -0.496969       -13.5232
  21   2.0000      -0.486001       -13.2248
  22   2.0000      -0.475585       -12.9413
  23   2.0000      -0.455876       -12.4050
  24   2.0000      -0.448323       -12.1995
  25   2.0000      -0.441781       -12.0215
  26   2.0000      -0.357304        -9.7227
  27   2.0000      -0.256133        -6.9697
  28   0.0000       0.066912         1.8208
  29   0.0000       0.084834         2.3085
  30   0.0000       0.093392         2.5413
  31   0.0000       0.102994         2.8026
  32   0.0000       0.125641         3.4189

MULLIKEN ATOMIC CHARGES
-----------------------
   0 C :    0.545271
   1 C :   -0.069469
   2 N :   -0.186596
   3 C :    0.984561
   4 H :   -0.108236
   5 H :   -0.291435
   6 C :    0.337346
   7 C :    0.629228
   8 N :    0.224617
   9 H :   -0.170247
  10 H :   -0.102444
  11 H :   -0.142057
  12 H :   -0.332837
  13 H :   -0.589383
  14 H :   -0.158698
  15 H :   -0.181487
  16 H :   -0.092262
  17 H :   -0.137229
  18 H :   -0.158642
Sum of atomic charges:    0.0000000

LOEWDIN ATOMIC CHARGES
----------------------
   0 C :    0.010723
   1 C :   -0.082393
   2 N :   -0.002856
   3 C :    0.118703
   4 H :    0.027162
   5 H :    0.025958
   6 C :   -0.250191
   7 C :    0.132535
   8 N :    0.213322
   9 H :   -0.029526
  10 H :    0.002980
  11 H :    0.027532
  12 H :   -0.103362
  13 H :   -0.097365
  14 H :    0.026193
  15 H :    0.024451
  16 H :   -0.012934
  17 H :   -0.017409
  18 H :   -0.013526

  Mayer bond orders larger than 0.100000
B(  0-C ,  1-C ) :   1.1979 B(  0-C ,  2-N ) :   1.0262 B(  0-C ,  4-H ) :   0.7931
B(  0-C ,  5-H ) :   0.8848 B(  0-C , 11-H ) :  -0.1512 B(  0-C , 14-H ) :   0.1825
B(  0-C , 15-H ) :   0.2575 B(  1-C ,  3-C ) :   1.2467 B(  1-C , 14-H ) :   0.8221
B(  1-C , 15-H ) :   0.7895 B(  1-C , 16-H ) :   0.2194 B(  1-C , 17-H ) :   0.2574
B(  1-C , 18-H ) :   0.2767 B(  2-N ,  4-H ) :   0.1717 B(  2-N ,  5-H ) :   0.1445
B(  2-N ,  6-C ) :   1.2155 B(  2-N ,  7-C ) :   0.2789 B(  2-N ,  8-N ) :   0.1258
B(  2-N , 11-H ) :   1.1004 B(  3-C , 16-H ) :   0.7552 B(  3-C , 17-H ) :   0.7478
B(  3-C , 18-H ) :   0.6916 B(  6-C ,  7-C ) :   1.5743 B(  6-C ,  8-N ) :   0.9955
B(  6-C , 10-H ) :  -0.1003 B(  6-C , 11-H ) :  -0.2067 B(  6-C , 12-H ) :   0.2513
B(  6-C , 13-H ) :   0.3096 B(  7-C ,  8-N ) :   0.2545 B(  7-C , 12-H ) :   0.7830
B(  7-C , 13-H ) :   0.5088 B(  8-N ,  9-H ) :   1.0390 B(  8-N , 10-H ) :   1.1700
B(  9-H , 10-H ) :  -0.1521

FINAL SINGLE POINT ENERGY      -306.171622885345

DIPOLE MOMENT
-------------
                                X             Y             Z
Electronic contribution:      4.76143      -0.15870      -1.04922
Nuclear contribution   :     -5.53036      -0.76734       0.96389
                        -----------------------------------------
Total Dipole Moment    :     -0.76892      -0.92605      -0.08533
                        -----------------------------------------
Magnitude (a.u.)       :      1.20668
Magnitude (Debye)      :      3.06715

Rotational constants in cm-1:     0.181901     0.044719     0.039941
Rotational constants in MHz :  5453.254735  1340.639344  1197.391002

                             ****ORCA TERMINATED NORMALLY****
TOTAL RUN TIME: 0 days 0 hours 0 minutes 38 seconds 282 msec
