                         Program Version 5.0.0 -  RELEASE  -
|  1> !LC-BLYP RIJCOSX def2-SVPD def2/J TightSCF
|  2> *xyz 0 1
|  3> C          1.63556       -1.67040       -5.29211
|  4> C          0.33848       -1.50091       -4.50540
|  5> N          2.48451       -0.50741       -5.14039
|  6> C         -0.68487       -0.52803       -5.09989
|  7> H          1.39834       -1.82924       -6.35259
|  8> H          2.15586       -2.56540       -4.93209
|  9> C          3.45115       -0.14953       -5.95259
| 10> N          3.92267        1.08956       -5.85071
| 11> C          3.96616       -1.00618       -6.86788
| 12> H          3.52139       -1.90647       -6.99527
| 13> H          4.44482       -0.62347       -7.67035
| 14> H          2.25200        0.24080       -4.49879
| 15> H          3.46428        1.64078       -5.13639
| 16> H          4.83447        1.31375       -6.22465
| 17> H          0.59489       -1.21158       -3.48231
| 18> H         -0.12653       -2.48766       -4.43418
| 19> H         -0.92267       -0.82721       -6.09931
| 20> H         -0.27317        0.45953       -5.11162
| 21> H         -1.57350       -0.53693       -4.50394
| 22> *
| 23>
| 24> %MaxCore 64000
| 25>
| 26> %pal nprocs 4
| 27> end
| 28>
| 29> %scf
| 30>   MaxIter 150
| 31> end
| 32>
| 33>
| 34>                          ****END OF INPUT****

CARTESIAN COORDINATES (ANGSTROEM)
---------------------------------
  C      1.635560   -1.670400   -5.292110
  C      0.338480   -1.500910   -4.505400
  N      2.484510   -0.507410   -5.140390
  C     -0.684870   -0.528030   -5.099890
  H      1.398340   -1.829240   -6.352590
  H      2.155860   -2.565400   -4.932090
  C      3.451150   -0.149530   -5.952590
  N      3.922670    1.089560   -5.850710
  C      3.966160   -1.006180   -6.867880
  H      3.521390   -1.906470   -6.995270
  H      4.444820   -0.623470   -7.670350
  H      2.252000    0.240800   -4.498790
  H      3.464280    1.640780   -5.136390
  H      4.834470    1.313750   -6.224650
  H      0.594890   -1.211580   -3.482310
  H     -0.126530   -2.487660   -4.434180
  H     -0.922670   -0.827210   -6.099310
  H     -0.273170    0.459530   -5.111620
  H     -1.573500   -0.536930   -4.503940

 Total Charge           Charge          ....    0
 Multiplicity           Mult            ....    1
 Number of Electrons    NEL             ....   56
 Basis Dimension        Dim             ....  236

ORBITAL ENERGIES
----------------

  NO   OCC          E(Eh)            E(eV)
   0   2.0000     -14.194677      -386.2568
   1   2.0000     -14.190113      -386.1326
   2   2.0000     -10.132962      -275.7319
   3   2.0000     -10.118022      -275.3254
   4   2.0000     -10.092076      -274.6194
   5   2.0000     -10.076603      -274.1983
   6   2.0000      -9.997504      -272.0459
   7   2.0000      -1.073585       -29.2137
   8   2.0000      -0.983714       -26.7682
   9   2.0000      -0.891263       -24.2525
  10   2.0000      -0.810633       -22.0585
  11   2.0000      -0.800501       -21.7827
  12   2.0000      -0.714135       -19.4326
  13   2.0000      -0.673038       -18.3143
  14   2.0000      -0.641483       -17.4556
  15   2.0000      -0.628121       -17.0921
  16   2.0000      -0.580189       -15.7877
  17   2.0000      -0.575200       -15.6520
  18   2.0000      -0.539131       -14.6705
  19   2.0000      -0.523906       -14.2562
  20   2.0000      -0.493130       -13.4188
  21   2.0000      -0.486946       -13.2505
  22   2.0000      -0.467160       -12.7121
  23   2.0000      -0.454174       -12.3587
  24   2.0000      -0.445292       -12.1170
  25   2.0000      -0.440825       -11.9955
  26   2.0000      -0.350281        -9.5316
  27   2.0000      -0.261165        -7.1067
  28   0.0000       0.064297         1.7496
  29   0.0000       0.083786         2.2799
  30   0.0000       0.097266         2.6467
  31   0.0000       0.102290         2.7834
  32   0.0000       0.124509         3.3881

MULLIKEN ATOMIC CHARGES
-----------------------
   0 C :    0.560368
   1 C :   -0.080281
   2 N :   -0.221296
   3 C :    0.993964
   4 H :   -0.048763
   5 H :   -0.261132
   6 C :    0.203169
   7 N :    0.311161
   8 C :    0.646191
   9 H :   -0.186208
  10 H :   -0.600652
  11 H :   -0.263199
  12 H :   -0.151169
  13 H :   -0.152871
  14 H :   -0.166704
  15 H :   -0.192267
  16 H :   -0.088355
  17 H :   -0.147030
  18 H :   -0.154926
Sum of atomic charges:    0.0000000

LOEWDIN ATOMIC CHARGES
----------------------
   0 C :    0.022581
   1 C :   -0.083613
   2 N :   -0.003296
   3 C :    0.116388
   4 H :    0.034215
   5 H :    0.033878
   6 C :   -0.259661
   7 N :    0.198486
   8 C :    0.153938
   9 H :   -0.121738
  10 H :   -0.105761
  11 H :    0.017293
  12 H :   -0.014409
  13 H :    0.011174
  14 H :    0.023038
  15 H :    0.025250
  16 H :   -0.011859
  17 H :   -0.021546
  18 H :   -0.014358

  Mayer bond orders larger than 0.100000
B(  0-C ,  1-C ) :   1.1928 B(  0-C ,  2-N ) :   1.0926 B(  0-C ,  4-H ) :   0.7698
B(  0-C ,  5-H ) :   0.8832 B(  0-C ,  6-C ) :  -0.1074 B(  0-C , 11-H ) :  -0.1331
B(  0-C , 14-H ) :   0.1799 B(  0-C , 15-H ) :   0.2391 B(  1-C ,  3-C ) :   1.2484
B(  1-C , 14-H ) :   0.8158 B(  1-C , 15-H ) :   0.8027 B(  1-C , 16-H ) :   0.2200
B(  1-C , 17-H ) :   0.2590 B(  1-C , 18-H ) :   0.2803 B(  2-N ,  4-H ) :   0.1870
B(  2-N ,  5-H ) :   0.1147 B(  2-N ,  6-C ) :   1.2017 B(  2-N ,  7-N ) :   0.2110
B(  2-N ,  8-C ) :   0.3278 B(  2-N , 11-H ) :   1.1494 B(  3-C , 16-H ) :   0.7568
B(  3-C , 17-H ) :   0.7513 B(  3-C , 18-H ) :   0.6851 B(  6-C ,  7-N ) :   1.0188
B(  6-C ,  8-C ) :   1.7651 B(  6-C ,  9-H ) :   0.3260 B(  6-C , 10-H ) :   0.2638
B(  6-C , 11-H ) :  -0.2720 B(  7-N ,  8-C ) :   0.2603 B(  7-N , 12-H ) :   1.0552
B(  7-N , 13-H ) :   1.2077 B(  8-C ,  9-H ) :   0.6097 B(  8-C , 10-H ) :   0.5707
B(  9-H , 10-H ) :   0.1750 B( 12-H , 13-H ) :  -0.1449

FINAL SINGLE POINT ENERGY      -306.172538493989

DIPOLE MOMENT
-------------
                                X             Y             Z
Electronic contribution:      4.83598       1.88948       0.03032
Nuclear contribution   :     -5.52083      -1.22643       0.74108
                        -----------------------------------------
Total Dipole Moment    :     -0.68485       0.66306       0.77139
                        -----------------------------------------
Magnitude (a.u.)       :      1.22626
Magnitude (Debye)      :      3.11691

Rotational constants in cm-1:     0.181479     0.044588     0.039739
Rotational constants in MHz :  5440.604457  1336.706831  1191.355312

                             ****ORCA TERMINATED NORMALLY****
TOTAL RUN TIME: 0 days 0 hours 0 minutes 35 seconds 88 msec
