                         Program Version 5.0.0 -  RELEASE  -
|  1> !CAM-B3LYP RIJCOSX def2-TZVP def2/J TightSCF
|  2> *xyz -1 1
|  3> C          1.44442        5.26658       -0.97546
|  4> O          1.56525        4.23349       -1.86489
|  5> C          0.14812        5.21087       -0.13809
|  6> H          1.47425        6.26464       -1.47692
|  7> H          2.28962        5.30327       -0.26445
|  8> H         -0.69779        5.17417       -0.79230
|  9> H          0.08430        6.08276        0.47887
| 10> H          0.15965        4.33708        0.47938
| 11> *
| 12> %MaxCore 64000
| 13>
| 14> %pal nprocs 4
| 15> end
| 16>
| 17> %scf
| 18>   MaxIter 150
| 19> end
| 20>
| 21>
| 22>                          ****END OF INPUT****

CARTESIAN COORDINATES (ANGSTROEM)
---------------------------------
  C      1.444420    5.266580   -0.975460
  O      1.565250    4.233490   -1.864890
  C      0.148120    5.210870   -0.138090
  H      1.474250    6.264640   -1.476920
  H      2.289620    5.303270   -0.264450
  H     -0.697790    5.174170   -0.792300
  H      0.084300    6.082760    0.478870
  H      0.159650    4.337080    0.479380

 Total Charge           Charge          ....   -1
 Multiplicity           Mult            ....    1
 Number of Electrons    NEL             ....   26
 Basis Dimension        Dim             ....  123

ORBITAL ENERGIES
----------------

  NO   OCC          E(Eh)            E(eV)
   0   2.0000     -18.839422      -512.6467
   1   2.0000     -10.047678      -273.4112
   2   2.0000     -10.027228      -272.8547
   3   2.0000      -0.744244       -20.2519
   4   2.0000      -0.599360       -16.3094
   5   2.0000      -0.440344       -11.9824
   6   2.0000      -0.312856        -8.5133
   7   2.0000      -0.290251        -7.8981
   8   2.0000      -0.231643        -6.3033
   9   2.0000      -0.214843        -5.8462
  10   2.0000      -0.164007        -4.4628
  11   2.0000      -0.017634        -0.4798
  12   2.0000      -0.014914        -0.4058
  13   0.0000       0.252692         6.8761
  14   0.0000       0.289608         7.8806
  15   0.0000       0.315167         8.5761
  16   0.0000       0.320257         8.7146
  17   0.0000       0.353136         9.6093

MULLIKEN ATOMIC CHARGES
-----------------------
   0 C :    0.056871
   1 O :   -0.780303
   2 C :   -0.168516
   3 H :   -0.072512
   4 H :   -0.067729
   5 H :    0.027887
   6 H :   -0.023354
   7 H :    0.027656
Sum of atomic charges:   -1.0000000

LOEWDIN ATOMIC CHARGES
----------------------
   0 C :   -0.551344
   1 O :   -0.438036
   2 C :   -0.362178
   3 H :    0.050885
   4 H :    0.053078
   5 H :    0.086973
   6 H :    0.074133
   7 H :    0.086490

  Mayer bond orders larger than 0.100000
B(  0-C ,  1-O ) :   1.6180 B(  0-C ,  2-C ) :   0.8753 B(  0-C ,  3-H ) :   0.9298
B(  0-C ,  4-H ) :   0.9292 B(  1-O ,  2-C ) :  -0.2257 B(  2-C ,  5-H ) :   0.9703
B(  2-C ,  6-H ) :   0.9365 B(  2-C ,  7-H ) :   0.9738

FINAL SINGLE POINT ENERGY      -154.406902930111

DIPOLE MOMENT
-------------
                                X             Y             Z
Electronic contribution:      1.18052      -1.72702      -2.12946
Nuclear contribution   :     -1.83256       2.47114       3.17273
                        -----------------------------------------
Total Dipole Moment    :     -0.65204       0.74412       1.04327
                        -----------------------------------------
Magnitude (a.u.)       :      1.43781
Magnitude (Debye)      :      3.65461

Rotational constants in cm-1:     1.286062     0.322579     0.284728
Rotational constants in MHz : 38555.180127  9670.683110  8535.939140

                             ****ORCA TERMINATED NORMALLY****
TOTAL RUN TIME: 0 days 0 hours 0 minutes 15 seconds 566 msec
