                         Program Version 5.0.0 -  RELEASE  -
|  1> !CAM-B3LYP RIJCOSX def2-TZVP def2/J TightSCF
|  2> *xyz 1 1
|  3> C         -0.70169        4.07250       -4.00392
|  4> N          0.68053        4.61482       -4.04800
|  5> H          0.69993        5.58489       -4.38827
|  6> H          1.27804        4.05598       -4.66824
|  7> H          1.08573        4.53358       -3.10652
|  8> C         -1.70347        5.09320       -3.47740
|  9> H         -0.99590        3.74039       -5.00065
| 10> H         -0.64358        3.20191       -3.35153
| 11> H         -1.73704        5.93384       -4.13853
| 12> H         -1.40338        5.41759       -2.50291
| 13> H         -2.67335        4.64479       -3.42108
| 14> *
| 15> %MaxCore 64000
| 16>
| 17> %pal nprocs 4
| 18> end
| 19>
| 20> %scf
| 21>   MaxIter 150
| 22> end
| 23>
| 24>
| 25>                          ****END OF INPUT****

CARTESIAN COORDINATES (ANGSTROEM)
---------------------------------
  C     -0.701690    4.072500   -4.003920
  N      0.680530    4.614820   -4.048000
  H      0.699930    5.584890   -4.388270
  H      1.278040    4.055980   -4.668240
  H      1.085730    4.533580   -3.106520
  C     -1.703470    5.093200   -3.477400
  H     -0.995900    3.740390   -5.000650
  H     -0.643580    3.201910   -3.351530
  H     -1.737040    5.933840   -4.138530
  H     -1.403380    5.417590   -2.502910
  H     -2.673350    4.644790   -3.421080

 Total Charge           Charge          ....    1
 Multiplicity           Mult            ....    1
 Number of Electrons    NEL             ....   26
 Basis Dimension        Dim             ....  141

ORBITAL ENERGIES
----------------

  NO   OCC          E(Eh)            E(eV)
   0   2.0000     -14.725380      -400.6980
   1   2.0000     -10.497683      -285.6565
   2   2.0000     -10.417291      -283.4689
   3   2.0000      -1.301384       -35.4125
   4   2.0000      -1.047633       -28.5076
   5   2.0000      -0.923059       -25.1177
   6   2.0000      -0.877781       -23.8856
   7   2.0000      -0.859256       -23.3815
   8   2.0000      -0.766530       -20.8583
   9   2.0000      -0.713023       -19.4023
  10   2.0000      -0.650551       -17.7024
  11   2.0000      -0.634405       -17.2630
  12   2.0000      -0.617472       -16.8023
  13   0.0000      -0.158303        -4.3077
  14   0.0000      -0.097047        -2.6408
  15   0.0000      -0.091058        -2.4778
  16   0.0000      -0.072837        -1.9820
  17   0.0000      -0.034951        -0.9511

MULLIKEN ATOMIC CHARGES
-----------------------
   0 C :   -0.208477
   1 N :   -0.284306
   2 H :    0.325175
   3 H :    0.330338
   4 H :    0.330170
   5 C :   -0.359638
   6 H :    0.193138
   7 H :    0.189746
   8 H :    0.154334
   9 H :    0.147411
  10 H :    0.182110
Sum of atomic charges:    1.0000000

LOEWDIN ATOMIC CHARGES
----------------------
   0 C :   -0.279406
   1 N :    0.170422
   2 H :    0.222718
   3 H :    0.223585
   4 H :    0.226706
   5 C :   -0.277199
   6 H :    0.153276
   7 H :    0.151924
   8 H :    0.130516
   9 H :    0.129758
  10 H :    0.147699

  Mayer bond orders larger than 0.100000
B(  0-C ,  1-N ) :   0.8438 B(  0-C ,  5-C ) :   0.9679 B(  0-C ,  6-H ) :   0.9569
B(  0-C ,  7-H ) :   0.9593 B(  1-N ,  2-H ) :   0.8751 B(  1-N ,  3-H ) :   0.8816
B(  1-N ,  4-H ) :   0.8811 B(  5-C ,  8-H ) :   0.9604 B(  5-C ,  9-H ) :   0.9599
B(  5-C , 10-H ) :   0.9618

FINAL SINGLE POINT ENERGY      -135.506116593289

DIPOLE MOMENT
-------------
                                X             Y             Z
Electronic contribution:      1.77827      -0.33311      -0.45971
Nuclear contribution   :     -0.23930       0.27560       0.19485
                        -----------------------------------------
Total Dipole Moment    :      1.53897      -0.05751      -0.26486
                        -----------------------------------------
Magnitude (a.u.)       :      1.56265
Magnitude (Debye)      :      3.97195

Rotational constants in cm-1:     1.018556     0.279088     0.248454
Rotational constants in MHz : 30535.536069  8366.847891  7448.451392

                             ****ORCA TERMINATED NORMALLY****
TOTAL RUN TIME: 0 days 0 hours 0 minutes 17 seconds 785 msec
