                         Program Version 5.0.0 -  RELEASE  -
|  1> !CAM-B3LYP RIJCOSX def2-TZVP def2/J TightSCF
|  2> *xyz 0 1
|  3> C          1.44442        5.26658       -0.97546
|  4> F          1.56525        4.23349       -1.86489
|  5> C          0.14812        5.21087       -0.13809
|  6> H          1.47425        6.26464       -1.47692
|  7> H          2.28962        5.30327       -0.26445
|  8> H         -0.69779        5.17417       -0.79230
|  9> H          0.08430        6.08276        0.47887
| 10> H          0.15965        4.33708        0.47938
| 11> *
| 12> %MaxCore 64000
| 13>
| 14> %pal nprocs 4
| 15> end
| 16>
| 17> %scf
| 18>   MaxIter 150
| 19> end
| 20>
| 21>
| 22>                          ****END OF INPUT****

CARTESIAN COORDINATES (ANGSTROEM)
---------------------------------
  C      1.444420    5.266580   -0.975460
  F      1.565250    4.233490   -1.864890
  C      0.148120    5.210870   -0.138090
  H      1.474250    6.264640   -1.476920
  H      2.289620    5.303270   -0.264450
  H     -0.697790    5.174170   -0.792300
  H      0.084300    6.082760    0.478870
  H      0.159650    4.337080    0.479380

 Total Charge           Charge          ....    0
 Multiplicity           Mult            ....    1
 Number of Electrons    NEL             ....   26
 Basis Dimension        Dim             ....  123

ORBITAL ENERGIES
----------------

  NO   OCC          E(Eh)            E(eV)
   0   2.0000     -24.741552      -673.2519
   1   2.0000     -10.323562      -280.9184
   2   2.0000     -10.238759      -278.6108
   3   2.0000      -1.280067       -34.8324
   4   2.0000      -0.846223       -23.0269
   5   2.0000      -0.710699       -19.3391
   6   2.0000      -0.580539       -15.7973
   7   2.0000      -0.568421       -15.4675
   8   2.0000      -0.530488       -14.4353
   9   2.0000      -0.475968       -12.9517
  10   2.0000      -0.470006       -12.7895
  11   2.0000      -0.403201       -10.9717
  12   2.0000      -0.396845       -10.7987
  13   0.0000       0.078009         2.1227
  14   0.0000       0.116524         3.1708
  15   0.0000       0.137015         3.7284
  16   0.0000       0.141176         3.8416
  17   0.0000       0.153073         4.1653

MULLIKEN ATOMIC CHARGES
-----------------------
   0 C :    0.041264
   1 F :   -0.241850
   2 C :   -0.329356
   3 H :    0.090946
   4 H :    0.091228
   5 H :    0.119463
   6 H :    0.110146
   7 H :    0.118158
Sum of atomic charges:   -0.0000000

LOEWDIN ATOMIC CHARGES
----------------------
   0 C :   -0.368407
   1 F :    0.091956
   2 C :   -0.309207
   3 H :    0.117153
   4 H :    0.115445
   5 H :    0.116695
   6 H :    0.120640
   7 H :    0.115725

  Mayer bond orders larger than 0.100000
B(  0-C ,  1-F ) :   0.9917 B(  0-C ,  2-C ) :   0.9669 B(  0-C ,  3-H ) :   0.9741
B(  0-C ,  4-H ) :   0.9734 B(  2-C ,  5-H ) :   0.9721 B(  2-C ,  6-H ) :   0.9608
B(  2-C ,  7-H ) :   0.9733

FINAL SINGLE POINT ENERGY      -179.061564436107

DIPOLE MOMENT
-------------
                                X             Y             Z
Electronic contribution:      2.30252      -2.74240      -3.70070
Nuclear contribution   :     -2.43357       3.25919       4.19687
                        -----------------------------------------
Total Dipole Moment    :     -0.13105       0.51679       0.49618
                        -----------------------------------------
Magnitude (a.u.)       :      0.72831
Magnitude (Debye)      :      1.85123

Rotational constants in cm-1:     1.264662     0.300144     0.266170
Rotational constants in MHz : 37913.611527  8998.095216  7979.576054

                             ****ORCA TERMINATED NORMALLY****
TOTAL RUN TIME: 0 days 0 hours 0 minutes 13 seconds 274 msec
