                         Program Version 5.0.0 -  RELEASE  -
|  1> !CAM-B3LYP RIJCOSX def2-TZVP def2/J TightSCF
|  2> *xyz 0 1
|  3> C         -0.70169        4.07250       -4.00392
|  4> C          0.68053        4.61482       -4.04800
|  5> H          0.69993        5.58489       -4.38827
|  6> H          1.27804        4.05598       -4.66824
|  7> H          1.08573        4.53358       -3.10652
|  8> C         -1.70347        5.09320       -3.47740
|  9> H         -0.99590        3.74039       -5.00065
| 10> H         -0.64358        3.20191       -3.35153
| 11> H         -1.73704        5.93384       -4.13853
| 12> H         -1.40338        5.41759       -2.50291
| 13> H         -2.67335        4.64479       -3.42108
| 14> *
| 15> %MaxCore 64000
| 16>
| 17> %pal nprocs 4
| 18> end
| 19>
| 20> %scf
| 21>   MaxIter 150
| 22> end
| 23>
| 24>
| 25>                          ****END OF INPUT****

CARTESIAN COORDINATES (ANGSTROEM)
---------------------------------
  C     -0.701690    4.072500   -4.003920
  C      0.680530    4.614820   -4.048000
  H      0.699930    5.584890   -4.388270
  H      1.278040    4.055980   -4.668240
  H      1.085730    4.533580   -3.106520
  C     -1.703470    5.093200   -3.477400
  H     -0.995900    3.740390   -5.000650
  H     -0.643580    3.201910   -3.351530
  H     -1.737040    5.933840   -4.138530
  H     -1.403380    5.417590   -2.502910
  H     -2.673350    4.644790   -3.421080

 Total Charge           Charge          ....    0
 Multiplicity           Mult            ....    1
 Number of Electrons    NEL             ....   26
 Basis Dimension        Dim             ....  141

ORBITAL ENERGIES
----------------

  NO   OCC          E(Eh)            E(eV)
   0   2.0000     -10.227961      -278.3170
   1   2.0000     -10.219568      -278.0886
   2   2.0000     -10.201220      -277.5893
   3   2.0000      -0.875183       -23.8149
   4   2.0000      -0.771051       -20.9814
   5   2.0000      -0.661628       -18.0038
   6   2.0000      -0.541543       -14.7361
   7   2.0000      -0.515432       -14.0256
   8   2.0000      -0.470229       -12.7956
   9   2.0000      -0.459380       -12.5004
  10   2.0000      -0.401584       -10.9277
  11   2.0000      -0.398673       -10.8484
  12   2.0000      -0.390654       -10.6302
  13   0.0000       0.077236         2.1017
  14   0.0000       0.119388         3.2487
  15   0.0000       0.126701         3.4477
  16   0.0000       0.132462         3.6045
  17   0.0000       0.152739         4.1562

MULLIKEN ATOMIC CHARGES
-----------------------
   0 C :   -0.150877
   1 C :   -0.331335
   2 H :    0.101748
   3 H :    0.111937
   4 H :    0.108508
   5 C :   -0.335969
   6 H :    0.087518
   7 H :    0.085266
   8 H :    0.107732
   9 H :    0.104384
  10 H :    0.111089
Sum of atomic charges:   -0.0000000

LOEWDIN ATOMIC CHARGES
----------------------
   0 C :   -0.321076
   1 C :   -0.305002
   2 H :    0.107963
   3 H :    0.108989
   4 H :    0.110961
   5 C :   -0.306008
   6 H :    0.128733
   7 H :    0.131837
   8 H :    0.114430
   9 H :    0.115032
  10 H :    0.114140

  Mayer bond orders larger than 0.100000
B(  0-C ,  1-C ) :   0.9403 B(  0-C ,  5-C ) :   0.9577 B(  0-C ,  6-H ) :   0.9804
B(  0-C ,  7-H ) :   0.9801 B(  1-C ,  2-H ) :   0.9821 B(  1-C ,  3-H ) :   0.9870
B(  1-C ,  4-H ) :   0.9830 B(  5-C ,  8-H ) :   0.9796 B(  5-C ,  9-H ) :   0.9781
B(  5-C , 10-H ) :   0.9839

FINAL SINGLE POINT ENERGY      -119.094217271685

DIPOLE MOMENT
-------------
                                X             Y             Z
Electronic contribution:     -0.13589      -0.31186      -0.13888
Nuclear contribution   :      0.16058       0.27975       0.12812
                        -----------------------------------------
Total Dipole Moment    :      0.02469      -0.03211      -0.01076
                        -----------------------------------------
Magnitude (a.u.)       :      0.04191
Magnitude (Debye)      :      0.10653

Rotational constants in cm-1:     1.027122     0.293327     0.260229
Rotational constants in MHz : 30792.337141  8793.723318  7801.458329

                             ****ORCA TERMINATED NORMALLY****
TOTAL RUN TIME: 0 days 0 hours 0 minutes 16 seconds 792 msec
