                         Program Version 5.0.0 -  RELEASE  -
|  1> !TPSS D3BJ RIJCOSX def2-TZVPD def2/J TightSCF
|  2> *xyz -1 1
|  3> C          4.08422        1.74208       -2.11472
|  4> C          4.26524        2.50052       -0.79589
|  5> H          4.86853        3.39267       -0.98113
|  6> H          3.30764        2.82457       -0.38781
|  7> C          4.98224        1.65026        0.24742
|  8> O          4.36806        1.38927        1.31371
|  9> O          6.12892        1.23351       -0.04562
| 10> H          3.57911        2.36849       -2.81997
| 11> H          3.50424        0.85965       -1.94198
| 12> H          5.04288        1.46841       -2.50327
| 13> *
| 14> %MaxCore 64000
| 15> %pal nprocs 8
| 16> end
| 17> %scf
| 18>   MaxIter 150
| 19> end
| 20>
| 21>
| 22>                          ****END OF INPUT****

CARTESIAN COORDINATES (ANGSTROEM)
---------------------------------
  C      4.084220    1.742080   -2.114720
  C      4.265240    2.500520   -0.795890
  H      4.868530    3.392670   -0.981130
  H      3.307640    2.824570   -0.387810
  C      4.982240    1.650260    0.247420
  O      4.368060    1.389270    1.313710
  O      6.128920    1.233510   -0.045620
  H      3.579110    2.368490   -2.819970
  H      3.504240    0.859650   -1.941980
  H      5.042880    1.468410   -2.503270

 Total Charge           Charge          ....   -1
 Multiplicity           Mult            ....    1
 Number of Electrons    NEL             ....   40
 Basis Dimension        Dim             ....  236

ORBITAL ENERGIES
----------------

  NO   OCC          E(Eh)            E(eV)
   0   2.0000     -18.618816      -506.6437
   1   2.0000     -18.618559      -506.6368
   2   2.0000      -9.856029      -268.1962
   3   2.0000      -9.821346      -267.2524
   4   2.0000      -9.808934      -266.9147
   5   2.0000      -0.749163       -20.3858
   6   2.0000      -0.660403       -17.9705
   7   2.0000      -0.548565       -14.9272
   8   2.0000      -0.423366       -11.5204
   9   2.0000      -0.274735        -7.4759
  10   2.0000      -0.250205        -6.8084
  11   2.0000      -0.215317        -5.8591
  12   2.0000      -0.186362        -5.0712
  13   2.0000      -0.172301        -4.6885
  14   2.0000      -0.163586        -4.4514
  15   2.0000      -0.133454        -3.6315
  16   2.0000      -0.120675        -3.2837
  17   2.0000      -0.011294        -0.3073
  18   2.0000       0.000992         0.0270
  19   2.0000       0.016981         0.4621
  20   0.0000       0.125555         3.4165
  21   0.0000       0.151253         4.1158
  22   0.0000       0.163290         4.4433
  23   0.0000       0.173082         4.7098
  24   0.0000       0.197297         5.3687

MULLIKEN ATOMIC CHARGES
-----------------------
   0 C :   -0.923881
   1 C :   -0.050349
   2 H :    0.146142
   3 H :    0.148527
   4 C :    0.591159
   5 O :   -0.814934
   6 O :   -0.817711
   7 H :    0.213375
   8 H :    0.256168
   9 H :    0.251505
Sum of atomic charges:   -1.0000000

LOEWDIN ATOMIC CHARGES
----------------------
   0 C :   -0.126131
   1 C :   -0.208655
   2 H :    0.088058
   3 H :    0.081203
   4 C :   -0.778859
   5 O :   -0.105440
   6 O :   -0.096621
   7 H :    0.037185
   8 H :    0.057546
   9 H :    0.051714

  Mayer bond orders larger than 0.100000
B(  0-C ,  1-C ) :   0.7718 B(  0-C ,  4-C ) :   0.1687 B(  0-C ,  6-O ) :   0.1019
B(  0-C ,  7-H ) :   0.9497 B(  0-C ,  8-H ) :   0.9476 B(  0-C ,  9-H ) :   0.9778
B(  1-C ,  2-H ) :   0.9194 B(  1-C ,  3-H ) :   0.9926 B(  1-C ,  4-C ) :   1.0022
B(  4-C ,  5-O ) :   1.2087 B(  4-C ,  6-O ) :   1.2063

Dispersion correction           -0.008070933
FINAL SINGLE POINT ENERGY      -267.990152210201

DIPOLE MOMENT
-------------
                                X             Y             Z
Electronic contribution:      2.47738      -1.51290       5.17575
Nuclear contribution   :     -3.31311       2.28398      -6.76358
                        -----------------------------------------
Total Dipole Moment    :     -0.83573       0.77108      -1.58783
                        -----------------------------------------
Magnitude (a.u.)       :      1.95300
Magnitude (Debye)      :      4.96414

Rotational constants in cm-1:     0.309287     0.135287     0.107346
Rotational constants in MHz :  9272.201029  4055.789113  3218.155789

                             ****ORCA TERMINATED NORMALLY****
TOTAL RUN TIME: 0 days 0 hours 0 minutes 8 seconds 840 msec
