                         Program Version 5.0.0 -  RELEASE  -
|  1> !TPSS D3BJ RIJCOSX def2-TZVPD def2/J TightSCF
|  2> *xyz 1 1
|  3> C          3.91385       -1.65829        3.01513
|  4> N          5.03927       -0.90115        2.49282
|  5> C          6.21038       -1.41726        2.17824
|  6> N          6.53591       -2.67712        2.55608
|  7> N          7.07675       -0.70082        1.47891
|  8> H          7.95464       -1.12155        1.20755
|  9> H          6.75616        0.10664        0.96028
| 10> H          4.84217        0.01761        2.11519
| 11> H          5.99388       -3.12692        3.28278
| 12> C          3.13916       -2.37657        1.91061
| 13> H          3.26723       -0.93940        3.52069
| 14> H          4.24720       -2.35509        3.79006
| 15> H          7.49844       -2.97548        2.46878
| 16> H          2.82969       -1.66654        1.17238
| 17> H          2.27790       -2.85264        2.33072
| 18> H          3.76754       -3.11338        1.45548
| 19> *
| 20> %MaxCore 64000
| 21> %pal nprocs 8
| 22> end
| 23> %scf
| 24>   MaxIter 150
| 25> end
| 26>
| 27>
| 28>                          ****END OF INPUT****

CARTESIAN COORDINATES (ANGSTROEM)
---------------------------------
  C      3.913850   -1.658290    3.015130
  N      5.039270   -0.901150    2.492820
  C      6.210380   -1.417260    2.178240
  N      6.535910   -2.677120    2.556080
  N      7.076750   -0.700820    1.478910
  H      7.954640   -1.121550    1.207550
  H      6.756160    0.106640    0.960280
  H      4.842170    0.017610    2.115190
  H      5.993880   -3.126920    3.282780
  C      3.139160   -2.376570    1.910610
  H      3.267230   -0.939400    3.520690
  H      4.247200   -2.355090    3.790060
  H      7.498440   -2.975480    2.468780
  H      2.829690   -1.666540    1.172380
  H      2.277900   -2.852640    2.330720
  H      3.767540   -3.113380    1.455480

 Total Charge           Charge          ....    1
 Multiplicity           Mult            ....    1
 Number of Electrons    NEL             ....   48
 Basis Dimension        Dim             ....  312

ORBITAL ENERGIES
----------------

  NO   OCC          E(Eh)            E(eV)
   0   2.0000     -14.324937      -389.8013
   1   2.0000     -14.324198      -389.7812
   2   2.0000     -14.322215      -389.7273
   3   2.0000     -10.308206      -280.5005
   4   2.0000     -10.194555      -277.4079
   5   2.0000     -10.121932      -275.4318
   6   2.0000      -1.148474       -31.2516
   7   2.0000      -1.045998       -28.4631
   8   2.0000      -1.031045       -28.0562
   9   2.0000      -0.876395       -23.8479
  10   2.0000      -0.792101       -21.5542
  11   2.0000      -0.753793       -20.5117
  12   2.0000      -0.737440       -20.0668
  13   2.0000      -0.698277       -19.0011
  14   2.0000      -0.647695       -17.6247
  15   2.0000      -0.643645       -17.5145
  16   2.0000      -0.610628       -16.6160
  17   2.0000      -0.585649       -15.9363
  18   2.0000      -0.563159       -15.3243
  19   2.0000      -0.522175       -14.2091
  20   2.0000      -0.496547       -13.5117
  21   2.0000      -0.479049       -13.0356
  22   2.0000      -0.439137       -11.9495
  23   2.0000      -0.414637       -11.2829
  24   0.0000      -0.196893        -5.3577
  25   0.0000      -0.175159        -4.7663
  26   0.0000      -0.143926        -3.9164
  27   0.0000      -0.135003        -3.6736
  28   0.0000      -0.114576        -3.1178

MULLIKEN ATOMIC CHARGES
-----------------------
   0 C :   -0.359335
   1 N :   -0.177618
   2 C :    0.832880
   3 N :   -0.345923
   4 N :   -0.356366
   5 H :    0.188914
   6 H :    0.198068
   7 H :    0.181628
   8 H :    0.177010
   9 C :   -0.804404
  10 H :    0.197037
  11 H :    0.273025
  12 H :    0.181623
  13 H :    0.270784
  14 H :    0.257385
  15 H :    0.285293
Sum of atomic charges:    1.0000000

LOEWDIN ATOMIC CHARGES
----------------------
   0 C :   -0.196421
   1 N :    0.088834
   2 C :   -0.441616
   3 N :    0.216450
   4 N :    0.211286
   5 H :    0.137570
   6 H :    0.140073
   7 H :    0.169211
   8 H :    0.120421
   9 C :   -0.048380
  10 H :    0.128755
  11 H :    0.114956
  12 H :    0.134192
  13 H :    0.075553
  14 H :    0.080452
  15 H :    0.068664

  Mayer bond orders larger than 0.100000
B(  0-C ,  1-N ) :   0.9343 B(  0-C ,  9-C ) :   0.9446 B(  0-C , 10-H ) :   0.9535
B(  0-C , 11-H ) :   0.8675 B(  1-N ,  2-C ) :   1.1920 B(  1-N ,  4-N ) :   0.1121
B(  1-N ,  7-H ) :   1.0068 B(  2-C ,  3-N ) :   1.0890 B(  2-C ,  4-N ) :   1.0676
B(  3-N ,  8-H ) :   0.9574 B(  3-N , 12-H ) :   1.0152 B(  4-N ,  5-H ) :   1.0027
B(  4-N ,  6-H ) :   0.9876 B(  9-C , 13-H ) :   0.9502 B(  9-C , 14-H ) :   0.9661
B(  9-C , 15-H ) :   0.9435

Dispersion correction           -0.015272354
FINAL SINGLE POINT ENERGY      -284.560546687075

DIPOLE MOMENT
-------------
                                X             Y             Z
Electronic contribution:      4.67211       1.89620       0.07658
Nuclear contribution   :     -3.67981      -1.62355      -0.28562
                        -----------------------------------------
Total Dipole Moment    :      0.99230       0.27266      -0.20904
                        -----------------------------------------
Magnitude (a.u.)       :      1.05010
Magnitude (Debye)      :      2.66913

Rotational constants in cm-1:     0.222027     0.074735     0.065694
Rotational constants in MHz :  6656.200457  2240.503315  1969.451902

                             ****ORCA TERMINATED NORMALLY****
TOTAL RUN TIME: 0 days 0 hours 0 minutes 14 seconds 160 msec
