                         Program Version 5.0.0 -  RELEASE  -
|  1> !TPSS D3BJ RIJCOSX def2-TZVPD def2/J TightSCF xyzfile
|  2>
|  3> *xyzfile 0 1 B.xyz
|  4>
|  5> %MaxCore 64000
|  6>
|  7> %pal nprocs 4
|  8> end
|  9>
| 10> %scf
| 11>   MaxIter 150
| 12> end
| 13>
| 14>
| 15>                          ****END OF INPUT****

CARTESIAN COORDINATES (ANGSTROEM)
---------------------------------
  C      3.913853   -1.658291    3.015134
  N      5.039266   -0.901154    2.492821
  C      4.084215    1.742081   -2.114724
  C      4.265245    2.500518   -0.795890
  H      4.868534    3.392674   -0.981134
  H      3.307640    2.824571   -0.387809
  C      4.982240    1.650257    0.247422
  C      6.210384   -1.417261    2.178244
  N      6.535913   -2.677122    2.556078
  N      7.076754   -0.700820    1.478906
  H      7.954643   -1.121554    1.207554
  H      6.756161    0.106637    0.960278
  H      4.842168    0.017609    2.115191
  H      5.993876   -3.126918    3.282784
  H      7.498441   -2.975482    2.468776
  O      4.368065    1.389270    1.313706
  O      6.128919    1.233512   -0.045620
  C      3.139159   -2.376572    1.910609
  H      3.267235   -0.939401    3.520693
  H      4.247195   -2.355095    3.790065
  C      1.997274    0.430918   -1.399218
  C      3.412746    0.376886   -1.965497
  H      4.047407   -0.246590   -1.326706
  H      3.390774   -0.118719   -2.942839
  H      5.068475    1.598504   -2.565728
  H      3.503356    2.363939   -2.804565
  C      2.399946   -1.389579    1.009490
  H      2.440750   -3.087118    2.362976
  H      3.844475   -2.970462    1.318677
  C      2.070177   -1.936705   -0.372401
  H      1.481611   -1.061542    1.509912
  H      3.008628   -0.490001    0.897451
  C      1.322238   -0.935775   -1.256413
  H      1.472747   -2.850902   -0.283997
  H      3.003539   -2.234041   -0.862535
  H      1.376444    1.058920   -2.047420
  H      2.015341    0.929780   -0.426535
  H      0.316648   -0.787213   -0.848278
  H      1.185611   -1.379252   -2.248613

 Total Charge           Charge          ....    0
 Multiplicity           Mult            ....    1
 Number of Electrons    NEL             ....  126
 Basis Dimension        Dim             ....  805

ORBITAL ENERGIES
----------------

  NO   OCC          E(Eh)            E(eV)
   0   2.0000     -18.803739      -511.6758
   1   2.0000     -18.802620      -511.6453
   2   2.0000     -14.165794      -385.4709
   3   2.0000     -14.131326      -384.5329
   4   2.0000     -14.126665      -384.4061
   5   2.0000     -10.131935      -275.7040
   6   2.0000     -10.042942      -273.2824
   7   2.0000     -10.034227      -273.0452
   8   2.0000      -9.993229      -271.9296
   9   2.0000      -9.971362      -271.3345
  10   2.0000      -9.971205      -271.3303
  11   2.0000      -9.966960      -271.2148
  12   2.0000      -9.958044      -270.9722
  13   2.0000      -9.956320      -270.9252
  14   2.0000      -9.955354      -270.8990
  15   2.0000      -9.946521      -270.6586
  16   2.0000      -0.973221       -26.4827
  17   2.0000      -0.937980       -25.5237
  18   2.0000      -0.872621       -23.7452
  19   2.0000      -0.859075       -23.3766
  20   2.0000      -0.846329       -23.0298
  21   2.0000      -0.752840       -20.4858
  22   2.0000      -0.729021       -19.8377
  23   2.0000      -0.701396       -19.0860
  24   2.0000      -0.663989       -18.0681
  25   2.0000      -0.627810       -17.0836
  26   2.0000      -0.611445       -16.6383
  27   2.0000      -0.582247       -15.8437
  28   2.0000      -0.566077       -15.4037
  29   2.0000      -0.554914       -15.1000
  30   2.0000      -0.527721       -14.3600
  31   2.0000      -0.523481       -14.2446
  32   2.0000      -0.493441       -13.4272
  33   2.0000      -0.479568       -13.0497
  34   2.0000      -0.472334       -12.8529
  35   2.0000      -0.453192       -12.3320
  36   2.0000      -0.426622       -11.6090
  37   2.0000      -0.421011       -11.4563
  38   2.0000      -0.415679       -11.3112
  39   2.0000      -0.411840       -11.2067
  40   2.0000      -0.398317       -10.8387
  41   2.0000      -0.381908       -10.3923
  42   2.0000      -0.377294       -10.2667
  43   2.0000      -0.375044       -10.2055
  44   2.0000      -0.368101       -10.0165
  45   2.0000      -0.353178        -9.6105
  46   2.0000      -0.340273        -9.2593
  47   2.0000      -0.330513        -8.9937
  48   2.0000      -0.327102        -8.9009
  49   2.0000      -0.316229        -8.6050
  50   2.0000      -0.309971        -8.4347
  51   2.0000      -0.303308        -8.2534
  52   2.0000      -0.290952        -7.9172
  53   2.0000      -0.284189        -7.7332
  54   2.0000      -0.276824        -7.5328
  55   2.0000      -0.271536        -7.3889
  56   2.0000      -0.265025        -7.2117
  57   2.0000      -0.259369        -7.0578
  58   2.0000      -0.253625        -6.9015
  59   2.0000      -0.240033        -6.5316
  60   2.0000      -0.196171        -5.3381
  61   2.0000      -0.182584        -4.9684
  62   2.0000      -0.173311        -4.7160
  63   0.0000      -0.039410        -1.0724
  64   0.0000      -0.027503        -0.7484
  65   0.0000      -0.010260        -0.2792
  66   0.0000       0.007388         0.2010
  67   0.0000       0.012867         0.3501

MULLIKEN ATOMIC CHARGES
-----------------------
   0 C :   -0.745837
   1 N :   -0.174181
   2 C :   -0.323422
   3 C :   -0.268506
   4 H :    0.099285
   5 H :    0.236254
   6 C :    0.994095
   7 C :    0.740579
   8 N :   -0.395052
   9 N :   -0.302084
  10 H :    0.167118
  11 H :    0.198155
  12 H :    0.328575
  13 H :    0.161525
  14 H :    0.155842
  15 O :   -0.980992
  16 O :   -1.024454
  17 C :   -0.202417
  18 H :    0.193097
  19 H :    0.260634
  20 C :   -0.356538
  21 C :   -0.436243
  22 H :    0.356348
  23 H :    0.073552
  24 H :    0.176222
  25 H :    0.087654
  26 C :   -0.080132
  27 H :    0.160699
  28 H :    0.253768
  29 C :   -0.407358
  30 H :    0.212854
  31 H :    0.100473
  32 C :   -0.373057
  33 H :    0.059714
  34 H :    0.356536
  35 H :    0.069946
  36 H :    0.334203
  37 H :    0.156154
  38 H :    0.136990
Sum of atomic charges:   -0.0000000

LOEWDIN ATOMIC CHARGES
----------------------
   0 C :   -0.162852
   1 N :    0.105216
   2 C :   -0.197110
   3 C :   -0.120988
   4 H :    0.110821
   5 H :    0.101533
   6 C :   -0.657137
   7 C :   -0.448724
   8 N :    0.177593
   9 N :    0.210207
  10 H :    0.121674
  11 H :    0.039458
  12 H :    0.072239
  13 H :    0.101168
  14 H :    0.113847
  15 O :   -0.040337
  16 O :   -0.027726
  17 C :   -0.176646
  18 H :    0.128962
  19 H :    0.102259
  20 C :   -0.208250
  21 C :   -0.204501
  22 H :    0.101906
  23 H :    0.111927
  24 H :    0.104410
  25 H :    0.104195
  26 C :   -0.204793
  27 H :    0.111092
  28 H :    0.108007
  29 C :   -0.212558
  30 H :    0.124552
  31 H :    0.082652
  32 C :   -0.205456
  33 H :    0.107376
  34 H :    0.105489
  35 H :    0.111622
  36 H :    0.100559
  37 H :    0.104397
  38 H :    0.103919

  Mayer bond orders larger than 0.100000
B(  0-C ,  1-N ) :   1.0496 B(  0-C ,  7-C ) :  -0.1518 B(  0-C , 17-C ) :   0.9376
B(  0-C , 18-H ) :   0.8271 B(  0-C , 19-H ) :   0.8856 B(  0-C , 26-C ) :   0.1839
B(  0-C , 27-H ) :  -0.1152 B(  1-N ,  7-C ) :   1.2433 B(  1-N , 12-H ) :   0.6807
B(  1-N , 15-O ) :  -0.1374 B(  2-C ,  3-C ) :   0.9112 B(  2-C ,  6-C ) :   0.1780
B(  2-C , 20-C ) :   0.1836 B(  2-C , 21-C ) :   1.2401 B(  2-C , 24-H ) :   0.8465
B(  2-C , 25-H ) :   0.8948 B(  3-C ,  4-H ) :   0.8663 B(  3-C ,  5-H ) :   0.8990
B(  3-C ,  6-C ) :   1.1269 B(  3-C , 20-C ) :   0.1426 B(  3-C , 25-H ) :   0.1010
B(  6-C , 15-O ) :   1.0523 B(  6-C , 16-O ) :   0.7633 B(  7-C ,  8-N ) :   0.9662
B(  7-C ,  9-N ) :   1.0909 B(  7-C , 12-H ) :  -0.1068 B(  8-N , 13-H ) :   0.9801
B(  8-N , 14-H ) :   1.0307 B(  9-N , 10-H ) :   1.0180 B(  9-N , 11-H ) :   0.8344
B(  9-N , 16-O ) :  -0.1033 B( 11-H , 16-O ) :   0.1379 B( 15-O , 16-O ) :   0.1760
B( 17-C , 26-C ) :   0.8415 B( 17-C , 27-H ) :   0.9788 B( 17-C , 28-H ) :   0.7423
B( 17-C , 29-C ) :   0.4805 B( 17-C , 30-H ) :  -0.1411 B( 20-C , 21-C ) :   0.6118
B( 20-C , 32-C ) :   1.1424 B( 20-C , 35-H ) :   0.9068 B( 20-C , 36-H ) :   0.8261
B( 21-C , 22-H ) :   0.8113 B( 21-C , 23-H ) :   0.8947 B( 21-C , 26-C ) :  -0.1021
B( 21-C , 29-C ) :   0.2125 B( 21-C , 32-C ) :   0.1326 B( 26-C , 29-C ) :   0.6602
B( 26-C , 30-H ) :   0.6572 B( 26-C , 31-H ) :   1.6668 B( 26-C , 32-C ) :   0.1920
B( 29-C , 31-H ) :  -0.1233 B( 29-C , 32-C ) :   1.1126 B( 29-C , 33-H ) :   0.9594
B( 29-C , 34-H ) :   0.7692 B( 30-H , 31-H ) :   0.1975 B( 32-C , 37-H ) :   0.8787
B( 32-C , 38-H ) :   0.8959

Dispersion correction           -0.055733777
FINAL SINGLE POINT ENERGY      -748.226171177121

DIPOLE MOMENT
-------------
                                X             Y             Z
Electronic contribution:     12.27538       3.36182       7.66427
Nuclear contribution   :    -11.44764      -6.21818      -6.18483
                        -----------------------------------------
Total Dipole Moment    :      0.82775      -2.85635       1.47944
                        -----------------------------------------
Magnitude (a.u.)       :      3.32155
Magnitude (Debye)      :      8.44270

Rotational constants in cm-1:     0.020281     0.013510     0.009451
Rotational constants in MHz :   608.005987   405.034308   283.324538

                             ****ORCA TERMINATED NORMALLY****
TOTAL RUN TIME: 0 days 0 hours 3 minutes 44 seconds 926 msec
