                         Program Version 5.0.0 -  RELEASE  -
|  1> !TPSS D3BJ RIJCOSX def2-TZVPD def2/J TightSCF
|  2> *xyz 0 1
|  3> C          4.08422        1.74208       -2.11472
|  4> C          4.26524        2.50052       -0.79589
|  5> H          4.86853        3.39267       -0.98113
|  6> H          3.30764        2.82457       -0.38781
|  7> C          4.98224        1.65026        0.24742
|  8> F          4.36806        1.38927        1.31371
|  9> O          6.12892        1.23351       -0.04562
| 10> H          3.57911        2.36849       -2.81997
| 11> H          3.50424        0.85965       -1.94198
| 12> H          5.04288        1.46841       -2.50327
| 13> *
| 14> %MaxCore 64000
| 15> %pal nprocs 8
| 16> end
| 17> %scf
| 18>   MaxIter 150
| 19> end
| 20>
| 21>
| 22>                          ****END OF INPUT****

CARTESIAN COORDINATES (ANGSTROEM)
---------------------------------
  C      4.084220    1.742080   -2.114720
  C      4.265240    2.500520   -0.795890
  H      4.868530    3.392670   -0.981130
  H      3.307640    2.824570   -0.387810
  C      4.982240    1.650260    0.247420
  F      4.368060    1.389270    1.313710
  O      6.128920    1.233510   -0.045620
  H      3.579110    2.368490   -2.819970
  H      3.504240    0.859650   -1.941980
  H      5.042880    1.468410   -2.503270

 Total Charge           Charge          ....    0
 Multiplicity           Mult            ....    1
 Number of Electrons    NEL             ....   40
 Basis Dimension        Dim             ....  236

ORBITAL ENERGIES
----------------

  NO   OCC          E(Eh)            E(eV)
   0   2.0000     -24.477117      -666.0562
   1   2.0000     -18.886962      -513.9404
   2   2.0000     -10.150695      -276.2145
   3   2.0000     -10.016875      -272.5730
   4   2.0000      -9.991264      -271.8761
   5   2.0000      -1.236956       -33.6593
   6   2.0000      -0.963704       -26.2237
   7   2.0000      -0.744304       -20.2535
   8   2.0000      -0.635256       -17.2862
   9   2.0000      -0.583767       -15.8851
  10   2.0000      -0.492991       -13.4150
  11   2.0000      -0.479146       -13.0382
  12   2.0000      -0.457948       -12.4614
  13   2.0000      -0.423295       -11.5184
  14   2.0000      -0.390514       -10.6264
  15   2.0000      -0.359112        -9.7719
  16   2.0000      -0.340848        -9.2749
  17   2.0000      -0.334952        -9.1145
  18   2.0000      -0.308751        -8.4015
  19   2.0000      -0.248295        -6.7564
  20   0.0000      -0.062489        -1.7004
  21   0.0000      -0.006877        -0.1871
  22   0.0000       0.019652         0.5348
  23   0.0000       0.029681         0.8077
  24   0.0000       0.038927         1.0593

MULLIKEN ATOMIC CHARGES
-----------------------
   0 C :   -0.898420
   1 C :    0.008579
   2 H :    0.152472
   3 H :    0.173619
   4 C :    0.544056
   5 F :   -0.202135
   6 O :   -0.533105
   7 H :    0.203563
   8 H :    0.279003
   9 H :    0.272367
Sum of atomic charges:   -0.0000000

LOEWDIN ATOMIC CHARGES
----------------------
   0 C :   -0.079724
   1 C :   -0.152058
   2 H :    0.117857
   3 H :    0.103531
   4 C :   -0.499883
   5 F :    0.213515
   6 O :    0.088693
   7 H :    0.066111
   8 H :    0.071569
   9 H :    0.070389

  Mayer bond orders larger than 0.100000
B(  0-C ,  1-C ) :   0.8625 B(  0-C ,  4-C ) :   0.1648 B(  0-C ,  7-H ) :   0.9681
B(  0-C ,  8-H ) :   0.9142 B(  0-C ,  9-H ) :   0.9629 B(  1-C ,  2-H ) :   0.9096
B(  1-C ,  3-H ) :   0.9486 B(  1-C ,  4-C ) :   0.9699 B(  4-C ,  5-F ) :   0.9850
B(  4-C ,  6-O ) :   1.6141

Dispersion correction           -0.007654442
FINAL SINGLE POINT ENERGY      -292.559940726366

DIPOLE MOMENT
-------------
                                X             Y             Z
Electronic contribution:      1.94748      -2.06410       8.14348
Nuclear contribution   :     -2.87511       2.61564      -8.50037
                        -----------------------------------------
Total Dipole Moment    :     -0.92763       0.55154      -0.35689
                        -----------------------------------------
Magnitude (a.u.)       :      1.13669
Magnitude (Debye)      :      2.88923

Rotational constants in cm-1:     0.297822     0.128965     0.102219
Rotational constants in MHz :  8928.481997  3866.271686  3064.463504

                             ****ORCA TERMINATED NORMALLY****
TOTAL RUN TIME: 0 days 0 hours 0 minutes 8 seconds 256 msec
