                         Program Version 5.0.0 -  RELEASE  -
|  1> !TPSS D3BJ RIJCOSX def2-TZVPD def2/J TightSCF
|  2> *xyz 0 1
|  3> C          3.91385       -1.65829        3.01513
|  4> C          5.03927       -0.90115        2.49282
|  5> C          6.21038       -1.41726        2.17824
|  6> N          6.53591       -2.67712        2.55608
|  7> N          7.07675       -0.70082        1.47891
|  8> H          7.95464       -1.12155        1.20755
|  9> H          6.75616        0.10664        0.96028
| 10> H          4.84217        0.01761        2.11519
| 11> H          5.99388       -3.12692        3.28278
| 12> C          3.13916       -2.37657        1.91061
| 13> H          3.26723       -0.93940        3.52069
| 14> H          4.24720       -2.35509        3.79006
| 15> H          7.49844       -2.97548        2.46878
| 16> H          2.82969       -1.66654        1.17238
| 17> H          2.27790       -2.85264        2.33072
| 18> H          3.76754       -3.11338        1.45548
| 19> *
| 20> %MaxCore 64000
| 21> %pal nprocs 8
| 22> end
| 23> %scf
| 24>   MaxIter 150
| 25> end
| 26>
| 27>
| 28>                          ****END OF INPUT****

CARTESIAN COORDINATES (ANGSTROEM)
---------------------------------
  C      3.913850   -1.658290    3.015130
  C      5.039270   -0.901150    2.492820
  C      6.210380   -1.417260    2.178240
  N      6.535910   -2.677120    2.556080
  N      7.076750   -0.700820    1.478910
  H      7.954640   -1.121550    1.207550
  H      6.756160    0.106640    0.960280
  H      4.842170    0.017610    2.115190
  H      5.993880   -3.126920    3.282780
  C      3.139160   -2.376570    1.910610
  H      3.267230   -0.939400    3.520690
  H      4.247200   -2.355090    3.790060
  H      7.498440   -2.975480    2.468780
  H      2.829690   -1.666540    1.172380
  H      2.277900   -2.852640    2.330720
  H      3.767540   -3.113380    1.455480

 Total Charge           Charge          ....    0
 Multiplicity           Mult            ....    1
 Number of Electrons    NEL             ....   48
 Basis Dimension        Dim             ....  312

ORBITAL ENERGIES
----------------

  NO   OCC          E(Eh)            E(eV)
   0   2.0000     -14.103038      -383.7632
   1   2.0000     -14.101561      -383.7230
   2   2.0000     -10.020223      -272.6641
   3   2.0000      -9.960533      -271.0399
   4   2.0000      -9.948742      -270.7190
   5   2.0000      -9.905949      -269.5546
   6   2.0000      -0.895541       -24.3689
   7   2.0000      -0.811747       -22.0888
   8   2.0000      -0.716460       -19.4959
   9   2.0000      -0.640073       -17.4173
  10   2.0000      -0.567675       -15.4472
  11   2.0000      -0.529061       -14.3965
  12   2.0000      -0.493970       -13.4416
  13   2.0000      -0.466382       -12.6909
  14   2.0000      -0.430977       -11.7275
  15   2.0000      -0.396993       -10.8027
  16   2.0000      -0.376361       -10.2413
  17   2.0000      -0.347399        -9.4532
  18   2.0000      -0.341024        -9.2797
  19   2.0000      -0.314474        -8.5573
  20   2.0000      -0.291112        -7.9216
  21   2.0000      -0.285456        -7.7676
  22   2.0000      -0.226864        -6.1733
  23   2.0000      -0.131805        -3.5866
  24   0.0000      -0.013057        -0.3553
  25   0.0000       0.013827         0.3762
  26   0.0000       0.018839         0.5126
  27   0.0000       0.031341         0.8528
  28   0.0000       0.045855         1.2478

MULLIKEN ATOMIC CHARGES
-----------------------
   0 C :   -0.355175
   1 C :   -0.744777
   2 C :    0.847181
   3 N :   -0.463401
   4 N :   -0.479322
   5 H :    0.142703
   6 H :    0.171106
   7 H :    0.305380
   8 H :    0.152411
   9 C :   -0.884297
  10 H :    0.106117
  11 H :    0.287595
  12 H :    0.132000
  13 H :    0.289089
  14 H :    0.221291
  15 H :    0.272100
Sum of atomic charges:    0.0000000

LOEWDIN ATOMIC CHARGES
----------------------
   0 C :   -0.277277
   1 C :   -0.147577
   2 C :   -0.543701
   3 N :    0.128903
   4 N :    0.112025
   5 H :    0.095866
   6 H :    0.110508
   7 H :    0.067643
   8 H :    0.093611
   9 C :   -0.097019
  10 H :    0.098615
  11 H :    0.089821
  12 H :    0.093083
  13 H :    0.063134
  14 H :    0.053272
  15 H :    0.059093

  Mayer bond orders larger than 0.100000
B(  0-C ,  1-C ) :   1.0166 B(  0-C ,  9-C ) :   0.7626 B(  0-C , 10-H ) :   1.0813
B(  0-C , 11-H ) :   0.8826 B(  1-C ,  2-C ) :   1.4044 B(  1-C ,  7-H ) :   0.9348
B(  1-C ,  9-C ) :   0.2059 B(  2-C ,  3-N ) :   0.8742 B(  2-C ,  4-N ) :   0.9245
B(  2-C ,  7-H ) :  -0.1270 B(  3-N ,  8-H ) :   0.9766 B(  3-N , 12-H ) :   1.0662
B(  4-N ,  5-H ) :   1.0541 B(  4-N ,  6-H ) :   1.0062 B(  9-C , 13-H ) :   0.9543
B(  9-C , 14-H ) :   0.9646 B(  9-C , 15-H ) :   0.9544

Dispersion correction           -0.015890231
FINAL SINGLE POINT ENERGY      -268.070632801112

DIPOLE MOMENT
-------------
                                X             Y             Z
Electronic contribution:      4.61517       1.24625      -0.03925
Nuclear contribution   :     -3.74303      -1.46908      -0.23637
                        -----------------------------------------
Total Dipole Moment    :      0.87215      -0.22283      -0.27562
                        -----------------------------------------
Magnitude (a.u.)       :      0.94141
Magnitude (Debye)      :      2.39288

Rotational constants in cm-1:     0.225937     0.074877     0.065953
Rotational constants in MHz :  6773.424301  2244.750632  1977.214101

                             ****ORCA TERMINATED NORMALLY****
TOTAL RUN TIME: 0 days 0 hours 0 minutes 18 seconds 774 msec
