                         Program Version 5.0.0 -  RELEASE  -
|  1> !TPSS D3BJ RIJCOSX def2-TZVPD def2/J TightSCF
|  2> *xyz 0 1
|  3> C          4.08422        1.74208       -2.11472
|  4> C          4.26524        2.50052       -0.79589
|  5> H          4.86853        3.39267       -0.98113
|  6> H          3.30764        2.82457       -0.38781
|  7> C          4.98224        1.65026        0.24742
|  8> O          4.36806        1.38927        1.31371
|  9> F          6.12892        1.23351       -0.04562
| 10> H          3.57911        2.36849       -2.81997
| 11> H          3.50424        0.85965       -1.94198
| 12> H          5.04288        1.46841       -2.50327
| 13> *
| 14> %MaxCore 64000
| 15> %pal nprocs 8
| 16> end
| 17> %scf
| 18>   MaxIter 150
| 19> end
| 20>
| 21>
| 22>                          ****END OF INPUT****

CARTESIAN COORDINATES (ANGSTROEM)
---------------------------------
  C      4.084220    1.742080   -2.114720
  C      4.265240    2.500520   -0.795890
  H      4.868530    3.392670   -0.981130
  H      3.307640    2.824570   -0.387810
  C      4.982240    1.650260    0.247420
  O      4.368060    1.389270    1.313710
  F      6.128920    1.233510   -0.045620
  H      3.579110    2.368490   -2.819970
  H      3.504240    0.859650   -1.941980
  H      5.042880    1.468410   -2.503270

 Total Charge           Charge          ....    0
 Multiplicity           Mult            ....    1
 Number of Electrons    NEL             ....   40
 Basis Dimension        Dim             ....  236

ORBITAL ENERGIES
----------------

  NO   OCC          E(Eh)            E(eV)
   0   2.0000     -24.478153      -666.0844
   1   2.0000     -18.886303      -513.9224
   2   2.0000     -10.150376      -276.2058
   3   2.0000     -10.016644      -272.5667
   4   2.0000      -9.995543      -271.9925
   5   2.0000      -1.239477       -33.7279
   6   2.0000      -0.960694       -26.1418
   7   2.0000      -0.748074       -20.3561
   8   2.0000      -0.633300       -17.2330
   9   2.0000      -0.588879       -16.0242
  10   2.0000      -0.495961       -13.4958
  11   2.0000      -0.483576       -13.1588
  12   2.0000      -0.452994       -12.3266
  13   2.0000      -0.423064       -11.5122
  14   2.0000      -0.392634       -10.6841
  15   2.0000      -0.361569        -9.8388
  16   2.0000      -0.343837        -9.3563
  17   2.0000      -0.338469        -9.2102
  18   2.0000      -0.311683        -8.4813
  19   2.0000      -0.243597        -6.6286
  20   0.0000      -0.059992        -1.6325
  21   0.0000      -0.008676        -0.2361
  22   0.0000       0.019735         0.5370
  23   0.0000       0.028767         0.7828
  24   0.0000       0.039017         1.0617

MULLIKEN ATOMIC CHARGES
-----------------------
   0 C :   -0.924092
   1 C :    0.055410
   2 H :    0.177857
   3 H :    0.140930
   4 C :    0.535763
   5 O :   -0.530042
   6 F :   -0.216302
   7 H :    0.200882
   8 H :    0.283582
   9 H :    0.276012
Sum of atomic charges:    0.0000000

LOEWDIN ATOMIC CHARGES
----------------------
   0 C :   -0.082781
   1 C :   -0.147841
   2 H :    0.113875
   3 H :    0.113631
   4 C :   -0.505694
   5 O :    0.084904
   6 F :    0.218051
   7 H :    0.066403
   8 H :    0.073091
   9 H :    0.066361

  Mayer bond orders larger than 0.100000
B(  0-C ,  1-C ) :   0.8064 B(  0-C ,  4-C ) :   0.1680 B(  0-C ,  7-H ) :   0.9787
B(  0-C ,  8-H ) :   0.9422 B(  0-C ,  9-H ) :   0.9398 B(  1-C ,  2-H ) :   0.9009
B(  1-C ,  3-H ) :   0.9777 B(  1-C ,  4-C ) :   0.9698 B(  4-C ,  5-O ) :   1.6132
B(  4-C ,  6-F ) :   0.9634

Dispersion correction           -0.007609457
FINAL SINGLE POINT ENERGY      -292.559195754030

DIPOLE MOMENT
-------------
                                X             Y             Z
Electronic contribution:      4.84228      -2.30900       5.87773
Nuclear contribution   :     -4.79499       2.78546      -7.01827
                        -----------------------------------------
Total Dipole Moment    :      0.04728       0.47646      -1.14054
                        -----------------------------------------
Magnitude (a.u.)       :      1.23696
Magnitude (Debye)      :      3.14411

Rotational constants in cm-1:     0.286098     0.133492     0.103343
Rotational constants in MHz :  8577.003657  4001.981591  3098.148068

                             ****ORCA TERMINATED NORMALLY****
TOTAL RUN TIME: 0 days 0 hours 0 minutes 8 seconds 631 msec
