                         Program Version 5.0.0 -  RELEASE  -
|  1> !TPSS D3BJ RIJCOSX def2-TZVPD def2/J TightSCF
|  2> *xyz 0 1
|  3> C          3.91385       -1.65829        3.01513
|  4> N          5.03927       -0.90115        2.49282
|  5> C          6.21038       -1.41726        2.17824
|  6> C          6.53591       -2.67712        2.55608
|  7> N          7.07675       -0.70082        1.47891
|  8> H          7.95464       -1.12155        1.20755
|  9> H          6.75616        0.10664        0.96028
| 10> H          4.84217        0.01761        2.11519
| 11> H          5.99388       -3.12692        3.28278
| 12> C          3.13916       -2.37657        1.91061
| 13> H          3.26723       -0.93940        3.52069
| 14> H          4.24720       -2.35509        3.79006
| 15> H          7.49844       -2.97548        2.46878
| 16> H          2.82969       -1.66654        1.17238
| 17> H          2.27790       -2.85264        2.33072
| 18> H          3.76754       -3.11338        1.45548
| 19> *
| 20> %MaxCore 64000
| 21> %pal nprocs 8
| 22> end
| 23> %scf
| 24>   MaxIter 150
| 25> end
| 26>
| 27>
| 28>                          ****END OF INPUT****

CARTESIAN COORDINATES (ANGSTROEM)
---------------------------------
  C      3.913850   -1.658290    3.015130
  N      5.039270   -0.901150    2.492820
  C      6.210380   -1.417260    2.178240
  C      6.535910   -2.677120    2.556080
  N      7.076750   -0.700820    1.478910
  H      7.954640   -1.121550    1.207550
  H      6.756160    0.106640    0.960280
  H      4.842170    0.017610    2.115190
  H      5.993880   -3.126920    3.282780
  C      3.139160   -2.376570    1.910610
  H      3.267230   -0.939400    3.520690
  H      4.247200   -2.355090    3.790060
  H      7.498440   -2.975480    2.468780
  H      2.829690   -1.666540    1.172380
  H      2.277900   -2.852640    2.330720
  H      3.767540   -3.113380    1.455480

 Total Charge           Charge          ....    0
 Multiplicity           Mult            ....    1
 Number of Electrons    NEL             ....   48
 Basis Dimension        Dim             ....  312

ORBITAL ENERGIES
----------------

  NO   OCC          E(Eh)            E(eV)
   0   2.0000     -14.105649      -383.8342
   1   2.0000     -14.103974      -383.7887
   2   2.0000     -10.025014      -272.7945
   3   2.0000     -10.018889      -272.6278
   4   2.0000      -9.966827      -271.2112
   5   2.0000      -9.897293      -269.3190
   6   2.0000      -0.907796       -24.7024
   7   2.0000      -0.829432       -22.5700
   8   2.0000      -0.699287       -19.0286
   9   2.0000      -0.651046       -17.7159
  10   2.0000      -0.592026       -16.1098
  11   2.0000      -0.518720       -14.1151
  12   2.0000      -0.503723       -13.7070
  13   2.0000      -0.477372       -12.9899
  14   2.0000      -0.423872       -11.5341
  15   2.0000      -0.399568       -10.8728
  16   2.0000      -0.374981       -10.2038
  17   2.0000      -0.357527        -9.7288
  18   2.0000      -0.341766        -9.2999
  19   2.0000      -0.329866        -8.9761
  20   2.0000      -0.321987        -8.7617
  21   2.0000      -0.310814        -8.4577
  22   2.0000      -0.213887        -5.8202
  23   2.0000      -0.134865        -3.6699
  24   0.0000      -0.012502        -0.3402
  25   0.0000       0.010939         0.2977
  26   0.0000       0.020813         0.5663
  27   0.0000       0.024972         0.6795
  28   0.0000       0.048858         1.3295

MULLIKEN ATOMIC CHARGES
-----------------------
   0 C :   -0.256744
   1 N :   -0.312092
   2 C :    1.036284
   3 C :   -1.378272
   4 N :   -0.468018
   5 H :    0.154938
   6 H :    0.156100
   7 H :    0.164691
   8 H :    0.257758
   9 C :   -0.871034
  10 H :    0.180445
  11 H :    0.247722
  12 H :    0.289027
  13 H :    0.242766
  14 H :    0.265310
  15 H :    0.291118
Sum of atomic charges:    0.0000000

LOEWDIN ATOMIC CHARGES
----------------------
   0 C :   -0.230662
   1 N :    0.014285
   2 C :   -0.568313
   3 C :    0.006417
   4 N :    0.117246
   5 H :    0.109712
   6 H :    0.098722
   7 H :    0.137264
   8 H :   -0.005534
   9 C :   -0.076107
  10 H :    0.107727
  11 H :    0.104838
  12 H :    0.002175
  13 H :    0.060933
  14 H :    0.060525
  15 H :    0.060772

  Mayer bond orders larger than 0.100000
B(  0-C ,  1-N ) :   0.8619 B(  0-C ,  3-C ) :   0.1155 B(  0-C ,  9-C ) :   0.8924
B(  0-C , 10-H ) :   0.9236 B(  0-C , 11-H ) :   0.8719 B(  1-N ,  2-C ) :   0.9782
B(  1-N ,  7-H ) :   1.0262 B(  1-N ,  9-C ) :   0.1022 B(  2-C ,  3-C ) :   1.0732
B(  2-C ,  4-N ) :   0.8422 B(  3-C ,  4-N ) :   0.1250 B(  3-C ,  8-H ) :   1.0315
B(  3-C , 12-H ) :   0.9904 B(  4-N ,  5-H ) :   1.0175 B(  4-N ,  6-H ) :   1.0394
B(  9-C , 13-H ) :   0.9634 B(  9-C , 14-H ) :   0.9360 B(  9-C , 15-H ) :   0.9865

Dispersion correction           -0.015843126
FINAL SINGLE POINT ENERGY      -268.063706093032

DIPOLE MOMENT
-------------
                                X             Y             Z
Electronic contribution:      3.06426       2.79492      -0.19592
Nuclear contribution   :     -3.42552      -1.84584      -0.22295
                        -----------------------------------------
Total Dipole Moment    :     -0.36127       0.94908      -0.41888
                        -----------------------------------------
Magnitude (a.u.)       :      1.09851
Magnitude (Debye)      :      2.79219

Rotational constants in cm-1:     0.233526     0.075277     0.067092
Rotational constants in MHz :  7000.931279  2256.752901  2011.361214

                             ****ORCA TERMINATED NORMALLY****
TOTAL RUN TIME: 0 days 0 hours 0 minutes 15 seconds 890 msec
