                         Program Version 5.0.0 -  RELEASE  -
|  1> !TPSS D3BJ RIJCOSX def2-TZVPD def2/J TightSCF
|  2> *xyz 0 1
|  3> C          3.91385       -1.65829        3.01513
|  4> N          5.03927       -0.90115        2.49282
|  5> C          6.21038       -1.41726        2.17824
|  6> N          6.53591       -2.67712        2.55608
|  7> C          7.07675       -0.70082        1.47891
|  8> H          7.95464       -1.12155        1.20755
|  9> H          6.75616        0.10664        0.96028
| 10> H          4.84217        0.01761        2.11519
| 11> H          5.99388       -3.12692        3.28278
| 12> C          3.13916       -2.37657        1.91061
| 13> H          3.26723       -0.93940        3.52069
| 14> H          4.24720       -2.35509        3.79006
| 15> H          7.49844       -2.97548        2.46878
| 16> H          2.82969       -1.66654        1.17238
| 17> H          2.27790       -2.85264        2.33072
| 18> H          3.76754       -3.11338        1.45548
| 19> *
| 20> %MaxCore 64000
| 21> %pal nprocs 8
| 22> end
| 23> %scf
| 24>   MaxIter 150
| 25> end
| 26>
| 27>
| 28>                          ****END OF INPUT****

CARTESIAN COORDINATES (ANGSTROEM)
---------------------------------
  C      3.913850   -1.658290    3.015130
  N      5.039270   -0.901150    2.492820
  C      6.210380   -1.417260    2.178240
  N      6.535910   -2.677120    2.556080
  C      7.076750   -0.700820    1.478910
  H      7.954640   -1.121550    1.207550
  H      6.756160    0.106640    0.960280
  H      4.842170    0.017610    2.115190
  H      5.993880   -3.126920    3.282780
  C      3.139160   -2.376570    1.910610
  H      3.267230   -0.939400    3.520690
  H      4.247200   -2.355090    3.790060
  H      7.498440   -2.975480    2.468780
  H      2.829690   -1.666540    1.172380
  H      2.277900   -2.852640    2.330720
  H      3.767540   -3.113380    1.455480

 Total Charge           Charge          ....    0
 Multiplicity           Mult            ....    1
 Number of Electrons    NEL             ....   48
 Basis Dimension        Dim             ....  312

ORBITAL ENERGIES
----------------

  NO   OCC          E(Eh)            E(eV)
   0   2.0000     -14.102258      -383.7420
   1   2.0000     -14.101899      -383.7322
   2   2.0000     -10.026588      -272.8373
   3   2.0000     -10.022377      -272.7227
   4   2.0000      -9.974144      -271.4103
   5   2.0000      -9.895217      -269.2625
   6   2.0000      -0.903096       -24.5745
   7   2.0000      -0.822815       -22.3899
   8   2.0000      -0.715133       -19.4598
   9   2.0000      -0.648210       -17.6387
  10   2.0000      -0.581010       -15.8101
  11   2.0000      -0.551804       -15.0154
  12   2.0000      -0.489488       -13.3196
  13   2.0000      -0.454029       -12.3548
  14   2.0000      -0.436017       -11.8646
  15   2.0000      -0.400434       -10.8964
  16   2.0000      -0.388575       -10.5737
  17   2.0000      -0.364063        -9.9067
  18   2.0000      -0.342526        -9.3206
  19   2.0000      -0.333101        -9.0641
  20   2.0000      -0.323570        -8.8048
  21   2.0000      -0.317932        -8.6514
  22   2.0000      -0.216902        -5.9022
  23   2.0000      -0.133375        -3.6293
  24   0.0000      -0.012027        -0.3273
  25   0.0000       0.012080         0.3287
  26   0.0000       0.017358         0.4723
  27   0.0000       0.022458         0.6111
  28   0.0000       0.048640         1.3235

MULLIKEN ATOMIC CHARGES
-----------------------
   0 C :   -0.298881
   1 N :   -0.258649
   2 C :    0.995022
   3 N :   -0.466946
   4 C :   -1.258817
   5 H :    0.241478
   6 H :    0.278240
   7 H :    0.132794
   8 H :    0.137304
   9 C :   -0.852842
  10 H :    0.169873
  11 H :    0.256427
  12 H :    0.140281
  13 H :    0.238276
  14 H :    0.271736
  15 H :    0.274703
Sum of atomic charges:    0.0000000

LOEWDIN ATOMIC CHARGES
----------------------
   0 C :   -0.235114
   1 N :    0.019383
   2 C :   -0.565540
   3 N :    0.124451
   4 C :   -0.003918
   5 H :    0.003845
   6 H :    0.006789
   7 H :    0.146406
   8 H :    0.082898
   9 C :   -0.077585
  10 H :    0.108180
  11 H :    0.099381
  12 H :    0.106086
  13 H :    0.064224
  14 H :    0.059023
  15 H :    0.061491

  Mayer bond orders larger than 0.100000
B(  0-C ,  1-N ) :   0.8890 B(  0-C ,  9-C ) :   0.8991 B(  0-C , 10-H ) :   0.9768
B(  0-C , 11-H ) :   0.8833 B(  1-N ,  2-C ) :   1.0063 B(  1-N ,  4-C ) :   0.1457
B(  1-N ,  7-H ) :   1.0073 B(  2-C ,  3-N ) :   0.8418 B(  2-C ,  4-C ) :   1.1121
B(  3-N ,  8-H ) :   1.0187 B(  3-N , 12-H ) :   1.0279 B(  4-C ,  5-H ) :   1.0969
B(  4-C ,  6-H ) :   0.9533 B(  9-C , 13-H ) :   0.9686 B(  9-C , 14-H ) :   0.9599
B(  9-C , 15-H ) :   0.9718

Dispersion correction           -0.015749999
FINAL SINGLE POINT ENERGY      -268.063391761967

DIPOLE MOMENT
-------------
                                X             Y             Z
Electronic contribution:      2.52698       0.92831       0.95335
Nuclear contribution   :     -3.31079      -1.42658      -0.45147
                        -----------------------------------------
Total Dipole Moment    :     -0.78380      -0.49827       0.50188
                        -----------------------------------------
Magnitude (a.u.)       :      1.05570
Magnitude (Debye)      :      2.68338

Rotational constants in cm-1:     0.225507     0.077571     0.068070
Rotational constants in MHz :  6760.542142  2325.533779  2040.680522

                             ****ORCA TERMINATED NORMALLY****
TOTAL RUN TIME: 0 days 0 hours 0 minutes 15 seconds 807 msec
