                         Program Version 5.0.0 -  RELEASE  -
|  1> !TPSS D3BJ RIJCOSX def2-TZVPD def2/J TightSCF xyzfile
|  2>
|  3> *xyzfile 0 1 D1.xyz
|  4>
|  5> %MaxCore 64000
|  6>
|  7> %pal nprocs 4
|  8> end
|  9>
| 10> %scf
| 11>   MaxIter 150
| 12> end
| 13>
| 14>
| 15>                          ****END OF INPUT****

CARTESIAN COORDINATES (ANGSTROEM)
---------------------------------
  C      3.913853   -1.658291    3.015134
  C      5.039266   -0.901154    2.492821
  C      4.084215    1.742081   -2.114724
  C      4.265245    2.500518   -0.795890
  H      4.868534    3.392674   -0.981134
  H      3.307640    2.824571   -0.387809
  C      4.982240    1.650257    0.247422
  C      6.210384   -1.417261    2.178244
  N      6.535913   -2.677122    2.556078
  N      7.076754   -0.700820    1.478906
  H      7.954643   -1.121554    1.207554
  H      6.756161    0.106637    0.960278
  H      4.842168    0.017609    2.115191
  H      5.993876   -3.126918    3.282784
  H      7.498441   -2.975482    2.468776
  F      4.368065    1.389270    1.313706
  O      6.128919    1.233512   -0.045620
  C      3.139159   -2.376572    1.910609
  H      3.267235   -0.939401    3.520693
  H      4.247195   -2.355095    3.790065
  C      1.997274    0.430918   -1.399218
  C      3.412746    0.376886   -1.965497
  H      4.047407   -0.246590   -1.326706
  H      3.390774   -0.118719   -2.942839
  H      5.068475    1.598504   -2.565728
  H      3.503356    2.363939   -2.804565
  C      2.399946   -1.389579    1.009490
  H      2.440750   -3.087118    2.362976
  H      3.844475   -2.970462    1.318677
  C      2.070177   -1.936705   -0.372401
  H      1.481611   -1.061542    1.509912
  H      3.008628   -0.490001    0.897451
  C      1.322238   -0.935775   -1.256413
  H      1.472747   -2.850902   -0.283997
  H      3.003539   -2.234041   -0.862535
  H      1.376444    1.058920   -2.047420
  H      2.015341    0.929780   -0.426535
  H      0.316648   -0.787213   -0.848278
  H      1.185611   -1.379252   -2.248613

 Total Charge           Charge          ....    0
 Multiplicity           Mult            ....    1
 Number of Electrons    NEL             ....  126
 Basis Dimension        Dim             ....  805

ORBITAL ENERGIES
----------------

  NO   OCC          E(Eh)            E(eV)
   0   2.0000     -24.490453      -666.4191
   1   2.0000     -18.909116      -514.5432
   2   2.0000     -14.087180      -383.3317
   3   2.0000     -14.063185      -382.6787
   4   2.0000     -10.170977      -276.7664
   5   2.0000     -10.022740      -272.7326
   6   2.0000     -10.003796      -272.2171
   7   2.0000     -10.001759      -272.1617
   8   2.0000      -9.988070      -271.7892
   9   2.0000      -9.982962      -271.6502
  10   2.0000      -9.976872      -271.4845
  11   2.0000      -9.969335      -271.2794
  12   2.0000      -9.963040      -271.1081
  13   2.0000      -9.954611      -270.8787
  14   2.0000      -9.950239      -270.7598
  15   2.0000      -9.883010      -268.9304
  16   2.0000      -1.255196       -34.1556
  17   2.0000      -0.991181       -26.9714
  18   2.0000      -0.873320       -23.7643
  19   2.0000      -0.788900       -21.4671
  20   2.0000      -0.772938       -21.0327
  21   2.0000      -0.744831       -20.2679
  22   2.0000      -0.717679       -19.5290
  23   2.0000      -0.689912       -18.7735
  24   2.0000      -0.654304       -17.8045
  25   2.0000      -0.632133       -17.2012
  26   2.0000      -0.607372       -16.5274
  27   2.0000      -0.585047       -15.9199
  28   2.0000      -0.554935       -15.1005
  29   2.0000      -0.538160       -14.6441
  30   2.0000      -0.514698       -14.0056
  31   2.0000      -0.511450       -13.9173
  32   2.0000      -0.503748       -13.7077
  33   2.0000      -0.500458       -13.6182
  34   2.0000      -0.479265       -13.0415
  35   2.0000      -0.469038       -12.7632
  36   2.0000      -0.444570       -12.0974
  37   2.0000      -0.436612       -11.8808
  38   2.0000      -0.434398       -11.8206
  39   2.0000      -0.417033       -11.3480
  40   2.0000      -0.405182       -11.0256
  41   2.0000      -0.394571       -10.7368
  42   2.0000      -0.385641       -10.4938
  43   2.0000      -0.377397       -10.2695
  44   2.0000      -0.371720       -10.1150
  45   2.0000      -0.367390        -9.9972
  46   2.0000      -0.352561        -9.5937
  47   2.0000      -0.347596        -9.4586
  48   2.0000      -0.332042        -9.0353
  49   2.0000      -0.327604        -8.9146
  50   2.0000      -0.322639        -8.7795
  51   2.0000      -0.320872        -8.7314
  52   2.0000      -0.311536        -8.4773
  53   2.0000      -0.302396        -8.2286
  54   2.0000      -0.299912        -8.1610
  55   2.0000      -0.284730        -7.7479
  56   2.0000      -0.277735        -7.5576
  57   2.0000      -0.270610        -7.3637
  58   2.0000      -0.266505        -7.2520
  59   2.0000      -0.264500        -7.1974
  60   2.0000      -0.257157        -6.9976
  61   2.0000      -0.204746        -5.5714
  62   2.0000      -0.115248        -3.1361
  63   0.0000      -0.081040        -2.2052
  64   0.0000      -0.009140        -0.2487
  65   0.0000       0.000441         0.0120
  66   0.0000       0.005706         0.1553
  67   0.0000       0.008079         0.2198

MULLIKEN ATOMIC CHARGES
-----------------------
   0 C :   -0.329331
   1 C :   -1.784042
   2 C :   -0.271236
   3 C :   -0.272418
   4 H :    0.072702
   5 H :    0.278889
   6 C :    0.906732
   7 C :    0.534439
   8 N :   -0.492875
   9 N :   -0.467293
  10 H :    0.132798
  11 H :    0.222288
  12 H :    1.173100
  13 H :    0.158489
  14 H :    0.108627
  15 F :   -0.192368
  16 O :   -0.738014
  17 C :   -0.339994
  18 H :    0.121448
  19 H :    0.271093
  20 C :   -0.368658
  21 C :   -0.505181
  22 H :    0.416171
  23 H :    0.073648
  24 H :    0.206988
  25 H :    0.087173
  26 C :    0.080109
  27 H :    0.151211
  28 H :    0.305023
  29 C :   -0.387540
  30 H :    0.184076
  31 H :   -0.074430
  32 C :   -0.375003
  33 H :    0.056413
  34 H :    0.337898
  35 H :    0.061870
  36 H :    0.369564
  37 H :    0.151805
  38 H :    0.135829
Sum of atomic charges:   -0.0000000

LOEWDIN ATOMIC CHARGES
----------------------
   0 C :   -0.221881
   1 C :   -0.134244
   2 C :   -0.183884
   3 C :   -0.090234
   4 H :    0.124852
   5 H :    0.110279
   6 C :   -0.442685
   7 C :   -0.521877
   8 N :    0.129138
   9 N :    0.127991
  10 H :    0.097229
  11 H :    0.029778
  12 H :    0.031412
  13 H :    0.090221
  14 H :    0.091070
  15 F :    0.198423
  16 O :    0.099270
  17 C :   -0.195622
  18 H :    0.106305
  19 H :    0.091640
  20 C :   -0.210951
  21 C :   -0.199679
  22 H :    0.106514
  23 H :    0.118958
  24 H :    0.111655
  25 H :    0.113767
  26 C :   -0.210612
  27 H :    0.102800
  28 H :    0.109253
  29 C :   -0.210595
  30 H :    0.121028
  31 H :    0.078692
  32 C :   -0.204571
  33 H :    0.110329
  34 H :    0.106539
  35 H :    0.112356
  36 H :    0.096446
  37 H :    0.106072
  38 H :    0.104816

  Mayer bond orders larger than 0.100000
B(  0-C ,  1-C ) :   0.8346 B(  0-C , 12-H ) :  -0.1253 B(  0-C , 17-C ) :   0.8471
B(  0-C , 18-H ) :   0.9175 B(  0-C , 19-H ) :   0.9772 B(  0-C , 26-C ) :   0.2555
B(  1-C ,  7-C ) :   1.2980 B(  1-C , 12-H ) :  -1.0920 B(  1-C , 19-H ) :  -0.1914
B(  1-C , 26-C ) :   0.3626 B(  1-C , 31-H ) :  -0.1548 B(  2-C ,  3-C ) :   0.9267
B(  2-C ,  6-C ) :   0.1789 B(  2-C , 20-C ) :   0.1382 B(  2-C , 21-C ) :   1.2350
B(  2-C , 24-H ) :   0.8478 B(  2-C , 25-H ) :   0.9023 B(  3-C ,  4-H ) :   0.8577
B(  3-C ,  5-H ) :   0.8840 B(  3-C ,  6-C ) :   1.1267 B(  3-C , 20-C ) :   0.1614
B(  6-C , 15-F ) :   0.8539 B(  6-C , 16-O ) :   1.2174 B(  6-C , 21-C ) :   0.1321
B(  7-C ,  8-N ) :   0.9021 B(  7-C ,  9-N ) :   0.9867 B(  7-C , 12-H ) :   0.3824
B(  8-N , 13-H ) :   0.9802 B(  8-N , 14-H ) :   1.0954 B(  8-N , 17-C ) :   0.1040
B(  9-N , 10-H ) :   1.0568 B(  9-N , 11-H ) :   0.8304 B( 12-H , 15-F ) :  -0.3498
B( 12-H , 16-O ) :   0.1067 B( 12-H , 26-C ) :  -0.1552 B( 17-C , 26-C ) :   0.7937
B( 17-C , 27-H ) :   0.9738 B( 17-C , 28-H ) :   0.7375 B( 17-C , 29-C ) :   0.5160
B( 17-C , 30-H ) :  -0.1132 B( 20-C , 21-C ) :   0.5493 B( 20-C , 26-C ) :   0.1251
B( 20-C , 32-C ) :   1.1832 B( 20-C , 35-H ) :   0.9179 B( 20-C , 36-H ) :   0.8234
B( 21-C , 22-H ) :   0.7953 B( 21-C , 23-H ) :   0.8812 B( 21-C , 26-C ) :  -0.1060
B( 21-C , 29-C ) :   0.1838 B( 21-C , 32-C ) :   0.1452 B( 21-C , 36-H ) :  -0.1090
B( 26-C , 29-C ) :   0.6664 B( 26-C , 30-H ) :   0.6863 B( 26-C , 31-H ) :   1.5954
B( 26-C , 32-C ) :   0.1900 B( 29-C , 31-H ) :  -0.1012 B( 29-C , 32-C ) :   1.0771
B( 29-C , 33-H ) :   0.9620 B( 29-C , 34-H ) :   0.7750 B( 30-H , 31-H ) :   0.1608
B( 32-C , 37-H ) :   0.8877 B( 32-C , 38-H ) :   0.8940

Dispersion correction           -0.055555497
FINAL SINGLE POINT ENERGY      -756.097218199020

DIPOLE MOMENT
-------------
                                X             Y             Z
Electronic contribution:     11.33946       8.96489       5.90989
Nuclear contribution   :    -11.48003      -8.36271      -6.78621
                        -----------------------------------------
Total Dipole Moment    :     -0.14057       0.60218      -0.87633
                        -----------------------------------------
Magnitude (a.u.)       :      1.07253
Magnitude (Debye)      :      2.72616

Rotational constants in cm-1:     0.020055     0.013548     0.009477
Rotational constants in MHz :   601.234832   406.162779   284.104317

                             ****ORCA TERMINATED NORMALLY****
TOTAL RUN TIME: 0 days 0 hours 4 minutes 15 seconds 795 msec
