                         Program Version 5.0.0 -  RELEASE  -
|  1> !TPSS D3BJ RIJCOSX def2-TZVPD def2/J TightSCF xyzfile
|  2>
|  3> *xyzfile 0 1 D2.xyz
|  4>
|  5> %MaxCore 64000
|  6>
|  7> %pal nprocs 4
|  8> end
|  9>
| 10> %scf
| 11>   MaxIter 150
| 12> end
| 13>
| 14>
| 15>                          ****END OF INPUT****

CARTESIAN COORDINATES (ANGSTROEM)
---------------------------------
  C      3.913853   -1.658291    3.015134
  N      5.039266   -0.901154    2.492821
  C      4.084215    1.742081   -2.114724
  C      4.265245    2.500518   -0.795890
  H      4.868534    3.392674   -0.981134
  H      3.307640    2.824571   -0.387809
  C      4.982240    1.650257    0.247422
  C      6.210384   -1.417261    2.178244
  C      6.535913   -2.677122    2.556078
  N      7.076754   -0.700820    1.478906
  H      7.954643   -1.121554    1.207554
  H      6.756161    0.106637    0.960278
  H      4.842168    0.017609    2.115191
  H      5.993876   -3.126918    3.282784
  H      7.498441   -2.975482    2.468776
  F      4.368065    1.389270    1.313706
  O      6.128919    1.233512   -0.045620
  C      3.139159   -2.376572    1.910609
  H      3.267235   -0.939401    3.520693
  H      4.247195   -2.355095    3.790065
  C      1.997274    0.430918   -1.399218
  C      3.412746    0.376886   -1.965497
  H      4.047407   -0.246590   -1.326706
  H      3.390774   -0.118719   -2.942839
  H      5.068475    1.598504   -2.565728
  H      3.503356    2.363939   -2.804565
  C      2.399946   -1.389579    1.009490
  H      2.440750   -3.087118    2.362976
  H      3.844475   -2.970462    1.318677
  C      2.070177   -1.936705   -0.372401
  H      1.481611   -1.061542    1.509912
  H      3.008628   -0.490001    0.897451
  C      1.322238   -0.935775   -1.256413
  H      1.472747   -2.850902   -0.283997
  H      3.003539   -2.234041   -0.862535
  H      1.376444    1.058920   -2.047420
  H      2.015341    0.929780   -0.426535
  H      0.316648   -0.787213   -0.848278
  H      1.185611   -1.379252   -2.248613

 Total Charge           Charge          ....    0
 Multiplicity           Mult            ....    1
 Number of Electrons    NEL             ....  126
 Basis Dimension        Dim             ....  805

ORBITAL ENERGIES
----------------

  NO   OCC          E(Eh)            E(eV)
   0   2.0000     -24.513843      -667.0556
   1   2.0000     -18.919195      -514.8175
   2   2.0000     -14.084480      -383.2582
   3   2.0000     -14.065480      -382.7412
   4   2.0000     -10.178938      -276.9830
   5   2.0000     -10.031243      -272.9640
   6   2.0000     -10.010738      -272.4060
   7   2.0000     -10.007485      -272.3175
   8   2.0000     -10.005762      -272.2706
   9   2.0000      -9.995902      -272.0023
  10   2.0000      -9.991428      -271.8806
  11   2.0000      -9.985606      -271.7221
  12   2.0000      -9.980071      -271.5715
  13   2.0000      -9.978824      -271.5376
  14   2.0000      -9.971159      -271.3290
  15   2.0000      -9.882386      -268.9134
  16   2.0000      -1.276910       -34.7465
  17   2.0000      -1.001174       -27.2433
  18   2.0000      -0.887435       -24.1483
  19   2.0000      -0.806759       -21.9530
  20   2.0000      -0.781326       -21.2610
  21   2.0000      -0.752908       -20.4877
  22   2.0000      -0.720340       -19.6014
  23   2.0000      -0.687616       -18.7110
  24   2.0000      -0.658243       -17.9117
  25   2.0000      -0.639664       -17.4061
  26   2.0000      -0.624690       -16.9987
  27   2.0000      -0.604080       -16.4379
  28   2.0000      -0.569147       -15.4873
  29   2.0000      -0.550071       -14.9682
  30   2.0000      -0.530852       -14.4452
  31   2.0000      -0.521172       -14.1818
  32   2.0000      -0.518691       -14.1143
  33   2.0000      -0.502712       -13.6795
  34   2.0000      -0.489741       -13.3265
  35   2.0000      -0.466788       -12.7020
  36   2.0000      -0.453702       -12.3459
  37   2.0000      -0.444042       -12.0830
  38   2.0000      -0.443863       -12.0781
  39   2.0000      -0.425588       -11.5808
  40   2.0000      -0.409859       -11.1528
  41   2.0000      -0.406216       -11.0537
  42   2.0000      -0.390340       -10.6217
  43   2.0000      -0.385333       -10.4855
  44   2.0000      -0.378666       -10.3040
  45   2.0000      -0.368861       -10.0372
  46   2.0000      -0.361725        -9.8430
  47   2.0000      -0.355090        -9.6625
  48   2.0000      -0.339576        -9.2403
  49   2.0000      -0.337352        -9.1798
  50   2.0000      -0.332180        -9.0391
  51   2.0000      -0.326859        -8.8943
  52   2.0000      -0.322145        -8.7660
  53   2.0000      -0.315979        -8.5982
  54   2.0000      -0.307434        -8.3657
  55   2.0000      -0.301351        -8.2002
  56   2.0000      -0.295911        -8.0521
  57   2.0000      -0.284675        -7.7464
  58   2.0000      -0.284443        -7.7401
  59   2.0000      -0.277410        -7.5487
  60   2.0000      -0.270380        -7.3574
  61   2.0000      -0.192320        -5.2333
  62   2.0000      -0.119051        -3.2395
  63   0.0000      -0.091560        -2.4915
  64   0.0000      -0.016749        -0.4558
  65   0.0000      -0.001213        -0.0330
  66   0.0000       0.000907         0.0247
  67   0.0000       0.006285         0.1710

MULLIKEN ATOMIC CHARGES
-----------------------
   0 C :   -0.742054
   1 N :   -0.425782
   2 C :   -0.278299
   3 C :   -0.306235
   4 H :    0.084574
   5 H :    0.282934
   6 C :    0.874348
   7 C :    1.008222
   8 C :   -1.437593
   9 N :   -0.482625
  10 H :    0.127947
  11 H :    0.264914
  12 H :    0.501236
  13 H :    0.273181
  14 H :    0.288108
  15 F :   -0.355177
  16 O :   -0.745406
  17 C :   -0.237035
  18 H :    0.193808
  19 H :    0.225336
  20 C :   -0.337224
  21 C :   -0.494395
  22 H :    0.395331
  23 H :    0.077720
  24 H :    0.210896
  25 H :    0.087186
  26 C :   -0.027124
  27 H :    0.169257
  28 H :    0.313744
  29 C :   -0.352400
  30 H :    0.222749
  31 H :   -0.091109
  32 C :   -0.384385
  33 H :    0.066321
  34 H :    0.314153
  35 H :    0.064483
  36 H :    0.356758
  37 H :    0.162871
  38 H :    0.130767
Sum of atomic charges:    0.0000000

LOEWDIN ATOMIC CHARGES
----------------------
   0 C :   -0.179546
   1 N :    0.037678
   2 C :   -0.182557
   3 C :   -0.091271
   4 H :    0.125451
   5 H :    0.110117
   6 C :   -0.451787
   7 C :   -0.550273
   8 C :    0.007607
   9 N :    0.136859
  10 H :    0.111410
  11 H :    0.023613
  12 H :    0.087023
  13 H :   -0.009175
  14 H :    0.000544
  15 F :    0.198645
  16 O :    0.098899
  17 C :   -0.175185
  18 H :    0.115567
  19 H :    0.106617
  20 C :   -0.210915
  21 C :   -0.199102
  22 H :    0.106010
  23 H :    0.120158
  24 H :    0.112760
  25 H :    0.114694
  26 C :   -0.212798
  27 H :    0.110521
  28 H :    0.110148
  29 C :   -0.208286
  30 H :    0.120700
  31 H :    0.075564
  32 C :   -0.202937
  33 H :    0.112393
  34 H :    0.108840
  35 H :    0.113399
  36 H :    0.095434
  37 H :    0.106753
  38 H :    0.106426

  Mayer bond orders larger than 0.100000
B(  0-C ,  1-N ) :   1.1039 B(  0-C , 17-C ) :   0.8925 B(  0-C , 18-H ) :   0.8048
B(  0-C , 19-H ) :   0.8680 B(  0-C , 26-C ) :   0.2954 B(  1-N ,  7-C ) :   1.0067
B(  1-N ,  8-C ) :   0.1386 B(  1-N , 12-H ) :   0.5210 B(  2-C ,  3-C ) :   0.9244
B(  2-C ,  6-C ) :   0.1796 B(  2-C , 20-C ) :   0.1459 B(  2-C , 21-C ) :   1.2492
B(  2-C , 24-H ) :   0.8404 B(  2-C , 25-H ) :   0.9012 B(  3-C ,  4-H ) :   0.8699
B(  3-C ,  5-H ) :   0.8811 B(  3-C ,  6-C ) :   1.1165 B(  3-C , 20-C ) :   0.1595
B(  6-C , 15-F ) :   0.7707 B(  6-C , 16-O ) :   1.2324 B(  6-C , 21-C ) :   0.1276
B(  7-C ,  8-C ) :   0.8592 B(  7-C ,  9-N ) :   0.8425 B(  8-C ,  9-N ) :   0.1300
B(  8-C , 13-H ) :   1.0653 B(  8-C , 14-H ) :   0.9965 B(  9-N , 10-H ) :   1.0399
B(  9-N , 11-H ) :   0.8006 B( 15-F , 16-O ) :   0.1068 B( 17-C , 26-C ) :   0.8134
B( 17-C , 27-H ) :   0.9813 B( 17-C , 28-H ) :   0.7314 B( 17-C , 29-C ) :   0.4974
B( 17-C , 30-H ) :  -0.1321 B( 20-C , 21-C ) :   0.5296 B( 20-C , 32-C ) :   1.2112
B( 20-C , 35-H ) :   0.9213 B( 20-C , 36-H ) :   0.8250 B( 21-C , 22-H ) :   0.8294
B( 21-C , 23-H ) :   0.8775 B( 21-C , 29-C ) :   0.1678 B( 21-C , 32-C ) :   0.1634
B( 21-C , 36-H ) :  -0.1100 B( 26-C , 29-C ) :   0.6736 B( 26-C , 30-H ) :   0.6832
B( 26-C , 31-H ) :   1.7276 B( 26-C , 32-C ) :   0.2066 B( 29-C , 31-H ) :  -0.1111
B( 29-C , 32-C ) :   1.1029 B( 29-C , 33-H ) :   0.9424 B( 29-C , 34-H ) :   0.7971
B( 30-H , 31-H ) :   0.1406 B( 32-C , 37-H ) :   0.8784 B( 32-C , 38-H ) :   0.8925

Dispersion correction           -0.055265220
FINAL SINGLE POINT ENERGY      -756.095786735386

DIPOLE MOMENT
-------------
                                X             Y             Z
Electronic contribution:      9.84514      10.36939       5.63987
Nuclear contribution   :    -11.22009      -8.67117      -6.77523
                        -----------------------------------------
Total Dipole Moment    :     -1.37495       1.69823      -1.13536
                        -----------------------------------------
Magnitude (a.u.)       :      2.46242
Magnitude (Debye)      :      6.25896

Rotational constants in cm-1:     0.020086     0.013778     0.009581
Rotational constants in MHz :   602.172053   413.051122   287.243919

                             ****ORCA TERMINATED NORMALLY****
TOTAL RUN TIME: 0 days 0 hours 3 minutes 41 seconds 490 msec
