                         Program Version 5.0.0 -  RELEASE  -
|  1> !TPSS D3BJ RIJCOSX def2-TZVPD def2/J TightSCF xyzfile
|  2>
|  3> *xyzfile 0 1 D3.xyz
|  4>
|  5> %MaxCore 64000
|  6>
|  7> %pal nprocs 4
|  8> end
|  9>
| 10> %scf
| 11>   MaxIter 150
| 12> end
| 13>
| 14>
| 15>                          ****END OF INPUT****

CARTESIAN COORDINATES (ANGSTROEM)
---------------------------------
  C      3.913853   -1.658291    3.015134
  N      5.039266   -0.901154    2.492821
  C      4.084215    1.742081   -2.114724
  C      4.265245    2.500518   -0.795890
  H      4.868534    3.392674   -0.981134
  H      3.307640    2.824571   -0.387809
  C      4.982240    1.650257    0.247422
  C      6.210384   -1.417261    2.178244
  N      6.535913   -2.677122    2.556078
  C      7.076754   -0.700820    1.478906
  H      7.954643   -1.121554    1.207554
  H      6.756161    0.106637    0.960278
  H      4.842168    0.017609    2.115191
  H      5.993876   -3.126918    3.282784
  H      7.498441   -2.975482    2.468776
  F      4.368065    1.389270    1.313706
  O      6.128919    1.233512   -0.045620
  C      3.139159   -2.376572    1.910609
  H      3.267235   -0.939401    3.520693
  H      4.247195   -2.355095    3.790065
  C      1.997274    0.430918   -1.399218
  C      3.412746    0.376886   -1.965497
  H      4.047407   -0.246590   -1.326706
  H      3.390774   -0.118719   -2.942839
  H      5.068475    1.598504   -2.565728
  H      3.503356    2.363939   -2.804565
  C      2.399946   -1.389579    1.009490
  H      2.440750   -3.087118    2.362976
  H      3.844475   -2.970462    1.318677
  C      2.070177   -1.936705   -0.372401
  H      1.481611   -1.061542    1.509912
  H      3.008628   -0.490001    0.897451
  C      1.322238   -0.935775   -1.256413
  H      1.472747   -2.850902   -0.283997
  H      3.003539   -2.234041   -0.862535
  H      1.376444    1.058920   -2.047420
  H      2.015341    0.929780   -0.426535
  H      0.316648   -0.787213   -0.848278
  H      1.185611   -1.379252   -2.248613

 Total Charge           Charge          ....    0
 Multiplicity           Mult            ....    1
 Number of Electrons    NEL             ....  126
 Basis Dimension        Dim             ....  805

ORBITAL ENERGIES
----------------

  NO   OCC          E(Eh)            E(eV)
   0   2.0000     -24.497928      -666.6225
   1   2.0000     -18.893151      -514.1088
   2   2.0000     -14.085447      -383.2845
   3   2.0000     -14.080815      -383.1585
   4   2.0000     -10.159460      -276.4530
   5   2.0000     -10.018817      -272.6259
   6   2.0000     -10.014229      -272.5010
   7   2.0000     -10.001720      -272.1606
   8   2.0000     -10.001203      -272.1466
   9   2.0000      -9.988725      -271.8070
  10   2.0000      -9.986796      -271.7545
  11   2.0000      -9.983570      -271.6668
  12   2.0000      -9.980480      -271.5827
  13   2.0000      -9.980077      -271.5717
  14   2.0000      -9.976912      -271.4856
  15   2.0000      -9.862673      -268.3770
  16   2.0000      -1.261467       -34.3263
  17   2.0000      -0.976534       -26.5728
  18   2.0000      -0.886402       -24.1202
  19   2.0000      -0.807920       -21.9846
  20   2.0000      -0.773303       -21.0426
  21   2.0000      -0.749534       -20.3958
  22   2.0000      -0.721508       -19.6332
  23   2.0000      -0.685684       -18.6584
  24   2.0000      -0.660016       -17.9600
  25   2.0000      -0.634670       -17.2703
  26   2.0000      -0.612945       -16.6791
  27   2.0000      -0.594010       -16.1638
  28   2.0000      -0.559569       -15.2267
  29   2.0000      -0.550376       -14.9765
  30   2.0000      -0.533887       -14.5278
  31   2.0000      -0.518403       -14.1065
  32   2.0000      -0.509701       -13.8697
  33   2.0000      -0.491795       -13.3824
  34   2.0000      -0.482642       -13.1334
  35   2.0000      -0.463272       -12.6063
  36   2.0000      -0.446790       -12.1578
  37   2.0000      -0.438883       -11.9426
  38   2.0000      -0.430665       -11.7190
  39   2.0000      -0.419130       -11.4051
  40   2.0000      -0.416344       -11.3293
  41   2.0000      -0.400708       -10.9038
  42   2.0000      -0.390217       -10.6183
  43   2.0000      -0.387367       -10.5408
  44   2.0000      -0.374690       -10.1958
  45   2.0000      -0.362352        -9.8601
  46   2.0000      -0.355417        -9.6714
  47   2.0000      -0.350192        -9.5292
  48   2.0000      -0.335562        -9.1311
  49   2.0000      -0.331496        -9.0205
  50   2.0000      -0.326940        -8.8965
  51   2.0000      -0.325267        -8.8510
  52   2.0000      -0.316861        -8.6222
  53   2.0000      -0.310650        -8.4532
  54   2.0000      -0.305476        -8.3124
  55   2.0000      -0.302394        -8.2286
  56   2.0000      -0.295480        -8.0404
  57   2.0000      -0.283927        -7.7260
  58   2.0000      -0.282540        -7.6883
  59   2.0000      -0.277989        -7.5645
  60   2.0000      -0.228778        -6.2254
  61   2.0000      -0.201788        -5.4909
  62   2.0000      -0.113451        -3.0872
  63   0.0000      -0.073285        -1.9942
  64   0.0000      -0.010239        -0.2786
  65   0.0000      -0.000736        -0.0200
  66   0.0000       0.002168         0.0590
  67   0.0000       0.005971         0.1625

MULLIKEN ATOMIC CHARGES
-----------------------
   0 C :   -0.780918
   1 N :   -0.318404
   2 C :   -0.271670
   3 C :   -0.314326
   4 H :    0.069958
   5 H :    0.280780
   6 C :    0.855022
   7 C :    1.173802
   8 N :   -0.501144
   9 C :   -2.141111
  10 H :    0.172706
  11 H :    0.948487
  12 H :    0.411102
  13 H :    0.126975
  14 H :    0.144678
  15 F :   -0.341764
  16 O :   -0.626959
  17 C :   -0.215175
  18 H :    0.154004
  19 H :    0.260950
  20 C :   -0.339787
  21 C :   -0.524514
  22 H :    0.429748
  23 H :    0.073868
  24 H :    0.202326
  25 H :    0.086320
  26 C :    0.055551
  27 H :    0.187262
  28 H :    0.303885
  29 C :   -0.382544
  30 H :    0.246006
  31 H :   -0.172477
  32 C :   -0.372039
  33 H :    0.064875
  34 H :    0.335042
  35 H :    0.063683
  36 H :    0.357594
  37 H :    0.162485
  38 H :    0.135721
Sum of atomic charges:    0.0000000

LOEWDIN ATOMIC CHARGES
----------------------
   0 C :   -0.184582
   1 N :    0.038457
   2 C :   -0.183402
   3 C :   -0.094466
   4 H :    0.124115
   5 H :    0.107356
   6 C :   -0.453030
   7 C :   -0.542092
   8 N :    0.121532
   9 C :    0.017170
  10 H :    0.012318
  11 H :   -0.047010
  12 H :    0.092617
  13 H :    0.079097
  14 H :    0.103500
  15 F :    0.195690
  16 O :    0.097018
  17 C :   -0.180624
  18 H :    0.115827
  19 H :    0.101357
  20 C :   -0.211074
  21 C :   -0.199089
  22 H :    0.106915
  23 H :    0.119207
  24 H :    0.112932
  25 H :    0.113190
  26 C :   -0.210996
  27 H :    0.107891
  28 H :    0.111241
  29 C :   -0.208939
  30 H :    0.121564
  31 H :    0.077991
  32 C :   -0.203195
  33 H :    0.111388
  34 H :    0.108852
  35 H :    0.113118
  36 H :    0.095558
  37 H :    0.106278
  38 H :    0.106319

  Mayer bond orders larger than 0.100000
B(  0-C ,  1-N ) :   1.0836 B(  0-C ,  7-C ) :  -0.1407 B(  0-C ,  8-N ) :   0.1050
B(  0-C , 17-C ) :   0.8342 B(  0-C , 18-H ) :   0.9022 B(  0-C , 19-H ) :   0.8714
B(  0-C , 26-C ) :   0.2112 B(  1-N ,  7-C ) :   1.1361 B(  1-N ,  9-C ) :   0.1306
B(  1-N , 12-H ) :   0.6109 B(  2-C ,  3-C ) :   0.9232 B(  2-C ,  6-C ) :   0.1808
B(  2-C , 20-C ) :   0.1479 B(  2-C , 21-C ) :   1.2598 B(  2-C , 24-H ) :   0.8418
B(  2-C , 25-H ) :   0.9036 B(  3-C ,  4-H ) :   0.8724 B(  3-C ,  5-H ) :   0.8755
B(  3-C ,  6-C ) :   1.1168 B(  3-C , 20-C ) :   0.1535 B(  6-C ,  9-C ) :  -0.1425
B(  6-C , 15-F ) :   0.7508 B(  6-C , 16-O ) :   1.3315 B(  6-C , 21-C ) :   0.1233
B(  7-C ,  8-N ) :   0.7743 B(  7-C ,  9-C ) :   0.6660 B(  7-C , 10-H ) :  -0.2400
B(  8-N , 13-H ) :   1.0613 B(  8-N , 14-H ) :   1.0301 B(  9-C , 10-H ) :   1.2797
B(  9-C , 11-H ) :   0.2872 B(  9-C , 16-O ) :   0.2512 B( 10-H , 11-H ) :   0.1463
B( 11-H , 16-O ) :  -0.3484 B( 12-H , 15-F ) :  -0.1185 B( 15-F , 16-O ) :   0.1090
B( 17-C , 26-C ) :   0.8101 B( 17-C , 27-H ) :   0.9966 B( 17-C , 28-H ) :   0.7267
B( 17-C , 29-C ) :   0.4873 B( 17-C , 30-H ) :  -0.1324 B( 20-C , 21-C ) :   0.5169
B( 20-C , 32-C ) :   1.1878 B( 20-C , 35-H ) :   0.9238 B( 20-C , 36-H ) :   0.8269
B( 21-C , 22-H ) :   0.7789 B( 21-C , 23-H ) :   0.8926 B( 21-C , 29-C ) :   0.1733
B( 21-C , 32-C ) :   0.1489 B( 21-C , 36-H ) :  -0.1119 B( 26-C , 29-C ) :   0.6768
B( 26-C , 30-H ) :   0.7073 B( 26-C , 31-H ) :   1.7246 B( 26-C , 32-C ) :   0.2011
B( 29-C , 31-H ) :  -0.1298 B( 29-C , 32-C ) :   1.0950 B( 29-C , 33-H ) :   0.9547
B( 29-C , 34-H ) :   0.7898 B( 30-H , 31-H ) :   0.1145 B( 32-C , 37-H ) :   0.8808
B( 32-C , 38-H ) :   0.8927

Dispersion correction           -0.055329703
FINAL SINGLE POINT ENERGY      -756.075635253421

DIPOLE MOMENT
-------------
                                X             Y             Z
Electronic contribution:      9.52984       8.60448       6.73955
Nuclear contribution   :    -11.12616      -8.32792      -6.96231
                        -----------------------------------------
Total Dipole Moment    :     -1.59631       0.27656      -0.22276
                        -----------------------------------------
Magnitude (a.u.)       :      1.63533
Magnitude (Debye)      :      4.15669

Rotational constants in cm-1:     0.020226     0.013574     0.009520
Rotational constants in MHz :   606.360011   406.923773   285.390769

                             ****ORCA TERMINATED NORMALLY****
TOTAL RUN TIME: 0 days 0 hours 4 minutes 2 seconds 146 msec
