                         Program Version 5.0.0 -  RELEASE  -
|  1> !TPSS D3BJ RIJCOSX def2-TZVPD def2/J TightSCF xyzfile
|  2>
|  3> *xyzfile 0 1 D4.xyz
|  4>
|  5> %MaxCore 64000
|  6>
|  7> %pal nprocs 4
|  8> end
|  9>
| 10> %scf
| 11>   MaxIter 150
| 12> end
| 13>
| 14>
| 15>                          ****END OF INPUT****

CARTESIAN COORDINATES (ANGSTROEM)
---------------------------------
  C      3.913853   -1.658291    3.015134
  C      5.039266   -0.901154    2.492821
  C      4.084215    1.742081   -2.114724
  C      4.265245    2.500518   -0.795890
  H      4.868534    3.392674   -0.981134
  H      3.307640    2.824571   -0.387809
  C      4.982240    1.650257    0.247422
  C      6.210384   -1.417261    2.178244
  N      6.535913   -2.677122    2.556078
  N      7.076754   -0.700820    1.478906
  H      7.954643   -1.121554    1.207554
  H      6.756161    0.106637    0.960278
  H      4.842168    0.017609    2.115191
  H      5.993876   -3.126918    3.282784
  H      7.498441   -2.975482    2.468776
  O      4.368065    1.389270    1.313706
  F      6.128919    1.233512   -0.045620
  C      3.139159   -2.376572    1.910609
  H      3.267235   -0.939401    3.520693
  H      4.247195   -2.355095    3.790065
  C      1.997274    0.430918   -1.399218
  C      3.412746    0.376886   -1.965497
  H      4.047407   -0.246590   -1.326706
  H      3.390774   -0.118719   -2.942839
  H      5.068475    1.598504   -2.565728
  H      3.503356    2.363939   -2.804565
  C      2.399946   -1.389579    1.009490
  H      2.440750   -3.087118    2.362976
  H      3.844475   -2.970462    1.318677
  C      2.070177   -1.936705   -0.372401
  H      1.481611   -1.061542    1.509912
  H      3.008628   -0.490001    0.897451
  C      1.322238   -0.935775   -1.256413
  H      1.472747   -2.850902   -0.283997
  H      3.003539   -2.234041   -0.862535
  H      1.376444    1.058920   -2.047420
  H      2.015341    0.929780   -0.426535
  H      0.316648   -0.787213   -0.848278
  H      1.185611   -1.379252   -2.248613

 Total Charge           Charge          ....    0
 Multiplicity           Mult            ....    1
 Number of Electrons    NEL             ....  126
 Basis Dimension        Dim             ....  805

ORBITAL ENERGIES
----------------

  NO   OCC          E(Eh)            E(eV)
   0   2.0000     -24.502984      -666.7601
   1   2.0000     -18.898334      -514.2498
   2   2.0000     -14.087621      -383.3437
   3   2.0000     -14.079031      -383.1099
   4   2.0000     -10.163935      -276.5747
   5   2.0000     -10.020454      -272.6704
   6   2.0000     -10.005200      -272.2553
   7   2.0000     -10.000931      -272.1392
   8   2.0000      -9.988968      -271.8136
   9   2.0000      -9.979021      -271.5430
  10   2.0000      -9.973270      -271.3865
  11   2.0000      -9.964914      -271.1591
  12   2.0000      -9.954418      -270.8735
  13   2.0000      -9.949980      -270.7527
  14   2.0000      -9.944419      -270.6014
  15   2.0000      -9.874434      -268.6970
  16   2.0000      -1.267581       -34.4926
  17   2.0000      -0.979266       -26.6472
  18   2.0000      -0.878316       -23.9002
  19   2.0000      -0.795944       -21.6587
  20   2.0000      -0.773214       -21.0402
  21   2.0000      -0.741055       -20.1651
  22   2.0000      -0.713717       -19.4212
  23   2.0000      -0.686021       -18.6676
  24   2.0000      -0.654123       -17.7996
  25   2.0000      -0.629522       -17.1302
  26   2.0000      -0.614998       -16.7350
  27   2.0000      -0.582061       -15.8387
  28   2.0000      -0.555387       -15.1129
  29   2.0000      -0.538668       -14.6579
  30   2.0000      -0.519287       -14.1305
  31   2.0000      -0.516731       -14.0610
  32   2.0000      -0.504480       -13.7276
  33   2.0000      -0.492532       -13.4025
  34   2.0000      -0.483809       -13.1651
  35   2.0000      -0.465935       -12.6787
  36   2.0000      -0.442252       -12.0343
  37   2.0000      -0.436808       -11.8861
  38   2.0000      -0.434810       -11.8318
  39   2.0000      -0.414785       -11.2869
  40   2.0000      -0.407086       -11.0774
  41   2.0000      -0.395173       -10.7532
  42   2.0000      -0.384318       -10.4578
  43   2.0000      -0.369300       -10.0492
  44   2.0000      -0.368226       -10.0199
  45   2.0000      -0.360455        -9.8085
  46   2.0000      -0.352043        -9.5796
  47   2.0000      -0.344201        -9.3662
  48   2.0000      -0.338096        -9.2001
  49   2.0000      -0.331627        -9.0240
  50   2.0000      -0.323297        -8.7974
  51   2.0000      -0.321847        -8.7579
  52   2.0000      -0.304308        -8.2806
  53   2.0000      -0.298327        -8.1179
  54   2.0000      -0.295579        -8.0431
  55   2.0000      -0.288508        -7.8507
  56   2.0000      -0.274633        -7.4731
  57   2.0000      -0.266809        -7.2602
  58   2.0000      -0.262952        -7.1553
  59   2.0000      -0.258448        -7.0327
  60   2.0000      -0.225230        -6.1288
  61   2.0000      -0.210911        -5.7392
  62   2.0000      -0.113601        -3.0912
  63   0.0000      -0.074641        -2.0311
  64   0.0000      -0.014100        -0.3837
  65   0.0000      -0.001171        -0.0319
  66   0.0000       0.007425         0.2020
  67   0.0000       0.008393         0.2284

MULLIKEN ATOMIC CHARGES
-----------------------
   0 C :   -0.344134
   1 C :   -1.802912
   2 C :   -0.305226
   3 C :   -0.239991
   4 H :    0.112301
   5 H :    0.247301
   6 C :    0.826720
   7 C :    0.496931
   8 N :   -0.496411
   9 N :   -0.492667
  10 H :    0.133152
  11 H :    0.272953
  12 H :    1.311611
  13 H :    0.161237
  14 H :    0.104621
  15 O :   -0.567788
  16 F :   -0.393139
  17 C :   -0.390116
  18 H :    0.106840
  19 H :    0.284296
  20 C :   -0.409692
  21 C :   -0.382469
  22 H :    0.342572
  23 H :    0.078708
  24 H :    0.203728
  25 H :    0.100463
  26 C :    0.045124
  27 H :    0.143352
  28 H :    0.300200
  29 C :   -0.378803
  30 H :    0.172320
  31 H :    0.022671
  32 C :   -0.380036
  33 H :    0.048423
  34 H :    0.336536
  35 H :    0.065803
  36 H :    0.382468
  37 H :    0.149392
  38 H :    0.133661
Sum of atomic charges:   -0.0000000

LOEWDIN ATOMIC CHARGES
----------------------
   0 C :   -0.216361
   1 C :   -0.130125
   2 C :   -0.190137
   3 C :   -0.088602
   4 H :    0.120244
   5 H :    0.118287
   6 C :   -0.452855
   7 C :   -0.523153
   8 N :    0.127749
   9 N :    0.126530
  10 H :    0.097203
  11 H :    0.058482
  12 H :    0.010577
  13 H :    0.090923
  14 H :    0.089010
  15 O :    0.089469
  16 F :    0.209266
  17 C :   -0.194927
  18 H :    0.108797
  19 H :    0.090651
  20 C :   -0.207639
  21 C :   -0.200807
  22 H :    0.105520
  23 H :    0.117880
  24 H :    0.107379
  25 H :    0.113087
  26 C :   -0.207705
  27 H :    0.102143
  28 H :    0.107842
  29 C :   -0.211929
  30 H :    0.121881
  31 H :    0.079310
  32 C :   -0.204687
  33 H :    0.109347
  34 H :    0.104832
  35 H :    0.112259
  36 H :    0.100236
  37 H :    0.106284
  38 H :    0.103737

  Mayer bond orders larger than 0.100000
B(  0-C ,  1-C ) :   0.9686 B(  0-C ,  7-C ) :   0.1046 B(  0-C , 12-H ) :  -0.1070
B(  0-C , 17-C ) :   0.8556 B(  0-C , 18-H ) :   0.8994 B(  0-C , 19-H ) :   0.9739
B(  0-C , 26-C ) :   0.2256 B(  1-C ,  6-C ) :  -0.1354 B(  1-C ,  7-C ) :   1.3450
B(  1-C , 12-H ) :  -1.0341 B(  1-C , 15-O ) :   0.2961 B(  1-C , 19-H ) :  -0.1998
B(  1-C , 26-C ) :   0.4089 B(  1-C , 31-H ) :  -0.1966 B(  2-C ,  3-C ) :   0.8839
B(  2-C ,  6-C ) :   0.1582 B(  2-C , 20-C ) :   0.1491 B(  2-C , 21-C ) :   1.1632
B(  2-C , 24-H ) :   0.8821 B(  2-C , 25-H ) :   0.8858 B(  3-C ,  4-H ) :   0.8817
B(  3-C ,  5-H ) :   0.8984 B(  3-C ,  6-C ) :   1.1146 B(  3-C , 20-C ) :   0.1698
B(  6-C , 15-O ) :   1.5811 B(  6-C , 16-F ) :   0.5394 B(  6-C , 21-C ) :   0.1139
B(  7-C ,  8-N ) :   0.8847 B(  7-C ,  9-N ) :   1.0088 B(  7-C , 12-H ) :   0.3501
B(  8-N , 13-H ) :   0.9788 B(  8-N , 14-H ) :   1.1013 B(  8-N , 17-C ) :   0.1035
B(  9-N , 10-H ) :   1.0692 B(  9-N , 11-H ) :   0.8074 B( 12-H , 15-O ) :  -0.6177
B( 12-H , 26-C ) :  -0.1903 B( 15-O , 16-F ) :   0.1549 B( 17-C , 26-C ) :   0.8200
B( 17-C , 27-H ) :   0.9752 B( 17-C , 28-H ) :   0.7355 B( 17-C , 29-C ) :   0.5109
B( 17-C , 30-H ) :  -0.1066 B( 20-C , 21-C ) :   0.6289 B( 20-C , 26-C ) :   0.1269
B( 20-C , 32-C ) :   1.1810 B( 20-C , 35-H ) :   0.9162 B( 20-C , 36-H ) :   0.7954
B( 21-C , 22-H ) :   0.8210 B( 21-C , 23-H ) :   0.8945 B( 21-C , 26-C ) :  -0.1090
B( 21-C , 29-C ) :   0.1929 B( 21-C , 32-C ) :   0.1372 B( 26-C , 29-C ) :   0.6503
B( 26-C , 30-H ) :   0.6519 B( 26-C , 31-H ) :   1.6827 B( 26-C , 32-C ) :   0.1765
B( 29-C , 31-H ) :  -0.1101 B( 29-C , 32-C ) :   1.0766 B( 29-C , 33-H ) :   0.9666
B( 29-C , 34-H ) :   0.7717 B( 30-H , 31-H ) :   0.2137 B( 32-C , 37-H ) :   0.8867
B( 32-C , 38-H ) :   0.8971

Dispersion correction           -0.055727955
FINAL SINGLE POINT ENERGY      -756.085055388354

DIPOLE MOMENT
-------------
                                X             Y             Z
Electronic contribution:     14.29773       8.73364       3.73822
Nuclear contribution   :    -13.61164      -8.17416      -5.14068
                        -----------------------------------------
Total Dipole Moment    :      0.68609       0.55948      -1.40246
                        -----------------------------------------
Magnitude (a.u.)       :      1.65850
Magnitude (Debye)      :      4.21558

Rotational constants in cm-1:     0.019858     0.013613     0.009401
Rotational constants in MHz :   595.331791   408.100423   281.843625

                             ****ORCA TERMINATED NORMALLY****
TOTAL RUN TIME: 0 days 0 hours 4 minutes 0 seconds 576 msec
