                         Program Version 5.0.0 -  RELEASE  -
|  1> !TPSS D3BJ RIJCOSX def2-TZVPD def2/J TightSCF xyzfile
|  2>
|  3> *xyzfile 0 1 D5.xyz
|  4>
|  5> %MaxCore 64000
|  6>
|  7> %pal nprocs 4
|  8> end
|  9>
| 10> %scf
| 11>   MaxIter 150
| 12> end
| 13>
| 14>
| 15>                          ****END OF INPUT****

CARTESIAN COORDINATES (ANGSTROEM)
---------------------------------
  C      3.913853   -1.658291    3.015134
  N      5.039266   -0.901154    2.492821
  C      4.084215    1.742081   -2.114724
  C      4.265245    2.500518   -0.795890
  H      4.868534    3.392674   -0.981134
  H      3.307640    2.824571   -0.387809
  C      4.982240    1.650257    0.247422
  C      6.210384   -1.417261    2.178244
  C      6.535913   -2.677122    2.556078
  N      7.076754   -0.700820    1.478906
  H      7.954643   -1.121554    1.207554
  H      6.756161    0.106637    0.960278
  H      4.842168    0.017609    2.115191
  H      5.993876   -3.126918    3.282784
  H      7.498441   -2.975482    2.468776
  O      4.368065    1.389270    1.313706
  F      6.128919    1.233512   -0.045620
  C      3.139159   -2.376572    1.910609
  H      3.267235   -0.939401    3.520693
  H      4.247195   -2.355095    3.790065
  C      1.997274    0.430918   -1.399218
  C      3.412746    0.376886   -1.965497
  H      4.047407   -0.246590   -1.326706
  H      3.390774   -0.118719   -2.942839
  H      5.068475    1.598504   -2.565728
  H      3.503356    2.363939   -2.804565
  C      2.399946   -1.389579    1.009490
  H      2.440750   -3.087118    2.362976
  H      3.844475   -2.970462    1.318677
  C      2.070177   -1.936705   -0.372401
  H      1.481611   -1.061542    1.509912
  H      3.008628   -0.490001    0.897451
  C      1.322238   -0.935775   -1.256413
  H      1.472747   -2.850902   -0.283997
  H      3.003539   -2.234041   -0.862535
  H      1.376444    1.058920   -2.047420
  H      2.015341    0.929780   -0.426535
  H      0.316648   -0.787213   -0.848278
  H      1.185611   -1.379252   -2.248613

 Total Charge           Charge          ....    0
 Multiplicity           Mult            ....    1
 Number of Electrons    NEL             ....  126
 Basis Dimension        Dim             ....  805

ORBITAL ENERGIES
----------------

  NO   OCC          E(Eh)            E(eV)
   0   2.0000     -24.516132      -667.1179
   1   2.0000     -18.920675      -514.8577
   2   2.0000     -14.081016      -383.1639
   3   2.0000     -14.070999      -382.8914
   4   2.0000     -10.180159      -277.0162
   5   2.0000     -10.031825      -272.9798
   6   2.0000     -10.014444      -272.5069
   7   2.0000     -10.006186      -272.2822
   8   2.0000      -9.998937      -272.0849
   9   2.0000      -9.997824      -272.0546
  10   2.0000      -9.987967      -271.7864
  11   2.0000      -9.981915      -271.6217
  12   2.0000      -9.974954      -271.4323
  13   2.0000      -9.968630      -271.2602
  14   2.0000      -9.964530      -271.1486
  15   2.0000      -9.882658      -268.9208
  16   2.0000      -1.280465       -34.8432
  17   2.0000      -1.000415       -27.2227
  18   2.0000      -0.885647       -24.0997
  19   2.0000      -0.809244       -22.0207
  20   2.0000      -0.783488       -21.3198
  21   2.0000      -0.749843       -20.4043
  22   2.0000      -0.715947       -19.4819
  23   2.0000      -0.686422       -18.6785
  24   2.0000      -0.651135       -17.7183
  25   2.0000      -0.641109       -17.4455
  26   2.0000      -0.626522       -17.0485
  27   2.0000      -0.599808       -16.3216
  28   2.0000      -0.568912       -15.4809
  29   2.0000      -0.545718       -14.8497
  30   2.0000      -0.532707       -14.4957
  31   2.0000      -0.528616       -14.3844
  32   2.0000      -0.510616       -13.8946
  33   2.0000      -0.503472       -13.7002
  34   2.0000      -0.489504       -13.3201
  35   2.0000      -0.460742       -12.5374
  36   2.0000      -0.458259       -12.4699
  37   2.0000      -0.446111       -12.1393
  38   2.0000      -0.442454       -12.0398
  39   2.0000      -0.425024       -11.5655
  40   2.0000      -0.405857       -11.0439
  41   2.0000      -0.403359       -10.9759
  42   2.0000      -0.387635       -10.5481
  43   2.0000      -0.380025       -10.3410
  44   2.0000      -0.374282       -10.1847
  45   2.0000      -0.371869       -10.1191
  46   2.0000      -0.360066        -9.7979
  47   2.0000      -0.353259        -9.6127
  48   2.0000      -0.346853        -9.4383
  49   2.0000      -0.337394        -9.1810
  50   2.0000      -0.330075        -8.9818
  51   2.0000      -0.324735        -8.8365
  52   2.0000      -0.318770        -8.6742
  53   2.0000      -0.313074        -8.5192
  54   2.0000      -0.306506        -8.3404
  55   2.0000      -0.301195        -8.1959
  56   2.0000      -0.291267        -7.9258
  57   2.0000      -0.280056        -7.6207
  58   2.0000      -0.279150        -7.5961
  59   2.0000      -0.272955        -7.4275
  60   2.0000      -0.264047        -7.1851
  61   2.0000      -0.192464        -5.2372
  62   2.0000      -0.119143        -3.2420
  63   0.0000      -0.090796        -2.4707
  64   0.0000      -0.019719        -0.5366
  65   0.0000      -0.000499        -0.0136
  66   0.0000       0.001453         0.0395
  67   0.0000       0.007402         0.2014

MULLIKEN ATOMIC CHARGES
-----------------------
   0 C :   -0.712057
   1 N :   -0.395257
   2 C :   -0.311734
   3 C :   -0.245839
   4 H :    0.122984
   5 H :    0.248105
   6 C :    0.798210
   7 C :    1.005452
   8 C :   -1.437370
   9 N :   -0.504823
  10 H :    0.130112
  11 H :    0.315226
  12 H :    0.447103
  13 H :    0.266800
  14 H :    0.291936
  15 O :   -0.717788
  16 F :   -0.414341
  17 C :   -0.279261
  18 H :    0.203029
  19 H :    0.219542
  20 C :   -0.375746
  21 C :   -0.380966
  22 H :    0.325137
  23 H :    0.086344
  24 H :    0.206206
  25 H :    0.102278
  26 C :   -0.049789
  27 H :    0.161853
  28 H :    0.312669
  29 C :   -0.346110
  30 H :    0.205960
  31 H :    0.015715
  32 C :   -0.384889
  33 H :    0.059460
  34 H :    0.309419
  35 H :    0.066235
  36 H :    0.367608
  37 H :    0.160146
  38 H :    0.128443
Sum of atomic charges:   -0.0000000

LOEWDIN ATOMIC CHARGES
----------------------
   0 C :   -0.177485
   1 N :    0.037811
   2 C :   -0.187567
   3 C :   -0.086783
   4 H :    0.121991
   5 H :    0.119091
   6 C :   -0.453386
   7 C :   -0.550685
   8 C :    0.007923
   9 N :    0.135454
  10 H :    0.111361
  11 H :    0.051972
  12 H :    0.060534
  13 H :   -0.007746
  14 H :   -0.001220
  15 O :    0.086969
  16 F :    0.210293
  17 C :   -0.175564
  18 H :    0.117334
  19 H :    0.104968
  20 C :   -0.207574
  21 C :   -0.199996
  22 H :    0.105216
  23 H :    0.119351
  24 H :    0.108812
  25 H :    0.114665
  26 C :   -0.210642
  27 H :    0.109297
  28 H :    0.108511
  29 C :   -0.209898
  30 H :    0.121260
  31 H :    0.075604
  32 C :   -0.203062
  33 H :    0.111297
  34 H :    0.106987
  35 H :    0.113253
  36 H :    0.099358
  37 H :    0.107019
  38 H :    0.105275

  Mayer bond orders larger than 0.100000
B(  0-C ,  1-N ) :   1.0773 B(  0-C , 17-C ) :   0.9213 B(  0-C , 18-H ) :   0.7911
B(  0-C , 19-H ) :   0.8727 B(  0-C , 26-C ) :   0.2558 B(  1-N ,  7-C ) :   0.9590
B(  1-N ,  8-C ) :   0.1247 B(  1-N , 12-H ) :   0.5947 B(  2-C ,  3-C ) :   0.8778
B(  2-C ,  6-C ) :   0.1716 B(  2-C , 20-C ) :   0.1611 B(  2-C , 21-C ) :   1.1702
B(  2-C , 24-H ) :   0.8784 B(  2-C , 25-H ) :   0.8848 B(  3-C ,  4-H ) :   0.8892
B(  3-C ,  5-H ) :   0.8922 B(  3-C ,  6-C ) :   1.1175 B(  3-C , 20-C ) :   0.1660
B(  6-C , 15-O ) :   1.4736 B(  6-C , 16-F ) :   0.5651 B(  6-C , 21-C ) :   0.1084
B(  7-C ,  8-C ) :   0.8719 B(  7-C ,  9-N ) :   0.8655 B(  7-C , 12-H ) :  -0.1259
B(  8-C ,  9-N ) :   0.1236 B(  8-C , 13-H ) :   1.0760 B(  8-C , 14-H ) :   1.0016
B(  9-N , 10-H ) :   1.0434 B(  9-N , 11-H ) :   0.7704 B( 15-O , 16-F ) :   0.1589
B( 17-C , 26-C ) :   0.8351 B( 17-C , 27-H ) :   0.9820 B( 17-C , 28-H ) :   0.7278
B( 17-C , 29-C ) :   0.4877 B( 17-C , 30-H ) :  -0.1333 B( 20-C , 21-C ) :   0.6109
B( 20-C , 32-C ) :   1.2101 B( 20-C , 35-H ) :   0.9196 B( 20-C , 36-H ) :   0.7998
B( 21-C , 22-H ) :   0.8461 B( 21-C , 23-H ) :   0.8919 B( 21-C , 26-C ) :  -0.1057
B( 21-C , 29-C ) :   0.1743 B( 21-C , 32-C ) :   0.1566 B( 26-C , 29-C ) :   0.6597
B( 26-C , 30-H ) :   0.6472 B( 26-C , 31-H ) :   1.7994 B( 26-C , 32-C ) :   0.1904
B( 29-C , 31-H ) :  -0.1176 B( 29-C , 32-C ) :   1.0971 B( 29-C , 33-H ) :   0.9495
B( 29-C , 34-H ) :   0.7953 B( 30-H , 31-H ) :   0.1946 B( 32-C , 37-H ) :   0.8769
B( 32-C , 38-H ) :   0.8935

Dispersion correction           -0.055433909
FINAL SINGLE POINT ENERGY      -756.095681739444

DIPOLE MOMENT
-------------
                                X             Y             Z
Electronic contribution:     12.82858      10.20840       3.37725
Nuclear contribution   :    -13.35170      -8.48261      -5.12969
                        -----------------------------------------
Total Dipole Moment    :     -0.52312       1.72579      -1.75244
                        -----------------------------------------
Magnitude (a.u.)       :      2.51457
Magnitude (Debye)      :      6.39152

Rotational constants in cm-1:     0.019886     0.013843     0.009504
Rotational constants in MHz :   596.157485   415.004628   284.931121

                             ****ORCA TERMINATED NORMALLY****
TOTAL RUN TIME: 0 days 0 hours 3 minutes 41 seconds 993 msec
