                         Program Version 5.0.0 -  RELEASE  -
|  1> !TPSS D3BJ RIJCOSX def2-TZVPD def2/J TightSCF xyzfile
|  2>
|  3> *xyzfile 0 1 D6.xyz
|  4>
|  5> %MaxCore 64000
|  6>
|  7> %pal nprocs 4
|  8> end
|  9>
| 10> %scf
| 11>   MaxIter 150
| 12> end
| 13>
| 14>
| 15>                          ****END OF INPUT****

CARTESIAN COORDINATES (ANGSTROEM)
---------------------------------
  C      3.913853   -1.658291    3.015134
  N      5.039266   -0.901154    2.492821
  C      4.084215    1.742081   -2.114724
  C      4.265245    2.500518   -0.795890
  H      4.868534    3.392674   -0.981134
  H      3.307640    2.824571   -0.387809
  C      4.982240    1.650257    0.247422
  C      6.210384   -1.417261    2.178244
  N      6.535913   -2.677122    2.556078
  C      7.076754   -0.700820    1.478906
  H      7.954643   -1.121554    1.207554
  H      6.756161    0.106637    0.960278
  H      4.842168    0.017609    2.115191
  H      5.993876   -3.126918    3.282784
  H      7.498441   -2.975482    2.468776
  O      4.368065    1.389270    1.313706
  F      6.128919    1.233512   -0.045620
  C      3.139159   -2.376572    1.910609
  H      3.267235   -0.939401    3.520693
  H      4.247195   -2.355095    3.790065
  C      1.997274    0.430918   -1.399218
  C      3.412746    0.376886   -1.965497
  H      4.047407   -0.246590   -1.326706
  H      3.390774   -0.118719   -2.942839
  H      5.068475    1.598504   -2.565728
  H      3.503356    2.363939   -2.804565
  C      2.399946   -1.389579    1.009490
  H      2.440750   -3.087118    2.362976
  H      3.844475   -2.970462    1.318677
  C      2.070177   -1.936705   -0.372401
  H      1.481611   -1.061542    1.509912
  H      3.008628   -0.490001    0.897451
  C      1.322238   -0.935775   -1.256413
  H      1.472747   -2.850902   -0.283997
  H      3.003539   -2.234041   -0.862535
  H      1.376444    1.058920   -2.047420
  H      2.015341    0.929780   -0.426535
  H      0.316648   -0.787213   -0.848278
  H      1.185611   -1.379252   -2.248613

 Total Charge           Charge          ....    0
 Multiplicity           Mult            ....    1
 Number of Electrons    NEL             ....  126
 Basis Dimension        Dim             ....  805

ORBITAL ENERGIES
----------------

  NO   OCC          E(Eh)            E(eV)
   0   2.0000     -24.489650      -666.3973
   1   2.0000     -18.908718      -514.5324
   2   2.0000     -14.084654      -383.2629
   3   2.0000     -14.066230      -382.7616
   4   2.0000     -10.170762      -276.7605
   5   2.0000     -10.022954      -272.7385
   6   2.0000     -10.007610      -272.3209
   7   2.0000     -10.005194      -272.2552
   8   2.0000     -10.002419      -272.1797
   9   2.0000      -9.992175      -271.9009
  10   2.0000      -9.984557      -271.6936
  11   2.0000      -9.980648      -271.5872
  12   2.0000      -9.975411      -271.4447
  13   2.0000      -9.970678      -271.3159
  14   2.0000      -9.970013      -271.2979
  15   2.0000      -9.871253      -268.6104
  16   2.0000      -1.255703       -34.1694
  17   2.0000      -0.988774       -26.9059
  18   2.0000      -0.879972       -23.9453
  19   2.0000      -0.802633       -21.8407
  20   2.0000      -0.776876       -21.1399
  21   2.0000      -0.747453       -20.3392
  22   2.0000      -0.718149       -19.5418
  23   2.0000      -0.683678       -18.6038
  24   2.0000      -0.658441       -17.9171
  25   2.0000      -0.624505       -16.9937
  26   2.0000      -0.617730       -16.8093
  27   2.0000      -0.588469       -16.0130
  28   2.0000      -0.561663       -15.2836
  29   2.0000      -0.545535       -14.8448
  30   2.0000      -0.525970       -14.3124
  31   2.0000      -0.516264       -14.0483
  32   2.0000      -0.507324       -13.8050
  33   2.0000      -0.501386       -13.6434
  34   2.0000      -0.476269       -12.9599
  35   2.0000      -0.462784       -12.5930
  36   2.0000      -0.443473       -12.0675
  37   2.0000      -0.440187       -11.9781
  38   2.0000      -0.431494       -11.7415
  39   2.0000      -0.419882       -11.4256
  40   2.0000      -0.413560       -11.2535
  41   2.0000      -0.394345       -10.7307
  42   2.0000      -0.389243       -10.5918
  43   2.0000      -0.381763       -10.3883
  44   2.0000      -0.374336       -10.1862
  45   2.0000      -0.369609       -10.0576
  46   2.0000      -0.355237        -9.6665
  47   2.0000      -0.347739        -9.4625
  48   2.0000      -0.341274        -9.2865
  49   2.0000      -0.336367        -9.1530
  50   2.0000      -0.328702        -8.9444
  51   2.0000      -0.317213        -8.6318
  52   2.0000      -0.315172        -8.5763
  53   2.0000      -0.306603        -8.3431
  54   2.0000      -0.303852        -8.2682
  55   2.0000      -0.296681        -8.0731
  56   2.0000      -0.291191        -7.9237
  57   2.0000      -0.280022        -7.6198
  58   2.0000      -0.278946        -7.5905
  59   2.0000      -0.273211        -7.4344
  60   2.0000      -0.257939        -7.0189
  61   2.0000      -0.196048        -5.3348
  62   2.0000      -0.114667        -3.1202
  63   0.0000      -0.079190        -2.1549
  64   0.0000      -0.010649        -0.2898
  65   0.0000       0.001833         0.0499
  66   0.0000       0.004869         0.1325
  67   0.0000       0.005054         0.1375

MULLIKEN ATOMIC CHARGES
-----------------------
   0 C :   -0.762803
   1 N :   -0.300774
   2 C :   -0.300587
   3 C :   -0.234065
   4 H :    0.104128
   5 H :    0.248173
   6 C :    0.775075
   7 C :    1.196634
   8 N :   -0.500874
   9 C :   -2.111449
  10 H :    0.183829
  11 H :    0.895764
  12 H :    0.369372
  13 H :    0.128481
  14 H :    0.140576
  15 O :   -0.715836
  16 F :   -0.278169
  17 C :   -0.250029
  18 H :    0.161025
  19 H :    0.257998
  20 C :   -0.376499
  21 C :   -0.424082
  22 H :    0.374273
  23 H :    0.081609
  24 H :    0.200227
  25 H :    0.103357
  26 C :    0.025763
  27 H :    0.180734
  28 H :    0.301411
  29 C :   -0.376755
  30 H :    0.231784
  31 H :   -0.065943
  32 C :   -0.374656
  33 H :    0.058518
  34 H :    0.329947
  35 H :    0.062925
  36 H :    0.367388
  37 H :    0.159839
  38 H :    0.133691
Sum of atomic charges:   -0.0000000

LOEWDIN ATOMIC CHARGES
----------------------
   0 C :   -0.183027
   1 N :    0.038329
   2 C :   -0.186794
   3 C :   -0.086342
   4 H :    0.122248
   5 H :    0.117506
   6 C :   -0.444905
   7 C :   -0.544649
   8 N :    0.123349
   9 C :    0.008032
  10 H :    0.007574
  11 H :   -0.026599
  12 H :    0.065791
  13 H :    0.080661
  14 H :    0.102388
  15 O :    0.086327
  16 F :    0.207121
  17 C :   -0.181114
  18 H :    0.117360
  19 H :    0.099486
  20 C :   -0.207839
  21 C :   -0.199548
  22 H :    0.106520
  23 H :    0.118810
  24 H :    0.109764
  25 H :    0.113830
  26 C :   -0.208715
  27 H :    0.106588
  28 H :    0.109580
  29 C :   -0.210327
  30 H :    0.122152
  31 H :    0.077750
  32 C :   -0.203152
  33 H :    0.110435
  34 H :    0.107154
  35 H :    0.112991
  36 H :    0.099344
  37 H :    0.106651
  38 H :    0.105269

  Mayer bond orders larger than 0.100000
B(  0-C ,  1-N ) :   1.0796 B(  0-C ,  7-C ) :  -0.1428 B(  0-C ,  8-N ) :   0.1026
B(  0-C , 17-C ) :   0.8605 B(  0-C , 18-H ) :   0.8875 B(  0-C , 19-H ) :   0.8736
B(  0-C , 26-C ) :   0.1786 B(  1-N ,  7-C ) :   1.0858 B(  1-N ,  9-C ) :   0.1184
B(  1-N , 12-H ) :   0.6648 B(  1-N , 15-O ) :  -0.1127 B(  2-C ,  3-C ) :   0.8808
B(  2-C ,  6-C ) :   0.1741 B(  2-C , 20-C ) :   0.1650 B(  2-C , 21-C ) :   1.1975
B(  2-C , 24-H ) :   0.8751 B(  2-C , 25-H ) :   0.8870 B(  3-C ,  4-H ) :   0.8954
B(  3-C ,  5-H ) :   0.8846 B(  3-C ,  6-C ) :   1.1200 B(  3-C , 20-C ) :   0.1578
B(  6-C , 15-O ) :   1.4805 B(  6-C , 16-F ) :   0.6646 B(  7-C ,  8-N ) :   0.7680
B(  7-C ,  9-C ) :   0.7342 B(  7-C , 10-H ) :  -0.2045 B(  8-N , 13-H ) :   1.0590
B(  8-N , 14-H ) :   1.0336 B(  9-C , 10-H ) :   1.2559 B(  9-C , 11-H ) :   0.1958
B(  9-C , 16-F ) :   0.1471 B( 10-H , 11-H ) :   0.1270 B( 11-H , 16-F ) :  -0.2088
B( 15-O , 16-F ) :   0.1611 B( 17-C , 26-C ) :   0.8218 B( 17-C , 27-H ) :   0.9999
B( 17-C , 28-H ) :   0.7228 B( 17-C , 29-C ) :   0.4824 B( 17-C , 30-H ) :  -0.1352
B( 20-C , 21-C ) :   0.5966 B( 20-C , 32-C ) :   1.1922 B( 20-C , 35-H ) :   0.9243
B( 20-C , 36-H ) :   0.8010 B( 21-C , 22-H ) :   0.7837 B( 21-C , 23-H ) :   0.9073
B( 21-C , 26-C ) :  -0.1087 B( 21-C , 29-C ) :   0.1796 B( 21-C , 32-C ) :   0.1411
B( 26-C , 29-C ) :   0.6648 B( 26-C , 30-H ) :   0.6758 B( 26-C , 31-H ) :   1.8094
B( 26-C , 32-C ) :   0.1830 B( 29-C , 31-H ) :  -0.1385 B( 29-C , 32-C ) :   1.0881
B( 29-C , 33-H ) :   0.9612 B( 29-C , 34-H ) :   0.7880 B( 30-H , 31-H ) :   0.1653
B( 32-C , 37-H ) :   0.8794 B( 32-C , 38-H ) :   0.8933

Dispersion correction           -0.055495596
FINAL SINGLE POINT ENERGY      -756.088612172140

DIPOLE MOMENT
-------------
                                X             Y             Z
Electronic contribution:     12.39821       8.52638       4.41083
Nuclear contribution   :    -13.25777      -8.13937      -5.31678
                        -----------------------------------------
Total Dipole Moment    :     -0.85955       0.38702      -0.90595
                        -----------------------------------------
Magnitude (a.u.)       :      1.30742
Magnitude (Debye)      :      3.32320

Rotational constants in cm-1:     0.020021     0.013636     0.009443
Rotational constants in MHz :   600.208195   408.782966   283.102361

                             ****ORCA TERMINATED NORMALLY****
TOTAL RUN TIME: 0 days 0 hours 3 minutes 51 seconds 224 msec
