                         Program Version 5.0.0 -  RELEASE  -
|  1> !CAM-B3LYP RIJCOSX def2-SVPD def2/J TightSCF
|  2> *xyz -1 1
|  3> C          0.70466        1.44313       -4.50363
|  4> C          1.72854        1.42432       -5.63944
|  5> H          2.64672        1.95379       -5.38105
|  6> H          1.29992        1.93061       -6.50361
|  7> S          2.25263       -0.18811       -6.27184
|  8> O          3.56261       -0.44446       -5.63155
|  9> O          2.34494       -0.03374       -7.69650
| 10> O          1.26606       -1.15918       -5.80536
| 11> H         -0.17385        0.91270       -4.80656
| 12> H          0.44778        2.45562       -4.27173
| 13> H          1.12367        0.97423       -3.63791
| 14> *
| 15>
| 16> %MaxCore 64000
| 17>
| 18> %pal nprocs 4
| 19> end
| 20>
| 21> %scf
| 22>   MaxIter 150
| 23> end
| 24>
| 25>
| 26>                          ****END OF INPUT****

CARTESIAN COORDINATES (ANGSTROEM)
---------------------------------
  C      0.704660    1.443130   -4.503630
  C      1.728540    1.424320   -5.639440
  H      2.646720    1.953790   -5.381050
  H      1.299920    1.930610   -6.503610
  S      2.252630   -0.188110   -6.271840
  O      3.562610   -0.444460   -5.631550
  O      2.344940   -0.033740   -7.696500
  O      1.266060   -1.159180   -5.805360
  H     -0.173850    0.912700   -4.806560
  H      0.447780    2.455620   -4.271730
  H      1.123670    0.974230   -3.637910

 Total Charge           Charge          ....   -1
 Multiplicity           Mult            ....    1
 Number of Electrons    NEL             ....   58
 Basis Dimension        Dim             ....  176

ORBITAL ENERGIES
----------------

  NO   OCC          E(Eh)            E(eV)
   0   2.0000     -88.962710     -2420.7984
   1   2.0000     -18.998478      -516.9749
   2   2.0000     -18.991358      -516.7811
   3   2.0000     -18.982684      -516.5451
   4   2.0000     -10.124248      -275.4948
   5   2.0000     -10.121201      -275.4119
   6   2.0000      -8.015869      -218.1229
   7   2.0000      -5.985789      -162.8816
   8   2.0000      -5.985695      -162.8790
   9   2.0000      -5.985250      -162.8669
  10   2.0000      -1.016580       -27.6626
  11   2.0000      -0.873072       -23.7575
  12   2.0000      -0.849190       -23.1076
  13   2.0000      -0.714059       -19.4305
  14   2.0000      -0.587372       -15.9832
  15   2.0000      -0.457526       -12.4499
  16   2.0000      -0.394042       -10.7224
  17   2.0000      -0.390926       -10.6376
  18   2.0000      -0.351123        -9.5545
  19   2.0000      -0.334310        -9.0970
  20   2.0000      -0.332564        -9.0495
  21   2.0000      -0.298770        -8.1299
  22   2.0000      -0.289511        -7.8780
  23   2.0000      -0.221478        -6.0267
  24   2.0000      -0.220283        -5.9942
  25   2.0000      -0.183576        -4.9954
  26   2.0000      -0.175494        -4.7754
  27   2.0000      -0.166949        -4.5429
  28   2.0000      -0.131465        -3.5773
  29   0.0000       0.166763         4.5378
  30   0.0000       0.194806         5.3009
  31   0.0000       0.201298         5.4776
  32   0.0000       0.207356         5.6424
  33   0.0000       0.227720         6.1966

MULLIKEN ATOMIC CHARGES
-----------------------
   0 C :    0.967814
   1 C :   -0.223910
   2 H :   -0.115395
   3 H :   -0.063631
   4 S :    1.310326
   5 O :   -0.833664
   6 O :   -0.776902
   7 O :   -0.822299
   8 H :   -0.111728
   9 H :   -0.199700
  10 H :   -0.130911
Sum of atomic charges:   -1.0000000

LOEWDIN ATOMIC CHARGES
----------------------
   0 C :    0.101723
   1 C :   -0.120637
   2 H :    0.000880
   3 H :   -0.007164
   4 S :    0.867236
   5 O :   -0.606337
   6 O :   -0.578471
   7 O :   -0.585395
   8 H :   -0.022445
   9 H :   -0.033989
  10 H :   -0.015402

  Mayer bond orders larger than 0.100000
B(  0-C ,  1-C ) :   1.2660 B(  0-C ,  8-H ) :   0.7671 B(  0-C ,  9-H ) :   0.7094
B(  0-C , 10-H ) :   0.7744 B(  1-C ,  2-H ) :   0.9607 B(  1-C ,  3-H ) :   0.9532
B(  1-C ,  4-S ) :   0.8925 B(  1-C ,  8-H ) :   0.2275 B(  1-C ,  9-H ) :   0.2384
B(  1-C , 10-H ) :   0.2052 B(  4-S ,  5-O ) :   1.2773 B(  4-S ,  6-O ) :   1.3469
B(  4-S ,  7-O ) :   1.2909

FINAL SINGLE POINT ENERGY      -702.667815324386

DIPOLE MOMENT
-------------
                                X             Y             Z
Electronic contribution:      3.59847      -5.51452      -4.25448
Nuclear contribution   :     -4.50297       7.24642       5.01775
                        -----------------------------------------
Total Dipole Moment    :     -0.90450       1.73189       0.76327
                        -----------------------------------------
Magnitude (a.u.)       :      2.09765
Magnitude (Debye)      :      5.33181

Rotational constants in cm-1:     0.162459     0.081286     0.079601
Rotational constants in MHz :  4870.394399  2436.893583  2386.374948

                             ****ORCA TERMINATED NORMALLY****
TOTAL RUN TIME: 0 days 0 hours 0 minutes 33 seconds 811 msec
