                         Program Version 5.0.0 -  RELEASE  -
|  1> !CAM-B3LYP RIJCOSX def2-SVPD def2/J TightSCF
|  2> *xyz 1 1
|  3> C          2.91632       -1.24259       -1.54313
|  4> C          3.46659       -1.59097       -2.88908
|  5> N          4.65227       -1.14316       -3.25969
|  6> N          2.75226       -2.29204       -3.72803
|  7> H          1.77836       -2.48960       -3.51274
|  8> H          2.94861       -2.20854       -4.71681
|  9> H          5.14672       -0.51251       -2.63385
| 10> H          4.78303       -1.00720       -4.25350
| 11> C          2.80408        0.29070       -1.35924
| 12> H          1.94047       -1.71653       -1.44116
| 13> H          3.55857       -1.66343       -0.76637
| 14> H          2.17393        0.69633       -2.12297
| 15> H          3.77707        0.73043       -1.42880
| 16> H          2.38369        0.50492       -0.39889
| 17> *
| 18>
| 19> %MaxCore 64000
| 20>
| 21> %pal nprocs 4
| 22> end
| 23>
| 24> %scf
| 25>   MaxIter 150
| 26> end
| 27>
| 28>
| 29>                          ****END OF INPUT****

CARTESIAN COORDINATES (ANGSTROEM)
---------------------------------
  C      2.916320   -1.242590   -1.543130
  C      3.466590   -1.590970   -2.889080
  N      4.652270   -1.143160   -3.259690
  N      2.752260   -2.292040   -3.728030
  H      1.778360   -2.489600   -3.512740
  H      2.948610   -2.208540   -4.716810
  H      5.146720   -0.512510   -2.633850
  H      4.783030   -1.007200   -4.253500
  C      2.804080    0.290700   -1.359240
  H      1.940470   -1.716530   -1.441160
  H      3.558570   -1.663430   -0.766370
  H      2.173930    0.696330   -2.122970
  H      3.777070    0.730430   -1.428800
  H      2.383690    0.504920   -0.398890

 Total Charge           Charge          ....    1
 Multiplicity           Mult            ....    1
 Number of Electrons    NEL             ....   40
 Basis Dimension        Dim             ....  172

ORBITAL ENERGIES
----------------

  NO   OCC          E(Eh)            E(eV)
   0   2.0000     -14.656600      -398.8264
   1   2.0000     -14.651038      -398.6750
   2   2.0000     -10.588849      -288.1372
   3   2.0000     -10.462042      -284.6866
   4   2.0000     -10.422667      -283.6152
   5   2.0000      -1.289743       -35.0957
   6   2.0000      -1.187318       -32.3086
   7   2.0000      -1.049921       -28.5698
   8   2.0000      -0.939329       -25.5604
   9   2.0000      -0.893345       -24.3091
  10   2.0000      -0.845229       -22.9998
  11   2.0000      -0.826293       -22.4846
  12   2.0000      -0.771183       -20.9849
  13   2.0000      -0.739073       -20.1112
  14   2.0000      -0.697244       -18.9730
  15   2.0000      -0.672241       -18.2926
  16   2.0000      -0.621323       -16.9071
  17   2.0000      -0.611187       -16.6313
  18   2.0000      -0.598023       -16.2730
  19   2.0000      -0.565404       -15.3854
  20   0.0000      -0.176463        -4.8018
  21   0.0000      -0.126704        -3.4478
  22   0.0000      -0.084201        -2.2912
  23   0.0000      -0.081704        -2.2233
  24   0.0000      -0.051665        -1.4059

MULLIKEN ATOMIC CHARGES
-----------------------
   0 C :   -0.061348
   1 C :    0.310900
   2 N :    0.225535
   3 N :    0.192281
   4 H :    0.024704
   5 H :   -0.110316
   6 H :    0.013984
   7 H :   -0.084489
   8 C :    0.895966
   9 H :   -0.035442
  10 H :   -0.012192
  11 H :   -0.130451
  12 H :   -0.164722
  13 H :   -0.064409
Sum of atomic charges:    1.0000000

LOEWDIN ATOMIC CHARGES
----------------------
   0 C :    0.021121
   1 C :   -0.054411
   2 N :    0.289912
   3 N :    0.287615
   4 H :    0.056162
   5 H :    0.049251
   6 H :    0.046320
   7 H :    0.046977
   8 C :    0.176646
   9 H :    0.035155
  10 H :    0.054450
  11 H :    0.000001
  12 H :   -0.017870
  13 H :    0.008672

  Mayer bond orders larger than 0.100000
B(  0-C ,  1-C ) :   1.2485 B(  0-C ,  8-C ) :   1.2435 B(  0-C ,  9-H ) :   0.8628
B(  0-C , 10-H ) :   0.7956 B(  0-C , 11-H ) :   0.1685 B(  0-C , 12-H ) :   0.1937
B(  0-C , 13-H ) :   0.1701 B(  1-C ,  2-N ) :   1.1742 B(  1-C ,  3-N ) :   1.1639
B(  1-C ,  5-H ) :  -0.1017 B(  1-C ,  9-H ) :   0.1805 B(  1-C , 10-H ) :   0.1726
B(  2-N ,  3-N ) :   0.1554 B(  2-N ,  6-H ) :   1.0049 B(  2-N ,  7-H ) :   1.1771
B(  3-N ,  4-H ) :   1.0470 B(  3-N ,  5-H ) :   1.1870 B(  4-H ,  5-H ) :  -0.1351
B(  6-H ,  7-H ) :  -0.1290 B(  8-C ,  9-H ) :   0.1130 B(  8-C , 11-H ) :   0.7830
B(  8-C , 12-H ) :   0.7612 B(  8-C , 13-H ) :   0.8224

FINAL SINGLE POINT ENERGY      -228.748493789613

DIPOLE MOMENT
-------------
                                X             Y             Z
Electronic contribution:      1.30895      -2.85393      -2.77570
Nuclear contribution   :     -1.30215       2.77761       1.84194
                        -----------------------------------------
Total Dipole Moment    :      0.00680      -0.07633      -0.93377
                        -----------------------------------------
Magnitude (a.u.)       :      0.93691
Magnitude (Debye)      :      2.38143

Rotational constants in cm-1:     0.267442     0.127541     0.099068
Rotational constants in MHz :  8017.703171  3823.592522  2969.992494

                             ****ORCA TERMINATED NORMALLY****
TOTAL RUN TIME: 0 days 0 hours 0 minutes 33 seconds 986 msec
