                         Program Version 5.0.0 -  RELEASE  -
|  1> !CAM-B3LYP RIJCOSX def2-SVPD def2/J TightSCF
|  2> *xyz 0 1
|  3> C          0.70466        1.44313       -4.50363
|  4> C          1.72854        1.42432       -5.63944
|  5> H          2.64672        1.95379       -5.38105
|  6> H          1.29992        1.93061       -6.50361
|  7> S          2.25263       -0.18811       -6.27184
|  8> F          3.56261       -0.44446       -5.63155
|  9> O          2.34494       -0.03374       -7.69650
| 10> O          1.26606       -1.15918       -5.80536
| 11> H         -0.17385        0.91270       -4.80656
| 12> H          0.44778        2.45562       -4.27173
| 13> H          1.12367        0.97423       -3.63791
| 14> *
| 15>
| 16> %MaxCore 64000
| 17>
| 18> %pal nprocs 4
| 19> end
| 20>
| 21> %scf
| 22>   MaxIter 150
| 23> end
| 24>
| 25>
| 26>                          ****END OF INPUT****

CARTESIAN COORDINATES (ANGSTROEM)
---------------------------------
  C      0.704660    1.443130   -4.503630
  C      1.728540    1.424320   -5.639440
  H      2.646720    1.953790   -5.381050
  H      1.299920    1.930610   -6.503610
  S      2.252630   -0.188110   -6.271840
  F      3.562610   -0.444460   -5.631550
  O      2.344940   -0.033740   -7.696500
  O      1.266060   -1.159180   -5.805360
  H     -0.173850    0.912700   -4.806560
  H      0.447780    2.455620   -4.271730
  H      1.123670    0.974230   -3.637910

 Total Charge           Charge          ....    0
 Multiplicity           Mult            ....    1
 Number of Electrons    NEL             ....   58
 Basis Dimension        Dim             ....  176

ORBITAL ENERGIES
----------------

  NO   OCC          E(Eh)            E(eV)
   0   2.0000     -89.221142     -2427.8307
   1   2.0000     -24.876721      -676.9300
   2   2.0000     -19.233229      -523.3628
   3   2.0000     -19.225610      -523.1555
   4   2.0000     -10.326197      -280.9901
   5   2.0000     -10.282325      -279.7963
   6   2.0000      -8.275061      -225.1759
   7   2.0000      -6.249029      -170.0447
   8   2.0000      -6.242769      -169.8744
   9   2.0000      -6.241516      -169.8403
  10   2.0000      -1.431906       -38.9641
  11   2.0000      -1.202135       -32.7117
  12   2.0000      -1.102328       -29.9959
  13   2.0000      -0.904827       -24.6216
  14   2.0000      -0.806701       -21.9515
  15   2.0000      -0.751676       -20.4542
  16   2.0000      -0.658170       -17.9097
  17   2.0000      -0.645425       -17.5629
  18   2.0000      -0.628567       -17.1042
  19   2.0000      -0.569218       -15.4892
  20   2.0000      -0.557548       -15.1716
  21   2.0000      -0.531149       -14.4533
  22   2.0000      -0.505757       -13.7623
  23   2.0000      -0.475672       -12.9437
  24   2.0000      -0.472386       -12.8543
  25   2.0000      -0.455814       -12.4033
  26   2.0000      -0.407977       -11.1016
  27   2.0000      -0.400928       -10.9098
  28   2.0000      -0.388477       -10.5710
  29   0.0000       0.024561         0.6683
  30   0.0000       0.051198         1.3932
  31   0.0000       0.062400         1.6980
  32   0.0000       0.063998         1.7415
  33   0.0000       0.080694         2.1958

MULLIKEN ATOMIC CHARGES
-----------------------
   0 C :    0.988488
   1 C :   -0.247490
   2 H :   -0.072404
   3 H :   -0.017288
   4 S :    1.462163
   5 F :   -0.419490
   6 O :   -0.641848
   7 O :   -0.686252
   8 H :   -0.085171
   9 H :   -0.159699
  10 H :   -0.121008
Sum of atomic charges:   -0.0000000

LOEWDIN ATOMIC CHARGES
----------------------
   0 C :    0.137154
   1 C :   -0.079457
   2 H :    0.018493
   3 H :    0.022958
   4 S :    1.128815
   5 F :   -0.276182
   6 O :   -0.464236
   7 O :   -0.473142
   8 H :   -0.005028
   9 H :   -0.005207
  10 H :   -0.004169

  Mayer bond orders larger than 0.100000
B(  0-C ,  1-C ) :   1.3136 B(  0-C ,  8-H ) :   0.7713 B(  0-C ,  9-H ) :   0.7128
B(  0-C , 10-H ) :   0.7722 B(  1-C ,  2-H ) :   0.9372 B(  1-C ,  3-H ) :   0.9543
B(  1-C ,  4-S ) :   0.9504 B(  1-C ,  8-H ) :   0.2212 B(  1-C ,  9-H ) :   0.2346
B(  1-C , 10-H ) :   0.2013 B(  4-S ,  5-F ) :   0.6441 B(  4-S ,  6-O ) :   1.5627
B(  4-S ,  7-O ) :   1.5094

FINAL SINGLE POINT ENERGY      -727.169981839580

DIPOLE MOMENT
-------------
                                X             Y             Z
Electronic contribution:      6.28333      -6.40536      -3.66470
Nuclear contribution   :     -6.09914       7.80989       4.64238
                        -----------------------------------------
Total Dipole Moment    :      0.18419       1.40453       0.97768
                        -----------------------------------------
Magnitude (a.u.)       :      1.72119
Magnitude (Debye)      :      4.37491

Rotational constants in cm-1:     0.154372     0.078826     0.078033
Rotational constants in MHz :  4627.943144  2363.154585  2339.382767

                             ****ORCA TERMINATED NORMALLY****
TOTAL RUN TIME: 0 days 0 hours 0 minutes 34 seconds 355 msec
