                         Program Version 5.0.0 -  RELEASE  -
|  1> !CAM-B3LYP RIJCOSX def2-SVPD def2/J TightSCF
|  2> *xyz 0 1
|  3> C          2.91632       -1.24259       -1.54313
|  4> C          3.46659       -1.59097       -2.88908
|  5> C          4.65227       -1.14316       -3.25969
|  6> N          2.75226       -2.29204       -3.72803
|  7> H          1.77836       -2.48960       -3.51274
|  8> H          2.94861       -2.20854       -4.71681
|  9> H          5.14672       -0.51251       -2.63385
| 10> H          4.78303       -1.00720       -4.25350
| 11> C          2.80408        0.29070       -1.35924
| 12> H          1.94047       -1.71653       -1.44116
| 13> H          3.55857       -1.66343       -0.76637
| 14> H          2.17393        0.69633       -2.12297
| 15> H          3.77707        0.73043       -1.42880
| 16> H          2.38369        0.50492       -0.39889
| 17> *
| 18>
| 19> %MaxCore 64000
| 20>
| 21> %pal nprocs 4
| 22> end
| 23>
| 24> %scf
| 25>   MaxIter 150
| 26> end
| 27>
| 28>
| 29>                          ****END OF INPUT****

CARTESIAN COORDINATES (ANGSTROEM)
---------------------------------
  C      2.916320   -1.242590   -1.543130
  C      3.466590   -1.590970   -2.889080
  C      4.652270   -1.143160   -3.259690
  N      2.752260   -2.292040   -3.728030
  H      1.778360   -2.489600   -3.512740
  H      2.948610   -2.208540   -4.716810
  H      5.146720   -0.512510   -2.633850
  H      4.783030   -1.007200   -4.253500
  C      2.804080    0.290700   -1.359240
  H      1.940470   -1.716530   -1.441160
  H      3.558570   -1.663430   -0.766370
  H      2.173930    0.696330   -2.122970
  H      3.777070    0.730430   -1.428800
  H      2.383690    0.504920   -0.398890

 Total Charge           Charge          ....    0
 Multiplicity           Mult            ....    1
 Number of Electrons    NEL             ....   40
 Basis Dimension        Dim             ....  172

ORBITAL ENERGIES
----------------

  NO   OCC          E(Eh)            E(eV)
   0   2.0000     -14.409353      -392.0984
   1   2.0000     -10.281553      -279.7753
   2   2.0000     -10.262106      -279.2461
   3   2.0000     -10.246980      -278.8345
   4   2.0000     -10.188036      -277.2306
   5   2.0000      -1.013803       -27.5870
   6   2.0000      -0.859061       -23.3762
   7   2.0000      -0.787942       -21.4410
   8   2.0000      -0.718959       -19.5639
   9   2.0000      -0.638384       -17.3713
  10   2.0000      -0.594700       -16.1826
  11   2.0000      -0.551585       -15.0094
  12   2.0000      -0.521261       -14.1842
  13   2.0000      -0.480607       -13.0780
  14   2.0000      -0.459524       -12.5043
  15   2.0000      -0.445550       -12.1240
  16   2.0000      -0.423836       -11.5332
  17   2.0000      -0.410795       -11.1783
  18   2.0000      -0.395021       -10.7491
  19   2.0000      -0.250015        -6.8033
  20   0.0000       0.048378         1.3164
  21   0.0000       0.068620         1.8672
  22   0.0000       0.080942         2.2025
  23   0.0000       0.089655         2.4396
  24   0.0000       0.100952         2.7470

MULLIKEN ATOMIC CHARGES
-----------------------
   0 C :    0.111626
   1 C :   -0.247855
   2 C :    0.564830
   3 N :    0.267286
   4 H :   -0.108083
   5 H :   -0.130404
   6 H :   -0.215951
   7 H :   -0.459012
   8 C :    0.879471
   9 H :   -0.132327
  10 H :   -0.074816
  11 H :   -0.177839
  12 H :   -0.192602
  13 H :   -0.084323
Sum of atomic charges:   -0.0000000

LOEWDIN ATOMIC CHARGES
----------------------
   0 C :   -0.020597
   1 C :   -0.264675
   2 C :    0.169492
   3 N :    0.171209
   4 H :   -0.000054
   5 H :    0.007614
   6 H :   -0.086483
   7 H :   -0.087757
   8 C :    0.140081
   9 H :    0.007807
  10 H :    0.028158
  11 H :   -0.014617
  12 H :   -0.028634
  13 H :   -0.021545

  Mayer bond orders larger than 0.100000
B(  0-C ,  1-C ) :   1.2044 B(  0-C ,  8-C ) :   1.2519 B(  0-C ,  9-H ) :   0.7630
B(  0-C , 10-H ) :   0.8017 B(  0-C , 11-H ) :   0.1789 B(  0-C , 12-H ) :   0.1985
B(  0-C , 13-H ) :   0.1836 B(  1-C ,  2-C ) :   1.9385 B(  1-C ,  3-N ) :   1.1310
B(  1-C ,  6-H ) :   0.1492 B(  1-C ,  7-H ) :   0.2146 B(  1-C ,  9-H ) :   0.2347
B(  1-C , 10-H ) :   0.1927 B(  2-C ,  3-N ) :   0.2371 B(  2-C ,  6-H ) :   0.6746
B(  2-C ,  7-H ) :   0.7524 B(  3-N ,  4-H ) :   1.0408 B(  3-N ,  5-H ) :   1.0953
B(  4-H ,  5-H ) :  -0.1223 B(  6-H ,  7-H ) :   0.1316 B(  8-C ,  9-H ) :   0.1041
B(  8-C , 11-H ) :   0.7920 B(  8-C , 12-H ) :   0.8016 B(  8-C , 13-H ) :   0.7739

FINAL SINGLE POINT ENERGY      -212.287023948589

DIPOLE MOMENT
-------------
                                X             Y             Z
Electronic contribution:      0.09522      -2.72576      -1.80992
Nuclear contribution   :     -0.99366       2.78648       1.68526
                        -----------------------------------------
Total Dipole Moment    :     -0.89844       0.06071      -0.12466
                        -----------------------------------------
Magnitude (a.u.)       :      0.90908
Magnitude (Debye)      :      2.31069

Rotational constants in cm-1:     0.282898     0.128664     0.101801
Rotational constants in MHz :  8481.061354  3857.240210  3051.924245

                             ****ORCA TERMINATED NORMALLY****
TOTAL RUN TIME: 0 days 0 hours 0 minutes 32 seconds 779 msec
