                         Program Version 5.0.0 -  RELEASE  -
|  1> !CAM-B3LYP RIJCOSX def2-SVPD def2/J TightSCF
|  2> *xyz 0 1
|  3> C          0.70466        1.44313       -4.50363
|  4> C          1.72854        1.42432       -5.63944
|  5> H          2.64672        1.95379       -5.38105
|  6> H          1.29992        1.93061       -6.50361
|  7> S          2.25263       -0.18811       -6.27184
|  8> O          3.56261       -0.44446       -5.63155
|  9> F          2.34494       -0.03374       -7.69650
| 10> O          1.26606       -1.15918       -5.80536
| 11> H         -0.17385        0.91270       -4.80656
| 12> H          0.44778        2.45562       -4.27173
| 13> H          1.12367        0.97423       -3.63791
| 14> *
| 15>
| 16> %MaxCore 64000
| 17>
| 18> %pal nprocs 4
| 19> end
| 20>
| 21> %scf
| 22>   MaxIter 150
| 23> end
| 24>
| 25>
| 26>                          ****END OF INPUT****

CARTESIAN COORDINATES (ANGSTROEM)
---------------------------------
  C      0.704660    1.443130   -4.503630
  C      1.728540    1.424320   -5.639440
  H      2.646720    1.953790   -5.381050
  H      1.299920    1.930610   -6.503610
  S      2.252630   -0.188110   -6.271840
  O      3.562610   -0.444460   -5.631550
  F      2.344940   -0.033740   -7.696500
  O      1.266060   -1.159180   -5.805360
  H     -0.173850    0.912700   -4.806560
  H      0.447780    2.455620   -4.271730
  H      1.123670    0.974230   -3.637910

 Total Charge           Charge          ....    0
 Multiplicity           Mult            ....    1
 Number of Electrons    NEL             ....   58
 Basis Dimension        Dim             ....  176

ORBITAL ENERGIES
----------------

  NO   OCC          E(Eh)            E(eV)
   0   2.0000     -89.223068     -2427.8831
   1   2.0000     -24.899793      -677.5578
   2   2.0000     -19.225994      -523.1659
   3   2.0000     -19.217540      -522.9358
   4   2.0000     -10.327397      -281.0228
   5   2.0000     -10.282892      -279.8117
   6   2.0000      -8.277148      -225.2327
   7   2.0000      -6.251282      -170.1060
   8   2.0000      -6.244648      -169.9255
   9   2.0000      -6.243373      -169.8908
  10   2.0000      -1.470433       -40.0125
  11   2.0000      -1.188208       -32.3328
  12   2.0000      -1.081810       -29.4376
  13   2.0000      -0.905935       -24.6518
  14   2.0000      -0.822065       -22.3695
  15   2.0000      -0.760021       -20.6812
  16   2.0000      -0.673981       -18.3399
  17   2.0000      -0.671730       -18.2787
  18   2.0000      -0.633236       -17.2312
  19   2.0000      -0.569541       -15.4980
  20   2.0000      -0.559147       -15.2152
  21   2.0000      -0.518958       -14.1216
  22   2.0000      -0.503141       -13.6912
  23   2.0000      -0.478702       -13.0261
  24   2.0000      -0.461510       -12.5583
  25   2.0000      -0.455276       -12.3887
  26   2.0000      -0.400735       -10.9045
  27   2.0000      -0.390482       -10.6255
  28   2.0000      -0.372833       -10.1453
  29   0.0000       0.023835         0.6486
  30   0.0000       0.047114         1.2820
  31   0.0000       0.062030         1.6879
  32   0.0000       0.064113         1.7446
  33   0.0000       0.081658         2.2220

MULLIKEN ATOMIC CHARGES
-----------------------
   0 C :    0.962227
   1 C :   -0.246662
   2 H :   -0.072182
   3 H :   -0.017892
   4 S :    1.463659
   5 O :   -0.683751
   6 F :   -0.386999
   7 O :   -0.675279
   8 H :   -0.084707
   9 H :   -0.158374
  10 H :   -0.100040
Sum of atomic charges:   -0.0000000

LOEWDIN ATOMIC CHARGES
----------------------
   0 C :    0.144150
   1 C :   -0.084306
   2 H :    0.023561
   3 H :    0.010769
   4 S :    1.132181
   5 O :   -0.488661
   6 F :   -0.255596
   7 O :   -0.473683
   8 H :   -0.006416
   9 H :   -0.004008
  10 H :    0.002009

  Mayer bond orders larger than 0.100000
B(  0-C ,  1-C ) :   1.3235 B(  0-C ,  3-H ) :   0.1022 B(  0-C ,  8-H ) :   0.7679
B(  0-C ,  9-H ) :   0.7163 B(  0-C , 10-H ) :   0.7818 B(  1-C ,  2-H ) :   0.9669
B(  1-C ,  3-H ) :   0.9180 B(  1-C ,  4-S ) :   0.9406 B(  1-C ,  8-H ) :   0.2220
B(  1-C ,  9-H ) :   0.2309 B(  1-C , 10-H ) :   0.1960 B(  4-S ,  5-O ) :   1.4950
B(  4-S ,  6-F ) :   0.7120 B(  4-S ,  7-O ) :   1.5059

FINAL SINGLE POINT ENERGY      -727.149781240912

DIPOLE MOMENT
-------------
                                X             Y             Z
Electronic contribution:      4.17286      -5.70363      -7.19466
Nuclear contribution   :     -4.83029       7.38191       6.79413
                        -----------------------------------------
Total Dipole Moment    :     -0.65742       1.67828      -0.40053
                        -----------------------------------------
Magnitude (a.u.)       :      1.84641
Magnitude (Debye)      :      4.69321

Rotational constants in cm-1:     0.156575     0.079070     0.076729
Rotational constants in MHz :  4694.010604  2370.444114  2300.280155

                             ****ORCA TERMINATED NORMALLY****
TOTAL RUN TIME: 0 days 0 hours 0 minutes 35 seconds 296 msec
