                         Program Version 5.0.0 -  RELEASE  -
|  1> !CAM-B3LYP RIJCOSX def2-SVPD def2/J TightSCF
|  2> *xyz 0 1
|  3> C          2.91632       -1.24259       -1.54313
|  4> C          3.46659       -1.59097       -2.88908
|  5> N          4.65227       -1.14316       -3.25969
|  6> C          2.75226       -2.29204       -3.72803
|  7> H          1.77836       -2.48960       -3.51274
|  8> H          2.94861       -2.20854       -4.71681
|  9> H          5.14672       -0.51251       -2.63385
| 10> H          4.78303       -1.00720       -4.25350
| 11> C          2.80408        0.29070       -1.35924
| 12> H          1.94047       -1.71653       -1.44116
| 13> H          3.55857       -1.66343       -0.76637
| 14> H          2.17393        0.69633       -2.12297
| 15> H          3.77707        0.73043       -1.42880
| 16> H          2.38369        0.50492       -0.39889
| 17> *
| 18>
| 19> %MaxCore 64000
| 20>
| 21> %pal nprocs 4
| 22> end
| 23>
| 24> %scf
| 25>   MaxIter 150
| 26> end
| 27>
| 28>
| 29>                          ****END OF INPUT****

CARTESIAN COORDINATES (ANGSTROEM)
---------------------------------
  C      2.916320   -1.242590   -1.543130
  C      3.466590   -1.590970   -2.889080
  N      4.652270   -1.143160   -3.259690
  C      2.752260   -2.292040   -3.728030
  H      1.778360   -2.489600   -3.512740
  H      2.948610   -2.208540   -4.716810
  H      5.146720   -0.512510   -2.633850
  H      4.783030   -1.007200   -4.253500
  C      2.804080    0.290700   -1.359240
  H      1.940470   -1.716530   -1.441160
  H      3.558570   -1.663430   -0.766370
  H      2.173930    0.696330   -2.122970
  H      3.777070    0.730430   -1.428800
  H      2.383690    0.504920   -0.398890

 Total Charge           Charge          ....    0
 Multiplicity           Mult            ....    1
 Number of Electrons    NEL             ....   40
 Basis Dimension        Dim             ....  172

ORBITAL ENERGIES
----------------

  NO   OCC          E(Eh)            E(eV)
   0   2.0000     -14.405456      -391.9924
   1   2.0000     -10.279878      -279.7297
   2   2.0000     -10.260468      -279.2015
   3   2.0000     -10.251914      -278.9688
   4   2.0000     -10.191957      -277.3372
   5   2.0000      -1.008726       -27.4488
   6   2.0000      -0.856255       -23.2999
   7   2.0000      -0.799587       -21.7579
   8   2.0000      -0.711033       -19.3482
   9   2.0000      -0.637853       -17.3569
  10   2.0000      -0.598933       -16.2978
  11   2.0000      -0.548602       -14.9282
  12   2.0000      -0.507853       -13.8194
  13   2.0000      -0.505515       -13.7558
  14   2.0000      -0.457379       -12.4459
  15   2.0000      -0.449681       -12.2364
  16   2.0000      -0.424420       -11.5490
  17   2.0000      -0.409884       -11.1535
  18   2.0000      -0.389358       -10.5950
  19   2.0000      -0.257146        -6.9973
  20   0.0000       0.045831         1.2471
  21   0.0000       0.071694         1.9509
  22   0.0000       0.083286         2.2663
  23   0.0000       0.091764         2.4970
  24   0.0000       0.098642         2.6842

MULLIKEN ATOMIC CHARGES
-----------------------
   0 C :   -0.008793
   1 C :   -0.362010
   2 N :    0.334461
   3 C :    0.465106
   4 H :   -0.111487
   5 H :   -0.450994
   6 H :   -0.127871
   7 H :   -0.119235
   8 C :    0.927117
   9 H :    0.036858
  10 H :   -0.115669
  11 H :   -0.122280
  12 H :   -0.177295
  13 H :   -0.167908
Sum of atomic charges:   -0.0000000

LOEWDIN ATOMIC CHARGES
----------------------
   0 C :   -0.022428
   1 C :   -0.272764
   2 N :    0.177073
   3 C :    0.170020
   4 H :   -0.080468
   5 H :   -0.084245
   6 H :   -0.005857
   7 H :    0.005856
   8 C :    0.138057
   9 H :    0.019861
  10 H :    0.022591
  11 H :   -0.012441
  12 H :   -0.035255
  13 H :   -0.020003

  Mayer bond orders larger than 0.100000
B(  0-C ,  1-C ) :   1.3296 B(  0-C ,  8-C ) :   1.2152 B(  0-C ,  9-H ) :   0.8687
B(  0-C , 10-H ) :   0.7858 B(  0-C , 11-H ) :   0.1720 B(  0-C , 12-H ) :   0.2193
B(  0-C , 13-H ) :   0.2306 B(  1-C ,  2-N ) :   1.1307 B(  1-C ,  3-C ) :   1.9885
B(  1-C ,  5-H ) :   0.2800 B(  1-C ,  9-H ) :   0.1495 B(  1-C , 10-H ) :   0.2286
B(  2-N ,  3-C ) :   0.2650 B(  2-N ,  6-H ) :   0.9952 B(  2-N ,  7-H ) :   1.0609
B(  3-C ,  4-H ) :   0.8767 B(  3-C ,  5-H ) :   0.6156 B(  4-H ,  5-H ) :   0.1557
B(  6-H ,  7-H ) :  -0.1065 B(  8-C ,  9-H ) :   0.1186 B(  8-C , 11-H ) :   0.7838
B(  8-C , 12-H ) :   0.7482 B(  8-C , 13-H ) :   0.7849

FINAL SINGLE POINT ENERGY      -212.290894095624

DIPOLE MOMENT
-------------
                                X             Y             Z
Electronic contribution:      1.72012      -1.73406      -1.40660
Nuclear contribution   :     -1.43372       2.52039       1.57679
                        -----------------------------------------
Total Dipole Moment    :      0.28640       0.78633       0.17019
                        -----------------------------------------
Magnitude (a.u.)       :      0.85399
Magnitude (Debye)      :      2.17068

Rotational constants in cm-1:     0.274962     0.131786     0.102554
Rotational constants in MHz :  8243.150005  3950.846092  3074.493018

                             ****ORCA TERMINATED NORMALLY****
TOTAL RUN TIME: 0 days 0 hours 0 minutes 32 seconds 607 msec
