                         Program Version 5.0.0 -  RELEASE  -
|  1> !CAM-B3LYP RIJCOSX def2-SVPD def2/J TightSCF
|  2> *xyz 0 1
|  3> C          0.70466        1.44313       -4.50363
|  4> C          1.72854        1.42432       -5.63944
|  5> H          2.64672        1.95379       -5.38105
|  6> H          1.29992        1.93061       -6.50361
|  7> S          2.25263       -0.18811       -6.27184
|  8> O          3.56261       -0.44446       -5.63155
|  9> O          2.34494       -0.03374       -7.69650
| 10> F          1.26606       -1.15918       -5.80536
| 11> H         -0.17385        0.91270       -4.80656
| 12> H          0.44778        2.45562       -4.27173
| 13> H          1.12367        0.97423       -3.63791
| 14> *
| 15>
| 16> %MaxCore 64000
| 17>
| 18> %pal nprocs 4
| 19> end
| 20>
| 21> %scf
| 22>   MaxIter 150
| 23> end
| 24>
| 25>
| 26>                          ****END OF INPUT****

CARTESIAN COORDINATES (ANGSTROEM)
---------------------------------
  C      0.704660    1.443130   -4.503630
  C      1.728540    1.424320   -5.639440
  H      2.646720    1.953790   -5.381050
  H      1.299920    1.930610   -6.503610
  S      2.252630   -0.188110   -6.271840
  O      3.562610   -0.444460   -5.631550
  O      2.344940   -0.033740   -7.696500
  F      1.266060   -1.159180   -5.805360
  H     -0.173850    0.912700   -4.806560
  H      0.447780    2.455620   -4.271730
  H      1.123670    0.974230   -3.637910

 Total Charge           Charge          ....    0
 Multiplicity           Mult            ....    1
 Number of Electrons    NEL             ....   58
 Basis Dimension        Dim             ....  176

ORBITAL ENERGIES
----------------

  NO   OCC          E(Eh)            E(eV)
   0   2.0000     -89.221704     -2427.8460
   1   2.0000     -24.887477      -677.2227
   2   2.0000     -19.233339      -523.3658
   3   2.0000     -19.217038      -522.9222
   4   2.0000     -10.326184      -280.9897
   5   2.0000     -10.290354      -280.0148
   6   2.0000      -8.275712      -225.1936
   7   2.0000      -6.249858      -170.0673
   8   2.0000      -6.243323      -169.8894
   9   2.0000      -6.241979      -169.8529
  10   2.0000      -1.448730       -39.4220
  11   2.0000      -1.198187       -32.6043
  12   2.0000      -1.090302       -29.6686
  13   2.0000      -0.908862       -24.7314
  14   2.0000      -0.810564       -22.0566
  15   2.0000      -0.760769       -20.7016
  16   2.0000      -0.673933       -18.3387
  17   2.0000      -0.658149       -17.9091
  18   2.0000      -0.621703       -16.9174
  19   2.0000      -0.573202       -15.5976
  20   2.0000      -0.552234       -15.0271
  21   2.0000      -0.525740       -14.3061
  22   2.0000      -0.518372       -14.1056
  23   2.0000      -0.486002       -13.2248
  24   2.0000      -0.468091       -12.7374
  25   2.0000      -0.458764       -12.4836
  26   2.0000      -0.405862       -11.0441
  27   2.0000      -0.391796       -10.6613
  28   2.0000      -0.379223       -10.3192
  29   0.0000       0.019901         0.5415
  30   0.0000       0.055893         1.5209
  31   0.0000       0.060511         1.6466
  32   0.0000       0.064998         1.7687
  33   0.0000       0.082333         2.2404

MULLIKEN ATOMIC CHARGES
-----------------------
   0 C :    0.968721
   1 C :   -0.221230
   2 H :   -0.069625
   3 H :   -0.012984
   4 S :    1.444021
   5 O :   -0.687442
   6 O :   -0.631177
   7 F :   -0.421972
   8 H :   -0.105382
   9 H :   -0.150069
  10 H :   -0.112863
Sum of atomic charges:    0.0000000

LOEWDIN ATOMIC CHARGES
----------------------
   0 C :    0.131987
   1 C :   -0.073486
   2 H :    0.031451
   3 H :    0.017988
   4 S :    1.128128
   5 O :   -0.489721
   6 O :   -0.463434
   7 F :   -0.264674
   8 H :   -0.010630
   9 H :   -0.004325
  10 H :   -0.003284

  Mayer bond orders larger than 0.100000
B(  0-C ,  1-C ) :   1.2846 B(  0-C ,  8-H ) :   0.7693 B(  0-C ,  9-H ) :   0.7171
B(  0-C , 10-H ) :   0.7836 B(  1-C ,  2-H ) :   0.9589 B(  1-C ,  3-H ) :   0.9528
B(  1-C ,  4-S ) :   0.9586 B(  1-C ,  8-H ) :   0.2095 B(  1-C ,  9-H ) :   0.2343
B(  1-C , 10-H ) :   0.1893 B(  4-S ,  5-O ) :   1.4958 B(  4-S ,  6-O ) :   1.5615
B(  4-S ,  7-F ) :   0.6715

FINAL SINGLE POINT ENERGY      -727.160034491239

DIPOLE MOMENT
-------------
                                X             Y             Z
Electronic contribution:      2.33164      -7.58939      -3.96283
Nuclear contribution   :     -3.70606       8.55465       4.82350
                        -----------------------------------------
Total Dipole Moment    :     -1.37442       0.96526       0.86067
                        -----------------------------------------
Magnitude (a.u.)       :      1.88719
Magnitude (Debye)      :      4.79687

Rotational constants in cm-1:     0.153201     0.080978     0.077494
Rotational constants in MHz :  4592.852844  2427.650814  2323.207507

                             ****ORCA TERMINATED NORMALLY****
TOTAL RUN TIME: 0 days 0 hours 0 minutes 35 seconds 89 msec
