                         Program Version 5.0.0 -  RELEASE  -
|  1> !CAM-B3LYP RIJCOSX def2-SVPD def2/J TightSCF xyzfile
|  2>
|  3> *xyzfile 0 1 D2.xyz
|  4>
|  5> %MaxCore 64000
|  6>
|  7> %pal nprocs 4
|  8> end
|  9>
| 10> %scf
| 11>   MaxIter 150
| 12> end
| 13>
| 14>
| 15>                          ****END OF INPUT****

CARTESIAN COORDINATES (ANGSTROEM)
---------------------------------
  C      2.916324   -1.242589   -1.543125
  C      0.704661    1.443129   -4.503630
  C      1.728539    1.424320   -5.639443
  H      2.646718    1.953794   -5.381054
  H      1.299916    1.930613   -6.503614
  S      2.252625   -0.188115   -6.271840
  C      3.466585   -1.590971   -2.889082
  N      4.652275   -1.143164   -3.259692
  C      2.752264   -2.292043   -3.728029
  H      1.778364   -2.489604   -3.512738
  H      2.948612   -2.208544   -4.716813
  H      5.146723   -0.512508   -2.633852
  H      4.783030   -1.007203   -4.253498
  F      3.562607   -0.444464   -5.631552
  O      2.344944   -0.033742   -7.696501
  C      2.804084    0.290698   -1.359243
  C      1.052550    0.695659   -3.214915
  H     -0.232483    1.032925   -4.884449
  H      0.511700    2.495794   -4.267966
  C      2.388380    1.093669   -2.597108
  H      3.763425    0.674718   -0.999889
  H      2.094788    0.461222   -0.545756
  O      1.266058   -1.159177   -5.805365
  H      3.167316    1.013242   -3.359430
  H      2.357690    2.149375   -2.310997
  H      1.039284   -0.368429   -3.449329
  H      0.250787    0.865605   -2.488283
  H      1.940472   -1.716529   -1.441161
  H      3.558569   -1.663433   -0.766371

 Total Charge           Charge          ....    0
 Multiplicity           Mult            ....    1
 Number of Electrons    NEL             ....  112
 Basis Dimension        Dim             ....  404

ORBITAL ENERGIES
----------------

  NO   OCC          E(Eh)            E(eV)
   0   2.0000     -89.224382     -2427.9189
   1   2.0000     -24.883926      -677.1260
   2   2.0000     -19.235526      -523.4253
   3   2.0000     -19.224416      -523.1230
   4   2.0000     -14.403762      -391.9463
   5   2.0000     -10.323863      -280.9266
   6   2.0000     -10.286673      -279.9146
   7   2.0000     -10.275820      -279.6193
   8   2.0000     -10.267471      -279.3921
   9   2.0000     -10.265949      -279.3507
  10   2.0000     -10.261148      -279.2200
  11   2.0000     -10.260210      -279.1945
  12   2.0000     -10.187904      -277.2269
  13   2.0000      -8.276956      -225.2274
  14   2.0000      -6.251245      -170.1050
  15   2.0000      -6.244635      -169.9252
  16   2.0000      -6.243299      -169.8888
  17   2.0000      -1.440600       -39.2007
  18   2.0000      -1.204109       -32.7655
  19   2.0000      -1.103552       -30.0292
  20   2.0000      -1.009759       -27.4769
  21   2.0000      -0.920097       -25.0371
  22   2.0000      -0.882366       -24.0104
  23   2.0000      -0.841859       -22.9081
  24   2.0000      -0.813220       -22.1288
  25   2.0000      -0.790268       -21.5043
  26   2.0000      -0.759480       -20.6665
  27   2.0000      -0.707728       -19.2583
  28   2.0000      -0.673869       -18.3369
  29   2.0000      -0.655901       -17.8480
  30   2.0000      -0.649595       -17.6764
  31   2.0000      -0.635092       -17.2817
  32   2.0000      -0.624064       -16.9817
  33   2.0000      -0.597042       -16.2463
  34   2.0000      -0.570255       -15.5174
  35   2.0000      -0.567119       -15.4321
  36   2.0000      -0.554379       -15.0854
  37   2.0000      -0.540766       -14.7150
  38   2.0000      -0.525918       -14.3109
  39   2.0000      -0.517844       -14.0912
  40   2.0000      -0.509445       -13.8627
  41   2.0000      -0.489874       -13.3302
  42   2.0000      -0.475981       -12.9521
  43   2.0000      -0.462765       -12.5925
  44   2.0000      -0.456620       -12.4253
  45   2.0000      -0.452294       -12.3075
  46   2.0000      -0.436555       -11.8793
  47   2.0000      -0.426848       -11.6151
  48   2.0000      -0.416674       -11.3383
  49   2.0000      -0.404171       -10.9981
  50   2.0000      -0.402223       -10.9450
  51   2.0000      -0.393953       -10.7200
  52   2.0000      -0.390441       -10.6244
  53   2.0000      -0.382729       -10.4146
  54   2.0000      -0.381307       -10.3759
  55   2.0000      -0.254028        -6.9125
  56   0.0000       0.026303         0.7157
  57   0.0000       0.045145         1.2285
  58   0.0000       0.045722         1.2442
  59   0.0000       0.052769         1.4359
  60   0.0000       0.072693         1.9781

MULLIKEN ATOMIC CHARGES
-----------------------
   0 C :    0.624515
   1 C :    0.634242
   2 C :    0.275165
   3 H :    0.094173
   4 H :   -0.305913
   5 S :    1.456532
   6 C :   -0.725741
   7 N :    0.513911
   8 C :    0.950356
   9 H :   -0.163212
  10 H :   -0.610626
  11 H :   -0.044783
  12 H :   -0.282341
  13 F :   -0.543330
  14 O :   -0.623546
  15 C :    0.630690
  16 C :    0.493259
  17 H :   -0.059207
  18 H :   -0.123656
  19 C :    0.059847
  20 H :   -0.091089
  21 H :   -0.200769
  22 O :   -0.766531
  23 H :   -0.084993
  24 H :   -0.308083
  25 H :   -0.562950
  26 H :   -0.112893
  27 H :    0.215187
  28 H :   -0.338211
Sum of atomic charges:   -0.0000000

LOEWDIN ATOMIC CHARGES
----------------------
   0 C :    0.027561
   1 C :   -0.023014
   2 C :   -0.028693
   3 H :    0.015555
   4 H :    0.024129
   5 S :    1.145051
   6 C :   -0.259208
   7 N :    0.190647
   8 C :    0.171517
   9 H :   -0.062083
  10 H :   -0.115691
  11 H :    0.005885
  12 H :   -0.036959
  13 F :   -0.289405
  14 O :   -0.449257
  15 C :   -0.011650
  16 C :   -0.012834
  17 H :    0.033615
  18 H :    0.034331
  19 C :   -0.026949
  20 H :    0.013187
  21 H :    0.019842
  22 O :   -0.451289
  23 H :   -0.009334
  24 H :    0.026460
  25 H :   -0.012235
  26 H :    0.034511
  27 H :    0.023533
  28 H :    0.022775

  Mayer bond orders larger than 0.100000
B(  0-C ,  6-C ) :   1.3452 B(  0-C ,  8-C ) :   0.1121 B(  0-C , 15-C ) :   1.0955
B(  0-C , 20-H ) :   0.1384 B(  0-C , 21-H ) :   0.2198 B(  0-C , 27-H ) :   0.7705
B(  0-C , 28-H ) :   0.4889 B(  1-C ,  2-C ) :   1.1945 B(  1-C ,  3-H ) :   0.1088
B(  1-C ,  4-H ) :   0.2222 B(  1-C , 16-C ) :   1.2280 B(  1-C , 17-H ) :   0.6180
B(  1-C , 18-H ) :   0.6924 B(  2-C ,  3-H ) :   0.8386 B(  2-C ,  4-H ) :   0.8315
B(  2-C ,  5-S ) :   0.9345 B(  2-C , 17-H ) :   0.1322 B(  2-C , 18-H ) :   0.1769
B(  5-S , 13-F ) :   0.6200 B(  5-S , 14-O ) :   1.5752 B(  5-S , 22-O ) :   1.5146
B(  6-C ,  7-N ) :   0.9632 B(  6-C ,  8-C ) :   2.0425 B(  6-C ,  9-H ) :   0.1242
B(  6-C , 10-H ) :   0.5605 B(  6-C , 15-C ) :   0.2197 B(  6-C , 21-H ) :  -0.1037
B(  6-C , 28-H ) :   0.4347 B(  7-N ,  8-C ) :   0.4340 B(  7-N ,  9-H ) :   0.1627
B(  7-N , 10-H ) :  -0.1280 B(  7-N , 11-H ) :   0.9694 B(  7-N , 12-H ) :   0.8807
B(  8-C ,  9-H ) :   0.5396 B(  8-C , 27-H ) :  -0.1197 B(  9-H , 10-H ) :   0.1105
B(  9-H , 25-H ) :   0.1053 B( 10-H , 12-H ) :   0.1758 B( 11-H , 12-H ) :  -0.1601
B( 12-H , 13-F ) :   0.1448 B( 15-C , 19-C ) :   1.1791 B( 15-C , 20-H ) :   0.6136
B( 15-C , 21-H ) :   0.7406 B( 15-C , 23-H ) :   0.1262 B( 15-C , 27-H ) :   0.1333
B( 16-C , 17-H ) :   0.3059 B( 16-C , 19-C ) :   1.2099 B( 16-C , 23-H ) :   0.1492
B( 16-C , 24-H ) :   0.1616 B( 16-C , 25-H ) :   0.7938 B( 16-C , 26-H ) :   0.6046
B( 17-H , 18-H ) :  -0.1257 B( 19-C , 20-H ) :   0.3194 B( 19-C , 21-H ) :   0.1880
B( 19-C , 23-H ) :   0.8370 B( 19-C , 24-H ) :   0.8145 B( 19-C , 25-H ) :   0.1863
B( 19-C , 26-H ) :   0.2216 B( 20-H , 21-H ) :  -0.1637

FINAL SINGLE POINT ENERGY     -1016.778299334185

DIPOLE MOMENT
-------------
                                X             Y             Z
Electronic contribution:      3.43490      -4.17813     -18.19406
Nuclear contribution   :     -3.13969       6.14743      19.30799
                        -----------------------------------------
Total Dipole Moment    :      0.29521       1.96930       1.11393
                        -----------------------------------------
Magnitude (a.u.)       :      2.28170
Magnitude (Debye)      :      5.79961

Rotational constants in cm-1:     0.036460     0.018762     0.015014
Rotational constants in MHz :  1093.039020   562.475626   450.105862

                             ****ORCA TERMINATED NORMALLY****
TOTAL RUN TIME: 0 days 0 hours 3 minutes 24 seconds 194 msec
