                         Program Version 5.0.0 -  RELEASE  -
|  1> !CAM-B3LYP RIJCOSX def2-SVPD def2/J TightSCF xyzfile
|  2>
|  3> *xyzfile 0 1 D6.xyz
|  4>
|  5> %MaxCore 64000
|  6>
|  7> %pal nprocs 4
|  8> end
|  9>
| 10> %scf
| 11>   MaxIter 150
| 12> end
| 13>
| 14>
| 15>                          ****END OF INPUT****

CARTESIAN COORDINATES (ANGSTROEM)
---------------------------------
  C      2.916324   -1.242589   -1.543125
  C      0.704661    1.443129   -4.503630
  C      1.728539    1.424320   -5.639443
  H      2.646718    1.953794   -5.381054
  H      1.299916    1.930613   -6.503614
  S      2.252625   -0.188115   -6.271840
  C      3.466585   -1.590971   -2.889082
  N      4.652275   -1.143164   -3.259692
  C      2.752264   -2.292043   -3.728029
  H      1.778364   -2.489604   -3.512738
  H      2.948612   -2.208544   -4.716813
  H      5.146723   -0.512508   -2.633852
  H      4.783030   -1.007203   -4.253498
  O      3.562607   -0.444464   -5.631552
  O      2.344944   -0.033742   -7.696501
  C      2.804084    0.290698   -1.359243
  C      1.052550    0.695659   -3.214915
  H     -0.232483    1.032925   -4.884449
  H      0.511700    2.495794   -4.267966
  C      2.388380    1.093669   -2.597108
  H      3.763425    0.674718   -0.999889
  H      2.094788    0.461222   -0.545756
  F      1.266058   -1.159177   -5.805365
  H      3.167316    1.013242   -3.359430
  H      2.357690    2.149375   -2.310997
  H      1.039284   -0.368429   -3.449329
  H      0.250787    0.865605   -2.488283
  H      1.940472   -1.716529   -1.441161
  H      3.558569   -1.663433   -0.766371

 Total Charge           Charge          ....    0
 Multiplicity           Mult            ....    1
 Number of Electrons    NEL             ....  112
 Basis Dimension        Dim             ....  404

ORBITAL ENERGIES
----------------

  NO   OCC          E(Eh)            E(eV)
   0   2.0000     -89.229285     -2428.0523
   1   2.0000     -24.888810      -677.2590
   2   2.0000     -19.238038      -523.4936
   3   2.0000     -19.223286      -523.0922
   4   2.0000     -14.385423      -391.4473
   5   2.0000     -10.325523      -280.9718
   6   2.0000     -10.293726      -280.1065
   7   2.0000     -10.269160      -279.4380
   8   2.0000     -10.267587      -279.3952
   9   2.0000     -10.263834      -279.2931
  10   2.0000     -10.262143      -279.2471
  11   2.0000     -10.255446      -279.0649
  12   2.0000     -10.180016      -277.0123
  13   2.0000      -8.281671      -225.3557
  14   2.0000      -6.255833      -170.2299
  15   2.0000      -6.249621      -170.0608
  16   2.0000      -6.247899      -170.0140
  17   2.0000      -1.450551       -39.4715
  18   2.0000      -1.203580       -32.7511
  19   2.0000      -1.099350       -29.9148
  20   2.0000      -0.993992       -27.0479
  21   2.0000      -0.924662       -25.1613
  22   2.0000      -0.880037       -23.9470
  23   2.0000      -0.837860       -22.7993
  24   2.0000      -0.809547       -22.0289
  25   2.0000      -0.787933       -21.4407
  26   2.0000      -0.756375       -20.5820
  27   2.0000      -0.710815       -19.3422
  28   2.0000      -0.676952       -18.4208
  29   2.0000      -0.664494       -18.0818
  30   2.0000      -0.651334       -17.7237
  31   2.0000      -0.636099       -17.3091
  32   2.0000      -0.614363       -16.7177
  33   2.0000      -0.581894       -15.8341
  34   2.0000      -0.571560       -15.5529
  35   2.0000      -0.567743       -15.4491
  36   2.0000      -0.551339       -15.0027
  37   2.0000      -0.539719       -14.6865
  38   2.0000      -0.530892       -14.4463
  39   2.0000      -0.515499       -14.0274
  40   2.0000      -0.510474       -13.8907
  41   2.0000      -0.487337       -13.2611
  42   2.0000      -0.476320       -12.9613
  43   2.0000      -0.465536       -12.6679
  44   2.0000      -0.455091       -12.3836
  45   2.0000      -0.452014       -12.2999
  46   2.0000      -0.434576       -11.8254
  47   2.0000      -0.428899       -11.6709
  48   2.0000      -0.417900       -11.3716
  49   2.0000      -0.403610       -10.9828
  50   2.0000      -0.398956       -10.8562
  51   2.0000      -0.391360       -10.6494
  52   2.0000      -0.390233       -10.6188
  53   2.0000      -0.373701       -10.1689
  54   2.0000      -0.373262       -10.1570
  55   2.0000      -0.244976        -6.6661
  56   0.0000       0.023334         0.6349
  57   0.0000       0.045781         1.2458
  58   0.0000       0.049198         1.3387
  59   0.0000       0.053892         1.4665
  60   0.0000       0.069571         1.8931

MULLIKEN ATOMIC CHARGES
-----------------------
   0 C :    0.629654
   1 C :    0.623410
   2 C :    0.289906
   3 H :    0.074162
   4 H :   -0.278305
   5 S :    1.366438
   6 C :   -0.706612
   7 N :    0.508421
   8 C :    0.906238
   9 H :   -0.134695
  10 H :   -0.651469
  11 H :   -0.041148
  12 H :   -0.299098
  13 O :   -0.686849
  14 O :   -0.616672
  15 C :    0.633554
  16 C :    0.498379
  17 H :   -0.080791
  18 H :   -0.116884
  19 C :    0.062870
  20 H :   -0.083796
  21 H :   -0.207121
  22 F :   -0.478611
  23 H :   -0.073063
  24 H :   -0.305507
  25 H :   -0.580420
  26 H :   -0.121482
  27 H :    0.207666
  28 H :   -0.338176
Sum of atomic charges:    0.0000000

LOEWDIN ATOMIC CHARGES
----------------------
   0 C :    0.025800
   1 C :   -0.031404
   2 C :   -0.021667
   3 H :    0.028148
   4 H :    0.019630
   5 S :    1.161665
   6 C :   -0.254627
   7 N :    0.201524
   8 C :    0.158220
   9 H :   -0.073412
  10 H :   -0.122466
  11 H :    0.004696
  12 H :   -0.052312
  13 O :   -0.480317
  14 O :   -0.445830
  15 C :   -0.011519
  16 C :   -0.015649
  17 H :    0.028153
  18 H :    0.034955
  19 C :   -0.021571
  20 H :    0.014229
  21 H :    0.018054
  22 F :   -0.251421
  23 H :   -0.003662
  24 H :    0.026541
  25 H :   -0.013192
  26 H :    0.034168
  27 H :    0.020595
  28 H :    0.022671

  Mayer bond orders larger than 0.100000
B(  0-C ,  6-C ) :   1.3477 B(  0-C ,  8-C ) :   0.1063 B(  0-C , 15-C ) :   1.0923
B(  0-C , 20-H ) :   0.1380 B(  0-C , 21-H ) :   0.2283 B(  0-C , 27-H ) :   0.7717
B(  0-C , 28-H ) :   0.4829 B(  1-C ,  2-C ) :   1.1883 B(  1-C ,  3-H ) :   0.1004
B(  1-C ,  4-H ) :   0.2300 B(  1-C , 16-C ) :   1.2250 B(  1-C , 17-H ) :   0.6202
B(  1-C , 18-H ) :   0.6853 B(  2-C ,  3-H ) :   0.8635 B(  2-C ,  4-H ) :   0.8340
B(  2-C ,  5-S ) :   0.9664 B(  2-C , 17-H ) :   0.1199 B(  2-C , 18-H ) :   0.1788
B(  5-S , 10-H ) :   0.1008 B(  5-S , 13-O ) :   1.4161 B(  5-S , 14-O ) :   1.5845
B(  5-S , 22-F ) :   0.6568 B(  6-C ,  7-N ) :   0.9915 B(  6-C ,  8-C ) :   2.0640
B(  6-C ,  9-H ) :   0.1341 B(  6-C , 10-H ) :   0.5579 B(  6-C , 15-C ) :   0.2213
B(  6-C , 21-H ) :  -0.1041 B(  6-C , 28-H ) :   0.4298 B(  7-N ,  8-C ) :   0.4273
B(  7-N ,  9-H ) :   0.1666 B(  7-N , 10-H ) :  -0.1027 B(  7-N , 11-H ) :   0.9483
B(  7-N , 12-H ) :   0.8873 B(  8-C ,  9-H ) :   0.5009 B(  8-C , 27-H ) :  -0.1161
B(  9-H , 25-H ) :   0.1138 B( 10-H , 12-H ) :   0.1673 B( 11-H , 12-H ) :  -0.1586
B( 12-H , 13-O ) :   0.1211 B( 15-C , 19-C ) :   1.1850 B( 15-C , 20-H ) :   0.6118
B( 15-C , 21-H ) :   0.7381 B( 15-C , 23-H ) :   0.1242 B( 15-C , 27-H ) :   0.1355
B( 16-C , 17-H ) :   0.2964 B( 16-C , 18-H ) :   0.1007 B( 16-C , 19-C ) :   1.2164
B( 16-C , 23-H ) :   0.1515 B( 16-C , 24-H ) :   0.1671 B( 16-C , 25-H ) :   0.7706
B( 16-C , 26-H ) :   0.6094 B( 17-H , 18-H ) :  -0.1359 B( 19-C , 20-H ) :   0.3169
B( 19-C , 21-H ) :   0.1858 B( 19-C , 23-H ) :   0.8493 B( 19-C , 24-H ) :   0.7916
B( 19-C , 25-H ) :   0.1984 B( 19-C , 26-H ) :   0.2132 B( 20-H , 21-H ) :  -0.1645

FINAL SINGLE POINT ENERGY     -1016.775404841152

DIPOLE MOMENT
-------------
                                X             Y             Z
Electronic contribution:     -0.48967      -5.27478     -18.61364
Nuclear contribution   :     -0.51418       6.96452      19.50670
                        -----------------------------------------
Total Dipole Moment    :     -1.00385       1.68974       0.89306
                        -----------------------------------------
Magnitude (a.u.)       :      2.15882
Magnitude (Debye)      :      5.48728

Rotational constants in cm-1:     0.036455     0.018603     0.015008
Rotational constants in MHz :  1092.895336   557.693628   449.926016

                             ****ORCA TERMINATED NORMALLY****
TOTAL RUN TIME: 0 days 0 hours 3 minutes 53 seconds 214 msec
