                         Program Version 5.0.0 -  RELEASE  -
|  1> !TPSS D3BJ RIJCOSX def2-TZVPD def2/J TightSCF
|  2> *xyz -1 1
|  3> C          4.93020       -7.37532       -2.64962
|  4> C          3.84189       -6.95161       -3.63283
|  5> H          3.45814       -5.95442       -3.40712
|  6> H          2.98848       -7.64361       -3.56708
|  7> S          4.31812       -6.91593       -5.36869
|  8> O          5.40615       -5.89948       -5.51297
|  9> O          3.11191       -6.44508       -6.04379
| 10> O          4.76340       -8.23942       -5.69863
| 11> H          5.27901       -8.35440       -2.90385
| 12> H          4.53000       -7.38577       -1.65734
| 13> H          5.74437       -6.68276       -2.69856
| 14> *
| 15>
| 16> %MaxCore 64000
| 17>
| 18> %pal nprocs 4
| 19> end
| 20>
| 21> %scf
| 22>   MaxIter 150
| 23> end
| 24>
| 25>
| 26>                          ****END OF INPUT****

CARTESIAN COORDINATES (ANGSTROEM)
---------------------------------
  C      4.930200   -7.375320   -2.649620
  C      3.841890   -6.951610   -3.632830
  H      3.458140   -5.954420   -3.407120
  H      2.988480   -7.643610   -3.567080
  S      4.318120   -6.915930   -5.368690
  O      5.406150   -5.899480   -5.512970
  O      3.111910   -6.445080   -6.043790
  O      4.763400   -8.239420   -5.698630
  H      5.279010   -8.354400   -2.903850
  H      4.530000   -7.385770   -1.657340
  H      5.744370   -6.682760   -2.698560

 Total Charge           Charge          ....   -1
 Multiplicity           Mult            ....    1
 Number of Electrons    NEL             ....   58
 Basis Dimension        Dim             ....  285

ORBITAL ENERGIES
----------------

  NO   OCC          E(Eh)            E(eV)
   0   2.0000     -88.326885     -2403.4967
   1   2.0000     -18.666445      -507.9398
   2   2.0000     -18.657970      -507.7092
   3   2.0000     -18.650877      -507.5162
   4   2.0000      -9.847102      -267.9533
   5   2.0000      -9.841470      -267.8000
   6   2.0000      -7.675576      -208.8630
   7   2.0000      -5.655032      -153.8812
   8   2.0000      -5.654354      -153.8628
   9   2.0000      -5.654068      -153.8550
  10   2.0000      -0.844939       -22.9920
  11   2.0000      -0.724571       -19.7166
  12   2.0000      -0.696654       -18.9569
  13   2.0000      -0.575827       -15.6691
  14   2.0000      -0.455488       -12.3944
  15   2.0000      -0.332947        -9.0599
  16   2.0000      -0.275719        -7.5027
  17   2.0000      -0.265814        -7.2332
  18   2.0000      -0.228950        -6.2301
  19   2.0000      -0.213357        -5.8057
  20   2.0000      -0.209131        -5.6908
  21   2.0000      -0.188283        -5.1234
  22   2.0000      -0.175170        -4.7666
  23   2.0000      -0.104081        -2.8322
  24   2.0000      -0.102770        -2.7965
  25   2.0000      -0.073677        -2.0049
  26   2.0000      -0.066787        -1.8174
  27   2.0000      -0.055804        -1.5185
  28   2.0000      -0.019124        -0.5204
  29   0.0000       0.113947         3.1007
  30   0.0000       0.137229         3.7342
  31   0.0000       0.143166         3.8957
  32   0.0000       0.151934         4.1343
  33   0.0000       0.168452         4.5838

MULLIKEN ATOMIC CHARGES
-----------------------
   0 C :   -0.979078
   1 C :   -0.299615
   2 H :    0.217796
   3 H :    0.220446
   4 S :    1.335239
   5 O :   -0.786640
   6 O :   -0.752510
   7 O :   -0.740304
   8 H :    0.275987
   9 H :    0.231198
  10 H :    0.277482
Sum of atomic charges:   -1.0000000

LOEWDIN ATOMIC CHARGES
----------------------
   0 C :   -0.143057
   1 C :   -0.330968
   2 H :    0.078046
   3 H :    0.081447
   4 S :    0.333245
   5 O :   -0.412053
   6 O :   -0.394513
   7 O :   -0.367923
   8 H :    0.055310
   9 H :    0.044290
  10 H :    0.056178

  Mayer bond orders larger than 0.100000
B(  0-C ,  1-C ) :   0.9761 B(  0-C ,  8-H ) :   0.9421 B(  0-C ,  9-H ) :   0.9448
B(  0-C , 10-H ) :   0.9465 B(  1-C ,  2-H ) :   0.9357 B(  1-C ,  3-H ) :   0.9248
B(  1-C ,  4-S ) :   0.8452 B(  1-C ,  5-O ) :   0.1376 B(  1-C ,  6-O ) :   0.1732
B(  1-C ,  7-O ) :   0.1397 B(  4-S ,  5-O ) :   1.3565 B(  4-S ,  6-O ) :   1.3867
B(  4-S ,  7-O ) :   1.4230

Dispersion correction           -0.012037070
FINAL SINGLE POINT ENERGY      -703.379032269155

DIPOLE MOMENT
-------------
                                X             Y             Z
Electronic contribution:     -0.34620       0.81790      -7.90001
Nuclear contribution   :      0.07504      -1.14369       9.75001
                        -----------------------------------------
Total Dipole Moment    :     -0.27116      -0.32579       1.84999
                        -----------------------------------------
Magnitude (a.u.)       :      1.89793
Magnitude (Debye)      :      4.82416

Rotational constants in cm-1:     0.160553     0.082191     0.080550
Rotational constants in MHz :  4813.250478  2464.013016  2414.833054

                             ****ORCA TERMINATED NORMALLY****
TOTAL RUN TIME: 0 days 0 hours 0 minutes 25 seconds 183 msec
