                         Program Version 5.0.0 -  RELEASE  -
|  1> !TPSS D3BJ RIJCOSX def2-TZVPD def2/J TightSCF
|  2> *xyz 1 1
|  3> C          5.55821       -1.99291       -6.21505
|  4> C          4.18188       -2.58967       -6.29891
|  5> N          3.14587       -1.76843       -6.48675
|  6> N          4.01910       -3.86431       -6.22743
|  7> H          4.76849       -4.59115       -5.99077
|  8> H          3.12241       -4.33339       -6.31462
|  9> H          3.28164       -0.77779       -6.56655
| 10> H          2.21255       -2.13419       -6.56225
| 11> C          6.41926       -2.54294       -5.07763
| 12> H          6.03683       -2.19819       -7.17685
| 13> H          5.46761       -0.90737       -6.12797
| 14> H          6.50056       -3.60553       -5.17358
| 15> H          5.96544       -2.30329       -4.13874
| 16> H          7.39438       -2.10494       -5.12457
| 17> *
| 18>
| 19> %MaxCore 64000
| 20>
| 21> %pal nprocs 4
| 22> end
| 23>
| 24> %scf
| 25>   MaxIter 150
| 26> end
| 27>
| 28>
| 29>                          ****END OF INPUT****

CARTESIAN COORDINATES (ANGSTROEM)
---------------------------------
  C      5.558210   -1.992910   -6.215050
  C      4.181880   -2.589670   -6.298910
  N      3.145870   -1.768430   -6.486750
  N      4.019100   -3.864310   -6.227430
  H      4.768490   -4.591150   -5.990770
  H      3.122410   -4.333390   -6.314620
  H      3.281640   -0.777790   -6.566550
  H      2.212550   -2.134190   -6.562250
  C      6.419260   -2.542940   -5.077630
  H      6.036830   -2.198190   -7.176850
  H      5.467610   -0.907370   -6.127970
  H      6.500560   -3.605530   -5.173580
  H      5.965440   -2.303290   -4.138740
  H      7.394380   -2.104940   -5.124570

 Total Charge           Charge          ....    1
 Multiplicity           Mult            ....    1
 Number of Electrons    NEL             ....   40
 Basis Dimension        Dim             ....  266

ORBITAL ENERGIES
----------------

  NO   OCC          E(Eh)            E(eV)
   0   2.0000     -14.352050      -390.5391
   1   2.0000     -14.341701      -390.2575
   2   2.0000     -10.298274      -280.2303
   3   2.0000     -10.183462      -277.1061
   4   2.0000     -10.140863      -275.9469
   5   2.0000      -1.137461       -30.9519
   6   2.0000      -1.046534       -28.4776
   7   2.0000      -0.912073       -24.8188
   8   2.0000      -0.816139       -22.2083
   9   2.0000      -0.766257       -20.8509
  10   2.0000      -0.725659       -19.7462
  11   2.0000      -0.701699       -19.0942
  12   2.0000      -0.654949       -17.8221
  13   2.0000      -0.609828       -16.5943
  14   2.0000      -0.582673       -15.8553
  15   2.0000      -0.561870       -15.2893
  16   2.0000      -0.510763       -13.8986
  17   2.0000      -0.503418       -13.6987
  18   2.0000      -0.489425       -13.3179
  19   2.0000      -0.454942       -12.3796
  20   0.0000      -0.235219        -6.4006
  21   0.0000      -0.180459        -4.9105
  22   0.0000      -0.146260        -3.9799
  23   0.0000      -0.134478        -3.6593
  24   0.0000      -0.115630        -3.1464

MULLIKEN ATOMIC CHARGES
-----------------------
   0 C :   -0.147398
   1 C :    0.791428
   2 N :   -0.325115
   3 N :   -0.319059
   4 H :    0.210387
   5 H :    0.194188
   6 H :    0.209131
   7 H :    0.165876
   8 C :   -1.024098
   9 H :    0.200357
  10 H :    0.194196
  11 H :    0.355162
  12 H :    0.284210
  13 H :    0.210735
Sum of atomic charges:    1.0000000

LOEWDIN ATOMIC CHARGES
----------------------
   0 C :   -0.138310
   1 C :   -0.364957
   2 N :    0.230660
   3 N :    0.221534
   4 H :    0.186671
   5 H :    0.148366
   6 H :    0.137081
   7 H :    0.137643
   8 C :   -0.052987
   9 H :    0.138725
  10 H :    0.122898
  11 H :    0.062746
  12 H :    0.084261
  13 H :    0.085669

  Mayer bond orders larger than 0.100000
B(  0-C ,  1-C ) :   0.9175 B(  0-C ,  8-C ) :   0.8875 B(  0-C ,  9-H ) :   0.8737
B(  0-C , 10-H ) :   0.9243 B(  1-C ,  2-N ) :   1.1283 B(  1-C ,  3-N ) :   1.1944
B(  2-N ,  3-N ) :   0.1239 B(  2-N ,  6-H ) :   0.9708 B(  2-N ,  7-H ) :   1.0537
B(  3-N ,  4-H ) :   0.9574 B(  3-N ,  5-H ) :   1.0061 B(  8-C , 11-H ) :   0.8814
B(  8-C , 12-H ) :   0.9335 B(  8-C , 13-H ) :   0.9981

Dispersion correction           -0.012359601
FINAL SINGLE POINT ENERGY      -229.160121965226

DIPOLE MOMENT
-------------
                                X             Y             Z
Electronic contribution:     -3.77217      -0.46779      -1.56043
Nuclear contribution   :      2.76041       0.12669       1.26265
                        -----------------------------------------
Total Dipole Moment    :     -1.01176      -0.34109      -0.29778
                        -----------------------------------------
Magnitude (a.u.)       :      1.10845
Magnitude (Debye)      :      2.81747

Rotational constants in cm-1:     0.280918     0.124524     0.094121
Rotational constants in MHz :  8421.697738  3733.133254  2821.684112

                             ****ORCA TERMINATED NORMALLY****
TOTAL RUN TIME: 0 days 0 hours 0 minutes 21 seconds 830 msec
