                         Program Version 5.0.0 -  RELEASE  -
|  1> !TPSS D3BJ RIJCOSX def2-TZVPD def2/J TightSCF xyzfile
|  2>
|  3> *xyzfile 0 1 B.xyz
|  4>
|  5> %MaxCore 64000
|  6>
|  7> %pal nprocs 4
|  8> end
|  9>
| 10> %scf
| 11>   MaxIter 150
| 12> end
| 13>
| 14>
| 15>                          ****END OF INPUT****

CARTESIAN COORDINATES (ANGSTROEM)
---------------------------------
  C      5.558206   -1.992914   -6.215054
  C      4.930199   -7.375319   -2.649623
  C      3.841892   -6.951611   -3.632829
  H      3.458144   -5.954425   -3.407121
  H      2.988484   -7.643606   -3.567078
  S      4.318115   -6.915930   -5.368692
  C      4.181880   -2.589671   -6.298911
  N      3.145873   -1.768431   -6.486753
  N      4.019102   -3.864307   -6.227427
  H      4.768490   -4.591153   -5.990773
  H      3.122405   -4.333392   -6.314620
  H      3.281635   -0.777786   -6.566549
  H      2.212549   -2.134193   -6.562246
  O      5.406154   -5.899480   -5.512972
  O      3.111910   -6.445079   -6.043792
  C      6.419260   -2.542944   -5.077630
  C      5.872267   -5.002756   -2.427819
  C      6.173994   -6.485522   -2.606315
  H      6.734852   -6.613767   -3.534015
  H      6.821463   -6.831018   -1.793617
  H      4.469612   -7.406168   -1.655876
  H      5.230134   -8.398678   -2.885906
  C      5.896512   -2.169314   -3.694552
  H      7.428880   -2.143665   -5.208078
  H      6.505894   -3.627541   -5.175502
  C      6.807804   -2.623428   -2.551019
  H      4.894708   -2.589732   -3.557501
  H      5.778823   -1.081255   -3.635790
  C      7.111544   -4.122463   -2.520363
  H      7.751615   -2.071393   -2.614406
  H      6.345837   -2.326401   -1.604086
  H      5.362882   -4.828697   -1.471335
  H      5.174429   -4.702577   -3.211298
  H      7.778329   -4.329347   -1.677651
  H      7.673189   -4.402845   -3.417586
  O      4.763396   -8.239424   -5.698629
  H      6.036826   -2.198189   -7.176852
  H      5.467610   -0.907371   -6.127968

 Total Charge           Charge          ....    0
 Multiplicity           Mult            ....    1
 Number of Electrons    NEL             ....  136
 Basis Dimension        Dim             ....  808

ORBITAL ENERGIES
----------------

  NO   OCC          E(Eh)            E(eV)
   0   2.0000     -88.481971     -2407.7168
   1   2.0000     -18.827281      -512.3164
   2   2.0000     -18.815927      -512.0074
   3   2.0000     -18.810367      -511.8561
   4   2.0000     -14.190705      -386.1487
   5   2.0000     -14.151614      -385.0850
   6   2.0000     -10.132518      -275.7198
   7   2.0000     -10.042691      -273.2755
   8   2.0000     -10.010397      -272.3967
   9   2.0000      -9.998602      -272.0758
  10   2.0000      -9.987267      -271.7673
  11   2.0000      -9.977436      -271.4998
  12   2.0000      -9.975179      -271.4384
  13   2.0000      -9.967100      -271.2186
  14   2.0000      -9.966698      -271.2076
  15   2.0000      -9.959456      -271.0106
  16   2.0000      -7.831359      -213.1021
  17   2.0000      -5.811245      -158.1320
  18   2.0000      -5.809955      -158.0969
  19   2.0000      -5.809408      -158.0820
  20   2.0000      -1.004950       -27.3461
  21   2.0000      -0.972130       -26.4530
  22   2.0000      -0.884564       -24.0702
  23   2.0000      -0.874415       -23.7940
  24   2.0000      -0.870235       -23.6803
  25   2.0000      -0.782816       -21.3015
  26   2.0000      -0.747809       -20.3489
  27   2.0000      -0.724716       -19.7205
  28   2.0000      -0.687635       -18.7115
  29   2.0000      -0.655139       -17.8272
  30   2.0000      -0.624741       -17.0001
  31   2.0000      -0.604094       -16.4382
  32   2.0000      -0.578822       -15.7506
  33   2.0000      -0.559688       -15.2299
  34   2.0000      -0.550993       -14.9933
  35   2.0000      -0.528886       -14.3917
  36   2.0000      -0.514987       -14.0135
  37   2.0000      -0.493760       -13.4359
  38   2.0000      -0.467044       -12.7089
  39   2.0000      -0.459556       -12.5052
  40   2.0000      -0.444850       -12.1050
  41   2.0000      -0.430909       -11.7256
  42   2.0000      -0.421448       -11.4682
  43   2.0000      -0.408409       -11.1134
  44   2.0000      -0.404256       -11.0004
  45   2.0000      -0.395637       -10.7658
  46   2.0000      -0.386880       -10.5275
  47   2.0000      -0.380130       -10.3439
  48   2.0000      -0.366168        -9.9639
  49   2.0000      -0.360596        -9.8123
  50   2.0000      -0.355879        -9.6840
  51   2.0000      -0.352031        -9.5793
  52   2.0000      -0.335445        -9.1279
  53   2.0000      -0.330441        -8.9918
  54   2.0000      -0.324147        -8.8205
  55   2.0000      -0.309435        -8.4201
  56   2.0000      -0.298693        -8.1278
  57   2.0000      -0.293560        -7.9882
  58   2.0000      -0.289837        -7.8869
  59   2.0000      -0.280823        -7.6416
  60   2.0000      -0.276323        -7.5191
  61   2.0000      -0.266748        -7.2586
  62   2.0000      -0.264029        -7.1846
  63   2.0000      -0.257626        -7.0104
  64   2.0000      -0.224476        -6.1083
  65   2.0000      -0.220707        -6.0057
  66   2.0000      -0.214159        -5.8276
  67   2.0000      -0.188660        -5.1337
  68   0.0000      -0.076046        -2.0693
  69   0.0000      -0.047600        -1.2953
  70   0.0000      -0.014685        -0.3996
  71   0.0000      -0.003898        -0.1061
  72   0.0000       0.000830         0.0226

MULLIKEN ATOMIC CHARGES
-----------------------
   0 C :   -0.305903
   1 C :   -0.354856
   2 C :   -0.484845
   3 H :    0.340008
   4 H :    0.220177
   5 S :    1.368033
   6 C :    0.994721
   7 N :   -0.458277
   8 N :   -0.244239
   9 H :    0.284009
  10 H :    0.198561
  11 H :    0.168842
  12 H :    0.153321
  13 O :   -0.900695
  14 O :   -0.874899
  15 C :   -0.474657
  16 C :   -0.100459
  17 C :   -0.469029
  18 H :    0.272999
  19 H :    0.151490
  20 H :    0.130379
  21 H :    0.122787
  22 C :   -0.329627
  23 H :    0.033495
  24 H :    0.358089
  25 C :   -0.458980
  26 H :    0.371173
  27 H :    0.067571
  28 C :   -0.423282
  29 H :    0.147380
  30 H :    0.157048
  31 H :    0.129570
  32 H :    0.118616
  33 H :    0.146967
  34 H :    0.286755
  35 O :   -0.732546
  36 H :    0.181128
  37 H :    0.209176
Sum of atomic charges:   -0.0000000

LOEWDIN ATOMIC CHARGES
----------------------
   0 C :   -0.103793
   1 C :   -0.219523
   2 C :   -0.251578
   3 H :    0.084757
   4 H :    0.102035
   5 S :    0.431465
   6 C :   -0.373998
   7 N :    0.191898
   8 N :    0.229197
   9 H :    0.055219
  10 H :    0.114539
  11 H :    0.116086
  12 H :    0.124665
  13 O :   -0.366005
  14 O :   -0.357337
  15 C :   -0.184029
  16 C :   -0.217439
  17 C :   -0.209921
  18 H :    0.103046
  19 H :    0.110868
  20 H :    0.106281
  21 H :    0.107602
  22 C :   -0.206697
  23 H :    0.122487
  24 H :    0.098040
  25 C :   -0.201355
  26 H :    0.105479
  27 H :    0.109446
  28 C :   -0.205294
  29 H :    0.106089
  30 H :    0.107361
  31 H :    0.122317
  32 H :    0.076164
  33 H :    0.111036
  34 H :    0.109117
  35 O :   -0.294522
  36 H :    0.132767
  37 H :    0.113529

  Mayer bond orders larger than 0.100000
B(  0-C ,  6-C ) :   0.7783 B(  0-C ,  7-N ) :   0.1056 B(  0-C , 15-C ) :   0.9109
B(  0-C , 22-C ) :   0.1404 B(  0-C , 36-H ) :   0.8054 B(  0-C , 37-H ) :   0.9588
B(  1-C ,  2-C ) :   1.1895 B(  1-C ,  5-S ) :   0.1879 B(  1-C , 17-C ) :   1.1104
B(  1-C , 20-H ) :   0.8982 B(  1-C , 21-H ) :   0.8714 B(  2-C ,  3-H ) :   0.7947
B(  2-C ,  4-H ) :   0.8392 B(  2-C ,  5-S ) :   0.8433 B(  2-C , 13-O ) :   0.1241
B(  2-C , 14-O ) :   0.1572 B(  2-C , 32-H ) :   0.1193 B(  2-C , 35-O ) :   0.1798
B(  5-S , 13-O ) :   1.4327 B(  5-S , 14-O ) :   1.1307 B(  5-S , 35-O ) :   1.2026
B(  6-C ,  7-N ) :   0.8578 B(  6-C ,  8-N ) :   1.1318 B(  6-C ,  9-H ) :  -0.1222
B(  6-C , 10-H ) :  -0.1201 B(  6-C , 15-C ) :   0.1165 B(  6-C , 22-C ) :   0.1594
B(  6-C , 36-H ) :   0.1149 B(  6-C , 37-H ) :  -0.1578 B(  7-N ,  8-N ) :   0.1412
B(  7-N , 11-H ) :   1.0298 B(  7-N , 12-H ) :   1.0732 B(  8-N ,  9-H ) :   0.8642
B(  8-N , 10-H ) :   1.0421 B(  8-N , 13-O ) :  -0.1190 B(  8-N , 14-O ) :   0.1069
B(  8-N , 15-C ) :   0.1115 B(  9-H , 14-O ) :  -0.1063 B( 13-O , 14-O ) :   0.1112
B( 13-O , 17-C ) :   0.1163 B( 15-C , 16-C ) :  -0.1316 B( 15-C , 22-C ) :   0.6029
B( 15-C , 23-H ) :   0.8313 B( 15-C , 24-H ) :   0.9988 B( 15-C , 25-C ) :   0.1937
B( 15-C , 28-C ) :   0.1986 B( 16-C , 17-C ) :   0.7717 B( 16-C , 22-C ) :   0.1886
B( 16-C , 25-C ) :   0.1982 B( 16-C , 28-C ) :   0.5803 B( 16-C , 31-H ) :   0.7583
B( 16-C , 32-H ) :   1.3048 B( 17-C , 18-H ) :   0.7452 B( 17-C , 19-H ) :   0.8913
B( 17-C , 28-C ) :   0.4802 B( 17-C , 31-H ) :  -0.1017 B( 22-C , 25-C ) :   1.1877
B( 22-C , 26-H ) :   0.7876 B( 22-C , 27-H ) :   0.8751 B( 23-H , 24-H ) :   0.1114
B( 25-C , 28-C ) :   1.0676 B( 25-C , 29-H ) :   0.9007 B( 25-C , 30-H ) :   0.8722
B( 28-C , 31-H ) :  -0.1250 B( 28-C , 33-H ) :   0.9176 B( 28-C , 34-H ) :   0.7757
B( 31-H , 32-H ) :   0.1591

Dispersion correction           -0.057946376
FINAL SINGLE POINT ENERGY     -1128.190425434823

DIPOLE MOMENT
-------------
                                X             Y             Z
Electronic contribution:     -9.17934     -11.53362     -14.23420
Nuclear contribution   :      8.53517      16.50844      14.36520
                        -----------------------------------------
Total Dipole Moment    :     -0.64417       4.97482       0.13100
                        -----------------------------------------
Magnitude (a.u.)       :      5.01806
Magnitude (Debye)      :     12.75490

Rotational constants in cm-1:     0.017951     0.012436     0.008288
Rotational constants in MHz :   538.163255   372.824050   248.467077

                             ****ORCA TERMINATED NORMALLY****
TOTAL RUN TIME: 0 days 0 hours 3 minutes 22 seconds 151 msec
