                         Program Version 5.0.0 -  RELEASE  -
|  1> !TPSS D3BJ RIJCOSX def2-TZVPD def2/J TightSCF
|  2> *xyz 0 1
|  3> C          4.93020       -7.37532       -2.64962
|  4> C          3.84189       -6.95161       -3.63283
|  5> H          3.45814       -5.95442       -3.40712
|  6> H          2.98848       -7.64361       -3.56708
|  7> S          4.31812       -6.91593       -5.36869
|  8> F          5.40615       -5.89948       -5.51297
|  9> O          3.11191       -6.44508       -6.04379
| 10> O          4.76340       -8.23942       -5.69863
| 11> H          5.27901       -8.35440       -2.90385
| 12> H          4.53000       -7.38577       -1.65734
| 13> H          5.74437       -6.68276       -2.69856
| 14> *
| 15>
| 16> %MaxCore 64000
| 17>
| 18> %pal nprocs 4
| 19> end
| 20>
| 21> %scf
| 22>   MaxIter 150
| 23> end
| 24>
| 25>
| 26>                          ****END OF INPUT****

CARTESIAN COORDINATES (ANGSTROEM)
---------------------------------
  C      4.930200   -7.375320   -2.649620
  C      3.841890   -6.951610   -3.632830
  H      3.458140   -5.954420   -3.407120
  H      2.988480   -7.643610   -3.567080
  S      4.318120   -6.915930   -5.368690
  F      5.406150   -5.899480   -5.512970
  O      3.111910   -6.445080   -6.043790
  O      4.763400   -8.239420   -5.698630
  H      5.279010   -8.354400   -2.903850
  H      4.530000   -7.385770   -1.657340
  H      5.744370   -6.682760   -2.698560

 Total Charge           Charge          ....    0
 Multiplicity           Mult            ....    1
 Number of Electrons    NEL             ....   58
 Basis Dimension        Dim             ....  285

ORBITAL ENERGIES
----------------

  NO   OCC          E(Eh)            E(eV)
   0   2.0000     -88.582516     -2410.4528
   1   2.0000     -24.503251      -666.7674
   2   2.0000     -18.899801      -514.2897
   3   2.0000     -18.890672      -514.0413
   4   2.0000     -10.047299      -273.4009
   5   2.0000     -10.006726      -272.2969
   6   2.0000      -7.932066      -215.8425
   7   2.0000      -5.915356      -160.9650
   8   2.0000      -5.908556      -160.7800
   9   2.0000      -5.908343      -160.7742
  10   2.0000      -1.259665       -34.2772
  11   2.0000      -1.038952       -28.2713
  12   2.0000      -0.951586       -25.8940
  13   2.0000      -0.765380       -20.8270
  14   2.0000      -0.663070       -18.0430
  15   2.0000      -0.617110       -16.7924
  16   2.0000      -0.522169       -14.2089
  17   2.0000      -0.498097       -13.5539
  18   2.0000      -0.492603       -13.4044
  19   2.0000      -0.450735       -12.2651
  20   2.0000      -0.430868       -11.7245
  21   2.0000      -0.408331       -11.1113
  22   2.0000      -0.391484       -10.6528
  23   2.0000      -0.369601       -10.0574
  24   2.0000      -0.364560        -9.9202
  25   2.0000      -0.338970        -9.2238
  26   2.0000      -0.299205        -8.1418
  27   2.0000      -0.288973        -7.8633
  28   2.0000      -0.275867        -7.5067
  29   0.0000      -0.030702        -0.8354
  30   0.0000       0.003040         0.0827
  31   0.0000       0.011509         0.3132
  32   0.0000       0.013637         0.3711
  33   0.0000       0.022403         0.6096

MULLIKEN ATOMIC CHARGES
-----------------------
   0 C :   -0.966838
   1 C :   -0.199694
   2 H :    0.259880
   3 H :    0.238394
   4 S :    1.188271
   5 F :   -0.174482
   6 O :   -0.588962
   7 O :   -0.581060
   8 H :    0.302619
   9 H :    0.216854
  10 H :    0.305018
Sum of atomic charges:   -0.0000000

LOEWDIN ATOMIC CHARGES
----------------------
   0 C :   -0.107362
   1 C :   -0.277876
   2 H :    0.097073
   3 H :    0.111984
   4 S :    0.578723
   5 F :   -0.082133
   6 O :   -0.275986
   7 O :   -0.251168
   8 H :    0.069489
   9 H :    0.069928
  10 H :    0.067328

  Mayer bond orders larger than 0.100000
B(  0-C ,  1-C ) :   0.9945 B(  0-C ,  8-H ) :   0.9354 B(  0-C ,  9-H ) :   0.9677
B(  0-C , 10-H ) :   0.9024 B(  1-C ,  2-H ) :   0.8999 B(  1-C ,  3-H ) :   0.9010
B(  1-C ,  4-S ) :   0.8283 B(  1-C ,  6-O ) :   0.1294 B(  4-S ,  5-F ) :   0.9483
B(  4-S ,  6-O ) :   1.6219 B(  4-S ,  7-O ) :   1.6581 B(  6-O ,  7-O ) :   0.1151

Dispersion correction           -0.011463517
FINAL SINGLE POINT ENERGY      -727.919674570994

DIPOLE MOMENT
-------------
                                X             Y             Z
Electronic contribution:      1.29072       2.60881      -8.82325
Nuclear contribution   :     -0.98922      -2.24849      10.35711
                        -----------------------------------------
Total Dipole Moment    :      0.30150       0.36031       1.53386
                        -----------------------------------------
Magnitude (a.u.)       :      1.60420
Magnitude (Debye)      :      4.07755

Rotational constants in cm-1:     0.151436     0.080885     0.078670
Rotational constants in MHz :  4539.936009  2424.868817  2358.476812

                             ****ORCA TERMINATED NORMALLY****
TOTAL RUN TIME: 0 days 0 hours 0 minutes 23 seconds 705 msec
