                         Program Version 5.0.0 -  RELEASE  -
|  1> !TPSS D3BJ RIJCOSX def2-TZVPD def2/J TightSCF
|  2> *xyz 0 1
|  3> C          5.55821       -1.99291       -6.21505
|  4> C          4.18188       -2.58967       -6.29891
|  5> C          3.14587       -1.76843       -6.48675
|  6> N          4.01910       -3.86431       -6.22743
|  7> H          4.76849       -4.59115       -5.99077
|  8> H          3.12241       -4.33339       -6.31462
|  9> H          3.28164       -0.77779       -6.56655
| 10> H          2.21255       -2.13419       -6.56225
| 11> C          6.41926       -2.54294       -5.07763
| 12> H          6.03683       -2.19819       -7.17685
| 13> H          5.46761       -0.90737       -6.12797
| 14> H          6.50056       -3.60553       -5.17358
| 15> H          5.96544       -2.30329       -4.13874
| 16> H          7.39438       -2.10494       -5.12457
| 17> *
| 18>
| 19> %MaxCore 64000
| 20>
| 21> %pal nprocs 4
| 22> end
| 23>
| 24> %scf
| 25>   MaxIter 150
| 26> end
| 27>
| 28>
| 29>                          ****END OF INPUT****

CARTESIAN COORDINATES (ANGSTROEM)
---------------------------------
  C      5.558210   -1.992910   -6.215050
  C      4.181880   -2.589670   -6.298910
  C      3.145870   -1.768430   -6.486750
  N      4.019100   -3.864310   -6.227430
  H      4.768490   -4.591150   -5.990770
  H      3.122410   -4.333390   -6.314620
  H      3.281640   -0.777790   -6.566550
  H      2.212550   -2.134190   -6.562250
  C      6.419260   -2.542940   -5.077630
  H      6.036830   -2.198190   -7.176850
  H      5.467610   -0.907370   -6.127970
  H      6.500560   -3.605530   -5.173580
  H      5.965440   -2.303290   -4.138740
  H      7.394380   -2.104940   -5.124570

 Total Charge           Charge          ....    0
 Multiplicity           Mult            ....    1
 Number of Electrons    NEL             ....   40
 Basis Dimension        Dim             ....  266

ORBITAL ENERGIES
----------------

  NO   OCC          E(Eh)            E(eV)
   0   2.0000     -14.111070      -383.9817
   1   2.0000     -10.000686      -272.1325
   2   2.0000      -9.983965      -271.6775
   3   2.0000      -9.973721      -271.3988
   4   2.0000      -9.913016      -269.7469
   5   2.0000      -0.871409       -23.7123
   6   2.0000      -0.721407       -19.6305
   7   2.0000      -0.662922       -18.0390
   8   2.0000      -0.581677       -15.8282
   9   2.0000      -0.535131       -14.5617
  10   2.0000      -0.473438       -12.8829
  11   2.0000      -0.429390       -11.6843
  12   2.0000      -0.402177       -10.9438
  13   2.0000      -0.382501       -10.4084
  14   2.0000      -0.352801        -9.6002
  15   2.0000      -0.343089        -9.3359
  16   2.0000      -0.321915        -8.7598
  17   2.0000      -0.295461        -8.0399
  18   2.0000      -0.292053        -7.9472
  19   2.0000      -0.155398        -4.2286
  20   0.0000      -0.011999        -0.3265
  21   0.0000       0.013291         0.3617
  22   0.0000       0.022625         0.6156
  23   0.0000       0.027744         0.7549
  24   0.0000       0.043944         1.1958

MULLIKEN ATOMIC CHARGES
-----------------------
   0 C :   -0.054079
   1 C :    0.822415
   2 C :   -1.248712
   3 N :   -0.455838
   4 H :    0.156996
   5 H :    0.143169
   6 H :    0.271501
   7 H :    0.255059
   8 C :   -1.000826
   9 H :    0.148938
  10 H :    0.181702
  11 H :    0.300233
  12 H :    0.265773
  13 H :    0.213671
Sum of atomic charges:    0.0000000

LOEWDIN ATOMIC CHARGES
----------------------
   0 C :   -0.191444
   1 C :   -0.506090
   2 C :    0.025941
   3 N :    0.093681
   4 H :    0.139048
   5 H :    0.113479
   6 H :    0.008224
   7 H :    0.010616
   8 C :   -0.092601
   9 H :    0.112140
  10 H :    0.107632
  11 H :    0.047493
  12 H :    0.070078
  13 H :    0.061802

  Mayer bond orders larger than 0.100000
B(  0-C ,  1-C ) :   0.9575 B(  0-C ,  8-C ) :   0.8022 B(  0-C ,  9-H ) :   0.8944
B(  0-C , 10-H ) :   0.8814 B(  1-C ,  2-C ) :   1.1897 B(  1-C ,  3-N ) :   0.9146
B(  2-C ,  3-N ) :   0.1312 B(  2-C ,  6-H ) :   0.9334 B(  2-C ,  7-H ) :   1.0308
B(  3-N ,  4-H ) :   1.0211 B(  3-N ,  5-H ) :   1.0360 B(  8-C , 11-H ) :   0.9227
B(  8-C , 12-H ) :   0.9728 B(  8-C , 13-H ) :   0.9887

Dispersion correction           -0.012840611
FINAL SINGLE POINT ENERGY      -212.680046279945

DIPOLE MOMENT
-------------
                                X             Y             Z
Electronic contribution:     -2.04914      -1.05519      -1.02833
Nuclear contribution   :      2.41345       0.31141       1.16343
                        -----------------------------------------
Total Dipole Moment    :      0.36431      -0.74378       0.13511
                        -----------------------------------------
Magnitude (a.u.)       :      0.83915
Magnitude (Debye)      :      2.13296

Rotational constants in cm-1:     0.287957     0.129204     0.097498
Rotational constants in MHz :  8632.737925  3873.424745  2922.919500

                             ****ORCA TERMINATED NORMALLY****
TOTAL RUN TIME: 0 days 0 hours 0 minutes 23 seconds 218 msec
