                         Program Version 5.0.0 -  RELEASE  -
|  1> !TPSS D3BJ RIJCOSX def2-TZVPD def2/J TightSCF
|  2> *xyz 0 1
|  3> C          4.93020       -7.37532       -2.64962
|  4> C          3.84189       -6.95161       -3.63283
|  5> H          3.45814       -5.95442       -3.40712
|  6> H          2.98848       -7.64361       -3.56708
|  7> S          4.31812       -6.91593       -5.36869
|  8> O          5.40615       -5.89948       -5.51297
|  9> F          3.11191       -6.44508       -6.04379
| 10> O          4.76340       -8.23942       -5.69863
| 11> H          5.27901       -8.35440       -2.90385
| 12> H          4.53000       -7.38577       -1.65734
| 13> H          5.74437       -6.68276       -2.69856
| 14> *
| 15>
| 16> %MaxCore 64000
| 17>
| 18> %pal nprocs 4
| 19> end
| 20>
| 21> %scf
| 22>   MaxIter 150
| 23> end
| 24>
| 25>
| 26>                          ****END OF INPUT****

CARTESIAN COORDINATES (ANGSTROEM)
---------------------------------
  C      4.930200   -7.375320   -2.649620
  C      3.841890   -6.951610   -3.632830
  H      3.458140   -5.954420   -3.407120
  H      2.988480   -7.643610   -3.567080
  S      4.318120   -6.915930   -5.368690
  O      5.406150   -5.899480   -5.512970
  F      3.111910   -6.445080   -6.043790
  O      4.763400   -8.239420   -5.698630
  H      5.279010   -8.354400   -2.903850
  H      4.530000   -7.385770   -1.657340
  H      5.744370   -6.682760   -2.698560

 Total Charge           Charge          ....    0
 Multiplicity           Mult            ....    1
 Number of Electrons    NEL             ....   58
 Basis Dimension        Dim             ....  285

ORBITAL ENERGIES
----------------

  NO   OCC          E(Eh)            E(eV)
   0   2.0000     -88.584464     -2410.5058
   1   2.0000     -24.517565      -667.1569
   2   2.0000     -18.899101      -514.2707
   3   2.0000     -18.883266      -513.8398
   4   2.0000     -10.048176      -273.4248
   5   2.0000     -10.006078      -272.2792
   6   2.0000      -7.933890      -215.8921
   7   2.0000      -5.917134      -161.0134
   8   2.0000      -5.910406      -160.8303
   9   2.0000      -5.910130      -160.8228
  10   2.0000      -1.285671       -34.9849
  11   2.0000      -1.032528       -28.0965
  12   2.0000      -0.933820       -25.4105
  13   2.0000      -0.765236       -20.8231
  14   2.0000      -0.675530       -18.3821
  15   2.0000      -0.617538       -16.8041
  16   2.0000      -0.525628       -14.3031
  17   2.0000      -0.516166       -14.0456
  18   2.0000      -0.501950       -13.6588
  19   2.0000      -0.452124       -12.3029
  20   2.0000      -0.434412       -11.8209
  21   2.0000      -0.396476       -10.7886
  22   2.0000      -0.389630       -10.6024
  23   2.0000      -0.372866       -10.1462
  24   2.0000      -0.354284        -9.6406
  25   2.0000      -0.341003        -9.2792
  26   2.0000      -0.296319        -8.0633
  27   2.0000      -0.281155        -7.6506
  28   2.0000      -0.262527        -7.1437
  29   0.0000      -0.021907        -0.5961
  30   0.0000      -0.008202        -0.2232
  31   0.0000       0.012885         0.3506
  32   0.0000       0.017715         0.4820
  33   0.0000       0.028269         0.7692

MULLIKEN ATOMIC CHARGES
-----------------------
   0 C :   -0.963414
   1 C :   -0.224460
   2 H :    0.250833
   3 H :    0.254437
   4 S :    1.180697
   5 O :   -0.614414
   6 F :   -0.130697
   7 O :   -0.575512
   8 H :    0.303487
   9 H :    0.220180
  10 H :    0.298863
Sum of atomic charges:    0.0000000

LOEWDIN ATOMIC CHARGES
----------------------
   0 C :   -0.095266
   1 C :   -0.286241
   2 H :    0.095808
   3 H :    0.100167
   4 S :    0.577386
   5 O :   -0.293140
   6 F :   -0.062474
   7 O :   -0.253490
   8 H :    0.072009
   9 H :    0.072192
  10 H :    0.073050

  Mayer bond orders larger than 0.100000
B(  0-C ,  1-C ) :   1.0455 B(  0-C ,  8-H ) :   0.9120 B(  0-C ,  9-H ) :   0.9562
B(  0-C , 10-H ) :   0.9207 B(  1-C ,  2-H ) :   0.8850 B(  1-C ,  3-H ) :   0.8771
B(  1-C ,  4-S ) :   0.8360 B(  1-C ,  5-O ) :   0.1056 B(  1-C ,  7-O ) :   0.1100
B(  4-S ,  5-O ) :   1.5825 B(  4-S ,  6-F ) :   0.9907 B(  4-S ,  7-O ) :   1.6578
B(  5-O ,  7-O ) :   0.1267

Dispersion correction           -0.011510652
FINAL SINGLE POINT ENERGY      -727.908792337955

DIPOLE MOMENT
-------------
                                X             Y             Z
Electronic contribution:     -2.52222       1.69443      -9.71122
Nuclear contribution   :      1.40145      -1.67996      10.91024
                        -----------------------------------------
Total Dipole Moment    :     -1.12077       0.01447       1.19902
                        -----------------------------------------
Magnitude (a.u.)       :      1.64134
Magnitude (Debye)      :      4.17195

Rotational constants in cm-1:     0.155875     0.079864     0.077188
Rotational constants in MHz :  4673.017506  2394.277415  2314.027118

                             ****ORCA TERMINATED NORMALLY****
TOTAL RUN TIME: 0 days 0 hours 0 minutes 22 seconds 640 msec
