                         Program Version 5.0.0 -  RELEASE  -
|  1> !TPSS D3BJ RIJCOSX def2-TZVPD def2/J TightSCF
|  2> *xyz 0 1
|  3> C          5.55821       -1.99291       -6.21505
|  4> C          4.18188       -2.58967       -6.29891
|  5> N          3.14587       -1.76843       -6.48675
|  6> C          4.01910       -3.86431       -6.22743
|  7> H          4.76849       -4.59115       -5.99077
|  8> H          3.12241       -4.33339       -6.31462
|  9> H          3.28164       -0.77779       -6.56655
| 10> H          2.21255       -2.13419       -6.56225
| 11> C          6.41926       -2.54294       -5.07763
| 12> H          6.03683       -2.19819       -7.17685
| 13> H          5.46761       -0.90737       -6.12797
| 14> H          6.50056       -3.60553       -5.17358
| 15> H          5.96544       -2.30329       -4.13874
| 16> H          7.39438       -2.10494       -5.12457
| 17> *
| 18>
| 19> %MaxCore 64000
| 20>
| 21> %pal nprocs 4
| 22> end
| 23>
| 24> %scf
| 25>   MaxIter 150
| 26> end
| 27>
| 28>
| 29>                          ****END OF INPUT****

CARTESIAN COORDINATES (ANGSTROEM)
---------------------------------
  C      5.558210   -1.992910   -6.215050
  C      4.181880   -2.589670   -6.298910
  N      3.145870   -1.768430   -6.486750
  C      4.019100   -3.864310   -6.227430
  H      4.768490   -4.591150   -5.990770
  H      3.122410   -4.333390   -6.314620
  H      3.281640   -0.777790   -6.566550
  H      2.212550   -2.134190   -6.562250
  C      6.419260   -2.542940   -5.077630
  H      6.036830   -2.198190   -7.176850
  H      5.467610   -0.907370   -6.127970
  H      6.500560   -3.605530   -5.173580
  H      5.965440   -2.303290   -4.138740
  H      7.394380   -2.104940   -5.124570

 Total Charge           Charge          ....    0
 Multiplicity           Mult            ....    1
 Number of Electrons    NEL             ....   40
 Basis Dimension        Dim             ....  266

ORBITAL ENERGIES
----------------

  NO   OCC          E(Eh)            E(eV)
   0   2.0000     -14.100873      -383.7043
   1   2.0000      -9.998608      -272.0760
   2   2.0000      -9.985002      -271.7057
   3   2.0000      -9.967971      -271.2423
   4   2.0000      -9.919401      -269.9206
   5   2.0000      -0.861878       -23.4529
   6   2.0000      -0.724524       -19.7153
   7   2.0000      -0.659370       -17.9424
   8   2.0000      -0.591081       -16.0841
   9   2.0000      -0.511469       -13.9178
  10   2.0000      -0.479557       -13.0494
  11   2.0000      -0.442119       -12.0307
  12   2.0000      -0.406252       -11.0547
  13   2.0000      -0.377162       -10.2631
  14   2.0000      -0.344339        -9.3699
  15   2.0000      -0.335257        -9.1228
  16   2.0000      -0.314552        -8.5594
  17   2.0000      -0.299379        -8.1465
  18   2.0000      -0.287661        -7.8276
  19   2.0000      -0.162062        -4.4099
  20   0.0000      -0.004877        -0.1327
  21   0.0000       0.012580         0.3423
  22   0.0000       0.024679         0.6715
  23   0.0000       0.028240         0.7685
  24   0.0000       0.047124         1.2823

MULLIKEN ATOMIC CHARGES
-----------------------
   0 C :   -0.115513
   1 C :    0.917902
   2 N :   -0.462287
   3 C :   -1.213749
   4 H :    0.204854
   5 H :    0.230682
   6 H :    0.164151
   7 H :    0.125977
   8 C :   -0.908957
   9 H :    0.154401
  10 H :    0.159990
  11 H :    0.284016
  12 H :    0.247374
  13 H :    0.211158
Sum of atomic charges:   -0.0000000

LOEWDIN ATOMIC CHARGES
----------------------
   0 C :   -0.192512
   1 C :   -0.489295
   2 N :    0.105034
   3 C :    0.002037
   4 H :    0.050843
   5 H :    0.019952
   6 H :    0.091905
   7 H :    0.103510
   8 C :   -0.089873
   9 H :    0.114199
  10 H :    0.098979
  11 H :    0.054098
  12 H :    0.070619
  13 H :    0.060504

  Mayer bond orders larger than 0.100000
B(  0-C ,  1-C ) :   0.7969 B(  0-C ,  8-C ) :   0.8357 B(  0-C ,  9-H ) :   0.8917
B(  0-C , 10-H ) :   0.9955 B(  1-C ,  2-N ) :   0.8645 B(  1-C ,  3-C ) :   1.1668
B(  2-N ,  3-C ) :   0.1404 B(  2-N ,  6-H ) :   1.0446 B(  2-N ,  7-H ) :   1.0826
B(  3-C ,  4-H ) :   0.9953 B(  3-C ,  5-H ) :   1.0760 B(  8-C , 11-H ) :   0.9342
B(  8-C , 12-H ) :   0.9622 B(  8-C , 13-H ) :   0.9815

Dispersion correction           -0.012885411
FINAL SINGLE POINT ENERGY      -212.689057869249

DIPOLE MOMENT
-------------
                                X             Y             Z
Electronic contribution:     -2.81336       0.80331      -1.28455
Nuclear contribution   :      2.61570      -0.17401       1.22349
                        -----------------------------------------
Total Dipole Moment    :     -0.19766       0.62929      -0.06106
                        -----------------------------------------
Magnitude (a.u.)       :      0.66243
Magnitude (Debye)      :      1.68375

Rotational constants in cm-1:     0.298189     0.125314     0.096441
Rotational constants in MHz :  8939.495008  3756.825352  2891.223400

                             ****ORCA TERMINATED NORMALLY****
TOTAL RUN TIME: 0 days 0 hours 0 minutes 23 seconds 593 msec
