                         Program Version 5.0.0 -  RELEASE  -
|  1> !TPSS D3BJ RIJCOSX def2-TZVPD def2/J TightSCF
|  2> *xyz 0 1
|  3> C          4.93020       -7.37532       -2.64962
|  4> C          3.84189       -6.95161       -3.63283
|  5> H          3.45814       -5.95442       -3.40712
|  6> H          2.98848       -7.64361       -3.56708
|  7> S          4.31812       -6.91593       -5.36869
|  8> O          5.40615       -5.89948       -5.51297
|  9> O          3.11191       -6.44508       -6.04379
| 10> F          4.76340       -8.23942       -5.69863
| 11> H          5.27901       -8.35440       -2.90385
| 12> H          4.53000       -7.38577       -1.65734
| 13> H          5.74437       -6.68276       -2.69856
| 14> *
| 15>
| 16> %MaxCore 64000
| 17>
| 18> %pal nprocs 4
| 19> end
| 20>
| 21> %scf
| 22>   MaxIter 150
| 23> end
| 24>
| 25>
| 26>                          ****END OF INPUT****

CARTESIAN COORDINATES (ANGSTROEM)
---------------------------------
  C      4.930200   -7.375320   -2.649620
  C      3.841890   -6.951610   -3.632830
  H      3.458140   -5.954420   -3.407120
  H      2.988480   -7.643610   -3.567080
  S      4.318120   -6.915930   -5.368690
  O      5.406150   -5.899480   -5.512970
  O      3.111910   -6.445080   -6.043790
  F      4.763400   -8.239420   -5.698630
  H      5.279010   -8.354400   -2.903850
  H      4.530000   -7.385770   -1.657340
  H      5.744370   -6.682760   -2.698560

 Total Charge           Charge          ....    0
 Multiplicity           Mult            ....    1
 Number of Electrons    NEL             ....   58
 Basis Dimension        Dim             ....  285

ORBITAL ENERGIES
----------------

  NO   OCC          E(Eh)            E(eV)
   0   2.0000     -88.586177     -2410.5524
   1   2.0000     -24.531001      -667.5225
   2   2.0000     -18.891036      -514.0512
   3   2.0000     -18.884346      -513.8692
   4   2.0000     -10.048455      -273.4324
   5   2.0000     -10.007726      -272.3241
   6   2.0000      -7.935513      -215.9363
   7   2.0000      -5.918907      -161.0617
   8   2.0000      -5.911936      -160.8720
   9   2.0000      -5.911644      -160.8640
  10   2.0000      -1.307375       -35.5755
  11   2.0000      -1.021516       -27.7969
  12   2.0000      -0.927055       -25.2265
  13   2.0000      -0.767567       -20.8866
  14   2.0000      -0.678536       -18.4639
  15   2.0000      -0.627958       -17.0876
  16   2.0000      -0.543162       -14.7802
  17   2.0000      -0.530207       -14.4277
  18   2.0000      -0.499529       -13.5929
  19   2.0000      -0.451712       -12.2917
  20   2.0000      -0.431762       -11.7488
  21   2.0000      -0.405384       -11.0310
  22   2.0000      -0.387987       -10.5577
  23   2.0000      -0.370603       -10.0846
  24   2.0000      -0.360176        -9.8009
  25   2.0000      -0.331820        -9.0293
  26   2.0000      -0.287959        -7.8358
  27   2.0000      -0.280229        -7.6254
  28   2.0000      -0.257081        -6.9955
  29   0.0000      -0.029351        -0.7987
  30   0.0000       0.000231         0.0063
  31   0.0000       0.012520         0.3407
  32   0.0000       0.012854         0.3498
  33   0.0000       0.025823         0.7027

MULLIKEN ATOMIC CHARGES
-----------------------
   0 C :   -0.967842
   1 C :   -0.193089
   2 H :    0.230289
   3 H :    0.263722
   4 S :    1.155040
   5 O :   -0.610081
   6 O :   -0.579301
   7 F :   -0.124581
   8 H :    0.308907
   9 H :    0.217913
  10 H :    0.299023
Sum of atomic charges:    0.0000000

LOEWDIN ATOMIC CHARGES
----------------------
   0 C :   -0.107679
   1 C :   -0.278881
   2 H :    0.107579
   3 H :    0.101263
   4 S :    0.575055
   5 O :   -0.290516
   6 O :   -0.275636
   7 F :   -0.037920
   8 H :    0.066009
   9 H :    0.070090
  10 H :    0.070638

  Mayer bond orders larger than 0.100000
B(  0-C ,  1-C ) :   0.9863 B(  0-C ,  8-H ) :   0.8938 B(  0-C ,  9-H ) :   0.9675
B(  0-C , 10-H ) :   0.9461 B(  1-C ,  2-H ) :   0.9128 B(  1-C ,  3-H ) :   0.8919
B(  1-C ,  4-S ) :   0.8332 B(  1-C ,  6-O ) :   0.1298 B(  4-S ,  5-O ) :   1.5954
B(  4-S ,  6-O ) :   1.6318 B(  4-S ,  7-F ) :   1.0262 B(  5-O ,  6-O ) :   0.1156

Dispersion correction           -0.011453405
FINAL SINGLE POINT ENERGY      -727.897724658045

DIPOLE MOMENT
-------------
                                X             Y             Z
Electronic contribution:      0.21308      -1.26435      -9.13609
Nuclear contribution   :     -0.31946       0.18980      10.55057
                        -----------------------------------------
Total Dipole Moment    :     -0.10637      -1.07455       1.41448
                        -----------------------------------------
Magnitude (a.u.)       :      1.77953
Magnitude (Debye)      :      4.52321

Rotational constants in cm-1:     0.151421     0.081183     0.078684
Rotational constants in MHz :  4539.489207  2433.790160  2358.892966

                             ****ORCA TERMINATED NORMALLY****
TOTAL RUN TIME: 0 days 0 hours 0 minutes 26 seconds 521 msec
