                         Program Version 5.0.0 -  RELEASE  -
|  1> !TPSS D3BJ RIJCOSX def2-TZVPD def2/J TightSCF xyzfile
|  2>
|  3> *xyzfile 0 1 D1.xyz
|  4>
|  5> %MaxCore 64000
|  6>
|  7> %pal nprocs 4
|  8> end
|  9>
| 10> %scf
| 11>   MaxIter 150
| 12> end
| 13>
| 14>
| 15>                          ****END OF INPUT****

CARTESIAN COORDINATES (ANGSTROEM)
---------------------------------
  C      5.558206   -1.992914   -6.215054
  C      4.930199   -7.375319   -2.649623
  C      3.841892   -6.951611   -3.632829
  H      3.458144   -5.954425   -3.407121
  H      2.988484   -7.643606   -3.567078
  S      4.318115   -6.915930   -5.368692
  C      4.181880   -2.589671   -6.298911
  C      3.145873   -1.768431   -6.486753
  N      4.019102   -3.864307   -6.227427
  H      4.768490   -4.591153   -5.990773
  H      3.122405   -4.333392   -6.314620
  H      3.281635   -0.777786   -6.566549
  H      2.212549   -2.134193   -6.562246
  F      5.406154   -5.899480   -5.512972
  O      3.111910   -6.445079   -6.043792
  C      6.419260   -2.542944   -5.077630
  C      5.872267   -5.002756   -2.427819
  C      6.173994   -6.485522   -2.606315
  H      6.734852   -6.613767   -3.534015
  H      6.821463   -6.831018   -1.793617
  H      4.469612   -7.406168   -1.655876
  H      5.230134   -8.398678   -2.885906
  C      5.896512   -2.169314   -3.694552
  H      7.428880   -2.143665   -5.208078
  H      6.505894   -3.627541   -5.175502
  C      6.807804   -2.623428   -2.551019
  H      4.894708   -2.589732   -3.557501
  H      5.778823   -1.081255   -3.635790
  C      7.111544   -4.122463   -2.520363
  H      7.751615   -2.071393   -2.614406
  H      6.345837   -2.326401   -1.604086
  H      5.362882   -4.828697   -1.471335
  H      5.174429   -4.702577   -3.211298
  H      7.778329   -4.329347   -1.677651
  H      7.673189   -4.402845   -3.417586
  O      4.763396   -8.239424   -5.698629
  H      6.036826   -2.198189   -7.176852
  H      5.467610   -0.907371   -6.127968

 Total Charge           Charge          ....    0
 Multiplicity           Mult            ....    1
 Number of Electrons    NEL             ....  136
 Basis Dimension        Dim             ....  808

ORBITAL ENERGIES
----------------

  NO   OCC          E(Eh)            E(eV)
   0   2.0000     -88.600145     -2410.9325
   1   2.0000     -24.532482      -667.5628
   2   2.0000     -18.916470      -514.7433
   3   2.0000     -18.909537      -514.5547
   4   2.0000     -14.085788      -383.2938
   5   2.0000     -10.055361      -273.6203
   6   2.0000     -10.020440      -272.6700
   7   2.0000     -10.004789      -272.2441
   8   2.0000      -9.996081      -272.0072
   9   2.0000      -9.989389      -271.8251
  10   2.0000      -9.988955      -271.8133
  11   2.0000      -9.984102      -271.6812
  12   2.0000      -9.982887      -271.6482
  13   2.0000      -9.979051      -271.5438
  14   2.0000      -9.977718      -271.5075
  15   2.0000      -9.903013      -269.4747
  16   2.0000      -7.950319      -216.3392
  17   2.0000      -5.933998      -161.4723
  18   2.0000      -5.926484      -161.2678
  19   2.0000      -5.926316      -161.2633
  20   2.0000      -1.294776       -35.2327
  21   2.0000      -1.058132       -28.7932
  22   2.0000      -0.971079       -26.4244
  23   2.0000      -0.856639       -23.3103
  24   2.0000      -0.792474       -21.5643
  25   2.0000      -0.761246       -20.7146
  26   2.0000      -0.734681       -19.9917
  27   2.0000      -0.704030       -19.1576
  28   2.0000      -0.684504       -18.6263
  29   2.0000      -0.656994       -17.8777
  30   2.0000      -0.644460       -17.5367
  31   2.0000      -0.608219       -16.5505
  32   2.0000      -0.574133       -15.6230
  33   2.0000      -0.561460       -15.2781
  34   2.0000      -0.557099       -15.1594
  35   2.0000      -0.531520       -14.4634
  36   2.0000      -0.523697       -14.2505
  37   2.0000      -0.514369       -13.9967
  38   2.0000      -0.508824       -13.8458
  39   2.0000      -0.465638       -12.6707
  40   2.0000      -0.457753       -12.4561
  41   2.0000      -0.446861       -12.1597
  42   2.0000      -0.440510       -11.9869
  43   2.0000      -0.431474       -11.7410
  44   2.0000      -0.422255       -11.4901
  45   2.0000      -0.418474       -11.3872
  46   2.0000      -0.409609       -11.1460
  47   2.0000      -0.393968       -10.7204
  48   2.0000      -0.391152       -10.6438
  49   2.0000      -0.381535       -10.3821
  50   2.0000      -0.371524       -10.1097
  51   2.0000      -0.367818       -10.0088
  52   2.0000      -0.354663        -9.6509
  53   2.0000      -0.341503        -9.2928
  54   2.0000      -0.335851        -9.1390
  55   2.0000      -0.332536        -9.0488
  56   2.0000      -0.329774        -8.9736
  57   2.0000      -0.319922        -8.7055
  58   2.0000      -0.314028        -8.5451
  59   2.0000      -0.308737        -8.4012
  60   2.0000      -0.302118        -8.2210
  61   2.0000      -0.300045        -8.1646
  62   2.0000      -0.297137        -8.0855
  63   2.0000      -0.291606        -7.9350
  64   2.0000      -0.284917        -7.7530
  65   2.0000      -0.276629        -7.5275
  66   2.0000      -0.272843        -7.4244
  67   2.0000      -0.144691        -3.9373
  68   0.0000      -0.040414        -1.0997
  69   0.0000      -0.012077        -0.3286
  70   0.0000      -0.007476        -0.2034
  71   0.0000      -0.002373        -0.0646
  72   0.0000       0.002576         0.0701

MULLIKEN ATOMIC CHARGES
-----------------------
   0 C :   -0.203623
   1 C :   -0.306069
   2 C :   -0.449127
   3 H :    0.417010
   4 H :    0.241608
   5 S :    1.223929
   6 C :    0.705511
   7 C :   -1.304360
   8 N :   -0.474034
   9 H :    0.397844
  10 H :    0.122769
  11 H :    0.278043
  12 H :    0.290699
  13 F :   -0.248858
  14 O :   -0.699313
  15 C :   -0.398311
  16 C :   -0.142431
  17 C :   -0.436886
  18 H :    0.207409
  19 H :    0.147619
  20 H :    0.153495
  21 H :    0.121606
  22 C :   -0.200791
  23 H :    0.038798
  24 H :    0.215530
  25 C :   -0.414403
  26 H :    0.290052
  27 H :    0.097159
  28 C :   -0.453092
  29 H :    0.155128
  30 H :    0.154127
  31 H :    0.139475
  32 H :    0.134814
  33 H :    0.142345
  34 H :    0.315615
  35 O :   -0.622642
  36 H :    0.126184
  37 H :    0.237172
Sum of atomic charges:    0.0000000

LOEWDIN ATOMIC CHARGES
----------------------
   0 C :   -0.139550
   1 C :   -0.213718
   2 C :   -0.216140
   3 H :    0.101473
   4 H :    0.119915
   5 S :    0.609692
   6 C :   -0.489620
   7 C :    0.029816
   8 N :    0.112610
   9 H :    0.067579
  10 H :    0.095949
  11 H :    0.006559
  12 H :    0.012245
  13 F :   -0.108010
  14 O :   -0.261738
  15 C :   -0.201304
  16 C :   -0.214498
  17 C :   -0.206576
  18 H :    0.102871
  19 H :    0.118028
  20 H :    0.117590
  21 H :    0.110563
  22 C :   -0.202997
  23 H :    0.114905
  24 H :    0.083816
  25 C :   -0.203134
  26 H :    0.106276
  27 H :    0.115191
  28 C :   -0.207635
  29 H :    0.106847
  30 H :    0.106383
  31 H :    0.127534
  32 H :    0.078212
  33 H :    0.111237
  34 H :    0.105779
  35 O :   -0.225266
  36 H :    0.116480
  37 H :    0.112634

  Mayer bond orders larger than 0.100000
B(  0-C ,  6-C ) :   0.8383 B(  0-C , 15-C ) :   1.0223 B(  0-C , 36-H ) :   0.8681
B(  0-C , 37-H ) :   0.7937 B(  1-C ,  2-C ) :   1.1773 B(  1-C ,  5-S ) :   0.1749
B(  1-C , 17-C ) :   1.0939 B(  1-C , 20-H ) :   0.8816 B(  1-C , 21-H ) :   0.9014
B(  2-C ,  3-H ) :   0.7717 B(  2-C ,  4-H ) :   0.8184 B(  2-C ,  5-S ) :   0.8226
B(  2-C , 14-O ) :   0.1270 B(  2-C , 17-C ) :   0.1091 B(  2-C , 32-H ) :   0.1067
B(  2-C , 35-O ) :   0.1217 B(  5-S , 13-F ) :   1.0908 B(  5-S , 14-O ) :   1.4356
B(  5-S , 35-O ) :   1.3616 B(  6-C ,  7-C ) :   1.3119 B(  6-C ,  8-N ) :   0.8692
B(  6-C , 10-H ) :  -0.1151 B(  6-C , 22-C ) :   0.1709 B(  7-C ,  8-N ) :   0.1415
B(  7-C , 11-H ) :   0.9860 B(  7-C , 12-H ) :   0.9382 B(  8-N ,  9-H ) :   0.8288
B(  8-N , 10-H ) :   1.0520 B(  8-N , 14-O ) :   0.1301 B(  8-N , 15-C ) :   0.1322
B( 15-C , 16-C ) :  -0.1157 B( 15-C , 22-C ) :   0.7024 B( 15-C , 23-H ) :   0.8477
B( 15-C , 24-H ) :   1.0410 B( 15-C , 25-C ) :   0.2066 B( 15-C , 28-C ) :   0.1994
B( 16-C , 17-C ) :   0.6410 B( 16-C , 22-C ) :   0.1149 B( 16-C , 25-C ) :   0.2274
B( 16-C , 28-C ) :   0.6352 B( 16-C , 31-H ) :   0.7684 B( 16-C , 32-H ) :   1.2348
B( 17-C , 18-H ) :   0.8358 B( 17-C , 19-H ) :   0.8833 B( 17-C , 28-C ) :   0.4570
B( 17-C , 31-H ) :  -0.1075 B( 22-C , 25-C ) :   1.1031 B( 22-C , 26-H ) :   0.8545
B( 22-C , 27-H ) :   0.8458 B( 25-C , 28-C ) :   1.1184 B( 25-C , 29-H ) :   0.9061
B( 25-C , 30-H ) :   0.8777 B( 28-C , 31-H ) :  -0.1160 B( 28-C , 33-H ) :   0.9174
B( 28-C , 34-H ) :   0.7513 B( 31-H , 32-H ) :   0.1742

Dispersion correction           -0.057312747
FINAL SINGLE POINT ENERGY     -1136.066632890789

DIPOLE MOMENT
-------------
                                X             Y             Z
Electronic contribution:     -7.03584     -18.80868     -13.28007
Nuclear contribution   :      7.78491      18.17172      15.09294
                        -----------------------------------------
Total Dipole Moment    :      0.74907      -0.63696       1.81286
                        -----------------------------------------
Magnitude (a.u.)       :      2.06235
Magnitude (Debye)      :      5.24208

Rotational constants in cm-1:     0.018190     0.012573     0.008405
Rotational constants in MHz :   545.327178   376.916509   251.974803

                             ****ORCA TERMINATED NORMALLY****
TOTAL RUN TIME: 0 days 0 hours 3 minutes 21 seconds 854 msec
