                         Program Version 5.0.0 -  RELEASE  -
|  1> !TPSS D3BJ RIJCOSX def2-TZVPD def2/J TightSCF xyzfile
|  2>
|  3> *xyzfile 0 1 D2.xyz
|  4>
|  5> %MaxCore 64000
|  6>
|  7> %pal nprocs 4
|  8> end
|  9>
| 10> %scf
| 11>   MaxIter 150
| 12> end
| 13>
| 14>
| 15>                          ****END OF INPUT****

CARTESIAN COORDINATES (ANGSTROEM)
---------------------------------
  C      5.558206   -1.992914   -6.215054
  C      4.930199   -7.375319   -2.649623
  C      3.841892   -6.951611   -3.632829
  H      3.458144   -5.954425   -3.407121
  H      2.988484   -7.643606   -3.567078
  S      4.318115   -6.915930   -5.368692
  C      4.181880   -2.589671   -6.298911
  N      3.145873   -1.768431   -6.486753
  C      4.019102   -3.864307   -6.227427
  H      4.768490   -4.591153   -5.990773
  H      3.122405   -4.333392   -6.314620
  H      3.281635   -0.777786   -6.566549
  H      2.212549   -2.134193   -6.562246
  F      5.406154   -5.899480   -5.512972
  O      3.111910   -6.445079   -6.043792
  C      6.419260   -2.542944   -5.077630
  C      5.872267   -5.002756   -2.427819
  C      6.173994   -6.485522   -2.606315
  H      6.734852   -6.613767   -3.534015
  H      6.821463   -6.831018   -1.793617
  H      4.469612   -7.406168   -1.655876
  H      5.230134   -8.398678   -2.885906
  C      5.896512   -2.169314   -3.694552
  H      7.428880   -2.143665   -5.208078
  H      6.505894   -3.627541   -5.175502
  C      6.807804   -2.623428   -2.551019
  H      4.894708   -2.589732   -3.557501
  H      5.778823   -1.081255   -3.635790
  C      7.111544   -4.122463   -2.520363
  H      7.751615   -2.071393   -2.614406
  H      6.345837   -2.326401   -1.604086
  H      5.362882   -4.828697   -1.471335
  H      5.174429   -4.702577   -3.211298
  H      7.778329   -4.329347   -1.677651
  H      7.673189   -4.402845   -3.417586
  O      4.763396   -8.239424   -5.698629
  H      6.036826   -2.198189   -7.176852
  H      5.467610   -0.907371   -6.127968

 Total Charge           Charge          ....    0
 Multiplicity           Mult            ....    1
 Number of Electrons    NEL             ....  136
 Basis Dimension        Dim             ....  808

ORBITAL ENERGIES
----------------

  NO   OCC          E(Eh)            E(eV)
   0   2.0000     -88.578693     -2410.3488
   1   2.0000     -24.501851      -666.7293
   2   2.0000     -18.896372      -514.1964
   3   2.0000     -18.885045      -513.8882
   4   2.0000     -14.094229      -383.5235
   5   2.0000     -10.039589      -273.1911
   6   2.0000     -10.008706      -272.3507
   7   2.0000      -9.994670      -271.9688
   8   2.0000      -9.989560      -271.8297
   9   2.0000      -9.987091      -271.7626
  10   2.0000      -9.983323      -271.6600
  11   2.0000      -9.981300      -271.6050
  12   2.0000      -9.980581      -271.5854
  13   2.0000      -9.979905      -271.5670
  14   2.0000      -9.976375      -271.4710
  15   2.0000      -9.898474      -269.3512
  16   2.0000      -7.928575      -215.7475
  17   2.0000      -5.912037      -160.8747
  18   2.0000      -5.904941      -160.6816
  19   2.0000      -5.904698      -160.6750
  20   2.0000      -1.265644       -34.4399
  21   2.0000      -1.036264       -28.1982
  22   2.0000      -0.948511       -25.8103
  23   2.0000      -0.855126       -23.2692
  24   2.0000      -0.780048       -21.2262
  25   2.0000      -0.756208       -20.5775
  26   2.0000      -0.728965       -19.8361
  27   2.0000      -0.701406       -19.0862
  28   2.0000      -0.666363       -18.1327
  29   2.0000      -0.654735       -17.8162
  30   2.0000      -0.629327       -17.1248
  31   2.0000      -0.607273       -16.5247
  32   2.0000      -0.572267       -15.5722
  33   2.0000      -0.554826       -15.0976
  34   2.0000      -0.533451       -14.5159
  35   2.0000      -0.515272       -14.0213
  36   2.0000      -0.510528       -13.8922
  37   2.0000      -0.494603       -13.4588
  38   2.0000      -0.491173       -13.3655
  39   2.0000      -0.469716       -12.7816
  40   2.0000      -0.450809       -12.2671
  41   2.0000      -0.444539       -12.0965
  42   2.0000      -0.440684       -11.9916
  43   2.0000      -0.423866       -11.5340
  44   2.0000      -0.413841       -11.2612
  45   2.0000      -0.409981       -11.1562
  46   2.0000      -0.403402       -10.9771
  47   2.0000      -0.393540       -10.7088
  48   2.0000      -0.377134       -10.2623
  49   2.0000      -0.372622       -10.1396
  50   2.0000      -0.364622        -9.9219
  51   2.0000      -0.361829        -9.8459
  52   2.0000      -0.337603        -9.1866
  53   2.0000      -0.334005        -9.0887
  54   2.0000      -0.328857        -8.9487
  55   2.0000      -0.323748        -8.8096
  56   2.0000      -0.313772        -8.5382
  57   2.0000      -0.311449        -8.4750
  58   2.0000      -0.302947        -8.2436
  59   2.0000      -0.298638        -8.1264
  60   2.0000      -0.294427        -8.0118
  61   2.0000      -0.289013        -7.8644
  62   2.0000      -0.282145        -7.6776
  63   2.0000      -0.281075        -7.6484
  64   2.0000      -0.278604        -7.5812
  65   2.0000      -0.271834        -7.3970
  66   2.0000      -0.263136        -7.1603
  67   2.0000      -0.154239        -4.1971
  68   0.0000      -0.022723        -0.6183
  69   0.0000      -0.004045        -0.1101
  70   0.0000      -0.003373        -0.0918
  71   0.0000      -0.000720        -0.0196
  72   0.0000       0.009314         0.2534

MULLIKEN ATOMIC CHARGES
-----------------------
   0 C :   -0.422005
   1 C :   -0.314538
   2 C :   -0.463485
   3 H :    0.414774
   4 H :    0.246045
   5 S :    1.191651
   6 C :    1.277332
   7 N :   -0.559275
   8 C :   -1.926057
   9 H :    0.691036
  10 H :    0.458904
  11 H :    0.134251
  12 H :    0.121155
  13 F :   -0.168438
  14 O :   -0.675212
  15 C :   -0.345025
  16 C :   -0.060453
  17 C :   -0.463589
  18 H :    0.220398
  19 H :    0.141634
  20 H :    0.150323
  21 H :    0.120203
  22 C :   -0.262369
  23 H :    0.057786
  24 H :    0.247355
  25 C :   -0.459804
  26 H :    0.312161
  27 H :    0.105129
  28 C :   -0.433292
  29 H :    0.149165
  30 H :    0.142422
  31 H :    0.127736
  32 H :    0.098686
  33 H :    0.141755
  34 H :    0.319103
  35 O :   -0.643864
  36 H :    0.115190
  37 H :    0.213212
Sum of atomic charges:    0.0000000

LOEWDIN ATOMIC CHARGES
----------------------
   0 C :   -0.138551
   1 C :   -0.215705
   2 C :   -0.217370
   3 H :    0.100531
   4 H :    0.117661
   5 S :    0.602773
   6 C :   -0.459490
   7 N :    0.112087
   8 C :    0.005269
   9 H :    0.006725
  10 H :    0.021877
  11 H :    0.090654
  12 H :    0.104917
  13 F :   -0.120343
  14 O :   -0.267701
  15 C :   -0.196950
  16 C :   -0.213575
  17 C :   -0.207003
  18 H :    0.103251
  19 H :    0.116499
  20 H :    0.115451
  21 H :    0.109500
  22 C :   -0.204607
  23 H :    0.114806
  24 H :    0.089967
  25 C :   -0.203718
  26 H :    0.105761
  27 H :    0.111445
  28 C :   -0.207367
  29 H :    0.105871
  30 H :    0.105654
  31 H :    0.126313
  32 H :    0.080300
  33 H :    0.110554
  34 H :    0.106365
  35 O :   -0.235393
  36 H :    0.118649
  37 H :    0.104890

  Mayer bond orders larger than 0.100000
B(  0-C ,  6-C ) :   0.6195 B(  0-C ,  7-N ) :   0.1326 B(  0-C ,  8-C ) :  -0.2091
B(  0-C , 15-C ) :   0.9866 B(  0-C , 22-C ) :   0.1541 B(  0-C , 36-H ) :   0.8146
B(  0-C , 37-H ) :   0.9607 B(  1-C ,  2-C ) :   1.1771 B(  1-C ,  5-S ) :   0.1807
B(  1-C , 17-C ) :   1.0908 B(  1-C , 20-H ) :   0.8807 B(  1-C , 21-H ) :   0.9004
B(  2-C ,  3-H ) :   0.7824 B(  2-C ,  4-H ) :   0.8153 B(  2-C ,  5-S ) :   0.8238
B(  2-C , 14-O ) :   0.1333 B(  2-C , 17-C ) :   0.1177 B(  2-C , 32-H ) :   0.1229
B(  2-C , 35-O ) :   0.1389 B(  5-S ,  8-C ) :   0.1611 B(  5-S , 13-F ) :   1.1186
B(  5-S , 14-O ) :   1.4271 B(  5-S , 35-O ) :   1.3100 B(  6-C ,  7-N ) :   0.6478
B(  6-C ,  8-C ) :   0.7799 B(  6-C ,  9-H ) :   0.2165 B(  6-C , 10-H ) :  -0.1797
B(  6-C , 22-C ) :   0.1421 B(  6-C , 37-H ) :  -0.1838 B(  7-N , 11-H ) :   1.1015
B(  7-N , 12-H ) :   1.1062 B(  8-C ,  9-H ) :   0.5290 B(  8-C , 10-H ) :   0.8358
B(  8-C , 13-F ) :   0.1807 B(  9-H , 13-F ) :  -0.3424 B( 15-C , 16-C ) :  -0.1292
B( 15-C , 22-C ) :   0.6435 B( 15-C , 23-H ) :   0.8266 B( 15-C , 24-H ) :   1.0868
B( 15-C , 25-C ) :   0.1781 B( 15-C , 28-C ) :   0.2092 B( 16-C , 17-C ) :   0.6537
B( 16-C , 22-C ) :   0.1331 B( 16-C , 25-C ) :   0.2387 B( 16-C , 28-C ) :   0.6170
B( 16-C , 31-H ) :   0.7810 B( 16-C , 32-H ) :   1.2721 B( 17-C , 18-H ) :   0.8077
B( 17-C , 19-H ) :   0.8955 B( 17-C , 28-C ) :   0.4695 B( 17-C , 31-H ) :  -0.1158
B( 22-C , 25-C ) :   1.1063 B( 22-C , 26-H ) :   0.8784 B( 22-C , 27-H ) :   0.8237
B( 25-C , 28-C ) :   1.1253 B( 25-C , 29-H ) :   0.9008 B( 25-C , 30-H ) :   0.8893
B( 28-C , 31-H ) :  -0.1123 B( 28-C , 33-H ) :   0.9230 B( 28-C , 34-H ) :   0.7514
B( 31-H , 32-H ) :   0.1654

Dispersion correction           -0.057685356
FINAL SINGLE POINT ENERGY     -1136.060606954356

DIPOLE MOMENT
-------------
                                X             Y             Z
Electronic contribution:     -7.76610     -16.96345     -13.70024
Nuclear contribution   :      7.91684      17.85507      15.13212
                        -----------------------------------------
Total Dipole Moment    :      0.15074       0.89163       1.43188
                        -----------------------------------------
Magnitude (a.u.)       :      1.69351
Magnitude (Debye)      :      4.30457

Rotational constants in cm-1:     0.018015     0.012410     0.008313
Rotational constants in MHz :   540.084467   372.038374   249.228144

                             ****ORCA TERMINATED NORMALLY****
TOTAL RUN TIME: 0 days 0 hours 4 minutes 37 seconds 855 msec
