                         Program Version 5.0.0 -  RELEASE  -
|  1> !TPSS D3BJ RIJCOSX def2-TZVPD def2/J TightSCF xyzfile
|  2>
|  3> *xyzfile 0 1 D3.xyz
|  4>
|  5> %MaxCore 64000
|  6>
|  7> %pal nprocs 4
|  8> end
|  9>
| 10> %scf
| 11>   MaxIter 150
| 12> end
| 13>
| 14>
| 15>                          ****END OF INPUT****

CARTESIAN COORDINATES (ANGSTROEM)
---------------------------------
  C      5.558206   -1.992914   -6.215054
  C      4.930199   -7.375319   -2.649623
  C      3.841892   -6.951611   -3.632829
  H      3.458144   -5.954425   -3.407121
  H      2.988484   -7.643606   -3.567078
  S      4.318115   -6.915930   -5.368692
  C      4.181880   -2.589671   -6.298911
  C      3.145873   -1.768431   -6.486753
  N      4.019102   -3.864307   -6.227427
  H      4.768490   -4.591153   -5.990773
  H      3.122405   -4.333392   -6.314620
  H      3.281635   -0.777786   -6.566549
  H      2.212549   -2.134193   -6.562246
  O      5.406154   -5.899480   -5.512972
  F      3.111910   -6.445079   -6.043792
  C      6.419260   -2.542944   -5.077630
  C      5.872267   -5.002756   -2.427819
  C      6.173994   -6.485522   -2.606315
  H      6.734852   -6.613767   -3.534015
  H      6.821463   -6.831018   -1.793617
  H      4.469612   -7.406168   -1.655876
  H      5.230134   -8.398678   -2.885906
  C      5.896512   -2.169314   -3.694552
  H      7.428880   -2.143665   -5.208078
  H      6.505894   -3.627541   -5.175502
  C      6.807804   -2.623428   -2.551019
  H      4.894708   -2.589732   -3.557501
  H      5.778823   -1.081255   -3.635790
  C      7.111544   -4.122463   -2.520363
  H      7.751615   -2.071393   -2.614406
  H      6.345837   -2.326401   -1.604086
  H      5.362882   -4.828697   -1.471335
  H      5.174429   -4.702577   -3.211298
  H      7.778329   -4.329347   -1.677651
  H      7.673189   -4.402845   -3.417586
  O      4.763396   -8.239424   -5.698629
  H      6.036826   -2.198189   -7.176852
  H      5.467610   -0.907371   -6.127968

 Total Charge           Charge          ....    0
 Multiplicity           Mult            ....    1
 Number of Electrons    NEL             ....  136
 Basis Dimension        Dim             ....  808

ORBITAL ENERGIES
----------------

  NO   OCC          E(Eh)            E(eV)
   0   2.0000     -88.609768     -2411.1944
   1   2.0000     -24.541415      -667.8059
   2   2.0000     -18.921725      -514.8863
   3   2.0000     -18.914850      -514.6992
   4   2.0000     -14.074258      -382.9800
   5   2.0000     -10.060057      -273.7481
   6   2.0000     -10.023036      -272.7407
   7   2.0000      -9.993938      -271.9489
   8   2.0000      -9.984668      -271.6966
   9   2.0000      -9.982906      -271.6487
  10   2.0000      -9.978988      -271.5421
  11   2.0000      -9.975334      -271.4426
  12   2.0000      -9.970107      -271.3004
  13   2.0000      -9.969778      -271.2915
  14   2.0000      -9.969629      -271.2874
  15   2.0000      -9.897451      -269.3233
  16   2.0000      -7.959609      -216.5920
  17   2.0000      -5.942873      -161.7138
  18   2.0000      -5.936368      -161.5368
  19   2.0000      -5.935498      -161.5131
  20   2.0000      -1.310987       -35.6738
  21   2.0000      -1.059574       -28.8325
  22   2.0000      -0.970460       -26.4076
  23   2.0000      -0.848529       -23.0897
  24   2.0000      -0.790846       -21.5200
  25   2.0000      -0.753898       -20.5146
  26   2.0000      -0.729667       -19.8553
  27   2.0000      -0.702385       -19.1129
  28   2.0000      -0.680494       -18.5172
  29   2.0000      -0.653866       -17.7926
  30   2.0000      -0.635469       -17.2920
  31   2.0000      -0.602542       -16.3960
  32   2.0000      -0.569846       -15.5063
  33   2.0000      -0.553799       -15.0696
  34   2.0000      -0.548946       -14.9376
  35   2.0000      -0.536574       -14.6009
  36   2.0000      -0.528009       -14.3679
  37   2.0000      -0.512032       -13.9331
  38   2.0000      -0.505600       -13.7581
  39   2.0000      -0.472759       -12.8644
  40   2.0000      -0.461816       -12.5666
  41   2.0000      -0.451727       -12.2921
  42   2.0000      -0.435713       -11.8563
  43   2.0000      -0.422322       -11.4920
  44   2.0000      -0.416806       -11.3419
  45   2.0000      -0.413060       -11.2399
  46   2.0000      -0.404146       -10.9974
  47   2.0000      -0.391301       -10.6478
  48   2.0000      -0.382188       -10.3999
  49   2.0000      -0.375962       -10.2304
  50   2.0000      -0.369696       -10.0599
  51   2.0000      -0.364841        -9.9278
  52   2.0000      -0.353132        -9.6092
  53   2.0000      -0.341599        -9.2954
  54   2.0000      -0.334163        -9.0930
  55   2.0000      -0.325849        -8.8668
  56   2.0000      -0.322233        -8.7684
  57   2.0000      -0.316147        -8.6028
  58   2.0000      -0.312232        -8.4963
  59   2.0000      -0.302027        -8.2186
  60   2.0000      -0.297223        -8.0878
  61   2.0000      -0.292035        -7.9467
  62   2.0000      -0.289224        -7.8702
  63   2.0000      -0.279179        -7.5968
  64   2.0000      -0.274957        -7.4819
  65   2.0000      -0.266329        -7.2472
  66   2.0000      -0.263864        -7.1801
  67   2.0000      -0.138716        -3.7747
  68   0.0000      -0.037080        -1.0090
  69   0.0000      -0.022381        -0.6090
  70   0.0000      -0.003966        -0.1079
  71   0.0000       0.002708         0.0737
  72   0.0000       0.007294         0.1985

MULLIKEN ATOMIC CHARGES
-----------------------
   0 C :   -0.166524
   1 C :   -0.361464
   2 C :   -0.462363
   3 H :    0.446750
   4 H :    0.229160
   5 S :    1.176339
   6 C :    0.673569
   7 C :   -1.328693
   8 N :   -0.442728
   9 H :    0.475747
  10 H :    0.073505
  11 H :    0.282278
  12 H :    0.285798
  13 O :   -0.735440
  14 F :   -0.189183
  15 C :   -0.407751
  16 C :   -0.175835
  17 C :   -0.404264
  18 H :    0.252621
  19 H :    0.155703
  20 H :    0.137936
  21 H :    0.125126
  22 C :   -0.222360
  23 H :    0.019198
  24 H :    0.240595
  25 C :   -0.409168
  26 H :    0.291770
  27 H :    0.096735
  28 C :   -0.485849
  29 H :    0.154470
  30 H :    0.154033
  31 H :    0.133678
  32 H :    0.169449
  33 H :    0.147599
  34 H :    0.326061
  35 O :   -0.619049
  36 H :    0.131555
  37 H :    0.230999
Sum of atomic charges:    0.0000000

LOEWDIN ATOMIC CHARGES
----------------------
   0 C :   -0.137670
   1 C :   -0.202725
   2 C :   -0.221501
   3 H :    0.100656
   4 H :    0.109342
   5 S :    0.633115
   6 C :   -0.492292
   7 C :    0.021891
   8 N :    0.102502
   9 H :    0.038561
  10 H :    0.094613
  11 H :    0.004170
  12 H :    0.007604
  13 O :   -0.285479
  14 F :   -0.053974
  15 C :   -0.197899
  16 C :   -0.214385
  17 C :   -0.204900
  18 H :    0.104525
  19 H :    0.116895
  20 H :    0.119889
  21 H :    0.111944
  22 C :   -0.203643
  23 H :    0.113993
  24 H :    0.087253
  25 C :   -0.204086
  26 H :    0.105529
  27 H :    0.113429
  28 C :   -0.205668
  29 H :    0.105951
  30 H :    0.104902
  31 H :    0.124677
  32 H :    0.078948
  33 H :    0.109869
  34 H :    0.108327
  35 O :   -0.222435
  36 H :    0.116663
  37 H :    0.111406

  Mayer bond orders larger than 0.100000
B(  0-C ,  6-C ) :   0.8336 B(  0-C , 15-C ) :   0.9947 B(  0-C , 24-H ) :   0.1032
B(  0-C , 36-H ) :   0.8483 B(  0-C , 37-H ) :   0.8058 B(  1-C ,  2-C ) :   1.2356
B(  1-C ,  5-S ) :   0.1865 B(  1-C , 17-C ) :   1.1026 B(  1-C , 20-H ) :   0.8761
B(  1-C , 21-H ) :   0.8767 B(  2-C ,  3-H ) :   0.7262 B(  2-C ,  4-H ) :   0.8174
B(  2-C ,  5-S ) :   0.8095 B(  2-C , 13-O ) :   0.1150 B(  2-C , 14-F ) :   0.1086
B(  2-C , 16-C ) :   0.1105 B(  2-C , 35-O ) :   0.1378 B(  5-S , 13-O ) :   1.6667
B(  5-S , 14-F ) :   0.9200 B(  5-S , 35-O ) :   1.4186 B(  6-C ,  7-C ) :   1.2814
B(  6-C ,  8-N ) :   0.9713 B(  6-C , 22-C ) :   0.1649 B(  7-C ,  8-N ) :   0.1433
B(  7-C , 11-H ) :   0.9809 B(  7-C , 12-H ) :   0.9550 B(  8-N ,  9-H ) :   0.7162
B(  8-N , 10-H ) :   1.0438 B(  8-N , 15-C ) :   0.1573 B(  9-H , 13-O ) :  -0.1084
B( 13-O , 17-C ) :   0.1004 B( 15-C , 16-C ) :  -0.1231 B( 15-C , 22-C ) :   0.6990
B( 15-C , 23-H ) :   0.8534 B( 15-C , 24-H ) :   1.0033 B( 15-C , 25-C ) :   0.1943
B( 15-C , 28-C ) :   0.2128 B( 16-C , 17-C ) :   0.7041 B( 16-C , 22-C ) :   0.1398
B( 16-C , 25-C ) :   0.2129 B( 16-C , 28-C ) :   0.6305 B( 16-C , 31-H ) :   0.7716
B( 16-C , 32-H ) :   1.2511 B( 17-C , 18-H ) :   0.7888 B( 17-C , 19-H ) :   0.8980
B( 17-C , 28-C ) :   0.4769 B( 17-C , 31-H ) :  -0.1164 B( 22-C , 25-C ) :   1.0971
B( 22-C , 26-H ) :   0.8499 B( 22-C , 27-H ) :   0.8507 B( 25-C , 28-C ) :   1.1031
B( 25-C , 29-H ) :   0.9033 B( 25-C , 30-H ) :   0.8765 B( 28-C , 31-H ) :  -0.1116
B( 28-C , 33-H ) :   0.9129 B( 28-C , 34-H ) :   0.7476 B( 31-H , 32-H ) :   0.1605

Dispersion correction           -0.057732533
FINAL SINGLE POINT ENERGY     -1136.065399708292

DIPOLE MOMENT
-------------
                                X             Y             Z
Electronic contribution:    -10.92281     -20.04537     -14.26641
Nuclear contribution   :     10.48431      18.81367      15.71750
                        -----------------------------------------
Total Dipole Moment    :     -0.43850      -1.23170       1.45108
                        -----------------------------------------
Magnitude (a.u.)       :      1.95321
Magnitude (Debye)      :      4.96466

Rotational constants in cm-1:     0.017977     0.012528     0.008321
Rotational constants in MHz :   538.924099   375.570730   249.458530

                             ****ORCA TERMINATED NORMALLY****
TOTAL RUN TIME: 0 days 0 hours 3 minutes 23 seconds 456 msec
