                         Program Version 5.0.0 -  RELEASE  -
|  1> !TPSS D3BJ RIJCOSX def2-TZVPD def2/J TightSCF xyzfile
|  2>
|  3> *xyzfile 0 1 D4.xyz
|  4>
|  5> %MaxCore 64000
|  6>
|  7> %pal nprocs 4
|  8> end
|  9>
| 10> %scf
| 11>   MaxIter 150
| 12> end
| 13>
| 14>
| 15>                          ****END OF INPUT****

CARTESIAN COORDINATES (ANGSTROEM)
---------------------------------
  C      5.558206   -1.992914   -6.215054
  C      4.930199   -7.375319   -2.649623
  C      3.841892   -6.951611   -3.632829
  H      3.458144   -5.954425   -3.407121
  H      2.988484   -7.643606   -3.567078
  S      4.318115   -6.915930   -5.368692
  C      4.181880   -2.589671   -6.298911
  N      3.145873   -1.768431   -6.486753
  C      4.019102   -3.864307   -6.227427
  H      4.768490   -4.591153   -5.990773
  H      3.122405   -4.333392   -6.314620
  H      3.281635   -0.777786   -6.566549
  H      2.212549   -2.134193   -6.562246
  O      5.406154   -5.899480   -5.512972
  F      3.111910   -6.445079   -6.043792
  C      6.419260   -2.542944   -5.077630
  C      5.872267   -5.002756   -2.427819
  C      6.173994   -6.485522   -2.606315
  H      6.734852   -6.613767   -3.534015
  H      6.821463   -6.831018   -1.793617
  H      4.469612   -7.406168   -1.655876
  H      5.230134   -8.398678   -2.885906
  C      5.896512   -2.169314   -3.694552
  H      7.428880   -2.143665   -5.208078
  H      6.505894   -3.627541   -5.175502
  C      6.807804   -2.623428   -2.551019
  H      4.894708   -2.589732   -3.557501
  H      5.778823   -1.081255   -3.635790
  C      7.111544   -4.122463   -2.520363
  H      7.751615   -2.071393   -2.614406
  H      6.345837   -2.326401   -1.604086
  H      5.362882   -4.828697   -1.471335
  H      5.174429   -4.702577   -3.211298
  H      7.778329   -4.329347   -1.677651
  H      7.673189   -4.402845   -3.417586
  O      4.763396   -8.239424   -5.698629
  H      6.036826   -2.198189   -7.176852
  H      5.467610   -0.907371   -6.127968

 Total Charge           Charge          ....    0
 Multiplicity           Mult            ....    1
 Number of Electrons    NEL             ....  136
 Basis Dimension        Dim             ....  808

ORBITAL ENERGIES
----------------

  NO   OCC          E(Eh)            E(eV)
   0   2.0000     -88.586389     -2410.5582
   1   2.0000     -24.516111      -667.1173
   2   2.0000     -18.900218      -514.3011
   3   2.0000     -18.884906      -513.8844
   4   2.0000     -14.089964      -383.4074
   5   2.0000     -10.043607      -273.3004
   6   2.0000     -10.010667      -272.4041
   7   2.0000      -9.983915      -271.6762
   8   2.0000      -9.983361      -271.6611
   9   2.0000      -9.975609      -271.4501
  10   2.0000      -9.973726      -271.3989
  11   2.0000      -9.972975      -271.3784
  12   2.0000      -9.972042      -271.3531
  13   2.0000      -9.967984      -271.2426
  14   2.0000      -9.967586      -271.2318
  15   2.0000      -9.888737      -269.0862
  16   2.0000      -7.936051      -215.9509
  17   2.0000      -5.919121      -161.0675
  18   2.0000      -5.912756      -160.8943
  19   2.0000      -5.912242      -160.8803
  20   2.0000      -1.285752       -34.9871
  21   2.0000      -1.036080       -28.1932
  22   2.0000      -0.943983       -25.6871
  23   2.0000      -0.850630       -23.1468
  24   2.0000      -0.776579       -21.1318
  25   2.0000      -0.748724       -20.3738
  26   2.0000      -0.722780       -19.6678
  27   2.0000      -0.698623       -19.0105
  28   2.0000      -0.666568       -18.1382
  29   2.0000      -0.649491       -17.6735
  30   2.0000      -0.625455       -17.0195
  31   2.0000      -0.599651       -16.3173
  32   2.0000      -0.566893       -15.4259
  33   2.0000      -0.548303       -14.9201
  34   2.0000      -0.524545       -14.2736
  35   2.0000      -0.516405       -14.0521
  36   2.0000      -0.509757       -13.8712
  37   2.0000      -0.504616       -13.7313
  38   2.0000      -0.491174       -13.3655
  39   2.0000      -0.469452       -12.7744
  40   2.0000      -0.450562       -12.2604
  41   2.0000      -0.446181       -12.1412
  42   2.0000      -0.434390       -11.8204
  43   2.0000      -0.420952       -11.4547
  44   2.0000      -0.411752       -11.2044
  45   2.0000      -0.404017       -10.9939
  46   2.0000      -0.400298       -10.8927
  47   2.0000      -0.385338       -10.4856
  48   2.0000      -0.374130       -10.1806
  49   2.0000      -0.368543       -10.0286
  50   2.0000      -0.363066        -9.8795
  51   2.0000      -0.354136        -9.6365
  52   2.0000      -0.346069        -9.4170
  53   2.0000      -0.328125        -8.9287
  54   2.0000      -0.324893        -8.8408
  55   2.0000      -0.319624        -8.6974
  56   2.0000      -0.313389        -8.5278
  57   2.0000      -0.303841        -8.2679
  58   2.0000      -0.299385        -8.1467
  59   2.0000      -0.295616        -8.0441
  60   2.0000      -0.287987        -7.8365
  61   2.0000      -0.285265        -7.7625
  62   2.0000      -0.281396        -7.6572
  63   2.0000      -0.272133        -7.4051
  64   2.0000      -0.268671        -7.3109
  65   2.0000      -0.263940        -7.1822
  66   2.0000      -0.231282        -6.2935
  67   2.0000      -0.148774        -4.0483
  68   0.0000      -0.019095        -0.5196
  69   0.0000      -0.010205        -0.2777
  70   0.0000      -0.000693        -0.0189
  71   0.0000       0.003680         0.1001
  72   0.0000       0.009023         0.2455

MULLIKEN ATOMIC CHARGES
-----------------------
   0 C :   -0.392550
   1 C :   -0.369044
   2 C :   -0.472410
   3 H :    0.438355
   4 H :    0.239195
   5 S :    1.137516
   6 C :    1.078382
   7 N :   -0.562203
   8 C :   -1.755551
   9 H :    0.804969
  10 H :    0.408884
  11 H :    0.135126
  12 H :    0.112356
  13 O :   -0.673473
  14 F :   -0.158715
  15 C :   -0.327459
  16 C :   -0.100937
  17 C :   -0.423698
  18 H :    0.262944
  19 H :    0.153328
  20 H :    0.132802
  21 H :    0.122666
  22 C :   -0.276566
  23 H :    0.040010
  24 H :    0.238146
  25 C :   -0.456072
  26 H :    0.305229
  27 H :    0.105748
  28 C :   -0.464213
  29 H :    0.148496
  30 H :    0.143170
  31 H :    0.127281
  32 H :    0.125619
  33 H :    0.145904
  34 H :    0.329213
  35 O :   -0.638212
  36 H :    0.120995
  37 H :    0.214769
Sum of atomic charges:   -0.0000000

LOEWDIN ATOMIC CHARGES
----------------------
   0 C :   -0.137027
   1 C :   -0.204787
   2 C :   -0.223207
   3 H :    0.099402
   4 H :    0.106900
   5 S :    0.622243
   6 C :   -0.462377
   7 N :    0.106698
   8 C :   -0.004178
   9 H :   -0.019321
  10 H :    0.019824
  11 H :    0.088847
  12 H :    0.101112
  13 O :   -0.297517
  14 F :   -0.060704
  15 C :   -0.192909
  16 C :   -0.213597
  17 C :   -0.205660
  18 H :    0.104724
  19 H :    0.115257
  20 H :    0.117590
  21 H :    0.110880
  22 C :   -0.205099
  23 H :    0.114167
  24 H :    0.093688
  25 C :   -0.204629
  26 H :    0.105072
  27 H :    0.109739
  28 C :   -0.205430
  29 H :    0.104993
  30 H :    0.104224
  31 H :    0.123419
  32 H :    0.080989
  33 H :    0.109226
  34 H :    0.108891
  35 O :   -0.233936
  36 H :    0.118891
  37 H :    0.103603

  Mayer bond orders larger than 0.100000
B(  0-C ,  6-C ) :   0.6133 B(  0-C ,  7-N ) :   0.1327 B(  0-C ,  8-C ) :  -0.2167
B(  0-C , 15-C ) :   0.9645 B(  0-C , 22-C ) :   0.1584 B(  0-C , 36-H ) :   0.7941
B(  0-C , 37-H ) :   0.9683 B(  1-C ,  2-C ) :   1.2369 B(  1-C ,  5-S ) :   0.1973
B(  1-C , 17-C ) :   1.0979 B(  1-C , 20-H ) :   0.8762 B(  1-C , 21-H ) :   0.8734
B(  2-C ,  3-H ) :   0.7363 B(  2-C ,  4-H ) :   0.8157 B(  2-C ,  5-S ) :   0.7989
B(  2-C , 13-O ) :   0.1226 B(  2-C , 14-F ) :   0.1120 B(  2-C , 16-C ) :   0.1141
B(  2-C , 32-H ) :   0.1017 B(  2-C , 35-O ) :   0.1540 B(  5-S ,  8-C ) :   0.1386
B(  5-S , 13-O ) :   1.7097 B(  5-S , 14-F ) :   0.9167 B(  5-S , 35-O ) :   1.3890
B(  6-C ,  7-N ) :   0.6365 B(  6-C ,  8-C ) :   1.2291 B(  6-C ,  9-H ) :   0.2387
B(  6-C , 10-H ) :  -0.1244 B(  6-C , 22-C ) :   0.1425 B(  6-C , 37-H ) :  -0.1904
B(  7-N , 11-H ) :   1.1016 B(  7-N , 12-H ) :   1.1149 B(  8-C ,  9-H ) :   0.4439
B(  8-C , 10-H ) :   0.8409 B(  8-C , 13-O ) :   0.2047 B(  9-H , 13-O ) :  -0.5100
B( 15-C , 16-C ) :  -0.1318 B( 15-C , 22-C ) :   0.6357 B( 15-C , 23-H ) :   0.8303
B( 15-C , 24-H ) :   1.0707 B( 15-C , 25-C ) :   0.1711 B( 15-C , 28-C ) :   0.2187
B( 16-C , 17-C ) :   0.7280 B( 16-C , 22-C ) :   0.1540 B( 16-C , 25-C ) :   0.2175
B( 16-C , 28-C ) :   0.6115 B( 16-C , 31-H ) :   0.7866 B( 16-C , 32-H ) :   1.2855
B( 17-C , 18-H ) :   0.7696 B( 17-C , 19-H ) :   0.9060 B( 17-C , 28-C ) :   0.4925
B( 17-C , 31-H ) :  -0.1204 B( 22-C , 25-C ) :   1.0988 B( 22-C , 26-H ) :   0.8729
B( 22-C , 27-H ) :   0.8311 B( 23-H , 24-H ) :   0.1033 B( 25-C , 28-C ) :   1.1145
B( 25-C , 29-H ) :   0.8991 B( 25-C , 30-H ) :   0.8873 B( 28-C , 31-H ) :  -0.1086
B( 28-C , 33-H ) :   0.9170 B( 28-C , 34-H ) :   0.7453 B( 31-H , 32-H ) :   0.1466

Dispersion correction           -0.058105660
FINAL SINGLE POINT ENERGY     -1136.053139701176

DIPOLE MOMENT
-------------
                                X             Y             Z
Electronic contribution:    -11.65420     -18.14650     -14.69878
Nuclear contribution   :     10.61624      18.49702      15.75668
                        -----------------------------------------
Total Dipole Moment    :     -1.03795       0.35053       1.05790
                        -----------------------------------------
Magnitude (a.u.)       :      1.52295
Magnitude (Debye)      :      3.87103

Rotational constants in cm-1:     0.017796     0.012372     0.008231
Rotational constants in MHz :   533.524905   370.895973   246.762347

                             ****ORCA TERMINATED NORMALLY****
TOTAL RUN TIME: 0 days 0 hours 3 minutes 30 seconds 179 msec
