                         Program Version 5.0.0 -  RELEASE  -
|  1> !TPSS D3BJ RIJCOSX def2-TZVPD def2/J TightSCF xyzfile
|  2>
|  3> *xyzfile 0 1 D5.xyz
|  4>
|  5> %MaxCore 64000
|  6>
|  7> %pal nprocs 4
|  8> end
|  9>
| 10> %scf
| 11>   MaxIter 150
| 12> end
| 13>
| 14>
| 15>                          ****END OF INPUT****

CARTESIAN COORDINATES (ANGSTROEM)
---------------------------------
  C      5.558206   -1.992914   -6.215054
  C      4.930199   -7.375319   -2.649623
  C      3.841892   -6.951611   -3.632829
  H      3.458144   -5.954425   -3.407121
  H      2.988484   -7.643606   -3.567078
  S      4.318115   -6.915930   -5.368692
  C      4.181880   -2.589671   -6.298911
  C      3.145873   -1.768431   -6.486753
  N      4.019102   -3.864307   -6.227427
  H      4.768490   -4.591153   -5.990773
  H      3.122405   -4.333392   -6.314620
  H      3.281635   -0.777786   -6.566549
  H      2.212549   -2.134193   -6.562246
  O      5.406154   -5.899480   -5.512972
  O      3.111910   -6.445079   -6.043792
  C      6.419260   -2.542944   -5.077630
  C      5.872267   -5.002756   -2.427819
  C      6.173994   -6.485522   -2.606315
  H      6.734852   -6.613767   -3.534015
  H      6.821463   -6.831018   -1.793617
  H      4.469612   -7.406168   -1.655876
  H      5.230134   -8.398678   -2.885906
  C      5.896512   -2.169314   -3.694552
  H      7.428880   -2.143665   -5.208078
  H      6.505894   -3.627541   -5.175502
  C      6.807804   -2.623428   -2.551019
  H      4.894708   -2.589732   -3.557501
  H      5.778823   -1.081255   -3.635790
  C      7.111544   -4.122463   -2.520363
  H      7.751615   -2.071393   -2.614406
  H      6.345837   -2.326401   -1.604086
  H      5.362882   -4.828697   -1.471335
  H      5.174429   -4.702577   -3.211298
  H      7.778329   -4.329347   -1.677651
  H      7.673189   -4.402845   -3.417586
  F      4.763396   -8.239424   -5.698629
  H      6.036826   -2.198189   -7.176852
  H      5.467610   -0.907371   -6.127968

 Total Charge           Charge          ....    0
 Multiplicity           Mult            ....    1
 Number of Electrons    NEL             ....  136
 Basis Dimension        Dim             ....  808

ORBITAL ENERGIES
----------------

  NO   OCC          E(Eh)            E(eV)
   0   2.0000     -88.613758     -2411.3029
   1   2.0000     -24.553597      -668.1373
   2   2.0000     -18.916798      -514.7522
   3   2.0000     -18.916795      -514.7522
   4   2.0000     -14.058545      -382.5524
   5   2.0000     -10.061588      -273.7897
   6   2.0000     -10.024731      -272.7868
   7   2.0000      -9.997326      -272.0411
   8   2.0000      -9.985608      -271.7222
   9   2.0000      -9.979016      -271.5428
  10   2.0000      -9.973766      -271.4000
  11   2.0000      -9.971706      -271.3439
  12   2.0000      -9.966359      -271.1984
  13   2.0000      -9.965906      -271.1861
  14   2.0000      -9.962460      -271.0923
  15   2.0000      -9.886431      -269.0235
  16   2.0000      -7.963394      -216.6950
  17   2.0000      -5.946615      -161.8156
  18   2.0000      -5.940311      -161.6441
  19   2.0000      -5.939158      -161.6127
  20   2.0000      -1.329920       -36.1890
  21   2.0000      -1.054512       -28.6947
  22   2.0000      -0.963223       -26.2106
  23   2.0000      -0.834214       -22.7001
  24   2.0000      -0.794264       -21.6130
  25   2.0000      -0.753061       -20.4918
  26   2.0000      -0.727914       -19.8076
  27   2.0000      -0.700112       -19.0510
  28   2.0000      -0.682171       -18.5628
  29   2.0000      -0.653400       -17.7799
  30   2.0000      -0.632391       -17.2082
  31   2.0000      -0.600460       -16.3394
  32   2.0000      -0.572896       -15.5893
  33   2.0000      -0.557336       -15.1659
  34   2.0000      -0.554515       -15.0891
  35   2.0000      -0.543158       -14.7801
  36   2.0000      -0.523255       -14.2385
  37   2.0000      -0.509121       -13.8539
  38   2.0000      -0.499559       -13.5937
  39   2.0000      -0.465904       -12.6779
  40   2.0000      -0.461953       -12.5704
  41   2.0000      -0.458015       -12.4632
  42   2.0000      -0.435876       -11.8608
  43   2.0000      -0.420249       -11.4356
  44   2.0000      -0.418712       -11.3937
  45   2.0000      -0.409050       -11.1308
  46   2.0000      -0.398188       -10.8353
  47   2.0000      -0.391137       -10.6434
  48   2.0000      -0.380345       -10.3497
  49   2.0000      -0.377888       -10.2828
  50   2.0000      -0.363811        -9.8998
  51   2.0000      -0.358860        -9.7651
  52   2.0000      -0.353578        -9.6213
  53   2.0000      -0.337519        -9.1844
  54   2.0000      -0.326831        -8.8935
  55   2.0000      -0.322240        -8.7686
  56   2.0000      -0.319307        -8.6888
  57   2.0000      -0.311103        -8.4655
  58   2.0000      -0.307614        -8.3706
  59   2.0000      -0.301740        -8.2108
  60   2.0000      -0.293712        -7.9923
  61   2.0000      -0.288543        -7.8517
  62   2.0000      -0.285490        -7.7686
  63   2.0000      -0.277159        -7.5419
  64   2.0000      -0.272886        -7.4256
  65   2.0000      -0.260109        -7.0779
  66   2.0000      -0.256412        -6.9773
  67   2.0000      -0.126483        -3.4418
  68   0.0000      -0.043813        -1.1922
  69   0.0000      -0.017371        -0.4727
  70   0.0000      -0.006323        -0.1720
  71   0.0000      -0.000595        -0.0162
  72   0.0000       0.001693         0.0461

MULLIKEN ATOMIC CHARGES
-----------------------
   0 C :   -0.166023
   1 C :   -0.318293
   2 C :   -0.433366
   3 H :    0.379194
   4 H :    0.238935
   5 S :    1.144744
   6 C :    0.681823
   7 C :   -1.332377
   8 N :   -0.433476
   9 H :    0.406574
  10 H :    0.123305
  11 H :    0.286026
  12 H :    0.294744
  13 O :   -0.723403
  14 O :   -0.699039
  15 C :   -0.418613
  16 C :   -0.154968
  17 C :   -0.368461
  18 H :    0.208671
  19 H :    0.156961
  20 H :    0.138458
  21 H :    0.138314
  22 C :   -0.215510
  23 H :    0.019195
  24 H :    0.252289
  25 C :   -0.408487
  26 H :    0.290506
  27 H :    0.097226
  28 C :   -0.501787
  29 H :    0.154996
  30 H :    0.152697
  31 H :    0.132022
  32 H :    0.153957
  33 H :    0.146700
  34 H :    0.335324
  35 F :   -0.116447
  36 H :    0.129215
  37 H :    0.228374
Sum of atomic charges:   -0.0000000

LOEWDIN ATOMIC CHARGES
----------------------
   0 C :   -0.139645
   1 C :   -0.214582
   2 C :   -0.212854
   3 H :    0.112258
   4 H :    0.110376
   5 S :    0.640742
   6 C :   -0.493422
   7 C :    0.018574
   8 N :    0.112599
   9 H :    0.042100
  10 H :    0.093657
  11 H :    0.001441
  12 H :    0.007546
  13 O :   -0.289506
  14 O :   -0.257784
  15 C :   -0.199227
  16 C :   -0.212816
  17 C :   -0.210522
  18 H :    0.100156
  19 H :    0.116073
  20 H :    0.117732
  21 H :    0.106418
  22 C :   -0.203282
  23 H :    0.112984
  24 H :    0.086254
  25 C :   -0.204344
  26 H :    0.106156
  27 H :    0.113557
  28 C :   -0.206150
  29 H :    0.105769
  30 H :    0.104750
  31 H :    0.125317
  32 H :    0.080714
  33 H :    0.109402
  34 H :    0.107866
  35 F :   -0.014196
  36 H :    0.115486
  37 H :    0.110404

  Mayer bond orders larger than 0.100000
B(  0-C ,  6-C ) :   0.8323 B(  0-C , 15-C ) :   0.9969 B(  0-C , 24-H ) :   0.1013
B(  0-C , 36-H ) :   0.8486 B(  0-C , 37-H ) :   0.8053 B(  1-C ,  2-C ) :   1.1119
B(  1-C ,  5-S ) :   0.1580 B(  1-C , 17-C ) :   1.0729 B(  1-C , 20-H ) :   0.8918
B(  1-C , 21-H ) :   0.8887 B(  2-C ,  3-H ) :   0.8064 B(  2-C ,  4-H ) :   0.8336
B(  2-C ,  5-S ) :   0.8295 B(  2-C , 13-O ) :   0.1101 B(  2-C , 14-O ) :   0.1352
B(  2-C , 16-C ) :   0.1028 B(  2-C , 32-H ) :   0.1144 B(  2-C , 35-F ) :   0.1021
B(  5-S , 13-O ) :   1.7002 B(  5-S , 14-O ) :   1.4984 B(  5-S , 35-F ) :   0.9138
B(  6-C ,  7-C ) :   1.3178 B(  6-C ,  8-N ) :   0.9148 B(  6-C , 10-H ) :  -0.1043
B(  6-C , 22-C ) :   0.1621 B(  7-C ,  8-N ) :   0.1464 B(  7-C , 11-H ) :   0.9849
B(  7-C , 12-H ) :   0.9356 B(  8-N ,  9-H ) :   0.7731 B(  8-N , 10-H ) :   1.0491
B(  8-N , 14-O ) :   0.1016 B(  8-N , 15-C ) :   0.1619 B( 13-O , 14-O ) :   0.1333
B( 15-C , 16-C ) :  -0.1210 B( 15-C , 22-C ) :   0.6961 B( 15-C , 23-H ) :   0.8525
B( 15-C , 24-H ) :   0.9957 B( 15-C , 25-C ) :   0.1973 B( 15-C , 28-C ) :   0.2142
B( 16-C , 17-C ) :   0.7122 B( 16-C , 22-C ) :   0.1334 B( 16-C , 25-C ) :   0.2135
B( 16-C , 28-C ) :   0.6245 B( 16-C , 31-H ) :   0.7674 B( 16-C , 32-H ) :   1.2366
B( 17-C , 18-H ) :   0.7993 B( 17-C , 19-H ) :   0.9025 B( 17-C , 28-C ) :   0.4853
B( 17-C , 31-H ) :  -0.1215 B( 22-C , 25-C ) :   1.0890 B( 22-C , 26-H ) :   0.8518
B( 22-C , 27-H ) :   0.8497 B( 25-C , 28-C ) :   1.1096 B( 25-C , 29-H ) :   0.9049
B( 25-C , 30-H ) :   0.8757 B( 28-C , 31-H ) :  -0.1114 B( 28-C , 33-H ) :   0.9126
B( 28-C , 34-H ) :   0.7418 B( 31-H , 32-H ) :   0.1632

Dispersion correction           -0.057838484
FINAL SINGLE POINT ENERGY     -1136.057078380932

DIPOLE MOMENT
-------------
                                X             Y             Z
Electronic contribution:     -8.09710     -23.31733     -13.67630
Nuclear contribution   :      8.54118      20.92489      15.31138
                        -----------------------------------------
Total Dipole Moment    :      0.44407      -2.39244       1.63508
                        -----------------------------------------
Magnitude (a.u.)       :      2.93163
Magnitude (Debye)      :      7.45161

Rotational constants in cm-1:     0.018156     0.012306     0.008278
Rotational constants in MHz :   544.309022   368.914527   248.178402

                             ****ORCA TERMINATED NORMALLY****
TOTAL RUN TIME: 0 days 0 hours 3 minutes 31 seconds 148 msec
