                         Program Version 5.0.0 -  RELEASE  -
|  1> !TPSS D3BJ RIJCOSX def2-TZVPD def2/J TightSCF xyzfile
|  2>
|  3> *xyzfile 0 1 D6.xyz
|  4>
|  5> %MaxCore 64000
|  6>
|  7> %pal nprocs 4
|  8> end
|  9>
| 10> %scf
| 11>   MaxIter 150
| 12> end
| 13>
| 14>
| 15>                          ****END OF INPUT****

CARTESIAN COORDINATES (ANGSTROEM)
---------------------------------
  C      5.558206   -1.992914   -6.215054
  C      4.930199   -7.375319   -2.649623
  C      3.841892   -6.951611   -3.632829
  H      3.458144   -5.954425   -3.407121
  H      2.988484   -7.643606   -3.567078
  S      4.318115   -6.915930   -5.368692
  C      4.181880   -2.589671   -6.298911
  N      3.145873   -1.768431   -6.486753
  C      4.019102   -3.864307   -6.227427
  H      4.768490   -4.591153   -5.990773
  H      3.122405   -4.333392   -6.314620
  H      3.281635   -0.777786   -6.566549
  H      2.212549   -2.134193   -6.562246
  O      5.406154   -5.899480   -5.512972
  O      3.111910   -6.445079   -6.043792
  C      6.419260   -2.542944   -5.077630
  C      5.872267   -5.002756   -2.427819
  C      6.173994   -6.485522   -2.606315
  H      6.734852   -6.613767   -3.534015
  H      6.821463   -6.831018   -1.793617
  H      4.469612   -7.406168   -1.655876
  H      5.230134   -8.398678   -2.885906
  C      5.896512   -2.169314   -3.694552
  H      7.428880   -2.143665   -5.208078
  H      6.505894   -3.627541   -5.175502
  C      6.807804   -2.623428   -2.551019
  H      4.894708   -2.589732   -3.557501
  H      5.778823   -1.081255   -3.635790
  C      7.111544   -4.122463   -2.520363
  H      7.751615   -2.071393   -2.614406
  H      6.345837   -2.326401   -1.604086
  H      5.362882   -4.828697   -1.471335
  H      5.174429   -4.702577   -3.211298
  H      7.778329   -4.329347   -1.677651
  H      7.673189   -4.402845   -3.417586
  F      4.763396   -8.239424   -5.698629
  H      6.036826   -2.198189   -7.176852
  H      5.467610   -0.907371   -6.127968

 Total Charge           Charge          ....    0
 Multiplicity           Mult            ....    1
 Number of Electrons    NEL             ....  136
 Basis Dimension        Dim             ....  808

ORBITAL ENERGIES
----------------

  NO   OCC          E(Eh)            E(eV)
   0   2.0000     -88.588589     -2410.6181
   1   2.0000     -24.531457      -667.5349
   2   2.0000     -18.892467      -514.0902
   3   2.0000     -18.888686      -513.9873
   4   2.0000     -14.078996      -383.1090
   5   2.0000     -10.044248      -273.3179
   6   2.0000     -10.012037      -272.4414
   7   2.0000      -9.986462      -271.7455
   8   2.0000      -9.976340      -271.4700
   9   2.0000      -9.972798      -271.3736
  10   2.0000      -9.970855      -271.3208
  11   2.0000      -9.970259      -271.3045
  12   2.0000      -9.966249      -271.1954
  13   2.0000      -9.963891      -271.1312
  14   2.0000      -9.963353      -271.1166
  15   2.0000      -9.874918      -268.7102
  16   2.0000      -7.938209      -216.0096
  17   2.0000      -5.921535      -161.1332
  18   2.0000      -5.914788      -160.9496
  19   2.0000      -5.914223      -160.9342
  20   2.0000      -1.308142       -35.5964
  21   2.0000      -1.028577       -27.9890
  22   2.0000      -0.936788       -25.4913
  23   2.0000      -0.839538       -22.8450
  24   2.0000      -0.779481       -21.2108
  25   2.0000      -0.746911       -20.3245
  26   2.0000      -0.719977       -19.5916
  27   2.0000      -0.696486       -18.9524
  28   2.0000      -0.667518       -18.1641
  29   2.0000      -0.648680       -17.6515
  30   2.0000      -0.624870       -17.0036
  31   2.0000      -0.596748       -16.2383
  32   2.0000      -0.564943       -15.3729
  33   2.0000      -0.550983       -14.9930
  34   2.0000      -0.535206       -14.5637
  35   2.0000      -0.529944       -14.4205
  36   2.0000      -0.509800       -13.8724
  37   2.0000      -0.499415       -13.5898
  38   2.0000      -0.483768       -13.1640
  39   2.0000      -0.460490       -12.5306
  40   2.0000      -0.451131       -12.2759
  41   2.0000      -0.444373       -12.0920
  42   2.0000      -0.429180       -11.6786
  43   2.0000      -0.419266       -11.4088
  44   2.0000      -0.413632       -11.2555
  45   2.0000      -0.404751       -11.0138
  46   2.0000      -0.399887       -10.8815
  47   2.0000      -0.380261       -10.3474
  48   2.0000      -0.375327       -10.2132
  49   2.0000      -0.370659       -10.0861
  50   2.0000      -0.367804       -10.0085
  51   2.0000      -0.352516        -9.5924
  52   2.0000      -0.335333        -9.1249
  53   2.0000      -0.328416        -8.9367
  54   2.0000      -0.318048        -8.6545
  55   2.0000      -0.309510        -8.4222
  56   2.0000      -0.306158        -8.3310
  57   2.0000      -0.302603        -8.2343
  58   2.0000      -0.293225        -7.9791
  59   2.0000      -0.286318        -7.7911
  60   2.0000      -0.282367        -7.6836
  61   2.0000      -0.280239        -7.6257
  62   2.0000      -0.277610        -7.5542
  63   2.0000      -0.270173        -7.3518
  64   2.0000      -0.266116        -7.2414
  65   2.0000      -0.257986        -7.0201
  66   2.0000      -0.231076        -6.2879
  67   2.0000      -0.136144        -3.7047
  68   0.0000      -0.026869        -0.7311
  69   0.0000      -0.003972        -0.1081
  70   0.0000       0.001445         0.0393
  71   0.0000       0.005196         0.1414
  72   0.0000       0.010745         0.2924

MULLIKEN ATOMIC CHARGES
-----------------------
   0 C :   -0.392258
   1 C :   -0.325974
   2 C :   -0.446365
   3 H :    0.378230
   4 H :    0.244866
   5 S :    1.095914
   6 C :    1.250548
   7 N :   -0.569460
   8 C :   -1.812255
   9 H :    0.711822
  10 H :    0.410849
  11 H :    0.130125
  12 H :    0.115725
  13 O :   -0.665940
  14 O :   -0.673604
  15 C :   -0.331405
  16 C :   -0.068208
  17 C :   -0.390549
  18 H :    0.218536
  19 H :    0.154932
  20 H :    0.135334
  21 H :    0.132758
  22 C :   -0.272776
  23 H :    0.040558
  24 H :    0.243981
  25 C :   -0.455848
  26 H :    0.306670
  27 H :    0.107279
  28 C :   -0.479161
  29 H :    0.149503
  30 H :    0.141071
  31 H :    0.124056
  32 H :    0.096467
  33 H :    0.145597
  34 H :    0.338148
  35 F :   -0.118847
  36 H :    0.115742
  37 H :    0.213937
Sum of atomic charges:    0.0000000

LOEWDIN ATOMIC CHARGES
----------------------
   0 C :   -0.139688
   1 C :   -0.216627
   2 C :   -0.215720
   3 H :    0.110554
   4 H :    0.107633
   5 S :    0.627288
   6 C :   -0.463295
   7 N :    0.103398
   8 C :    0.005197
   9 H :   -0.014476
  10 H :    0.021305
  11 H :    0.086376
  12 H :    0.101072
  13 O :   -0.299145
  14 O :   -0.264397
  15 C :   -0.194678
  16 C :   -0.212106
  17 C :   -0.211465
  18 H :    0.100147
  19 H :    0.114383
  20 H :    0.115407
  21 H :    0.105294
  22 C :   -0.204857
  23 H :    0.113018
  24 H :    0.092426
  25 C :   -0.204974
  26 H :    0.105581
  27 H :    0.109834
  28 C :   -0.205960
  29 H :    0.104772
  30 H :    0.104022
  31 H :    0.124042
  32 H :    0.082564
  33 H :    0.108734
  34 H :    0.108401
  35 F :   -0.023768
  36 H :    0.117250
  37 H :    0.102457

  Mayer bond orders larger than 0.100000
B(  0-C ,  6-C ) :   0.6020 B(  0-C ,  7-N ) :   0.1273 B(  0-C ,  8-C ) :  -0.2005
B(  0-C , 15-C ) :   0.9660 B(  0-C , 22-C ) :   0.1574 B(  0-C , 36-H ) :   0.7932
B(  0-C , 37-H ) :   0.9685 B(  1-C ,  2-C ) :   1.1164 B(  1-C ,  5-S ) :   0.1662
B(  1-C , 17-C ) :   1.0679 B(  1-C , 20-H ) :   0.8901 B(  1-C , 21-H ) :   0.8878
B(  2-C ,  3-H ) :   0.8125 B(  2-C ,  4-H ) :   0.8308 B(  2-C ,  5-S ) :   0.8206
B(  2-C , 13-O ) :   0.1139 B(  2-C , 14-O ) :   0.1399 B(  2-C , 16-C ) :   0.1091
B(  2-C , 32-H ) :   0.1249 B(  2-C , 35-F ) :   0.1117 B(  5-S ,  8-C ) :   0.1128
B(  5-S , 13-O ) :   1.7482 B(  5-S , 14-O ) :   1.4846 B(  5-S , 35-F ) :   0.8980
B(  6-C ,  7-N ) :   0.6337 B(  6-C ,  8-C ) :   0.8102 B(  6-C ,  9-H ) :   0.2304
B(  6-C , 10-H ) :  -0.1984 B(  6-C , 22-C ) :   0.1502 B(  6-C , 37-H ) :  -0.1918
B(  7-N , 11-H ) :   1.1092 B(  7-N , 12-H ) :   1.1132 B(  8-C ,  9-H ) :   0.6603
B(  8-C , 10-H ) :   0.9146 B(  8-C , 13-O ) :   0.1792 B(  9-H , 13-O ) :  -0.4775
B( 13-O , 14-O ) :   0.1406 B( 15-C , 16-C ) :  -0.1306 B( 15-C , 22-C ) :   0.6384
B( 15-C , 23-H ) :   0.8322 B( 15-C , 24-H ) :   1.0699 B( 15-C , 25-C ) :   0.1710
B( 15-C , 28-C ) :   0.2201 B( 16-C , 17-C ) :   0.7349 B( 16-C , 22-C ) :   0.1467
B( 16-C , 25-C ) :   0.2200 B( 16-C , 28-C ) :   0.6057 B( 16-C , 31-H ) :   0.7842
B( 16-C , 32-H ) :   1.2783 B( 17-C , 18-H ) :   0.7805 B( 17-C , 19-H ) :   0.9096
B( 17-C , 28-C ) :   0.5011 B( 17-C , 31-H ) :  -0.1289 B( 22-C , 25-C ) :   1.0912
B( 22-C , 26-H ) :   0.8753 B( 22-C , 27-H ) :   0.8274 B( 25-C , 28-C ) :   1.1217
B( 25-C , 29-H ) :   0.9003 B( 25-C , 30-H ) :   0.8878 B( 28-C , 31-H ) :  -0.1079
B( 28-C , 33-H ) :   0.9173 B( 28-C , 34-H ) :   0.7402 B( 31-H , 32-H ) :   0.1511

Dispersion correction           -0.058219786
FINAL SINGLE POINT ENERGY     -1136.041242300766

DIPOLE MOMENT
-------------
                                X             Y             Z
Electronic contribution:     -8.84351     -21.41689     -14.12849
Nuclear contribution   :      8.67311      20.60825      15.35056
                        -----------------------------------------
Total Dipole Moment    :     -0.17041      -0.80865       1.22207
                        -----------------------------------------
Magnitude (a.u.)       :      1.47526
Magnitude (Debye)      :      3.74982

Rotational constants in cm-1:     0.017976     0.012151     0.008188
Rotational constants in MHz :   538.898457   364.286417   245.482451

                             ****ORCA TERMINATED NORMALLY****
TOTAL RUN TIME: 0 days 0 hours 3 minutes 13 seconds 469 msec
