                         Program Version 5.0.0 -  RELEASE  -
|  1> !B3LYP D3BJ RIJCOSX def2-TZVP def2/J TightSCF
|  2> *xyz -1 1
|  3> C          0.13297        2.38587       -4.02462
|  4> C         -1.36646        2.47911       -4.31393
|  5> C         -2.35773        2.30686       -3.13675
|  6> H         -1.63680        1.72709       -5.06399
|  7> H         -1.58235        3.44561       -4.76869
|  8> O         -3.44376        2.84652       -3.25274
|  9> O         -1.97092        1.58304       -2.15123
| 10> H          0.68084        2.52514       -4.93310
| 11> H          0.35823        1.42282       -3.61633
| 12> H          0.40851        3.14443       -3.32208
| 13> *
| 14> %MaxCore 64000
| 15>
| 16> %pal nprocs 4
| 17> end
| 18>
| 19> %scf
| 20>   MaxIter 150
| 21> end
| 22>
| 23>
| 24>                          ****END OF INPUT****

CARTESIAN COORDINATES (ANGSTROEM)
---------------------------------
  C      0.132970    2.385870   -4.024620
  C     -1.366460    2.479110   -4.313930
  C     -2.357730    2.306860   -3.136750
  H     -1.636800    1.727090   -5.063990
  H     -1.582350    3.445610   -4.768690
  O     -3.443760    2.846520   -3.252740
  O     -1.970920    1.583040   -2.151230
  H      0.680840    2.525140   -4.933100
  H      0.358230    1.422820   -3.616330
  H      0.408510    3.144430   -3.322080

 Total Charge           Charge          ....   -1
 Multiplicity           Mult            ....    1
 Number of Electrons    NEL             ....   40
 Basis Dimension        Dim             ....  185

ORBITAL ENERGIES
----------------

  NO   OCC          E(Eh)            E(eV)
   0   2.0000     -18.853957      -513.0422
   1   2.0000     -18.844221      -512.7773
   2   2.0000     -10.042272      -273.2641
   3   2.0000      -9.997842      -272.0551
   4   2.0000      -9.988162      -271.7917
   5   2.0000      -0.817748       -22.2521
   6   2.0000      -0.718443       -19.5498
   7   2.0000      -0.597083       -16.2475
   8   2.0000      -0.467362       -12.7176
   9   2.0000      -0.308683        -8.3997
  10   2.0000      -0.288610        -7.8535
  11   2.0000      -0.255004        -6.9390
  12   2.0000      -0.221665        -6.0318
  13   2.0000      -0.209535        -5.7017
  14   2.0000      -0.202041        -5.4978
  15   2.0000      -0.172536        -4.6949
  16   2.0000      -0.154833        -4.2132
  17   2.0000      -0.040441        -1.1004
  18   2.0000      -0.033510        -0.9119
  19   2.0000      -0.020054        -0.5457
  20   0.0000       0.182239         4.9590
  21   0.0000       0.225580         6.1383
  22   0.0000       0.238275         6.4838
  23   0.0000       0.246507         6.7078
  24   0.0000       0.262853         7.1526

MULLIKEN ATOMIC CHARGES
-----------------------
   0 C :   -0.260008
   1 C :   -0.162419
   2 C :    0.200662
   3 H :    0.031478
   4 H :    0.033375
   5 O :   -0.468053
   6 O :   -0.561814
   7 H :    0.041082
   8 H :    0.077562
   9 H :    0.068134
Sum of atomic charges:   -1.0000000

LOEWDIN ATOMIC CHARGES
----------------------
   0 C :   -0.327126
   1 C :   -0.293548
   2 C :   -0.706876
   3 H :    0.120325
   4 H :    0.116593
   5 O :   -0.054409
   6 O :   -0.155423
   7 H :    0.089614
   8 H :    0.106558
   9 H :    0.104293

  Mayer bond orders larger than 0.100000
B(  0-C ,  1-C ) :   0.9269 B(  0-C ,  7-H ) :   0.9650 B(  0-C ,  8-H ) :   0.9759
B(  0-C ,  9-H ) :   0.9798 B(  1-C ,  2-C ) :   0.9307 B(  1-C ,  3-H ) :   0.9611
B(  1-C ,  4-H ) :   0.9605 B(  2-C ,  5-O ) :   1.9288 B(  2-C ,  6-O ) :   1.8290

Dispersion correction           -0.010839796
FINAL SINGLE POINT ENERGY      -267.809751527914

DIPOLE MOMENT
-------------
                                X             Y             Z
Electronic contribution:     -5.34254      -0.39171       3.27634
Nuclear contribution   :      6.75610       0.63068      -4.53972
                        -----------------------------------------
Total Dipole Moment    :      1.41355       0.23897      -1.26338
                        -----------------------------------------
Magnitude (a.u.)       :      1.91086
Magnitude (Debye)      :      4.85701

Rotational constants in cm-1:     0.335096     0.130241     0.099025
Rotational constants in MHz : 10045.924902  3904.536250  2968.708333

                             ****ORCA TERMINATED NORMALLY****
TOTAL RUN TIME: 0 days 0 hours 0 minutes 19 seconds 784 msec
