                         Program Version 5.0.0 -  RELEASE  -
|  1> !B3LYP D3BJ RIJCOSX def2-TZVP def2/J TightSCF
|  2> *xyz 1 1
|  3> C          0.64866        1.00359       -3.64560
|  4> N          0.28128        0.67645       -2.24018
|  5> C          0.13297        2.38587       -4.02462
|  6> H          0.39079       -0.31925       -2.02649
|  7> H         -0.69269        0.99010       -2.13812
|  8> H          0.85421        1.21221       -1.57528
|  9> H          0.19099        0.23965       -4.27575
| 10> H          1.73157        0.93173       -3.75075
| 11> H          0.40589        2.60338       -5.03610
| 12> H          0.56342        3.11797       -3.37374
| 13> H         -0.93265        2.40724       -3.93025
| 14> *
| 15> %MaxCore 64000
| 16>
| 17> %pal nprocs 4
| 18> end
| 19>
| 20> %scf
| 21>   MaxIter 150
| 22> end
| 23>
| 24>
| 25>                          ****END OF INPUT****

CARTESIAN COORDINATES (ANGSTROEM)
---------------------------------
  C      0.648660    1.003590   -3.645600
  N      0.281280    0.676450   -2.240180
  C      0.132970    2.385870   -4.024620
  H      0.390790   -0.319250   -2.026490
  H     -0.692690    0.990100   -2.138120
  H      0.854210    1.212210   -1.575280
  H      0.190990    0.239650   -4.275750
  H      1.731570    0.931730   -3.750750
  H      0.405890    2.603380   -5.036100
  H      0.563420    3.117970   -3.373740
  H     -0.932650    2.407240   -3.930250

 Total Charge           Charge          ....    1
 Multiplicity           Mult            ....    1
 Number of Electrons    NEL             ....   26
 Basis Dimension        Dim             ....  141

ORBITAL ENERGIES
----------------

  NO   OCC          E(Eh)            E(eV)
   0   2.0000     -14.649950      -398.6454
   1   2.0000     -10.422937      -283.6225
   2   2.0000     -10.345352      -281.5113
   3   2.0000      -1.217458       -33.1287
   4   2.0000      -0.965927       -26.2842
   5   2.0000      -0.845478       -23.0066
   6   2.0000      -0.801277       -21.8039
   7   2.0000      -0.794181       -21.6108
   8   2.0000      -0.695190       -18.9171
   9   2.0000      -0.643216       -17.5028
  10   2.0000      -0.585710       -15.9380
  11   2.0000      -0.572206       -15.5705
  12   2.0000      -0.555144       -15.1062
  13   0.0000      -0.197357        -5.3704
  14   0.0000      -0.135824        -3.6960
  15   0.0000      -0.132577        -3.6076
  16   0.0000      -0.113222        -3.0809
  17   0.0000      -0.075397        -2.0516

MULLIKEN ATOMIC CHARGES
-----------------------
   0 C :   -0.179454
   1 N :   -0.268700
   2 C :   -0.336483
   3 H :    0.326597
   4 H :    0.315797
   5 H :    0.318949
   6 H :    0.179987
   7 H :    0.185413
   8 H :    0.174888
   9 H :    0.141772
  10 H :    0.141234
Sum of atomic charges:    1.0000000

LOEWDIN ATOMIC CHARGES
----------------------
   0 C :   -0.272845
   1 N :    0.173794
   2 C :   -0.271972
   3 H :    0.219816
   4 H :    0.223949
   5 H :    0.221312
   6 H :    0.151515
   7 H :    0.150508
   8 H :    0.146903
   9 H :    0.129026
  10 H :    0.127996

  Mayer bond orders larger than 0.100000
B(  0-C ,  1-N ) :   0.8534 B(  0-C ,  2-C ) :   0.9795 B(  0-C ,  6-H ) :   0.9510
B(  0-C ,  7-H ) :   0.9543 B(  1-N ,  3-H ) :   0.8785 B(  1-N ,  4-H ) :   0.8801
B(  1-N ,  5-H ) :   0.8823 B(  2-C ,  8-H ) :   0.9602 B(  2-C ,  9-H ) :   0.9607
B(  2-C , 10-H ) :   0.9577

Dispersion correction           -0.010093854
FINAL SINGLE POINT ENERGY      -135.504982462720

DIPOLE MOMENT
-------------
                                X             Y             Z
Electronic contribution:      0.17172      -1.30585       1.32240
Nuclear contribution   :     -0.22655       0.48066      -0.09136
                        -----------------------------------------
Total Dipole Moment    :     -0.05482      -0.82519       1.23105
                        -----------------------------------------
Magnitude (a.u.)       :      1.48304
Magnitude (Debye)      :      3.76960

Rotational constants in cm-1:     0.998155     0.284845     0.251232
Rotational constants in MHz : 29923.943568  8539.431565  7531.732866

                             ****ORCA TERMINATED NORMALLY****
TOTAL RUN TIME: 0 days 0 hours 0 minutes 14 seconds 331 msec
