                         Program Version 5.0.0 -  RELEASE  -
|  1> !B3LYP D3BJ RIJCOSX def2-TZVP def2/J TightSCF
|  2> *xyz 0 1
|  3> C          0.13297        2.38587       -4.02462
|  4> C         -1.36646        2.47911       -4.31393
|  5> C         -2.35773        2.30686       -3.13675
|  6> H         -1.63680        1.72709       -5.06399
|  7> H         -1.58235        3.44561       -4.76869
|  8> F         -3.44376        2.84652       -3.25274
|  9> O         -1.97092        1.58304       -2.15123
| 10> H          0.68084        2.52514       -4.93310
| 11> H          0.35823        1.42282       -3.61633
| 12> H          0.40851        3.14443       -3.32208
| 13> *
| 14> %MaxCore 64000
| 15>
| 16> %pal nprocs 4
| 17> end
| 18>
| 19> %scf
| 20>   MaxIter 150
| 21> end
| 22>
| 23>
| 24>                          ****END OF INPUT****

CARTESIAN COORDINATES (ANGSTROEM)
---------------------------------
  C      0.132970    2.385870   -4.024620
  C     -1.366460    2.479110   -4.313930
  C     -2.357730    2.306860   -3.136750
  H     -1.636800    1.727090   -5.063990
  H     -1.582350    3.445610   -4.768690
  F     -3.443760    2.846520   -3.252740
  O     -1.970920    1.583040   -2.151230
  H      0.680840    2.525140   -4.933100
  H      0.358230    1.422820   -3.616330
  H      0.408510    3.144430   -3.322080

 Total Charge           Charge          ....    0
 Multiplicity           Mult            ....    1
 Number of Electrons    NEL             ....   40
 Basis Dimension        Dim             ....  185

ORBITAL ENERGIES
----------------

  NO   OCC          E(Eh)            E(eV)
   0   2.0000     -24.764791      -673.8842
   1   2.0000     -19.125331      -520.4267
   2   2.0000     -10.350364      -281.6477
   3   2.0000     -10.201451      -277.5956
   4   2.0000     -10.168087      -276.6877
   5   2.0000      -1.347892       -36.6780
   6   2.0000      -1.015491       -27.6329
   7   2.0000      -0.795686       -21.6517
   8   2.0000      -0.699585       -19.0367
   9   2.0000      -0.646266       -17.5858
  10   2.0000      -0.564738       -15.3673
  11   2.0000      -0.547387       -14.8951
  12   2.0000      -0.506384       -13.7794
  13   2.0000      -0.466934       -12.7059
  14   2.0000      -0.430264       -11.7081
  15   2.0000      -0.392677       -10.6853
  16   2.0000      -0.374993       -10.2041
  17   2.0000      -0.372108       -10.1256
  18   2.0000      -0.341949        -9.3049
  19   2.0000      -0.286321        -7.7912
  20   0.0000      -0.029538        -0.8038
  21   0.0000       0.030378         0.8266
  22   0.0000       0.071042         1.9331
  23   0.0000       0.089181         2.4267
  24   0.0000       0.097283         2.6472

MULLIKEN ATOMIC CHARGES
-----------------------
   0 C :   -0.296113
   1 C :   -0.219035
   2 C :    0.375751
   3 H :    0.117661
   4 H :    0.106040
   5 F :   -0.068791
   6 O :   -0.359325
   7 H :    0.111487
   8 H :    0.123891
   9 H :    0.108432
Sum of atomic charges:    0.0000000

LOEWDIN ATOMIC CHARGES
----------------------
   0 C :   -0.284827
   1 C :   -0.260481
   2 C :   -0.513378
   3 H :    0.151754
   4 H :    0.139146
   5 F :    0.384516
   6 O :    0.024626
   7 H :    0.117180
   8 H :    0.122476
   9 H :    0.118988

  Mayer bond orders larger than 0.100000
B(  0-C ,  1-C ) :   0.9708 B(  0-C ,  7-H ) :   0.9676 B(  0-C ,  8-H ) :   0.9706
B(  0-C ,  9-H ) :   0.9772 B(  1-C ,  2-C ) :   0.9943 B(  1-C ,  3-H ) :   0.9322
B(  1-C ,  4-H ) :   0.9574 B(  2-C ,  5-F ) :   1.1906 B(  2-C ,  6-O ) :   2.0239

Dispersion correction           -0.010289897
FINAL SINGLE POINT ENERGY      -292.368983260881

DIPOLE MOMENT
-------------
                                X             Y             Z
Electronic contribution:     -8.38988       0.46706       3.59178
Nuclear contribution   :      8.54799       0.05434      -4.66633
                        -----------------------------------------
Total Dipole Moment    :      0.15811       0.52140      -1.07455
                        -----------------------------------------
Magnitude (a.u.)       :      1.20479
Magnitude (Debye)      :      3.06232

Rotational constants in cm-1:     0.325803     0.123345     0.094275
Rotational constants in MHz :  9767.324172  3697.779805  2826.305733

                             ****ORCA TERMINATED NORMALLY****
TOTAL RUN TIME: 0 days 0 hours 0 minutes 19 seconds 825 msec
