                         Program Version 5.0.0 -  RELEASE  -
|  1> !B3LYP D3BJ RIJCOSX def2-TZVP def2/J TightSCF
|  2> *xyz 0 1
|  3> C          0.64866        1.00359       -3.64560
|  4> C          0.28128        0.67645       -2.24018
|  5> C          0.13297        2.38587       -4.02462
|  6> H          0.39079       -0.31925       -2.02649
|  7> H         -0.69269        0.99010       -2.13812
|  8> H          0.85421        1.21221       -1.57528
|  9> H          0.19099        0.23965       -4.27575
| 10> H          1.73157        0.93173       -3.75075
| 11> H          0.40589        2.60338       -5.03610
| 12> H          0.56342        3.11797       -3.37374
| 13> H         -0.93265        2.40724       -3.93025
| 14> *
| 15> %MaxCore 64000
| 16>
| 17> %pal nprocs 4
| 18> end
| 19>
| 20> %scf
| 21>   MaxIter 150
| 22> end
| 23>
| 24>
| 25>                          ****END OF INPUT****

CARTESIAN COORDINATES (ANGSTROEM)
---------------------------------
  C      0.648660    1.003590   -3.645600
  C      0.281280    0.676450   -2.240180
  C      0.132970    2.385870   -4.024620
  H      0.390790   -0.319250   -2.026490
  H     -0.692690    0.990100   -2.138120
  H      0.854210    1.212210   -1.575280
  H      0.190990    0.239650   -4.275750
  H      1.731570    0.931730   -3.750750
  H      0.405890    2.603380   -5.036100
  H      0.563420    3.117970   -3.373740
  H     -0.932650    2.407240   -3.930250

 Total Charge           Charge          ....    0
 Multiplicity           Mult            ....    1
 Number of Electrons    NEL             ....   26
 Basis Dimension        Dim             ....  141

ORBITAL ENERGIES
----------------

  NO   OCC          E(Eh)            E(eV)
   0   2.0000     -10.153288      -276.2850
   1   2.0000     -10.145295      -276.0675
   2   2.0000     -10.126348      -275.5519
   3   2.0000      -0.791640       -21.5416
   4   2.0000      -0.687920       -18.7193
   5   2.0000      -0.584822       -15.9138
   6   2.0000      -0.467559       -12.7229
   7   2.0000      -0.449148       -12.2219
   8   2.0000      -0.402178       -10.9438
   9   2.0000      -0.386893       -10.5279
  10   2.0000      -0.338128        -9.2009
  11   2.0000      -0.334529        -9.1030
  12   2.0000      -0.327998        -8.9253
  13   0.0000       0.041404         1.1267
  14   0.0000       0.083508         2.2724
  15   0.0000       0.089476         2.4348
  16   0.0000       0.094548         2.5728
  17   0.0000       0.113131         3.0785

MULLIKEN ATOMIC CHARGES
-----------------------
   0 C :   -0.130609
   1 C :   -0.296922
   2 C :   -0.310951
   3 H :    0.102490
   4 H :    0.088223
   5 H :    0.098626
   6 H :    0.075710
   7 H :    0.076600
   8 H :    0.102777
   9 H :    0.095830
  10 H :    0.098226
Sum of atomic charges:    0.0000000

LOEWDIN ATOMIC CHARGES
----------------------
   0 C :   -0.316304
   1 C :   -0.298399
   2 C :   -0.300843
   3 H :    0.104169
   4 H :    0.111110
   5 H :    0.106361
   6 H :    0.128824
   7 H :    0.126237
   8 H :    0.112495
   9 H :    0.113564
  10 H :    0.112787

  Mayer bond orders larger than 0.100000
B(  0-C ,  1-C ) :   0.9572 B(  0-C ,  2-C ) :   0.9709 B(  0-C ,  6-H ) :   0.9721
B(  0-C ,  7-H ) :   0.9723 B(  1-C ,  3-H ) :   0.9823 B(  1-C ,  4-H ) :   0.9802
B(  1-C ,  5-H ) :   0.9821 B(  2-C ,  8-H ) :   0.9799 B(  2-C ,  9-H ) :   0.9769
B(  2-C , 10-H ) :   0.9769

Dispersion correction           -0.010170709
FINAL SINGLE POINT ENERGY      -119.093797694417

DIPOLE MOMENT
-------------
                                X             Y             Z
Electronic contribution:      0.26089      -0.28281      -0.24453
Nuclear contribution   :     -0.24754       0.26111       0.24628
                        -----------------------------------------
Total Dipole Moment    :      0.01335      -0.02170       0.00174
                        -----------------------------------------
Magnitude (a.u.)       :      0.02554
Magnitude (Debye)      :      0.06492

Rotational constants in cm-1:     1.006509     0.299509     0.263145
Rotational constants in MHz : 30174.379724  8979.049324  7888.875355

                             ****ORCA TERMINATED NORMALLY****
TOTAL RUN TIME: 0 days 0 hours 0 minutes 13 seconds 125 msec
