                         Program Version 5.0.0 -  RELEASE  -
|  1> !B3LYP D3BJ RIJCOSX def2-TZVP def2/J TightSCF
|  2> *xyz 0 1
|  3> C          0.13297        2.38587       -4.02462
|  4> C         -1.36646        2.47911       -4.31393
|  5> C         -2.35773        2.30686       -3.13675
|  6> H         -1.63680        1.72709       -5.06399
|  7> H         -1.58235        3.44561       -4.76869
|  8> O         -3.44376        2.84652       -3.25274
|  9> F         -1.97092        1.58304       -2.15123
| 10> H          0.68084        2.52514       -4.93310
| 11> H          0.35823        1.42282       -3.61633
| 12> H          0.40851        3.14443       -3.32208
| 13> *
| 14> %MaxCore 64000
| 15>
| 16> %pal nprocs 4
| 17> end
| 18>
| 19> %scf
| 20>   MaxIter 150
| 21> end
| 22>
| 23>
| 24>                          ****END OF INPUT****

CARTESIAN COORDINATES (ANGSTROEM)
---------------------------------
  C      0.132970    2.385870   -4.024620
  C     -1.366460    2.479110   -4.313930
  C     -2.357730    2.306860   -3.136750
  H     -1.636800    1.727090   -5.063990
  H     -1.582350    3.445610   -4.768690
  O     -3.443760    2.846520   -3.252740
  F     -1.970920    1.583040   -2.151230
  H      0.680840    2.525140   -4.933100
  H      0.358230    1.422820   -3.616330
  H      0.408510    3.144430   -3.322080

 Total Charge           Charge          ....    0
 Multiplicity           Mult            ....    1
 Number of Electrons    NEL             ....   40
 Basis Dimension        Dim             ....  185

ORBITAL ENERGIES
----------------

  NO   OCC          E(Eh)            E(eV)
   0   2.0000     -24.741229      -673.2431
   1   2.0000     -19.134330      -520.6716
   2   2.0000     -10.344686      -281.4932
   3   2.0000     -10.200005      -277.5562
   4   2.0000     -10.173022      -276.8220
   5   2.0000      -1.299817       -35.3698
   6   2.0000      -1.055972       -28.7345
   7   2.0000      -0.798048       -21.7160
   8   2.0000      -0.681115       -18.5341
   9   2.0000      -0.637623       -17.3506
  10   2.0000      -0.539408       -14.6780
  11   2.0000      -0.534364       -14.5408
  12   2.0000      -0.496707       -13.5161
  13   2.0000      -0.466959       -12.7066
  14   2.0000      -0.433636       -11.7998
  15   2.0000      -0.405808       -11.0426
  16   2.0000      -0.390753       -10.6329
  17   2.0000      -0.376153       -10.2357
  18   2.0000      -0.355456        -9.6725
  19   2.0000      -0.297369        -8.0918
  20   0.0000      -0.024555        -0.6682
  21   0.0000       0.025525         0.6946
  22   0.0000       0.072964         1.9854
  23   0.0000       0.092026         2.5042
  24   0.0000       0.096098         2.6150

MULLIKEN ATOMIC CHARGES
-----------------------
   0 C :   -0.304829
   1 C :   -0.222687
   2 C :    0.354501
   3 H :    0.117956
   4 H :    0.126710
   5 O :   -0.281869
   6 F :   -0.127626
   7 H :    0.116242
   8 H :    0.109938
   9 H :    0.111664
Sum of atomic charges:    0.0000000

LOEWDIN ATOMIC CHARGES
----------------------
   0 C :   -0.296140
   1 C :   -0.256106
   2 C :   -0.498977
   3 H :    0.151770
   4 H :    0.150789
   5 O :    0.113289
   6 F :    0.282075
   7 H :    0.118960
   8 H :    0.116838
   9 H :    0.117504

  Mayer bond orders larger than 0.100000
B(  0-C ,  1-C ) :   0.9489 B(  0-C ,  7-H ) :   0.9700 B(  0-C ,  8-H ) :   0.9707
B(  0-C ,  9-H ) :   0.9755 B(  1-C ,  2-C ) :   0.9997 B(  1-C ,  3-H ) :   0.9412
B(  1-C ,  4-H ) :   0.9637 B(  2-C ,  5-O ) :   2.1075 B(  2-C ,  6-F ) :   1.1201

Dispersion correction           -0.010203597
FINAL SINGLE POINT ENERGY      -292.386307476985

DIPOLE MOMENT
-------------
                                X             Y             Z
Electronic contribution:     -5.91504      -1.62715       5.39914
Nuclear contribution   :      6.94213       1.43193      -5.86732
                        -----------------------------------------
Total Dipole Moment    :      1.02709      -0.19522      -0.46817
                        -----------------------------------------
Magnitude (a.u.)       :      1.14552
Magnitude (Debye)      :      2.91167

Rotational constants in cm-1:     0.306336     0.129048     0.095707
Rotational constants in MHz :  9183.725605  3868.769583  2869.236577

                             ****ORCA TERMINATED NORMALLY****
TOTAL RUN TIME: 0 days 0 hours 0 minutes 18 seconds 902 msec
