                         Program Version 5.0.0 -  RELEASE  -
|  1> !B3LYP D3BJ RIJCOSX def2-TZVP def2/J TightSCF xyzfile
|  2>
|  3> *xyzfile 0 1 D1.xyz
|  4>
|  5> %MaxCore 64000
|  6>
|  7> %pal nprocs 18
|  8> end
|  9>
| 10> %scf
| 11>   MaxIter 150
| 12> end
| 13>
| 14>
| 15>                          ****END OF INPUT****

CARTESIAN COORDINATES (ANGSTROEM)
---------------------------------
  C      0.648656    1.003595   -3.645601
  C      0.281280    0.676454   -2.240179
  C      0.132968    2.385869   -4.024618
  C     -1.366462    2.479106   -4.313932
  C     -2.357732    2.306858   -3.136753
  H     -1.636802    1.727095   -5.063993
  H     -1.582347    3.445605   -4.768687
  H      0.390790   -0.319253   -2.026495
  H     -0.692686    0.990104   -2.138123
  H      0.854206    1.212214   -1.575279
  F     -3.443763    2.846518   -3.252744
  O     -1.970922    1.583042   -2.151229
  H      0.190993    0.239655   -4.275752
  H      1.731572    0.931729   -3.750751
  H      0.414839    3.102847   -3.245165
  H      0.683167    2.687560   -4.919721

 Total Charge           Charge          ....    0
 Multiplicity           Mult            ....    1
 Number of Electrons    NEL             ....   56
 Basis Dimension        Dim             ....  271

ORBITAL ENERGIES
----------------

  NO   OCC          E(Eh)            E(eV)
   0   2.0000     -24.775789      -674.1835
   1   2.0000     -19.134435      -520.6745
   2   2.0000     -10.365569      -282.0615
   3   2.0000     -10.206566      -277.7348
   4   2.0000     -10.175719      -276.8954
   5   2.0000     -10.147077      -276.1160
   6   2.0000     -10.075793      -274.1763
   7   2.0000      -1.358647       -36.9707
   8   2.0000      -1.039771       -28.2936
   9   2.0000      -0.814794       -22.1717
  10   2.0000      -0.756899       -20.5963
  11   2.0000      -0.691230       -18.8093
  12   2.0000      -0.657922       -17.9030
  13   2.0000      -0.582674       -15.8554
  14   2.0000      -0.572482       -15.5780
  15   2.0000      -0.558409       -15.1951
  16   2.0000      -0.525659       -14.3039
  17   2.0000      -0.480453       -13.0738
  18   2.0000      -0.451066       -12.2741
  19   2.0000      -0.435191       -11.8422
  20   2.0000      -0.409725       -11.1492
  21   2.0000      -0.382815       -10.4169
  22   2.0000      -0.377568       -10.2741
  23   2.0000      -0.356138        -9.6910
  24   2.0000      -0.341820        -9.3014
  25   2.0000      -0.320993        -8.7347
  26   2.0000      -0.311487        -8.4760
  27   2.0000      -0.246779        -6.7152
  28   0.0000      -0.044304        -1.2056
  29   0.0000       0.029577         0.8048
  30   0.0000       0.060900         1.6572
  31   0.0000       0.070422         1.9163
  32   0.0000       0.082158         2.2356

MULLIKEN ATOMIC CHARGES
-----------------------
   0 C :   -0.137499
   1 C :   -0.396443
   2 C :   -0.146430
   3 C :   -0.263706
   4 C :    0.375698
   5 H :    0.125783
   6 H :    0.122450
   7 H :    0.080225
   8 H :    0.200460
   9 H :    0.075345
  10 F :   -0.058416
  11 O :   -0.309707
  12 H :    0.062257
  13 H :    0.078557
  14 H :    0.094953
  15 H :    0.096471
Sum of atomic charges:    0.0000000

LOEWDIN ATOMIC CHARGES
----------------------
   0 C :   -0.296461
   1 C :   -0.315780
   2 C :   -0.253150
   3 C :   -0.230908
   4 C :   -0.484056
   5 H :    0.156941
   6 H :    0.145236
   7 H :    0.096588
   8 H :    0.069814
   9 H :    0.098855
  10 F :    0.391262
  11 O :    0.085133
  12 H :    0.130086
  13 H :    0.127711
  14 H :    0.140364
  15 H :    0.138365

  Mayer bond orders larger than 0.100000
B(  0-C ,  1-C ) :   0.9514 B(  0-C ,  2-C ) :   0.9635 B(  0-C , 12-H ) :   0.9709
B(  0-C , 13-H ) :   0.9698 B(  1-C ,  7-H ) :   0.9814 B(  1-C ,  8-H ) :   0.9268
B(  1-C ,  9-H ) :   0.9784 B(  2-C ,  3-C ) :   0.9633 B(  2-C , 14-H ) :   0.9716
B(  2-C , 15-H ) :   0.9620 B(  3-C ,  4-C ) :   1.0078 B(  3-C ,  5-H ) :   0.9290
B(  3-C ,  6-H ) :   0.9572 B(  4-C , 10-F ) :   1.2081 B(  4-C , 11-O ) :   1.9338
B(  8-H , 11-O ) :   0.1057

Dispersion correction           -0.022141557
FINAL SINGLE POINT ENERGY      -370.919078855266

DIPOLE MOMENT
-------------
                                X             Y             Z
Electronic contribution:    -13.02153       4.58462       1.43149
Nuclear contribution   :     12.79331      -3.91961      -2.45895
                        -----------------------------------------
Total Dipole Moment    :     -0.22822       0.66501      -1.02745
                        -----------------------------------------
Magnitude (a.u.)       :      1.24498
Magnitude (Debye)      :      3.16450

Rotational constants in cm-1:     0.162888     0.059977     0.046450
Rotational constants in MHz :  4883.250030  1798.063289  1392.548669

                             ****ORCA TERMINATED NORMALLY****
TOTAL RUN TIME: 0 days 0 hours 0 minutes 18 seconds 873 msec
