                         Program Version 5.0.0 -  RELEASE  -
|  1> !LC-PBE RIJCOSX def2-SVPD def2/J TightSCF
|  2> *xyz -1 1
|  3> C         -0.10608        1.76991       -4.08984
|  4> C         -0.25875        1.00432       -5.40983
|  5> C          0.39596       -0.37070       -5.33994
|  6> H          0.23915        1.56939       -6.20125
|  7> H         -1.30936        0.88869       -5.68245
|  8> O         -0.32633       -1.39040       -5.49128
|  9> O          1.61941       -0.40073       -5.03683
| 10> H         -0.57627        2.72718       -4.17630
| 11> H          0.93321        1.90140       -3.87192
| 12> H         -0.56868        1.21534       -3.30031
| 13> *
| 14> %MaxCore 64000
| 15>
| 16> %pal nprocs 4
| 17> end
| 18>
| 19> %scf
| 20>   MaxIter 150
| 21> end
| 22>
| 23>
| 24>                          ****END OF INPUT****

CARTESIAN COORDINATES (ANGSTROEM)
---------------------------------
  C     -0.106080    1.769910   -4.089840
  C     -0.258750    1.004320   -5.409830
  C      0.395960   -0.370700   -5.339940
  H      0.239150    1.569390   -6.201250
  H     -1.309360    0.888690   -5.682450
  O     -0.326330   -1.390400   -5.491280
  O      1.619410   -0.400730   -5.036830
  H     -0.576270    2.727180   -4.176300
  H      0.933210    1.901400   -3.871920
  H     -0.568680    1.215340   -3.300310

 Total Charge           Charge          ....   -1
 Multiplicity           Mult            ....    1
 Number of Electrons    NEL             ....   40
 Basis Dimension        Dim             ....  146

ORBITAL ENERGIES
----------------

  NO   OCC          E(Eh)            E(eV)
   0   2.0000     -18.727757      -509.6082
   1   2.0000     -18.726221      -509.5664
   2   2.0000     -10.018831      -272.6262
   3   2.0000      -9.966396      -271.1994
   4   2.0000      -9.956717      -270.9361
   5   2.0000      -0.979615       -26.6567
   6   2.0000      -0.874839       -23.8056
   7   2.0000      -0.779006       -21.1978
   8   2.0000      -0.635957       -17.3053
   9   2.0000      -0.471240       -12.8231
  10   2.0000      -0.440423       -11.9845
  11   2.0000      -0.402996       -10.9661
  12   2.0000      -0.376560       -10.2467
  13   2.0000      -0.354978        -9.6594
  14   2.0000      -0.349136        -9.5005
  15   2.0000      -0.314694        -8.5633
  16   2.0000      -0.301369        -8.2007
  17   2.0000      -0.178223        -4.8497
  18   2.0000      -0.175584        -4.7779
  19   2.0000      -0.163079        -4.4376
  20   0.0000       0.221082         6.0159
  21   0.0000       0.253758         6.9051
  22   0.0000       0.264438         7.1957
  23   0.0000       0.290271         7.8987
  24   0.0000       0.313728         8.5370

MULLIKEN ATOMIC CHARGES
-----------------------
   0 C :    0.317774
   1 C :   -0.402946
   2 C :    0.300109
   3 H :    0.071378
   4 H :    0.023299
   5 O :   -0.638825
   6 O :   -0.667289
   7 H :   -0.015160
   8 H :    0.026400
   9 H :   -0.014739
Sum of atomic charges:   -1.0000000

LOEWDIN ATOMIC CHARGES
----------------------
   0 C :    0.071985
   1 C :   -0.066036
   2 C :   -0.329074
   3 H :    0.022161
   4 H :    0.014556
   5 O :   -0.329861
   6 O :   -0.327661
   7 H :   -0.030457
   8 H :   -0.016161
   9 H :   -0.009452

  Mayer bond orders larger than 0.100000
B(  0-C ,  1-C ) :   1.2771 B(  0-C ,  7-H ) :   0.8793 B(  0-C ,  8-H ) :   0.8715
B(  0-C ,  9-H ) :   0.8967 B(  1-C ,  2-C ) :   1.0211 B(  1-C ,  3-H ) :   0.9061
B(  1-C ,  4-H ) :   0.9874 B(  1-C ,  7-H ) :   0.1206 B(  1-C ,  8-H ) :   0.1520
B(  1-C ,  9-H ) :   0.1318 B(  2-C ,  4-H ) :   0.1470 B(  2-C ,  5-O ) :   1.5607
B(  2-C ,  6-O ) :   1.5803

FINAL SINGLE POINT ENERGY      -266.874316495935

DIPOLE MOMENT
-------------
                                X             Y             Z
Electronic contribution:      1.69002      -5.18672      -1.70108
Nuclear contribution   :     -2.46071       7.20791       1.95694
                        -----------------------------------------
Total Dipole Moment    :     -0.77070       2.02120       0.25586
                        -----------------------------------------
Magnitude (a.u.)       :      2.17823
Magnitude (Debye)      :      5.53661

Rotational constants in cm-1:     0.309435     0.135317     0.107436
Rotational constants in MHz :  9276.637721  4056.700783  3220.846587

                             ****ORCA TERMINATED NORMALLY****
TOTAL RUN TIME: 0 days 0 hours 0 minutes 19 seconds 82 msec
