                         Program Version 5.0.0 -  RELEASE  -
|  1> !LC-PBE RIJCOSX def2-SVPD def2/J TightSCF
|  2> *xyz 1 1
|  3> C          0.81607       -2.10149       -2.18655
|  4> H          1.69623       -2.36869       -1.60046
|  5> N          1.10055       -2.46749       -3.59927
|  6> C          0.51624       -0.61363       -2.03937
|  7> H         -0.02007       -2.71285       -1.84084
|  8> H          1.70061       -1.75723       -4.07838
|  9> H          0.29386       -2.35977       -4.25632
| 10> H          1.50132       -3.42848       -3.69491
| 11> H         -0.34841       -0.36504       -2.61858
| 12> H          1.35358       -0.04503       -2.38643
| 13> H          0.33317       -0.38682       -1.00984
| 14> *
| 15> %MaxCore 64000
| 16>
| 17> %pal nprocs 4
| 18> end
| 19>
| 20> %scf
| 21>   MaxIter 150
| 22> end
| 23>
| 24>
| 25>                          ****END OF INPUT****

CARTESIAN COORDINATES (ANGSTROEM)
---------------------------------
  C      0.816070   -2.101490   -2.186550
  H      1.696230   -2.368690   -1.600460
  N      1.100550   -2.467490   -3.599270
  C      0.516240   -0.613630   -2.039370
  H     -0.020070   -2.712850   -1.840840
  H      1.700610   -1.757230   -4.078380
  H      0.293860   -2.359770   -4.256320
  H      1.501320   -3.428480   -3.694910
  H     -0.348410   -0.365040   -2.618580
  H      1.353580   -0.045030   -2.386430
  H      0.333170   -0.386820   -1.009840

 Total Charge           Charge          ....    1
 Multiplicity           Mult            ....    1
 Number of Electrons    NEL             ....   26
 Basis Dimension        Dim             ....  124

ORBITAL ENERGIES
----------------

  NO   OCC          E(Eh)            E(eV)
   0   2.0000     -14.568691      -396.4342
   1   2.0000     -10.382496      -282.5221
   2   2.0000     -10.302007      -280.3319
   3   2.0000      -1.377129       -37.4736
   4   2.0000      -1.134509       -30.8716
   5   2.0000      -1.009429       -27.4679
   6   2.0000      -0.937671       -25.5153
   7   2.0000      -0.922407       -25.1000
   8   2.0000      -0.846115       -23.0240
   9   2.0000      -0.779118       -21.2009
  10   2.0000      -0.718780       -19.5590
  11   2.0000      -0.702499       -19.1160
  12   2.0000      -0.680616       -18.5205
  13   0.0000      -0.111274        -3.0279
  14   0.0000      -0.053540        -1.4569
  15   0.0000      -0.047538        -1.2936
  16   0.0000      -0.046410        -1.2629
  17   0.0000      -0.007664        -0.2085

MULLIKEN ATOMIC CHARGES
-----------------------
   0 C :    0.073833
   1 H :    0.041485
   2 N :   -0.972863
   3 C :    0.315545
   4 H :    0.026273
   5 H :    0.455541
   6 H :    0.422013
   7 H :    0.431149
   8 H :    0.082371
   9 H :    0.051693
  10 H :    0.072960
Sum of atomic charges:    1.0000000

LOEWDIN ATOMIC CHARGES
----------------------
   0 C :    0.025209
   1 H :    0.062938
   2 N :    0.287541
   3 C :    0.136282
   4 H :    0.064119
   5 H :    0.121182
   6 H :    0.126162
   7 H :    0.130522
   8 H :    0.011046
   9 H :    0.009705
  10 H :    0.025293

  Mayer bond orders larger than 0.100000
B(  0-C ,  1-H ) :   0.9509 B(  0-C ,  2-N ) :   0.7166 B(  0-C ,  3-C ) :   1.2989
B(  0-C ,  4-H ) :   0.9657 B(  0-C ,  8-H ) :   0.1037 B(  0-C ,  9-H ) :   0.1108
B(  0-C , 10-H ) :   0.1429 B(  2-N ,  5-H ) :   0.6721 B(  2-N ,  6-H ) :   0.7368
B(  2-N ,  7-H ) :   0.6886 B(  3-C ,  8-H ) :   0.8628 B(  3-C ,  9-H ) :   0.8795
B(  3-C , 10-H ) :   0.8666

FINAL SINGLE POINT ENERGY      -134.988856288881

DIPOLE MOMENT
-------------
                                X             Y             Z
Electronic contribution:      0.42683      -1.45008      -1.10589
Nuclear contribution   :     -0.07506       0.54337      -0.16191
                        -----------------------------------------
Total Dipole Moment    :      0.35177      -0.90671      -1.26780
                        -----------------------------------------
Magnitude (a.u.)       :      1.59787
Magnitude (Debye)      :      4.06147

Rotational constants in cm-1:     0.999557     0.280801     0.246932
Rotational constants in MHz : 29965.963633  8418.199581  7402.841054

                             ****ORCA TERMINATED NORMALLY****
TOTAL RUN TIME: 0 days 0 hours 0 minutes 12 seconds 832 msec
