                         Program Version 5.0.0 -  RELEASE  -
|  1> !LC-PBE RIJCOSX def2-SVPD def2/J TightSCF xyzfile
|  2>
|  3> *xyzfile 0 1 B.xyz
|  4>
|  5> %MaxCore 64000
|  6>
|  7> %pal nprocs 4
|  8> end
|  9>
| 10> %scf
| 11>   MaxIter 150
| 12> end
| 13>
| 14>
| 15>                          ****END OF INPUT****

CARTESIAN COORDINATES (ANGSTROEM)
---------------------------------
  C      0.816067   -2.101491   -2.186546
  H      1.696232   -2.368691   -1.600457
  N      1.100552   -2.467492   -3.599269
  C      0.516243   -0.613634   -2.039373
  H     -0.020066   -2.712849   -1.840844
  C     -0.868621   -0.193925   -2.546303
  C     -0.984801    1.284739   -2.928686
  H     -0.764939    1.904116   -2.051568
  H     -2.032613    1.478953   -3.178952
  C     -0.106085    1.769914   -4.089836
  H     -0.347744    2.822196   -4.262942
  H      0.949683    1.745875   -3.808781
  C     -0.258747    1.004323   -5.409829
  C      0.395958   -0.370696   -5.339939
  H      0.239150    1.569393   -6.201253
  H     -1.309360    0.888694   -5.682455
  H      1.700606   -1.757225   -4.078378
  H      0.293855   -2.359766   -4.256324
  H      1.501324   -3.428479   -3.694915
  O     -0.326329   -1.390398   -5.491279
  O      1.619412   -0.400726   -5.036827
  H     -1.607271   -0.412651   -1.768955
  H     -1.157234   -0.796164   -3.409254
  H      1.299044   -0.056805   -2.558982
  H      0.612393   -0.365579   -0.979171

 Total Charge           Charge          ....    0
 Multiplicity           Mult            ....    1
 Number of Electrons    NEL             ....   80
 Basis Dimension        Dim             ....  326

ORBITAL ENERGIES
----------------

  NO   OCC          E(Eh)            E(eV)
   0   2.0000     -18.930747      -515.1318
   1   2.0000     -18.929376      -515.0945
   2   2.0000     -14.317510      -389.5993
   3   2.0000     -10.213054      -277.9113
   4   2.0000     -10.202410      -277.6217
   5   2.0000     -10.143098      -276.0077
   6   2.0000     -10.125103      -275.5180
   7   2.0000     -10.120736      -275.3992
   8   2.0000     -10.114682      -275.2345
   9   2.0000     -10.105084      -274.9733
  10   2.0000      -1.195170       -32.5222
  11   2.0000      -1.144767       -31.1507
  12   2.0000      -1.082138       -29.4465
  13   2.0000      -0.991342       -26.9758
  14   2.0000      -0.944007       -25.6877
  15   2.0000      -0.893833       -24.3224
  16   2.0000      -0.823174       -22.3997
  17   2.0000      -0.788658       -21.4605
  18   2.0000      -0.730493       -19.8777
  19   2.0000      -0.718680       -19.5563
  20   2.0000      -0.692150       -18.8344
  21   2.0000      -0.666410       -18.1339
  22   2.0000      -0.628319       -17.0974
  23   2.0000      -0.617927       -16.8146
  24   2.0000      -0.602931       -16.4066
  25   2.0000      -0.590389       -16.0653
  26   2.0000      -0.571126       -15.5411
  27   2.0000      -0.561320       -15.2743
  28   2.0000      -0.540645       -14.7117
  29   2.0000      -0.531229       -14.4555
  30   2.0000      -0.529037       -14.3958
  31   2.0000      -0.507100       -13.7989
  32   2.0000      -0.484036       -13.1713
  33   2.0000      -0.480703       -13.0806
  34   2.0000      -0.455072       -12.3831
  35   2.0000      -0.437696       -11.9103
  36   2.0000      -0.435426       -11.8486
  37   2.0000      -0.382579       -10.4105
  38   2.0000      -0.371928       -10.1207
  39   2.0000      -0.365500        -9.9458
  40   0.0000       0.065409         1.7799
  41   0.0000       0.096049         2.6136
  42   0.0000       0.105105         2.8601
  43   0.0000       0.107615         2.9284
  44   0.0000       0.121528         3.3069

MULLIKEN ATOMIC CHARGES
-----------------------
   0 C :    0.767615
   1 H :   -0.047362
   2 N :   -0.560005
   3 C :   -0.069803
   4 H :   -0.078886
   5 C :    0.061974
   6 C :    0.161094
   7 H :    0.012480
   8 H :    0.139665
   9 C :   -0.095710
  10 H :   -0.109577
  11 H :    0.132408
  12 C :    0.129842
  13 C :    0.068564
  14 H :    0.108012
  15 H :    0.030888
  16 H :    0.309166
  17 H :    0.266865
  18 H :    0.287471
  19 O :   -0.588470
  20 O :   -0.633889
  21 H :   -0.048811
  22 H :   -0.182922
  23 H :    0.060006
  24 H :   -0.120617
Sum of atomic charges:    0.0000000

LOEWDIN ATOMIC CHARGES
----------------------
   0 C :    0.064091
   1 H :    0.042535
   2 N :    0.294749
   3 C :   -0.023356
   4 H :    0.047461
   5 C :   -0.034666
   6 C :   -0.044918
   7 H :    0.033452
   8 H :    0.035706
   9 C :   -0.044988
  10 H :    0.030428
  11 H :    0.022341
  12 C :    0.022861
  13 C :   -0.220130
  14 H :    0.044790
  15 H :    0.038666
  16 H :   -0.019084
  17 H :   -0.016613
  18 H :    0.112950
  19 O :   -0.248651
  20 O :   -0.239508
  21 H :    0.035114
  22 H :    0.006510
  23 H :    0.020752
  24 H :    0.039507

  Mayer bond orders larger than 0.100000
B(  0-C ,  1-H ) :   0.8200 B(  0-C ,  2-N ) :   0.7595 B(  0-C ,  3-C ) :   1.1580
B(  0-C ,  4-H ) :   0.8649 B(  1-H ,  3-C ) :   0.1694 B(  2-N ,  4-H ) :   0.1747
B(  2-N , 13-C ) :   0.1159 B(  2-N , 16-H ) :   0.7886 B(  2-N , 17-H ) :   0.8649
B(  2-N , 18-H ) :   0.7996 B(  3-C ,  5-C ) :   1.1809 B(  3-C , 21-H ) :   0.1959
B(  3-C , 22-H ) :   0.1039 B(  3-C , 23-H ) :   0.9052 B(  3-C , 24-H ) :   0.9419
B(  5-C ,  6-C ) :   1.2495 B(  5-C ,  7-H ) :   0.1382 B(  5-C ,  8-H ) :   0.1807
B(  5-C , 21-H ) :   0.8365 B(  5-C , 22-H ) :   0.9062 B(  5-C , 24-H ) :   0.1603
B(  6-C ,  7-H ) :   0.8672 B(  6-C ,  8-H ) :   0.7200 B(  6-C ,  9-C ) :   1.2348
B(  6-C , 10-H ) :   0.1204 B(  7-H ,  9-C ) :   0.1299 B(  8-H ,  9-C ) :   0.1297
B(  9-C , 10-H ) :   0.9399 B(  9-C , 11-H ) :   0.8394 B(  9-C , 12-C ) :   1.2432
B(  9-C , 14-H ) :   0.1337 B(  9-C , 15-H ) :   0.1114 B( 12-C , 13-C ) :   1.1923
B( 12-C , 14-H ) :   0.7542 B( 12-C , 15-H ) :   0.8733 B( 13-C , 14-H ) :   0.1486
B( 13-C , 15-H ) :   0.2311 B( 13-C , 19-O ) :   1.5477 B( 13-C , 20-O ) :   1.4611
B( 16-H , 20-O ) :   0.2139 B( 17-H , 19-O ) :   0.2151 B( 19-O , 20-O ) :   0.1071

FINAL SINGLE POINT ENERGY      -479.192582459457

DIPOLE MOMENT
-------------
                                X             Y             Z
Electronic contribution:      2.27905      -3.08363      -6.21302
Nuclear contribution   :     -2.02598       1.95876       8.24116
                        -----------------------------------------
Total Dipole Moment    :      0.25308      -1.12487       2.02814
                        -----------------------------------------
Magnitude (a.u.)       :      2.33296
Magnitude (Debye)      :      5.92992

Rotational constants in cm-1:     0.052900     0.041948     0.028766
Rotational constants in MHz :  1585.892512  1257.572595   862.390225

                             ****ORCA TERMINATED NORMALLY****
TOTAL RUN TIME: 0 days 0 hours 1 minutes 43 seconds 317 msec
