                         Program Version 5.0.0 -  RELEASE  -
|  1> !LC-PBE RIJCOSX def2-SVPD def2/J TightSCF
|  2> *xyz 0 1
|  3> C         -0.10608        1.76991       -4.08984
|  4> C         -0.25875        1.00432       -5.40983
|  5> C          0.39596       -0.37070       -5.33994
|  6> H          0.23915        1.56939       -6.20125
|  7> H         -1.30936        0.88869       -5.68245
|  8> F         -0.32633       -1.39040       -5.49128
|  9> O          1.61941       -0.40073       -5.03683
| 10> H         -0.57627        2.72718       -4.17630
| 11> H          0.93321        1.90140       -3.87192
| 12> H         -0.56868        1.21534       -3.30031
| 13> *
| 14> %MaxCore 64000
| 15>
| 16> %pal nprocs 4
| 17> end
| 18>
| 19> %scf
| 20>   MaxIter 150
| 21> end
| 22>
| 23>
| 24>                          ****END OF INPUT****

CARTESIAN COORDINATES (ANGSTROEM)
---------------------------------
  C     -0.106080    1.769910   -4.089840
  C     -0.258750    1.004320   -5.409830
  C      0.395960   -0.370700   -5.339940
  H      0.239150    1.569390   -6.201250
  H     -1.309360    0.888690   -5.682450
  F     -0.326330   -1.390400   -5.491280
  O      1.619410   -0.400730   -5.036830
  H     -0.576270    2.727180   -4.176300
  H      0.933210    1.901400   -3.871920
  H     -0.568680    1.215340   -3.300310

 Total Charge           Charge          ....    0
 Multiplicity           Mult            ....    1
 Number of Electrons    NEL             ....   40
 Basis Dimension        Dim             ....  146

ORBITAL ENERGIES
----------------

  NO   OCC          E(Eh)            E(eV)
   0   2.0000     -24.582400      -668.9211
   1   2.0000     -19.003750      -517.1183
   2   2.0000     -10.320653      -280.8393
   3   2.0000     -10.165195      -276.6090
   4   2.0000     -10.134672      -275.7785
   5   2.0000      -1.466852       -39.9151
   6   2.0000      -1.191518       -32.4229
   7   2.0000      -0.977049       -26.5868
   8   2.0000      -0.852114       -23.1872
   9   2.0000      -0.798825       -21.7371
  10   2.0000      -0.710784       -19.3414
  11   2.0000      -0.693082       -18.8597
  12   2.0000      -0.660540       -17.9742
  13   2.0000      -0.613805       -16.7025
  14   2.0000      -0.580135       -15.7863
  15   2.0000      -0.541899       -14.7458
  16   2.0000      -0.516894       -14.0654
  17   2.0000      -0.510331       -13.8868
  18   2.0000      -0.483924       -13.1683
  19   2.0000      -0.434601       -11.8261
  20   0.0000       0.059947         1.6313
  21   0.0000       0.082912         2.2562
  22   0.0000       0.112455         3.0601
  23   0.0000       0.121893         3.3169
  24   0.0000       0.146512         3.9868

MULLIKEN ATOMIC CHARGES
-----------------------
   0 C :    0.322836
   1 C :   -0.488468
   2 C :    0.619111
   3 H :    0.146953
   4 H :    0.072834
   5 F :   -0.318732
   6 O :   -0.447078
   7 H :    0.033597
   8 H :    0.048595
   9 H :    0.010351
Sum of atomic charges:    0.0000000

LOEWDIN ATOMIC CHARGES
----------------------
   0 C :    0.111204
   1 C :   -0.021222
   2 C :   -0.024353
   3 H :    0.052215
   4 H :    0.036480
   5 F :   -0.023913
   6 O :   -0.134759
   7 H :   -0.000931
   8 H :    0.002088
   9 H :    0.003191

  Mayer bond orders larger than 0.100000
B(  0-C ,  1-C ) :   1.3039 B(  0-C ,  7-H ) :   0.8840 B(  0-C ,  8-H ) :   0.8718
B(  0-C ,  9-H ) :   0.8926 B(  1-C ,  2-C ) :   1.0910 B(  1-C ,  3-H ) :   0.8913
B(  1-C ,  4-H ) :   0.9774 B(  1-C ,  7-H ) :   0.1112 B(  1-C ,  8-H ) :   0.1350
B(  1-C ,  9-H ) :   0.1208 B(  2-C ,  5-F ) :   0.8263 B(  2-C ,  6-O ) :   1.9022

FINAL SINGLE POINT ENERGY      -291.379562979628

DIPOLE MOMENT
-------------
                                X             Y             Z
Electronic contribution:      0.80119      -8.13903      -2.58283
Nuclear contribution   :     -1.80992       8.85192       2.42184
                        -----------------------------------------
Total Dipole Moment    :     -1.00874       0.71289      -0.16099
                        -----------------------------------------
Magnitude (a.u.)       :      1.24567
Magnitude (Debye)      :      3.16623

Rotational constants in cm-1:     0.298360     0.128849     0.102271
Rotational constants in MHz :  8944.606599  3862.796179  3066.020510

                             ****ORCA TERMINATED NORMALLY****
TOTAL RUN TIME: 0 days 0 hours 0 minutes 19 seconds 30 msec
