                         Program Version 5.0.0 -  RELEASE  -
|  1> !LC-PBE RIJCOSX def2-SVPD def2/J TightSCF
|  2> *xyz 0 1
|  3> C          0.81607       -2.10149       -2.18655
|  4> H          1.69623       -2.36869       -1.60046
|  5> C          1.10055       -2.46749       -3.59927
|  6> C          0.51624       -0.61363       -2.03937
|  7> H         -0.02007       -2.71285       -1.84084
|  8> H          1.70061       -1.75723       -4.07838
|  9> H          0.29386       -2.35977       -4.25632
| 10> H          1.50132       -3.42848       -3.69491
| 11> H         -0.34841       -0.36504       -2.61858
| 12> H          1.35358       -0.04503       -2.38643
| 13> H          0.33317       -0.38682       -1.00984
| 14> *
| 15> %MaxCore 64000
| 16>
| 17> %pal nprocs 4
| 18> end
| 19>
| 20> %scf
| 21>   MaxIter 150
| 22> end
| 23>
| 24>
| 25>                          ****END OF INPUT****

CARTESIAN COORDINATES (ANGSTROEM)
---------------------------------
  C      0.816070   -2.101490   -2.186550
  H      1.696230   -2.368690   -1.600460
  C      1.100550   -2.467490   -3.599270
  C      0.516240   -0.613630   -2.039370
  H     -0.020070   -2.712850   -1.840840
  H      1.700610   -1.757230   -4.078380
  H      0.293860   -2.359770   -4.256320
  H      1.501320   -3.428480   -3.694910
  H     -0.348410   -0.365040   -2.618580
  H      1.353580   -0.045030   -2.386430
  H      0.333170   -0.386820   -1.009840

 Total Charge           Charge          ....    0
 Multiplicity           Mult            ....    1
 Number of Electrons    NEL             ....   26
 Basis Dimension        Dim             ....  124

ORBITAL ENERGIES
----------------

  NO   OCC          E(Eh)            E(eV)
   0   2.0000     -10.116304      -275.2786
   1   2.0000     -10.105247      -274.9777
   2   2.0000     -10.092954      -274.6432
   3   2.0000      -0.964091       -26.2342
   4   2.0000      -0.852020       -23.1847
   5   2.0000      -0.744627       -20.2623
   6   2.0000      -0.608005       -16.5446
   7   2.0000      -0.591046       -16.0832
   8   2.0000      -0.552091       -15.0232
   9   2.0000      -0.510890       -13.9020
  10   2.0000      -0.471554       -12.8316
  11   2.0000      -0.467712       -12.7271
  12   2.0000      -0.446655       -12.1541
  13   0.0000       0.095815         2.6073
  14   0.0000       0.120727         3.2852
  15   0.0000       0.128711         3.5024
  16   0.0000       0.164445         4.4748
  17   0.0000       0.182835         4.9752

MULLIKEN ATOMIC CHARGES
-----------------------
   0 C :   -0.620941
   1 H :    0.005268
   2 C :    0.521159
   3 C :    0.364585
   4 H :   -0.020130
   5 H :   -0.111770
   6 H :   -0.095641
   7 H :   -0.073142
   8 H :    0.018595
   9 H :    0.026900
  10 H :   -0.014883
Sum of atomic charges:   -0.0000000

LOEWDIN ATOMIC CHARGES
----------------------
   0 C :   -0.144295
   1 H :    0.031695
   2 C :    0.066822
   3 C :    0.081697
   4 H :    0.032482
   5 H :   -0.019132
   6 H :   -0.016158
   7 H :   -0.012297
   8 H :   -0.004335
   9 H :   -0.005893
  10 H :   -0.010585

  Mayer bond orders larger than 0.100000
B(  0-C ,  1-H ) :   0.9693 B(  0-C ,  2-C ) :   1.2795 B(  0-C ,  3-C ) :   1.2682
B(  0-C ,  4-H ) :   0.9899 B(  0-C ,  5-H ) :   0.1381 B(  0-C ,  6-H ) :   0.1416
B(  0-C ,  7-H ) :   0.1465 B(  0-C ,  8-H ) :   0.1444 B(  0-C ,  9-H ) :   0.1278
B(  0-C , 10-H ) :   0.1423 B(  2-C ,  5-H ) :   0.8062 B(  2-C ,  6-H ) :   0.7865
B(  2-C ,  7-H ) :   0.8528 B(  3-C ,  8-H ) :   0.8720 B(  3-C ,  9-H ) :   0.8768
B(  3-C , 10-H ) :   0.8814 B(  5-H ,  6-H ) :   0.2540

FINAL SINGLE POINT ENERGY      -118.616520902249

DIPOLE MOMENT
-------------
                                X             Y             Z
Electronic contribution:     -0.01845      -0.30580       0.45606
Nuclear contribution   :      0.01737       0.30387      -0.47422
                        -----------------------------------------
Total Dipole Moment    :     -0.00108      -0.00193      -0.01816
                        -----------------------------------------
Magnitude (a.u.)       :      0.01829
Magnitude (Debye)      :      0.04649

Rotational constants in cm-1:     1.006891     0.295208     0.258491
Rotational constants in MHz : 30185.831813  8850.104914  7749.351732

                             ****ORCA TERMINATED NORMALLY****
TOTAL RUN TIME: 0 days 0 hours 0 minutes 12 seconds 76 msec
