                         Program Version 5.0.0 -  RELEASE  -
|  1> !LC-PBE RIJCOSX def2-SVPD def2/J TightSCF
|  2> *xyz 0 1
|  3> C         -0.10608        1.76991       -4.08984
|  4> C         -0.25875        1.00432       -5.40983
|  5> C          0.39596       -0.37070       -5.33994
|  6> H          0.23915        1.56939       -6.20125
|  7> H         -1.30936        0.88869       -5.68245
|  8> O         -0.32633       -1.39040       -5.49128
|  9> F          1.61941       -0.40073       -5.03683
| 10> H         -0.57627        2.72718       -4.17630
| 11> H          0.93321        1.90140       -3.87192
| 12> H         -0.56868        1.21534       -3.30031
| 13> *
| 14> %MaxCore 64000
| 15>
| 16> %pal nprocs 4
| 17> end
| 18>
| 19> %scf
| 20>   MaxIter 150
| 21> end
| 22>
| 23>
| 24>                          ****END OF INPUT****

CARTESIAN COORDINATES (ANGSTROEM)
---------------------------------
  C     -0.106080    1.769910   -4.089840
  C     -0.258750    1.004320   -5.409830
  C      0.395960   -0.370700   -5.339940
  H      0.239150    1.569390   -6.201250
  H     -1.309360    0.888690   -5.682450
  O     -0.326330   -1.390400   -5.491280
  F      1.619410   -0.400730   -5.036830
  H     -0.576270    2.727180   -4.176300
  H      0.933210    1.901400   -3.871920
  H     -0.568680    1.215340   -3.300310

 Total Charge           Charge          ....    0
 Multiplicity           Mult            ....    1
 Number of Electrons    NEL             ....   40
 Basis Dimension        Dim             ....  146

ORBITAL ENERGIES
----------------

  NO   OCC          E(Eh)            E(eV)
   0   2.0000     -24.581006      -668.8832
   1   2.0000     -19.004525      -517.1394
   2   2.0000     -10.319839      -280.8171
   3   2.0000     -10.165039      -276.6048
   4   2.0000     -10.140132      -275.9270
   5   2.0000      -1.465315       -39.8733
   6   2.0000      -1.191400       -32.4196
   7   2.0000      -0.982162       -26.7260
   8   2.0000      -0.848929       -23.1005
   9   2.0000      -0.802637       -21.8409
  10   2.0000      -0.711880       -19.3712
  11   2.0000      -0.697586       -18.9823
  12   2.0000      -0.652587       -17.7578
  13   2.0000      -0.614096       -16.7104
  14   2.0000      -0.580376       -15.7928
  15   2.0000      -0.546358       -14.8672
  16   2.0000      -0.524530       -14.2732
  17   2.0000      -0.512880       -13.9562
  18   2.0000      -0.490167       -13.3381
  19   2.0000      -0.430772       -11.7219
  20   0.0000       0.063384         1.7248
  21   0.0000       0.082028         2.2321
  22   0.0000       0.112658         3.0656
  23   0.0000       0.120882         3.2894
  24   0.0000       0.147285         4.0078

MULLIKEN ATOMIC CHARGES
-----------------------
   0 C :    0.308186
   1 C :   -0.467128
   2 C :    0.636888
   3 H :    0.132797
   4 H :    0.064820
   5 O :   -0.423121
   6 F :   -0.340559
   7 H :    0.036070
   8 H :    0.037361
   9 H :    0.014686
Sum of atomic charges:   -0.0000000

LOEWDIN ATOMIC CHARGES
----------------------
   0 C :    0.106537
   1 C :   -0.016604
   2 C :   -0.029504
   3 H :    0.047474
   4 H :    0.047656
   5 O :   -0.133235
   6 F :   -0.024802
   7 H :   -0.000192
   8 H :   -0.002277
   9 H :    0.004948

  Mayer bond orders larger than 0.100000
B(  0-C ,  1-C ) :   1.2758 B(  0-C ,  7-H ) :   0.8912 B(  0-C ,  8-H ) :   0.8645
B(  0-C ,  9-H ) :   0.9050 B(  1-C ,  2-C ) :   1.0639 B(  1-C ,  3-H ) :   0.8917
B(  1-C ,  4-H ) :   1.0071 B(  1-C ,  7-H ) :   0.1123 B(  1-C ,  8-H ) :   0.1268
B(  1-C ,  9-H ) :   0.1169 B(  2-C ,  5-O ) :   1.9026 B(  2-C ,  6-F ) :   0.8053

FINAL SINGLE POINT ENERGY      -291.380975542992

DIPOLE MOMENT
-------------
                                X             Y             Z
Electronic contribution:      4.07176      -6.44345      -1.81017
Nuclear contribution   :     -3.93139       7.77287       1.92635
                        -----------------------------------------
Total Dipole Moment    :      0.14038       1.32943       0.11618
                        -----------------------------------------
Magnitude (a.u.)       :      1.34186
Magnitude (Debye)      :      3.41073

Rotational constants in cm-1:     0.286068     0.133630     0.103472
Rotational constants in MHz :  8576.109806  4006.118234  3102.010802

                             ****ORCA TERMINATED NORMALLY****
TOTAL RUN TIME: 0 days 0 hours 0 minutes 20 seconds 546 msec
