                         Program Version 5.0.0 -  RELEASE  -
|  1> !LC-PBE RIJCOSX def2-SVPD def2/J TightSCF xyzfile
|  2>
|  3> *xyzfile 0 1 D1.xyz
|  4>
|  5> %MaxCore 64000
|  6>
|  7> %pal nprocs 4
|  8> end
|  9>
| 10> %scf
| 11>   MaxIter 150
| 12> end
| 13>
| 14>
| 15>                          ****END OF INPUT****

CARTESIAN COORDINATES (ANGSTROEM)
---------------------------------
  C      0.816067   -2.101491   -2.186546
  H      1.696232   -2.368691   -1.600457
  C      1.100552   -2.467492   -3.599269
  C      0.516243   -0.613634   -2.039373
  H     -0.020066   -2.712849   -1.840844
  C     -0.868621   -0.193925   -2.546303
  C     -0.984801    1.284739   -2.928686
  H     -0.764939    1.904116   -2.051568
  H     -2.032613    1.478953   -3.178952
  C     -0.106085    1.769914   -4.089836
  H     -0.347744    2.822196   -4.262942
  H      0.949683    1.745875   -3.808781
  C     -0.258747    1.004323   -5.409829
  C      0.395958   -0.370696   -5.339939
  H      0.239150    1.569393   -6.201253
  H     -1.309360    0.888694   -5.682455
  H      1.700606   -1.757225   -4.078378
  H      0.293855   -2.359766   -4.256324
  H      1.501324   -3.428479   -3.694915
  F     -0.326329   -1.390398   -5.491279
  O      1.619412   -0.400726   -5.036827
  H     -1.607271   -0.412651   -1.768955
  H     -1.157234   -0.796164   -3.409254
  H      1.299044   -0.056805   -2.558982
  H      0.612393   -0.365579   -0.979171

 Total Charge           Charge          ....    0
 Multiplicity           Mult            ....    1
 Number of Electrons    NEL             ....   80
 Basis Dimension        Dim             ....  326

ORBITAL ENERGIES
----------------

  NO   OCC          E(Eh)            E(eV)
   0   2.0000     -24.591270      -669.1625
   1   2.0000     -19.010859      -517.3118
   2   2.0000     -10.329270      -281.0737
   3   2.0000     -10.165398      -276.6145
   4   2.0000     -10.144389      -276.0429
   5   2.0000     -10.131856      -275.7018
   6   2.0000     -10.124222      -275.4941
   7   2.0000     -10.109874      -275.1037
   8   2.0000     -10.100202      -274.8405
   9   2.0000     -10.050423      -273.4859
  10   2.0000      -1.479864       -40.2692
  11   2.0000      -1.206077       -32.8190
  12   2.0000      -1.004263       -27.3274
  13   2.0000      -0.969182       -26.3728
  14   2.0000      -0.915317       -24.9070
  15   2.0000      -0.873210       -23.7612
  16   2.0000      -0.825768       -22.4703
  17   2.0000      -0.800117       -21.7723
  18   2.0000      -0.760778       -20.7018
  19   2.0000      -0.721091       -19.6219
  20   2.0000      -0.710004       -19.3202
  21   2.0000      -0.697242       -18.9729
  22   2.0000      -0.678749       -18.4697
  23   2.0000      -0.628729       -17.1086
  24   2.0000      -0.605988       -16.4898
  25   2.0000      -0.589711       -16.0469
  26   2.0000      -0.583539       -15.8789
  27   2.0000      -0.569552       -15.4983
  28   2.0000      -0.554014       -15.0755
  29   2.0000      -0.540904       -14.7187
  30   2.0000      -0.521705       -14.1963
  31   2.0000      -0.502884       -13.6842
  32   2.0000      -0.499736       -13.5985
  33   2.0000      -0.482157       -13.1202
  34   2.0000      -0.467197       -12.7131
  35   2.0000      -0.457060       -12.4372
  36   2.0000      -0.446966       -12.1626
  37   2.0000      -0.433241       -11.7891
  38   2.0000      -0.423837       -11.5332
  39   2.0000      -0.393079       -10.6962
  40   0.0000       0.049098         1.3360
  41   0.0000       0.082817         2.2536
  42   0.0000       0.103411         2.8140
  43   0.0000       0.107770         2.9326
  44   0.0000       0.110100         2.9960

MULLIKEN ATOMIC CHARGES
-----------------------
   0 C :   -0.004202
   1 H :   -0.003851
   2 C :    1.099299
   3 C :    0.047274
   4 H :   -0.092874
   5 C :    0.053493
   6 C :    0.159762
   7 H :    0.021905
   8 H :    0.121221
   9 C :   -0.077697
  10 H :   -0.092064
  11 H :    0.151734
  12 C :    0.056089
  13 C :    0.361367
  14 H :    0.119843
  15 H :    0.055717
  16 H :   -0.237716
  17 H :   -0.307980
  18 H :   -0.180734
  19 F :   -0.382708
  20 O :   -0.464105
  21 H :   -0.028727
  22 H :   -0.241328
  23 H :    0.029050
  24 H :   -0.162768
Sum of atomic charges:    0.0000000

LOEWDIN ATOMIC CHARGES
----------------------
   0 C :   -0.070918
   1 H :    0.033493
   2 C :    0.096693
   3 C :   -0.043114
   4 H :    0.033611
   5 C :   -0.037207
   6 C :   -0.047800
   7 H :    0.038953
   8 H :    0.033106
   9 C :   -0.036178
  10 H :    0.036934
  11 H :    0.029489
  12 C :    0.042602
  13 C :    0.015210
  14 H :    0.055330
  15 H :    0.043892
  16 H :   -0.093883
  17 H :   -0.069146
  18 H :   -0.001897
  19 F :   -0.033962
  20 O :   -0.119790
  21 H :    0.038867
  22 H :    0.008507
  23 H :    0.016459
  24 H :    0.030751

  Mayer bond orders larger than 0.100000
B(  0-C ,  1-H ) :   0.8546 B(  0-C ,  2-C ) :   1.0764 B(  0-C ,  3-C ) :   1.1960
B(  0-C ,  4-H ) :   0.8733 B(  0-C , 16-H ) :   0.2490 B(  0-C , 17-H ) :   0.1851
B(  0-C , 18-H ) :   0.1408 B(  0-C , 23-H ) :   0.1398 B(  1-H ,  3-C ) :   0.1390
B(  2-C ,  3-C ) :   0.1140 B(  2-C ,  4-H ) :   0.1307 B(  2-C , 16-H ) :   0.5453
B(  2-C , 17-H ) :   0.3893 B(  2-C , 18-H ) :   0.7523 B(  2-C , 23-H ) :  -0.1320
B(  3-C ,  5-C ) :   1.1673 B(  3-C , 21-H ) :   0.2118 B(  3-C , 23-H ) :   0.8621
B(  3-C , 24-H ) :   0.9524 B(  5-C ,  6-C ) :   1.2382 B(  5-C ,  7-H ) :   0.1425
B(  5-C ,  8-H ) :   0.1793 B(  5-C , 21-H ) :   0.8408 B(  5-C , 22-H ) :   0.9150
B(  5-C , 24-H ) :   0.1773 B(  6-C ,  7-H ) :   0.8643 B(  6-C ,  8-H ) :   0.7273
B(  6-C ,  9-C ) :   1.2384 B(  6-C , 10-H ) :   0.1289 B(  7-H ,  9-C ) :   0.1210
B(  8-H ,  9-C ) :   0.1216 B(  9-C , 10-H ) :   0.9389 B(  9-C , 11-H ) :   0.8367
B(  9-C , 12-C ) :   1.2306 B(  9-C , 14-H ) :   0.1348 B(  9-C , 15-H ) :   0.1013
B( 10-H , 12-C ) :   0.1019 B( 12-C , 13-C ) :   1.2610 B( 12-C , 14-H ) :   0.7504
B( 12-C , 15-H ) :   0.9029 B( 13-C , 14-H ) :   0.1618 B( 13-C , 15-H ) :   0.1381
B( 13-C , 16-H ) :   0.1007 B( 13-C , 17-H ) :   0.1131 B( 13-C , 19-F ) :   0.7607
B( 13-C , 20-O ) :   1.8110 B( 16-H , 17-H ) :   0.3511 B( 16-H , 20-O ) :   0.1835
B( 16-H , 23-H ) :   0.1809 B( 16-H , 24-H ) :  -0.1255 B( 17-H , 19-F ) :   0.1954
B( 18-H , 23-H ) :  -0.1033

FINAL SINGLE POINT ENERGY      -487.074892126197

DIPOLE MOMENT
-------------
                                X             Y             Z
Electronic contribution:      0.29837      -1.94108     -10.58009
Nuclear contribution   :     -1.21560       2.80077      10.24180
                        -----------------------------------------
Total Dipole Moment    :     -0.91724       0.85969      -0.33829
                        -----------------------------------------
Magnitude (a.u.)       :      1.30185
Magnitude (Debye)      :      3.30905

Rotational constants in cm-1:     0.051255     0.042531     0.028894
Rotational constants in MHz :  1536.587743  1275.050721   866.218876

                             ****ORCA TERMINATED NORMALLY****
TOTAL RUN TIME: 0 days 0 hours 1 minutes 59 seconds 372 msec
