                         Program Version 5.0.0 -  RELEASE  -
|  1> !wB97X-D3 RIJCOSX def2-TZVP def2/J TightSCF
|  2> *xyz -1 1
|  3> C          1.44442        5.26658       -0.97546
|  4> O          1.56525        4.23349       -1.86489
|  5> C          0.14812        5.21087       -0.13809
|  6> H          1.47425        6.26464       -1.47692
|  7> H          2.28962        5.30327       -0.26445
|  8> H         -0.69779        5.17417       -0.79230
|  9> H          0.08430        6.08276        0.47887
| 10> H          0.15965        4.33708        0.47938
| 11> *
| 12> %MaxCore 64000
| 13>
| 14> %pal nprocs 4
| 15> end
| 16>
| 17> %scf
| 18>   MaxIter 150
| 19> end
| 20>
| 21>
| 22>                          ****END OF INPUT****

CARTESIAN COORDINATES (ANGSTROEM)
---------------------------------
  C      1.444420    5.266580   -0.975460
  O      1.565250    4.233490   -1.864890
  C      0.148120    5.210870   -0.138090
  H      1.474250    6.264640   -1.476920
  H      2.289620    5.303270   -0.264450
  H     -0.697790    5.174170   -0.792300
  H      0.084300    6.082760    0.478870
  H      0.159650    4.337080    0.479380

 Total Charge           Charge          ....   -1
 Multiplicity           Mult            ....    1
 Number of Electrons    NEL             ....   26
 Basis Dimension        Dim             ....  123

ORBITAL ENERGIES
----------------

  NO   OCC          E(Eh)            E(eV)
   0   2.0000     -18.869721      -513.4712
   1   2.0000     -10.078458      -274.2488
   2   2.0000     -10.058115      -273.6952
   3   2.0000      -0.777182       -21.1482
   4   2.0000      -0.632745       -17.2179
   5   2.0000      -0.472786       -12.8652
   6   2.0000      -0.343060        -9.3351
   7   2.0000      -0.320495        -8.7211
   8   2.0000      -0.260734        -7.0949
   9   2.0000      -0.243507        -6.6262
  10   2.0000      -0.192689        -5.2433
  11   2.0000      -0.045015        -1.2249
  12   2.0000      -0.042335        -1.1520
  13   0.0000       0.294205         8.0057
  14   0.0000       0.330755         9.0003
  15   0.0000       0.356741         9.7074
  16   0.0000       0.361993         9.8503
  17   0.0000       0.393192        10.6993

MULLIKEN ATOMIC CHARGES
-----------------------
   0 C :    0.088968
   1 O :   -0.804353
   2 C :   -0.177720
   3 H :   -0.080731
   4 H :   -0.076042
   5 H :    0.034036
   6 H :   -0.017959
   7 H :    0.033801
Sum of atomic charges:   -1.0000000

LOEWDIN ATOMIC CHARGES
----------------------
   0 C :   -0.549923
   1 O :   -0.443297
   2 C :   -0.360807
   3 H :    0.050477
   4 H :    0.052606
   5 H :    0.088075
   6 H :    0.075360
   7 H :    0.087508

  Mayer bond orders larger than 0.100000
B(  0-C ,  1-O ) :   1.5851 B(  0-C ,  2-C ) :   0.9039 B(  0-C ,  3-H ) :   0.9283
B(  0-C ,  4-H ) :   0.9278 B(  1-O ,  2-C ) :  -0.1805 B(  2-C ,  5-H ) :   0.9737
B(  2-C ,  6-H ) :   0.9452 B(  2-C ,  7-H ) :   0.9769

Dispersion correction           -0.000864061
FINAL SINGLE POINT ENERGY      -154.431573218228

DIPOLE MOMENT
-------------
                                X             Y             Z
Electronic contribution:      1.16453      -1.71345      -2.10837
Nuclear contribution   :     -1.83256       2.47114       3.17273
                        -----------------------------------------
Total Dipole Moment    :     -0.66803       0.75769       1.06436
                        -----------------------------------------
Magnitude (a.u.)       :      1.46739
Magnitude (Debye)      :      3.72980

Rotational constants in cm-1:     1.286062     0.322579     0.284728
Rotational constants in MHz : 38555.180127  9670.683110  8535.939140

                             ****ORCA TERMINATED NORMALLY****
TOTAL RUN TIME: 0 days 0 hours 0 minutes 13 seconds 946 msec
