                         Program Version 5.0.0 -  RELEASE  -
|  1> !wB97X-D3 RIJCOSX def2-TZVP def2/J TightSCF
|  2> *xyz 1 1
|  3> C         -0.70169        4.07250       -4.00392
|  4> N          0.68053        4.61482       -4.04800
|  5> H          0.69993        5.58489       -4.38827
|  6> H          1.27804        4.05598       -4.66824
|  7> H          1.08573        4.53358       -3.10652
|  8> C         -1.70347        5.09320       -3.47740
|  9> H         -0.99590        3.74039       -5.00065
| 10> H         -0.64358        3.20191       -3.35153
| 11> H         -1.73704        5.93384       -4.13853
| 12> H         -1.40338        5.41759       -2.50291
| 13> H         -2.67335        4.64479       -3.42108
| 14> *
| 15> %MaxCore 64000
| 16>
| 17> %pal nprocs 4
| 18> end
| 19>
| 20> %scf
| 21>   MaxIter 150
| 22> end
| 23>
| 24>
| 25>                          ****END OF INPUT****

CARTESIAN COORDINATES (ANGSTROEM)
---------------------------------
  C     -0.701690    4.072500   -4.003920
  N      0.680530    4.614820   -4.048000
  H      0.699930    5.584890   -4.388270
  H      1.278040    4.055980   -4.668240
  H      1.085730    4.533580   -3.106520
  C     -1.703470    5.093200   -3.477400
  H     -0.995900    3.740390   -5.000650
  H     -0.643580    3.201910   -3.351530
  H     -1.737040    5.933840   -4.138530
  H     -1.403380    5.417590   -2.502910
  H     -2.673350    4.644790   -3.421080

 Total Charge           Charge          ....    1
 Multiplicity           Mult            ....    1
 Number of Electrons    NEL             ....   26
 Basis Dimension        Dim             ....  141

ORBITAL ENERGIES
----------------

  NO   OCC          E(Eh)            E(eV)
   0   2.0000     -14.758691      -401.6044
   1   2.0000     -10.528603      -286.4979
   2   2.0000     -10.447655      -284.2952
   3   2.0000      -1.334883       -36.3240
   4   2.0000      -1.080884       -29.4123
   5   2.0000      -0.955240       -25.9934
   6   2.0000      -0.907757       -24.7013
   7   2.0000      -0.889380       -24.2013
   8   2.0000      -0.796191       -21.6655
   9   2.0000      -0.742524       -20.2051
  10   2.0000      -0.679268       -18.4838
  11   2.0000      -0.662822       -18.0363
  12   2.0000      -0.645779       -17.5725
  13   0.0000      -0.108835        -2.9616
  14   0.0000      -0.049487        -1.3466
  15   0.0000      -0.043280        -1.1777
  16   0.0000      -0.026190        -0.7127
  17   0.0000       0.011072         0.3013

MULLIKEN ATOMIC CHARGES
-----------------------
   0 C :   -0.206447
   1 N :   -0.308776
   2 H :    0.335878
   3 H :    0.341104
   4 H :    0.341249
   5 C :   -0.366985
   6 H :    0.192057
   7 H :    0.187674
   8 H :    0.153488
   9 H :    0.146812
  10 H :    0.183946
Sum of atomic charges:    1.0000000

LOEWDIN ATOMIC CHARGES
----------------------
   0 C :   -0.279295
   1 N :    0.169689
   2 H :    0.223703
   3 H :    0.224302
   4 H :    0.227568
   5 C :   -0.276180
   6 H :    0.152746
   7 H :    0.151356
   8 H :    0.129875
   9 H :    0.129157
  10 H :    0.147078

  Mayer bond orders larger than 0.100000
B(  0-C ,  1-N ) :   0.8697 B(  0-C ,  5-C ) :   1.0010 B(  0-C ,  6-H ) :   0.9531
B(  0-C ,  7-H ) :   0.9558 B(  1-N ,  2-H ) :   0.8688 B(  1-N ,  3-H ) :   0.8739
B(  1-N ,  4-H ) :   0.8732 B(  5-C ,  8-H ) :   0.9612 B(  5-C ,  9-H ) :   0.9601
B(  5-C , 10-H ) :   0.9588

Dispersion correction           -0.001512076
FINAL SINGLE POINT ENERGY      -135.549749405039

DIPOLE MOMENT
-------------
                                X             Y             Z
Electronic contribution:      1.78860      -0.33033      -0.46054
Nuclear contribution   :     -0.23930       0.27560       0.19485
                        -----------------------------------------
Total Dipole Moment    :      1.54930      -0.05473      -0.26569
                        -----------------------------------------
Magnitude (a.u.)       :      1.57287
Magnitude (Debye)      :      3.99792

Rotational constants in cm-1:     1.018556     0.279088     0.248454
Rotational constants in MHz : 30535.536069  8366.847891  7448.451392

                             ****ORCA TERMINATED NORMALLY****
TOTAL RUN TIME: 0 days 0 hours 0 minutes 16 seconds 493 msec
