                         Program Version 5.0.0 -  RELEASE  -
|  1> !wB97X-D3 RIJCOSX def2-TZVP def2/J TightSCF
|  2> *xyz 0 1
|  3> C          1.44442        5.26658       -0.97546
|  4> F          1.56525        4.23349       -1.86489
|  5> C          0.14812        5.21087       -0.13809
|  6> H          1.47425        6.26464       -1.47692
|  7> H          2.28962        5.30327       -0.26445
|  8> H         -0.69779        5.17417       -0.79230
|  9> H          0.08430        6.08276        0.47887
| 10> H          0.15965        4.33708        0.47938
| 11> *
| 12> %MaxCore 64000
| 13>
| 14> %pal nprocs 4
| 15> end
| 16>
| 17> %scf
| 18>   MaxIter 150
| 19> end
| 20>
| 21>
| 22>                          ****END OF INPUT****

CARTESIAN COORDINATES (ANGSTROEM)
---------------------------------
  C      1.444420    5.266580   -0.975460
  F      1.565250    4.233490   -1.864890
  C      0.148120    5.210870   -0.138090
  H      1.474250    6.264640   -1.476920
  H      2.289620    5.303270   -0.264450
  H     -0.697790    5.174170   -0.792300
  H      0.084300    6.082760    0.478870
  H      0.159650    4.337080    0.479380

 Total Charge           Charge          ....    0
 Multiplicity           Mult            ....    1
 Number of Electrons    NEL             ....   26
 Basis Dimension        Dim             ....  123

ORBITAL ENERGIES
----------------

  NO   OCC          E(Eh)            E(eV)
   0   2.0000     -24.769224      -674.0048
   1   2.0000     -10.353811      -281.7415
   2   2.0000     -10.268818      -279.4287
   3   2.0000      -1.312823       -35.7237
   4   2.0000      -0.879188       -23.9239
   5   2.0000      -0.742742       -20.2110
   6   2.0000      -0.609190       -16.5769
   7   2.0000      -0.597020       -16.2457
   8   2.0000      -0.558549       -15.1989
   9   2.0000      -0.504289       -13.7224
  10   2.0000      -0.498339       -13.5605
  11   2.0000      -0.430490       -11.7142
  12   2.0000      -0.424256       -11.5446
  13   0.0000       0.124054         3.3757
  14   0.0000       0.162614         4.4250
  15   0.0000       0.182409         4.9636
  16   0.0000       0.186635         5.0786
  17   0.0000       0.196958         5.3595

MULLIKEN ATOMIC CHARGES
-----------------------
   0 C :    0.044911
   1 F :   -0.236220
   2 C :   -0.328375
   3 H :    0.086857
   4 H :    0.086971
   5 H :    0.118223
   6 H :    0.110702
   7 H :    0.116930
Sum of atomic charges:   -0.0000000

LOEWDIN ATOMIC CHARGES
----------------------
   0 C :   -0.367154
   1 F :    0.092675
   2 C :   -0.307833
   3 H :    0.116393
   4 H :    0.114626
   5 H :    0.116109
   6 H :    0.120048
   7 H :    0.115137

  Mayer bond orders larger than 0.100000
B(  0-C ,  1-F ) :   0.9934 B(  0-C ,  2-C ) :   0.9940 B(  0-C ,  3-H ) :   0.9728
B(  0-C ,  4-H ) :   0.9722 B(  2-C ,  5-H ) :   0.9724 B(  2-C ,  6-H ) :   0.9621
B(  2-C ,  7-H ) :   0.9736

Dispersion correction           -0.000873893
FINAL SINGLE POINT ENERGY      -179.085422797817

DIPOLE MOMENT
-------------
                                X             Y             Z
Electronic contribution:      2.30409      -2.75234      -3.70959
Nuclear contribution   :     -2.43357       3.25919       4.19687
                        -----------------------------------------
Total Dipole Moment    :     -0.12948       0.50686       0.48728
                        -----------------------------------------
Magnitude (a.u.)       :      0.71492
Magnitude (Debye)      :      1.81719

Rotational constants in cm-1:     1.264662     0.300144     0.266170
Rotational constants in MHz : 37913.611527  8998.095216  7979.576054

                             ****ORCA TERMINATED NORMALLY****
TOTAL RUN TIME: 0 days 0 hours 0 minutes 11 seconds 997 msec
