                         Program Version 5.0.0 -  RELEASE  -
|  1> !wB97X-D3 RIJCOSX def2-TZVP def2/J TightSCF
|  2> *xyz 0 1
|  3> C         -0.70169        4.07250       -4.00392
|  4> C          0.68053        4.61482       -4.04800
|  5> H          0.69993        5.58489       -4.38827
|  6> H          1.27804        4.05598       -4.66824
|  7> H          1.08573        4.53358       -3.10652
|  8> C         -1.70347        5.09320       -3.47740
|  9> H         -0.99590        3.74039       -5.00065
| 10> H         -0.64358        3.20191       -3.35153
| 11> H         -1.73704        5.93384       -4.13853
| 12> H         -1.40338        5.41759       -2.50291
| 13> H         -2.67335        4.64479       -3.42108
| 14> *
| 15> %MaxCore 64000
| 16>
| 17> %pal nprocs 4
| 18> end
| 19>
| 20> %scf
| 21>   MaxIter 150
| 22> end
| 23>
| 24>
| 25>                          ****END OF INPUT****

CARTESIAN COORDINATES (ANGSTROEM)
---------------------------------
  C     -0.701690    4.072500   -4.003920
  C      0.680530    4.614820   -4.048000
  H      0.699930    5.584890   -4.388270
  H      1.278040    4.055980   -4.668240
  H      1.085730    4.533580   -3.106520
  C     -1.703470    5.093200   -3.477400
  H     -0.995900    3.740390   -5.000650
  H     -0.643580    3.201910   -3.351530
  H     -1.737040    5.933840   -4.138530
  H     -1.403380    5.417590   -2.502910
  H     -2.673350    4.644790   -3.421080

 Total Charge           Charge          ....    0
 Multiplicity           Mult            ....    1
 Number of Electrons    NEL             ....   26
 Basis Dimension        Dim             ....  141

ORBITAL ENERGIES
----------------

  NO   OCC          E(Eh)            E(eV)
   0   2.0000     -10.259457      -279.1740
   1   2.0000     -10.250352      -278.9263
   2   2.0000     -10.231142      -278.4035
   3   2.0000      -0.908715       -24.7274
   4   2.0000      -0.804268       -21.8853
   5   2.0000      -0.694226       -18.8908
   6   2.0000      -0.571870       -15.5614
   7   2.0000      -0.545672       -14.8485
   8   2.0000      -0.499775       -13.5996
   9   2.0000      -0.488644       -13.2967
  10   2.0000      -0.429933       -11.6991
  11   2.0000      -0.427027       -11.6200
  12   2.0000      -0.418938       -11.3999
  13   0.0000       0.121915         3.3175
  14   0.0000       0.164978         4.4893
  15   0.0000       0.172039         4.6814
  16   0.0000       0.177028         4.8172
  17   0.0000       0.196612         5.3501

MULLIKEN ATOMIC CHARGES
-----------------------
   0 C :   -0.149396
   1 C :   -0.320217
   2 H :    0.098970
   3 H :    0.108862
   4 H :    0.106225
   5 C :   -0.331264
   6 H :    0.084362
   7 H :    0.082094
   8 H :    0.106397
   9 H :    0.103427
  10 H :    0.110541
Sum of atomic charges:   -0.0000000

LOEWDIN ATOMIC CHARGES
----------------------
   0 C :   -0.321752
   1 C :   -0.302784
   2 H :    0.107373
   3 H :    0.108230
   4 H :    0.110478
   5 C :   -0.304133
   6 H :    0.128594
   7 H :    0.131709
   8 H :    0.114057
   9 H :    0.114643
  10 H :    0.113584

  Mayer bond orders larger than 0.100000
B(  0-C ,  1-C ) :   0.9689 B(  0-C ,  5-C ) :   0.9816 B(  0-C ,  6-H ) :   0.9781
B(  0-C ,  7-H ) :   0.9782 B(  1-C ,  2-H ) :   0.9814 B(  1-C ,  3-H ) :   0.9857
B(  1-C ,  4-H ) :   0.9830 B(  5-C ,  8-H ) :   0.9801 B(  5-C ,  9-H ) :   0.9778
B(  5-C , 10-H ) :   0.9825

Dispersion correction           -0.001459471
FINAL SINGLE POINT ENERGY      -119.138507665197

DIPOLE MOMENT
-------------
                                X             Y             Z
Electronic contribution:     -0.13512      -0.31114      -0.13840
Nuclear contribution   :      0.16058       0.27975       0.12812
                        -----------------------------------------
Total Dipole Moment    :      0.02546      -0.03139      -0.01028
                        -----------------------------------------
Magnitude (a.u.)       :      0.04170
Magnitude (Debye)      :      0.10600

Rotational constants in cm-1:     1.027122     0.293327     0.260229
Rotational constants in MHz : 30792.337141  8793.723318  7801.458329

                             ****ORCA TERMINATED NORMALLY****
TOTAL RUN TIME: 0 days 0 hours 0 minutes 16 seconds 649 msec
