                         Program Version 5.0.0 -  RELEASE  -
|  1> !CAM-B3LYP RIJCOSX def2-TZVPD def2/J TightSCF
|  2> *xyz -1 1
|  3> C         -0.72184       -0.99951       -3.43931
|  4> C          0.28725       -1.71177       -2.52740
|  5> H          1.13178       -2.06738       -3.15940
|  6> H         -0.20414       -2.63733       -2.17048
|  7> O          0.71050       -0.92751       -1.48177
|  8> H         -1.01315       -1.65739       -4.23129
|  9> H         -0.27123       -0.12142       -3.85259
| 10> H         -1.58442       -0.72333       -2.86958
| 11> *
| 12> %MaxCore 64000
| 13>
| 14> %pal nprocs 4
| 15> end
| 16>
| 17> %scf
| 18>   MaxIter 150
| 19> end
| 20>
| 21>
| 22>                          ****END OF INPUT****

CARTESIAN COORDINATES (ANGSTROEM)
---------------------------------
  C     -0.721840   -0.999510   -3.439310
  C      0.287250   -1.711770   -2.527400
  H      1.131780   -2.067380   -3.159400
  H     -0.204140   -2.637330   -2.170480
  O      0.710500   -0.927510   -1.481770
  H     -1.013150   -1.657390   -4.231290
  H     -0.271230   -0.121420   -3.852590
  H     -1.584420   -0.723330   -2.869580

 Total Charge           Charge          ....   -1
 Multiplicity           Mult            ....    1
 Number of Electrons    NEL             ....   26
 Basis Dimension        Dim             ....  159

ORBITAL ENERGIES
----------------

  NO   OCC          E(Eh)            E(eV)
   0   2.0000     -18.864712      -513.3349
   1   2.0000     -10.057570      -273.6804
   2   2.0000     -10.033833      -273.0345
   3   2.0000      -0.759391       -20.6641
   4   2.0000      -0.608214       -16.5503
   5   2.0000      -0.449923       -12.2430
   6   2.0000      -0.321825        -8.7573
   7   2.0000      -0.298065        -8.1107
   8   2.0000      -0.241144        -6.5619
   9   2.0000      -0.223522        -6.0823
  10   2.0000      -0.177514        -4.8304
  11   2.0000      -0.033411        -0.9092
  12   2.0000      -0.031407        -0.8546
  13   0.0000       0.179115         4.8740
  14   0.0000       0.201874         5.4933
  15   0.0000       0.230335         6.2677
  16   0.0000       0.232278         6.3206
  17   0.0000       0.254295         6.9197

MULLIKEN ATOMIC CHARGES
-----------------------
   0 C :   -0.941856
   1 C :   -0.308153
   2 H :    0.198765
   3 H :    0.192700
   4 O :   -0.934658
   5 H :    0.324314
   6 H :    0.235529
   7 H :    0.233359
Sum of atomic charges:   -1.0000000

LOEWDIN ATOMIC CHARGES
----------------------
   0 C :   -0.172316
   1 C :   -0.621234
   2 H :    0.058692
   3 H :    0.055665
   4 O :   -0.429083
   5 H :    0.028446
   6 H :    0.039658
   7 H :    0.040172

  Mayer bond orders larger than 0.100000
B(  0-C ,  1-C ) :   0.7276 B(  0-C ,  4-O ) :   0.2726 B(  0-C ,  5-H ) :   0.9527
B(  0-C ,  6-H ) :   1.0007 B(  0-C ,  7-H ) :   1.0025 B(  1-C ,  2-H ) :   1.0440
B(  1-C ,  3-H ) :   1.0547 B(  1-C ,  4-O ) :   0.9479

FINAL SINGLE POINT ENERGY      -154.416184562739

DIPOLE MOMENT
-------------
                                X             Y             Z
Electronic contribution:      1.43125       0.66604       2.29866
Nuclear contribution   :     -2.24828      -1.06600      -3.62481
                        -----------------------------------------
Total Dipole Moment    :     -0.81703      -0.39996      -1.32615
                        -----------------------------------------
Magnitude (a.u.)       :      1.60816
Magnitude (Debye)      :      4.08761

Rotational constants in cm-1:     1.278116     0.325414     0.286672
Rotational constants in MHz : 38316.964654  9755.653004  8594.216906

                             ****ORCA TERMINATED NORMALLY****
TOTAL RUN TIME: 0 days 0 hours 0 minutes 22 seconds 675 msec
