                         Program Version 5.0.0 -  RELEASE  -
|  1> !CAM-B3LYP RIJCOSX def2-TZVPD def2/J TightSCF
|  2> *xyz 1 1
|  3> C          3.48828        1.60092       -1.52204
|  4> C          4.34297        1.31342       -2.75683
|  5> N          2.81029        0.42878       -1.01420
|  6> H          2.71455        2.33145       -1.76030
|  7> H          4.09099        2.06315       -0.73338
|  8> C          3.29098       -0.41802       -0.12908
|  9> N          2.51754       -1.43202        0.23936
| 10> N          4.53549       -0.28441        0.39580
| 11> H          5.04363        0.57189        0.22290
| 12> H          4.72335       -0.73327        1.28180
| 13> H          1.93479        0.10230       -1.40379
| 14> H          1.67464       -1.50562       -0.31610
| 15> H          2.92850       -2.21850        0.72549
| 16> H          3.73575        0.86277       -3.51385
| 17> H          5.13754        0.64699       -2.49333
| 18> H          4.75374        2.22930       -3.12740
| 19> *
| 20> %MaxCore 64000
| 21>
| 22> %pal nprocs 4
| 23> end
| 24>
| 25> %scf
| 26>   MaxIter 150
| 27> end
| 28>
| 29>
| 30>                          ****END OF INPUT****

CARTESIAN COORDINATES (ANGSTROEM)
---------------------------------
  C      3.488280    1.600920   -1.522040
  C      4.342970    1.313420   -2.756830
  N      2.810290    0.428780   -1.014200
  H      2.714550    2.331450   -1.760300
  H      4.090990    2.063150   -0.733380
  C      3.290980   -0.418020   -0.129080
  N      2.517540   -1.432020    0.239360
  N      4.535490   -0.284410    0.395800
  H      5.043630    0.571890    0.222900
  H      4.723350   -0.733270    1.281800
  H      1.934790    0.102300   -1.403790
  H      1.674640   -1.505620   -0.316100
  H      2.928500   -2.218500    0.725490
  H      3.735750    0.862770   -3.513850
  H      5.137540    0.646990   -2.493330
  H      4.753740    2.229300   -3.127400

 Total Charge           Charge          ....    1
 Multiplicity           Mult            ....    1
 Number of Electrons    NEL             ....   48
 Basis Dimension        Dim             ....  312

ORBITAL ENERGIES
----------------

  NO   OCC          E(Eh)            E(eV)
   0   2.0000     -14.618601      -397.7923
   1   2.0000     -14.613507      -397.6537
   2   2.0000     -14.611533      -397.6000
   3   2.0000     -10.583007      -287.9783
   4   2.0000     -10.454440      -284.4798
   5   2.0000     -10.378479      -282.4128
   6   2.0000      -1.305643       -35.5284
   7   2.0000      -1.191066       -32.4106
   8   2.0000      -1.177035       -32.0287
   9   2.0000      -1.016246       -27.6535
  10   2.0000      -0.916555       -24.9407
  11   2.0000      -0.885122       -24.0854
  12   2.0000      -0.854515       -23.2525
  13   2.0000      -0.821421       -22.3520
  14   2.0000      -0.762848       -20.7582
  15   2.0000      -0.753033       -20.4911
  16   2.0000      -0.724596       -19.7173
  17   2.0000      -0.712798       -19.3962
  18   2.0000      -0.673459       -18.3257
  19   2.0000      -0.630352       -17.1528
  20   2.0000      -0.600878       -16.3507
  21   2.0000      -0.580525       -15.7969
  22   2.0000      -0.545559       -14.8454
  23   2.0000      -0.516525       -14.0554
  24   0.0000      -0.134065        -3.6481
  25   0.0000      -0.125131        -3.4050
  26   0.0000      -0.101436        -2.7602
  27   0.0000      -0.089884        -2.4459
  28   0.0000      -0.062145        -1.6911

MULLIKEN ATOMIC CHARGES
-----------------------
   0 C :   -0.597913
   1 C :   -1.019583
   2 N :   -0.095791
   3 H :    0.316619
   4 H :    0.373531
   5 C :    0.613673
   6 N :   -0.305896
   7 N :   -0.341737
   8 H :    0.215548
   9 H :    0.227106
  10 H :    0.165697
  11 H :    0.201996
  12 H :    0.227605
  13 H :    0.328611
  14 H :    0.332005
  15 H :    0.358528
Sum of atomic charges:    1.0000000

LOEWDIN ATOMIC CHARGES
----------------------
   0 C :   -0.206785
   1 C :   -0.057582
   2 N :    0.084739
   3 H :    0.132588
   4 H :    0.122175
   5 C :   -0.428795
   6 N :    0.205211
   7 N :    0.214442
   8 H :    0.116515
   9 H :    0.135511
  10 H :    0.168758
  11 H :    0.136118
  12 H :    0.143630
  13 H :    0.078728
  14 H :    0.071455
  15 H :    0.083295

  Mayer bond orders larger than 0.100000
B(  0-C ,  1-C ) :   0.6367 B(  0-C ,  2-N ) :   0.8264 B(  0-C ,  3-H ) :   0.9530
B(  0-C ,  4-H ) :   0.8559 B(  1-C , 13-H ) :   0.9633 B(  1-C , 14-H ) :   0.9415
B(  1-C , 15-H ) :   0.9529 B(  2-N ,  5-C ) :   1.2477 B(  2-N , 10-H ) :   1.0239
B(  5-C ,  6-N ) :   1.1516 B(  5-C ,  7-N ) :   1.1630 B(  6-N , 11-H ) :   0.9630
B(  6-N , 12-H ) :   0.9589 B(  7-N ,  8-H ) :   0.9287 B(  7-N ,  9-H ) :   0.9724

FINAL SINGLE POINT ENERGY      -284.361138898976

DIPOLE MOMENT
-------------
                                X             Y             Z
Electronic contribution:     -1.92474      -2.99775       3.73232
Nuclear contribution   :      1.59382       2.33278      -3.02574
                        -----------------------------------------
Total Dipole Moment    :     -0.33092      -0.66497       0.70658
                        -----------------------------------------
Magnitude (a.u.)       :      1.02516
Magnitude (Debye)      :      2.60575

Rotational constants in cm-1:     0.232230     0.073139     0.063030
Rotational constants in MHz :  6962.079716  2192.649203  1889.578947

                             ****ORCA TERMINATED NORMALLY****
TOTAL RUN TIME: 0 days 0 hours 1 minutes 24 seconds 376 msec
