                         Program Version 5.0.0 -  RELEASE  -
|  1> !CAM-B3LYP RIJCOSX def2-TZVPD def2/J TightSCF xyzfile
|  2>
|  3> *xyzfile 0 1 B.xyz
|  4>
|  5> %MaxCore 64000
|  6>
|  7> %pal nprocs 4
|  8> end
|  9>
| 10> %scf
| 11>   MaxIter 150
| 12> end
| 13>
| 14>
| 15>                          ****END OF INPUT****

CARTESIAN COORDINATES (ANGSTROEM)
---------------------------------
  C      3.488276    1.600919   -1.522040
  C      4.342970    1.313419   -2.756826
  N      2.810285    0.428783   -1.014196
  H      5.132033    0.604994   -2.484466
  C      3.535896    0.749253   -3.924604
  H      4.841247    2.242136   -3.054083
  H      2.991617   -0.132199   -3.574137
  H      4.225505    0.392784   -4.695962
  C      2.564776    1.750890   -4.544523
  H      1.918749    2.171679   -3.769419
  C      1.686235    1.161657   -5.650111
  H      3.132494    2.594775   -4.951604
  C      0.839616   -0.037582   -5.220473
  H      2.323886    0.866395   -6.490796
  H      1.029518    1.951850   -6.029329
  C     -0.151019    0.254955   -4.094256
  H      1.499442   -0.857141   -4.922958
  H      0.290097   -0.410143   -6.091131
  H      0.328265    0.833022   -3.299125
  C     -0.721843   -0.999513   -3.439309
  H     -0.957367    0.884951   -4.485450
  H     -1.083403   -1.697555   -4.205656
  H     -1.581056   -0.723848   -2.820490
  C      0.287250   -1.711771   -2.527405
  H      1.131780   -2.067380   -3.159396
  H     -0.204137   -2.637326   -2.170480
  O      0.710505   -0.927506   -1.481767
  H      2.714548    2.331455   -1.760302
  H      4.090991    2.063151   -0.733382
  C      3.290978   -0.418021   -0.129083
  N      2.517536   -1.432017    0.239360
  N      4.535490   -0.284410    0.395800
  H      5.043627    0.571888    0.222899
  H      4.723346   -0.733273    1.281800
  H      1.934787    0.102305   -1.403788
  H      1.674638   -1.505616   -0.316095
  H      2.928503   -2.218502    0.725494

 Total Charge           Charge          ....    0
 Multiplicity           Mult            ....    1
 Number of Electrons    NEL             ....  112
 Basis Dimension        Dim             ....  728

ORBITAL ENERGIES
----------------

  NO   OCC          E(Eh)            E(eV)
   0   2.0000     -19.064892      -518.7821
   1   2.0000     -14.449090      -393.1797
   2   2.0000     -14.410476      -392.1290
   3   2.0000     -14.403066      -391.9274
   4   2.0000     -10.396218      -282.8955
   5   2.0000     -10.297620      -280.2125
   6   2.0000     -10.252338      -278.9803
   7   2.0000     -10.234861      -278.5047
   8   2.0000     -10.229207      -278.3509
   9   2.0000     -10.222522      -278.1690
  10   2.0000     -10.220983      -278.1271
  11   2.0000     -10.210466      -277.8409
  12   2.0000     -10.199808      -277.5509
  13   2.0000     -10.188057      -277.2311
  14   2.0000      -1.118659       -30.4403
  15   2.0000      -1.012157       -27.5422
  16   2.0000      -0.992547       -27.0086
  17   2.0000      -0.963242       -26.2112
  18   2.0000      -0.895578       -24.3699
  19   2.0000      -0.860630       -23.4189
  20   2.0000      -0.821540       -22.3552
  21   2.0000      -0.782832       -21.3019
  22   2.0000      -0.740712       -20.1558
  23   2.0000      -0.726456       -19.7679
  24   2.0000      -0.688566       -18.7368
  25   2.0000      -0.675752       -18.3882
  26   2.0000      -0.670735       -18.2516
  27   2.0000      -0.639143       -17.3920
  28   2.0000      -0.620030       -16.8719
  29   2.0000      -0.593582       -16.1522
  30   2.0000      -0.583704       -15.8834
  31   2.0000      -0.566118       -15.4048
  32   2.0000      -0.554896       -15.0995
  33   2.0000      -0.542299       -14.7567
  34   2.0000      -0.532239       -14.4829
  35   2.0000      -0.524575       -14.2744
  36   2.0000      -0.504496       -13.7280
  37   2.0000      -0.489629       -13.3235
  38   2.0000      -0.482423       -13.1274
  39   2.0000      -0.462289       -12.5795
  40   2.0000      -0.457256       -12.4426
  41   2.0000      -0.445779       -12.1303
  42   2.0000      -0.425698       -11.5838
  43   2.0000      -0.419173       -11.4063
  44   2.0000      -0.411308       -11.1923
  45   2.0000      -0.399164       -10.8618
  46   2.0000      -0.386353       -10.5132
  47   2.0000      -0.376692       -10.2503
  48   2.0000      -0.375035       -10.2052
  49   2.0000      -0.370702       -10.0873
  50   2.0000      -0.353149        -9.6097
  51   2.0000      -0.349220        -9.5028
  52   2.0000      -0.343398        -9.3443
  53   2.0000      -0.328706        -8.9445
  54   2.0000      -0.242398        -6.5960
  55   2.0000      -0.236174        -6.4266
  56   0.0000       0.004208         0.1145
  57   0.0000       0.030285         0.8241
  58   0.0000       0.039196         1.0666
  59   0.0000       0.046370         1.2618
  60   0.0000       0.052400         1.4259

MULLIKEN ATOMIC CHARGES
-----------------------
   0 C :   -1.140002
   1 C :   -0.431283
   2 N :   -0.072170
   3 H :    0.298595
   4 C :   -0.344182
   5 H :    0.315955
   6 H :    0.131894
   7 H :    0.293986
   8 C :   -0.503357
   9 H :    0.298768
  10 C :   -0.812048
  11 H :    0.277912
  12 C :   -0.504846
  13 H :    0.302226
  14 H :    0.309280
  15 C :   -0.300542
  16 H :    0.224790
  17 H :    0.321884
  18 H :    0.118956
  19 C :   -0.713929
  20 H :    0.302274
  21 H :    0.265420
  22 H :    0.313331
  23 C :   -0.489784
  24 H :    0.240339
  25 H :    0.320675
  26 O :   -1.123016
  27 H :    0.333508
  28 H :    0.428482
  29 C :    0.497340
  30 N :   -0.298863
  31 N :   -0.345087
  32 H :    0.204258
  33 H :    0.203856
  34 H :    0.557327
  35 H :    0.358764
  36 H :    0.159291
Sum of atomic charges:    0.0000000

LOEWDIN ATOMIC CHARGES
----------------------
   0 C :   -0.173996
   1 C :   -0.187514
   2 N :    0.095655
   3 H :    0.108061
   4 C :   -0.206666
   5 H :    0.114804
   6 H :    0.101966
   7 H :    0.120178
   8 C :   -0.218692
   9 H :    0.095405
  10 C :   -0.213249
  11 H :    0.114186
  12 C :   -0.221646
  13 H :    0.108385
  14 H :    0.110100
  15 C :   -0.220203
  16 H :    0.092843
  17 H :    0.112904
  18 H :    0.092351
  19 C :   -0.207112
  20 H :    0.112005
  21 H :    0.107359
  22 H :    0.106227
  23 C :   -0.407285
  24 H :    0.094110
  25 H :    0.098629
  26 O :   -0.324852
  27 H :    0.120861
  28 H :    0.111419
  29 C :   -0.440831
  30 N :    0.185875
  31 N :    0.173333
  32 H :    0.096352
  33 H :    0.113977
  34 H :    0.068992
  35 H :    0.045040
  36 H :    0.121029

  Mayer bond orders larger than 0.100000
B(  0-C ,  1-C ) :   0.6866 B(  0-C ,  2-N ) :   0.9903 B(  0-C ,  8-C ) :   0.1048
B(  0-C , 27-H ) :   0.9088 B(  0-C , 28-H ) :   0.7905 B(  0-C , 29-C ) :  -0.1819
B(  0-C , 34-H ) :  -0.2760 B(  1-C ,  3-H ) :   0.9327 B(  1-C ,  4-C ) :   0.8886
B(  1-C ,  5-H ) :   0.9665 B(  2-N , 29-C ) :   1.2390 B(  2-N , 34-H ) :   0.8148
B(  4-C ,  6-H ) :   1.2165 B(  4-C ,  7-H ) :   0.9019 B(  4-C ,  8-C ) :   0.3825
B(  4-C ,  9-H ) :  -0.1105 B(  6-H ,  8-C ) :  -0.1016 B(  8-C ,  9-H ) :   1.0055
B(  8-C , 10-C ) :   0.8425 B(  8-C , 11-H ) :   0.9818 B(  8-C , 15-C ) :   0.1038
B( 10-C , 12-C ) :   0.7925 B( 10-C , 13-H ) :   0.9809 B( 10-C , 14-H ) :   0.9650
B( 10-C , 15-C ) :   0.1252 B( 12-C , 15-C ) :   0.3777 B( 12-C , 16-H ) :   1.0625
B( 12-C , 17-H ) :   0.9354 B( 12-C , 19-C ) :   0.1675 B( 15-C , 16-H ) :  -0.1050
B( 15-C , 18-H ) :   1.1430 B( 15-C , 19-C ) :   0.9081 B( 15-C , 20-H ) :   0.9059
B( 18-H , 26-O ) :   0.1114 B( 19-C , 21-H ) :   1.0066 B( 19-C , 22-H ) :   0.9119
B( 19-C , 23-C ) :   0.8483 B( 19-C , 26-O ) :   0.1477 B( 23-C , 24-H ) :   1.0219
B( 23-C , 25-H ) :   0.9293 B( 23-C , 26-O ) :   0.8197 B( 26-O , 34-H ) :  -0.1427
B( 26-O , 35-H ) :   0.2408 B( 29-C , 30-N ) :   1.3036 B( 29-C , 31-N ) :   1.0935
B( 30-N , 35-H ) :   0.6571 B( 30-N , 36-H ) :   1.0066 B( 31-N , 32-H ) :   0.9429
B( 31-N , 33-H ) :   0.9810

FINAL SINGLE POINT ENERGY      -634.301284780611

DIPOLE MOMENT
-------------
                                X             Y             Z
Electronic contribution:      3.62745      -2.04465      11.33920
Nuclear contribution   :     -0.74583       2.62534      -9.91488
                        -----------------------------------------
Total Dipole Moment    :      2.88163       0.58070       1.42432
                        -----------------------------------------
Magnitude (a.u.)       :      3.26645
Magnitude (Debye)      :      8.30264

Rotational constants in cm-1:     0.027028     0.016098     0.010898
Rotational constants in MHz :   810.278072   482.590922   326.703462

                             ****ORCA TERMINATED NORMALLY****
TOTAL RUN TIME: 0 days 0 hours 11 minutes 48 seconds 286 msec
