                         Program Version 5.0.0 -  RELEASE  -
|  1> !CAM-B3LYP RIJCOSX def2-TZVPD def2/J TightSCF
|  2> *xyz 0 1
|  3> C         -0.72184       -0.99951       -3.43931
|  4> C          0.28725       -1.71177       -2.52740
|  5> H          1.13178       -2.06738       -3.15940
|  6> H         -0.20414       -2.63733       -2.17048
|  7> F          0.71050       -0.92751       -1.48177
|  8> H         -1.01315       -1.65739       -4.23129
|  9> H         -0.27123       -0.12142       -3.85259
| 10> H         -1.58442       -0.72333       -2.86958
| 11> *
| 12> %MaxCore 64000
| 13>
| 14> %pal nprocs 4
| 15> end
| 16>
| 17> %scf
| 18>   MaxIter 150
| 19> end
| 20>
| 21>
| 22>                          ****END OF INPUT****

CARTESIAN COORDINATES (ANGSTROEM)
---------------------------------
  C     -0.721840   -0.999510   -3.439310
  C      0.287250   -1.711770   -2.527400
  H      1.131780   -2.067380   -3.159400
  H     -0.204140   -2.637330   -2.170480
  F      0.710500   -0.927510   -1.481770
  H     -1.013150   -1.657390   -4.231290
  H     -0.271230   -0.121420   -3.852590
  H     -1.584420   -0.723330   -2.869580

 Total Charge           Charge          ....    0
 Multiplicity           Mult            ....    1
 Number of Electrons    NEL             ....   26
 Basis Dimension        Dim             ....  159

ORBITAL ENERGIES
----------------

  NO   OCC          E(Eh)            E(eV)
   0   2.0000     -24.744238      -673.3249
   1   2.0000     -10.324105      -280.9332
   2   2.0000     -10.238689      -278.6089
   3   2.0000      -1.279916       -34.8283
   4   2.0000      -0.848866       -23.0988
   5   2.0000      -0.711067       -19.3491
   6   2.0000      -0.580990       -15.8095
   7   2.0000      -0.570213       -15.5163
   8   2.0000      -0.531162       -14.4537
   9   2.0000      -0.476463       -12.9652
  10   2.0000      -0.470288       -12.7972
  11   2.0000      -0.405791       -11.0421
  12   2.0000      -0.399185       -10.8624
  13   0.0000       0.035749         0.9728
  14   0.0000       0.060489         1.6460
  15   0.0000       0.081051         2.2055
  16   0.0000       0.083578         2.2743
  17   0.0000       0.111762         3.0412

MULLIKEN ATOMIC CHARGES
-----------------------
   0 C :   -0.939870
   1 C :   -0.123394
   2 H :    0.238412
   3 H :    0.232423
   4 F :   -0.299408
   5 H :    0.323283
   6 H :    0.283557
   7 H :    0.284997
Sum of atomic charges:   -0.0000000

LOEWDIN ATOMIC CHARGES
----------------------
   0 C :   -0.086438
   1 C :   -0.289671
   2 H :    0.114979
   3 H :    0.111241
   4 F :   -0.049436
   5 H :    0.067869
   6 H :    0.065532
   7 H :    0.065924

  Mayer bond orders larger than 0.100000
B(  0-C ,  1-C ) :   0.7323 B(  0-C ,  5-H ) :   0.9370 B(  0-C ,  6-H ) :   0.9582
B(  0-C ,  7-H ) :   0.9594 B(  1-C ,  2-H ) :   0.9747 B(  1-C ,  3-H ) :   0.9841
B(  1-C ,  4-F ) :   0.8071

FINAL SINGLE POINT ENERGY      -179.063874190998

DIPOLE MOMENT
-------------
                                X             Y             Z
Electronic contribution:      2.69245       1.03331       4.20235
Nuclear contribution   :     -2.97459      -1.40206      -4.79987
                        -----------------------------------------
Total Dipole Moment    :     -0.28214      -0.36875      -0.59751
                        -----------------------------------------
Magnitude (a.u.)       :      0.75670
Magnitude (Debye)      :      1.92339

Rotational constants in cm-1:     1.257024     0.302702     0.267953
Rotational constants in MHz : 37684.643733  9074.792567  8033.038070

                             ****ORCA TERMINATED NORMALLY****
TOTAL RUN TIME: 0 days 0 hours 0 minutes 18 seconds 47 msec
