                         Program Version 5.0.0 -  RELEASE  -
|  1> !CAM-B3LYP RIJCOSX def2-TZVPD def2/J TightSCF
|  2> *xyz 0 1
|  3> C          3.48828        1.60092       -1.52204
|  4> C          4.34297        1.31342       -2.75683
|  5> C          2.81029        0.42878       -1.01420
|  6> H          2.71455        2.33145       -1.76030
|  7> H          4.09099        2.06315       -0.73338
|  8> C          3.29098       -0.41802       -0.12908
|  9> N          2.51754       -1.43202        0.23936
| 10> N          4.53549       -0.28441        0.39580
| 11> H          5.04363        0.57189        0.22290
| 12> H          4.72335       -0.73327        1.28180
| 13> H          1.93479        0.10230       -1.40379
| 14> H          1.67464       -1.50562       -0.31610
| 15> H          2.92850       -2.21850        0.72549
| 16> H          3.73575        0.86277       -3.51385
| 17> H          5.13754        0.64699       -2.49333
| 18> H          4.75374        2.22930       -3.12740
| 19> *
| 20> %MaxCore 64000
| 21>
| 22> %pal nprocs 4
| 23> end
| 24>
| 25> %scf
| 26>   MaxIter 150
| 27> end
| 28>
| 29>
| 30>                          ****END OF INPUT****

CARTESIAN COORDINATES (ANGSTROEM)
---------------------------------
  C      3.488280    1.600920   -1.522040
  C      4.342970    1.313420   -2.756830
  C      2.810290    0.428780   -1.014200
  H      2.714550    2.331450   -1.760300
  H      4.090990    2.063150   -0.733380
  C      3.290980   -0.418020   -0.129080
  N      2.517540   -1.432020    0.239360
  N      4.535490   -0.284410    0.395800
  H      5.043630    0.571890    0.222900
  H      4.723350   -0.733270    1.281800
  H      1.934790    0.102300   -1.403790
  H      1.674640   -1.505620   -0.316100
  H      2.928500   -2.218500    0.725490
  H      3.735750    0.862770   -3.513850
  H      5.137540    0.646990   -2.493330
  H      4.753740    2.229300   -3.127400

 Total Charge           Charge          ....    0
 Multiplicity           Mult            ....    1
 Number of Electrons    NEL             ....   48
 Basis Dimension        Dim             ....  312

ORBITAL ENERGIES
----------------

  NO   OCC          E(Eh)            E(eV)
   0   2.0000     -14.390193      -391.5771
   1   2.0000     -14.385501      -391.4494
   2   2.0000     -10.285956      -279.8951
   3   2.0000     -10.220139      -278.1041
   4   2.0000     -10.207499      -277.7602
   5   2.0000     -10.167220      -276.6641
   6   2.0000      -1.043676       -28.3999
   7   2.0000      -0.953157       -25.9367
   8   2.0000      -0.859263       -23.3817
   9   2.0000      -0.776944       -21.1417
  10   2.0000      -0.692709       -18.8496
  11   2.0000      -0.654593       -17.8124
  12   2.0000      -0.609682       -16.5903
  13   2.0000      -0.583201       -15.8697
  14   2.0000      -0.535074       -14.5601
  15   2.0000      -0.509689       -13.8693
  16   2.0000      -0.488641       -13.2966
  17   2.0000      -0.468481       -12.7480
  18   2.0000      -0.450847       -12.2682
  19   2.0000      -0.419963       -11.4278
  20   2.0000      -0.399136       -10.8610
  21   2.0000      -0.386657       -10.5215
  22   2.0000      -0.332508        -9.0480
  23   2.0000      -0.221735        -6.0337
  24   0.0000       0.027384         0.7452
  25   0.0000       0.052150         1.4191
  26   0.0000       0.056352         1.5334
  27   0.0000       0.067340         1.8324
  28   0.0000       0.082292         2.2393

MULLIKEN ATOMIC CHARGES
-----------------------
   0 C :   -0.670315
   1 C :   -1.039519
   2 C :   -0.308614
   3 H :    0.240231
   4 H :    0.322433
   5 C :    0.375774
   6 N :   -0.385233
   7 N :   -0.397680
   8 H :    0.175307
   9 H :    0.170088
  10 H :    0.251567
  11 H :    0.172596
  12 H :    0.165672
  13 H :    0.316688
  14 H :    0.312096
  15 H :    0.298910
Sum of atomic charges:   -0.0000000

LOEWDIN ATOMIC CHARGES
----------------------
   0 C :   -0.284188
   1 C :   -0.104497
   2 C :   -0.150254
   3 H :    0.104207
   4 H :    0.098703
   5 C :   -0.541837
   6 N :    0.101743
   7 N :    0.127762
   8 H :    0.089501
   9 H :    0.094754
  10 H :    0.069559
  11 H :    0.106414
  12 H :    0.100783
  13 H :    0.066660
  14 H :    0.062624
  15 H :    0.058064

  Mayer bond orders larger than 0.100000
B(  0-C ,  1-C ) :   0.5672 B(  0-C ,  2-C ) :   0.6867 B(  0-C ,  3-H ) :   1.1215
B(  0-C ,  4-H ) :   0.9122 B(  0-C ,  5-C ) :   0.2485 B(  1-C , 13-H ) :   0.9825
B(  1-C , 14-H ) :   0.9697 B(  1-C , 15-H ) :   0.9692 B(  2-C ,  3-H ) :  -0.1147
B(  2-C ,  5-C ) :   1.2387 B(  2-C , 10-H ) :   1.0856 B(  5-C ,  6-N ) :   1.0771
B(  5-C ,  7-N ) :   0.9511 B(  5-C , 10-H ) :  -0.2423 B(  6-N , 11-H ) :   0.9731
B(  6-N , 12-H ) :   1.0242 B(  7-N ,  8-H ) :   0.9497 B(  7-N ,  9-H ) :   1.0141

FINAL SINGLE POINT ENERGY      -267.879084771336

DIPOLE MOMENT
-------------
                                X             Y             Z
Electronic contribution:     -1.27426      -2.90331       3.63017
Nuclear contribution   :      1.44676       2.38443      -3.07370
                        -----------------------------------------
Total Dipole Moment    :      0.17250      -0.51889       0.55647
                        -----------------------------------------
Magnitude (a.u.)       :      0.78016
Magnitude (Debye)      :      1.98302

Rotational constants in cm-1:     0.235977     0.073199     0.063283
Rotational constants in MHz :  7074.404583  2194.453291  1897.179599

                             ****ORCA TERMINATED NORMALLY****
TOTAL RUN TIME: 0 days 0 hours 1 minutes 29 seconds 610 msec
