                         Program Version 5.0.0 -  RELEASE  -
|  1> !CAM-B3LYP RIJCOSX def2-TZVPD def2/J TightSCF
|  2> *xyz 0 1
|  3> C          3.48828        1.60092       -1.52204
|  4> C          4.34297        1.31342       -2.75683
|  5> N          2.81029        0.42878       -1.01420
|  6> H          2.71455        2.33145       -1.76030
|  7> H          4.09099        2.06315       -0.73338
|  8> C          3.29098       -0.41802       -0.12908
|  9> C          2.51754       -1.43202        0.23936
| 10> N          4.53549       -0.28441        0.39580
| 11> H          5.04363        0.57189        0.22290
| 12> H          4.72335       -0.73327        1.28180
| 13> H          1.93479        0.10230       -1.40379
| 14> H          1.67464       -1.50562       -0.31610
| 15> H          2.92850       -2.21850        0.72549
| 16> H          3.73575        0.86277       -3.51385
| 17> H          5.13754        0.64699       -2.49333
| 18> H          4.75374        2.22930       -3.12740
| 19> *
| 20> %MaxCore 64000
| 21>
| 22> %pal nprocs 4
| 23> end
| 24>
| 25> %scf
| 26>   MaxIter 150
| 27> end
| 28>
| 29>
| 30>                          ****END OF INPUT****

CARTESIAN COORDINATES (ANGSTROEM)
---------------------------------
  C      3.488280    1.600920   -1.522040
  C      4.342970    1.313420   -2.756830
  N      2.810290    0.428780   -1.014200
  H      2.714550    2.331450   -1.760300
  H      4.090990    2.063150   -0.733380
  C      3.290980   -0.418020   -0.129080
  C      2.517540   -1.432020    0.239360
  N      4.535490   -0.284410    0.395800
  H      5.043630    0.571890    0.222900
  H      4.723350   -0.733270    1.281800
  H      1.934790    0.102300   -1.403790
  H      1.674640   -1.505620   -0.316100
  H      2.928500   -2.218500    0.725490
  H      3.735750    0.862770   -3.513850
  H      5.137540    0.646990   -2.493330
  H      4.753740    2.229300   -3.127400

 Total Charge           Charge          ....    0
 Multiplicity           Mult            ....    1
 Number of Electrons    NEL             ....   48
 Basis Dimension        Dim             ....  312

ORBITAL ENERGIES
----------------

  NO   OCC          E(Eh)            E(eV)
   0   2.0000     -14.390295      -391.5798
   1   2.0000     -14.389996      -391.5717
   2   2.0000     -10.290750      -280.0255
   3   2.0000     -10.287120      -279.9268
   4   2.0000     -10.233333      -278.4631
   5   2.0000     -10.151598      -276.2390
   6   2.0000      -1.054871       -28.7045
   7   2.0000      -0.966767       -26.3071
   8   2.0000      -0.859045       -23.3758
   9   2.0000      -0.783798       -21.3282
  10   2.0000      -0.708753       -19.2862
  11   2.0000      -0.673196       -18.3186
  12   2.0000      -0.609079       -16.5739
  13   2.0000      -0.572017       -15.5654
  14   2.0000      -0.548542       -14.9266
  15   2.0000      -0.510440       -13.8898
  16   2.0000      -0.501620       -13.6498
  17   2.0000      -0.474282       -12.9059
  18   2.0000      -0.447050       -12.1649
  19   2.0000      -0.439774       -11.9668
  20   2.0000      -0.431788       -11.7495
  21   2.0000      -0.423986       -11.5372
  22   2.0000      -0.324019        -8.8170
  23   2.0000      -0.220885        -6.0106
  24   0.0000       0.025825         0.7027
  25   0.0000       0.050712         1.3799
  26   0.0000       0.054931         1.4948
  27   0.0000       0.057390         1.5617
  28   0.0000       0.086392         2.3508

MULLIKEN ATOMIC CHARGES
-----------------------
   0 C :   -0.563051
   1 C :   -1.014547
   2 N :   -0.139677
   3 H :    0.296842
   4 H :    0.346550
   5 C :    0.608450
   6 C :   -1.110844
   7 N :   -0.398753
   8 H :    0.165200
   9 H :    0.196087
  10 H :    0.118185
  11 H :    0.271376
  12 H :    0.280388
  13 H :    0.283477
  14 H :    0.315774
  15 H :    0.344545
Sum of atomic charges:    0.0000000

LOEWDIN ATOMIC CHARGES
----------------------
   0 C :   -0.244465
   1 C :   -0.085593
   2 N :    0.012229
   3 H :    0.112798
   4 H :    0.107388
   5 C :   -0.559433
   6 C :   -0.010736
   7 N :    0.123536
   8 H :    0.080764
   9 H :    0.106891
  10 H :    0.145284
  11 H :    0.006883
  12 H :    0.009179
  13 H :    0.067366
  14 H :    0.064282
  15 H :    0.063629

  Mayer bond orders larger than 0.100000
B(  0-C ,  1-C ) :   0.6148 B(  0-C ,  2-N ) :   0.8147 B(  0-C ,  3-H ) :   0.9793
B(  0-C ,  4-H ) :   0.8946 B(  0-C ,  5-C ) :  -0.1001 B(  1-C , 13-H ) :   0.9928
B(  1-C , 14-H ) :   0.9764 B(  1-C , 15-H ) :   0.9556 B(  2-N ,  5-C ) :   1.0717
B(  2-N , 10-H ) :   1.0086 B(  5-C ,  6-C ) :   1.1516 B(  5-C ,  7-N ) :   1.0090
B(  6-C , 11-H ) :   1.0033 B(  6-C , 12-H ) :   1.0563 B(  7-N ,  8-H ) :   0.9824
B(  7-N ,  9-H ) :   0.9726

FINAL SINGLE POINT ENERGY      -267.866963015729

DIPOLE MOMENT
-------------
                                X             Y             Z
Electronic contribution:     -0.86760      -1.04040       2.40627
Nuclear contribution   :      1.38466       1.98967      -2.80776
                        -----------------------------------------
Total Dipole Moment    :      0.51706       0.94926      -0.40150
                        -----------------------------------------
Magnitude (a.u.)       :      1.15311
Magnitude (Debye)      :      2.93096

Rotational constants in cm-1:     0.235618     0.075969     0.065309
Rotational constants in MHz :  7063.646698  2277.495424  1957.925383

                             ****ORCA TERMINATED NORMALLY****
TOTAL RUN TIME: 0 days 0 hours 1 minutes 27 seconds 630 msec
