                         Program Version 5.0.0 -  RELEASE  -
|  1> !CAM-B3LYP RIJCOSX def2-TZVPD def2/J TightSCF
|  2> *xyz 0 1
|  3> C          3.48828        1.60092       -1.52204
|  4> C          4.34297        1.31342       -2.75683
|  5> N          2.81029        0.42878       -1.01420
|  6> H          2.71455        2.33145       -1.76030
|  7> H          4.09099        2.06315       -0.73338
|  8> C          3.29098       -0.41802       -0.12908
|  9> N          2.51754       -1.43202        0.23936
| 10> C          4.53549       -0.28441        0.39580
| 11> H          5.04363        0.57189        0.22290
| 12> H          4.72335       -0.73327        1.28180
| 13> H          1.93479        0.10230       -1.40379
| 14> H          1.67464       -1.50562       -0.31610
| 15> H          2.92850       -2.21850        0.72549
| 16> H          3.73575        0.86277       -3.51385
| 17> H          5.13754        0.64699       -2.49333
| 18> H          4.75374        2.22930       -3.12740
| 19> *
| 20> %MaxCore 64000
| 21>
| 22> %pal nprocs 4
| 23> end
| 24>
| 25> %scf
| 26>   MaxIter 150
| 27> end
| 28>
| 29>
| 30>                          ****END OF INPUT****

CARTESIAN COORDINATES (ANGSTROEM)
---------------------------------
  C      3.488280    1.600920   -1.522040
  C      4.342970    1.313420   -2.756830
  N      2.810290    0.428780   -1.014200
  H      2.714550    2.331450   -1.760300
  H      4.090990    2.063150   -0.733380
  C      3.290980   -0.418020   -0.129080
  N      2.517540   -1.432020    0.239360
  C      4.535490   -0.284410    0.395800
  H      5.043630    0.571890    0.222900
  H      4.723350   -0.733270    1.281800
  H      1.934790    0.102300   -1.403790
  H      1.674640   -1.505620   -0.316100
  H      2.928500   -2.218500    0.725490
  H      3.735750    0.862770   -3.513850
  H      5.137540    0.646990   -2.493330
  H      4.753740    2.229300   -3.127400

 Total Charge           Charge          ....    0
 Multiplicity           Mult            ....    1
 Number of Electrons    NEL             ....   48
 Basis Dimension        Dim             ....  312

ORBITAL ENERGIES
----------------

  NO   OCC          E(Eh)            E(eV)
   0   2.0000     -14.396799      -391.7568
   1   2.0000     -14.392211      -391.6320
   2   2.0000     -10.293843      -280.1097
   3   2.0000     -10.279547      -279.7207
   4   2.0000     -10.225511      -278.2503
   5   2.0000     -10.153483      -276.2903
   6   2.0000      -1.064103       -28.9557
   7   2.0000      -0.972425       -26.4610
   8   2.0000      -0.838982       -22.8299
   9   2.0000      -0.788172       -21.4472
  10   2.0000      -0.723255       -19.6808
  11   2.0000      -0.638331       -17.3699
  12   2.0000      -0.616024       -16.7629
  13   2.0000      -0.602227       -16.3874
  14   2.0000      -0.538037       -14.6407
  15   2.0000      -0.511350       -13.9145
  16   2.0000      -0.498255       -13.5582
  17   2.0000      -0.463986       -12.6257
  18   2.0000      -0.447537       -12.1781
  19   2.0000      -0.437346       -11.9008
  20   2.0000      -0.428353       -11.6561
  21   2.0000      -0.414049       -11.2669
  22   2.0000      -0.317817        -8.6482
  23   2.0000      -0.224499        -6.1089
  24   0.0000       0.024750         0.6735
  25   0.0000       0.047515         1.2929
  26   0.0000       0.057666         1.5692
  27   0.0000       0.060686         1.6514
  28   0.0000       0.086468         2.3529

MULLIKEN ATOMIC CHARGES
-----------------------
   0 C :   -0.495421
   1 C :   -1.049394
   2 N :   -0.168974
   3 H :    0.296501
   4 H :    0.334319
   5 C :    0.657276
   6 N :   -0.362591
   7 C :   -1.182272
   8 H :    0.260588
   9 H :    0.291963
  10 H :    0.128861
  11 H :    0.142841
  12 H :    0.195578
  13 H :    0.297733
  14 H :    0.317800
  15 H :    0.335191
Sum of atomic charges:    0.0000000

LOEWDIN ATOMIC CHARGES
----------------------
   0 C :   -0.239600
   1 C :   -0.082839
   2 N :    0.011135
   3 H :    0.112145
   4 H :    0.112560
   5 C :   -0.566624
   6 N :    0.114808
   7 C :    0.001096
   8 H :   -0.010873
   9 H :    0.002629
  10 H :    0.138270
  11 H :    0.097569
  12 H :    0.115004
  13 H :    0.064599
  14 H :    0.065468
  15 H :    0.064654

  Mayer bond orders larger than 0.100000
B(  0-C ,  1-C ) :   0.6047 B(  0-C ,  2-N ) :   0.7938 B(  0-C ,  3-H ) :   0.9279
B(  0-C ,  4-H ) :   0.9084 B(  1-C , 13-H ) :   0.9704 B(  1-C , 14-H ) :   0.9904
B(  1-C , 15-H ) :   0.9493 B(  2-N ,  5-C ) :   1.0424 B(  2-N , 10-H ) :   1.0517
B(  5-C ,  6-N ) :   0.9945 B(  5-C ,  7-C ) :   1.1998 B(  5-C ,  9-H ) :  -0.1185
B(  6-N , 11-H ) :   1.0242 B(  6-N , 12-H ) :   0.9775 B(  7-C ,  8-H ) :   1.0183
B(  7-C ,  9-H ) :   1.0688

FINAL SINGLE POINT ENERGY      -267.867303474853

DIPOLE MOMENT
-------------
                                X             Y             Z
Electronic contribution:     -2.80653      -2.27586       2.18405
Nuclear contribution   :      1.81275       2.23313      -2.77458
                        -----------------------------------------
Total Dipole Moment    :     -0.99377      -0.04274      -0.59053
                        -----------------------------------------
Magnitude (a.u.)       :      1.15678
Magnitude (Debye)      :      2.94030

Rotational constants in cm-1:     0.245202     0.073668     0.064348
Rotational constants in MHz :  7350.977980  2208.513334  1929.108541

                             ****ORCA TERMINATED NORMALLY****
TOTAL RUN TIME: 0 days 0 hours 1 minutes 24 seconds 403 msec
