                         Program Version 5.0.0 -  RELEASE  -
|  1> !CAM-B3LYP RIJCOSX def2-TZVPD def2/J TightSCF xyzfile
|  2>
|  3> *xyzfile 0 1 D1.xyz
|  4>
|  5> %MaxCore 64000
|  6>
|  7> %pal nprocs 4
|  8> end
|  9>
| 10> %scf
| 11>   MaxIter 150
| 12> end
| 13>
| 14>
| 15>                          ****END OF INPUT****

CARTESIAN COORDINATES (ANGSTROEM)
---------------------------------
  C      3.488276    1.600919   -1.522040
  C      4.342970    1.313419   -2.756826
  C      2.810285    0.428783   -1.014196
  H      5.132033    0.604994   -2.484466
  C      3.535896    0.749253   -3.924604
  H      4.841247    2.242136   -3.054083
  H      2.991617   -0.132199   -3.574137
  H      4.225505    0.392784   -4.695962
  C      2.564776    1.750890   -4.544523
  H      1.918749    2.171679   -3.769419
  C      1.686235    1.161657   -5.650111
  H      3.132494    2.594775   -4.951604
  C      0.839616   -0.037582   -5.220473
  H      2.323886    0.866395   -6.490796
  H      1.029518    1.951850   -6.029329
  C     -0.151019    0.254955   -4.094256
  H      1.499442   -0.857141   -4.922958
  H      0.290097   -0.410143   -6.091131
  H      0.328265    0.833022   -3.299125
  C     -0.721843   -0.999513   -3.439309
  H     -0.957367    0.884951   -4.485450
  H     -1.083403   -1.697555   -4.205656
  H     -1.581056   -0.723848   -2.820490
  C      0.287250   -1.711771   -2.527405
  H      1.131780   -2.067380   -3.159396
  H     -0.204137   -2.637326   -2.170480
  F      0.710505   -0.927506   -1.481767
  H      2.714548    2.331455   -1.760302
  H      4.090991    2.063151   -0.733382
  C      3.290978   -0.418021   -0.129083
  N      2.517536   -1.432017    0.239360
  N      4.535490   -0.284410    0.395800
  H      5.043627    0.571888    0.222899
  H      4.723346   -0.733273    1.281800
  H      1.934787    0.102305   -1.403788
  H      1.674638   -1.505616   -0.316095
  H      2.928503   -2.218502    0.725494

 Total Charge           Charge          ....    0
 Multiplicity           Mult            ....    1
 Number of Electrons    NEL             ....  112
 Basis Dimension        Dim             ....  728

ORBITAL ENERGIES
----------------

  NO   OCC          E(Eh)            E(eV)
   0   2.0000     -24.772543      -674.0952
   1   2.0000     -14.375306      -391.1720
   2   2.0000     -14.358772      -390.7221
   3   2.0000     -10.334804      -281.2243
   4   2.0000     -10.267816      -279.4015
   5   2.0000     -10.255303      -279.0610
   6   2.0000     -10.239741      -278.6375
   7   2.0000     -10.235655      -278.5263
   8   2.0000     -10.231116      -278.4028
   9   2.0000     -10.223293      -278.1899
  10   2.0000     -10.217887      -278.0428
  11   2.0000     -10.212948      -277.9084
  12   2.0000     -10.206383      -277.7298
  13   2.0000     -10.139522      -275.9104
  14   2.0000      -1.318943       -35.8903
  15   2.0000      -1.025360       -27.9015
  16   2.0000      -0.935927       -25.4679
  17   2.0000      -0.903817       -24.5941
  18   2.0000      -0.878738       -23.9117
  19   2.0000      -0.848656       -23.0931
  20   2.0000      -0.813717       -22.1424
  21   2.0000      -0.774063       -21.0633
  22   2.0000      -0.747411       -20.3381
  23   2.0000      -0.712732       -19.3944
  24   2.0000      -0.681257       -18.5379
  25   2.0000      -0.665885       -18.1197
  26   2.0000      -0.641336       -17.4516
  27   2.0000      -0.623743       -16.9729
  28   2.0000      -0.609902       -16.5963
  29   2.0000      -0.595196       -16.1961
  30   2.0000      -0.585143       -15.9225
  31   2.0000      -0.569649       -15.5009
  32   2.0000      -0.559082       -15.2134
  33   2.0000      -0.536028       -14.5861
  34   2.0000      -0.527113       -14.3435
  35   2.0000      -0.513362       -13.9693
  36   2.0000      -0.506713       -13.7884
  37   2.0000      -0.493349       -13.4247
  38   2.0000      -0.483034       -13.1440
  39   2.0000      -0.471911       -12.8414
  40   2.0000      -0.464127       -12.6295
  41   2.0000      -0.446882       -12.1603
  42   2.0000      -0.439651       -11.9635
  43   2.0000      -0.433125       -11.7859
  44   2.0000      -0.427795       -11.6409
  45   2.0000      -0.424788       -11.5591
  46   2.0000      -0.403712       -10.9855
  47   2.0000      -0.395930       -10.7738
  48   2.0000      -0.385995       -10.5034
  49   2.0000      -0.383135       -10.4256
  50   2.0000      -0.379093       -10.3157
  51   2.0000      -0.364183        -9.9099
  52   2.0000      -0.358195        -9.7470
  53   2.0000      -0.352711        -9.5978
  54   2.0000      -0.314828        -8.5669
  55   2.0000      -0.204033        -5.5520
  56   0.0000       0.028955         0.7879
  57   0.0000       0.038008         1.0342
  58   0.0000       0.041322         1.1244
  59   0.0000       0.046369         1.2618
  60   0.0000       0.058977         1.6049

MULLIKEN ATOMIC CHARGES
-----------------------
   0 C :   -0.830921
   1 C :   -0.543625
   2 C :   -0.902080
   3 H :    0.315401
   4 C :   -0.293329
   5 H :    0.256016
   6 H :    0.104941
   7 H :    0.283809
   8 C :   -0.465040
   9 H :    0.249666
  10 C :   -0.815762
  11 H :    0.277757
  12 C :   -0.500620
  13 H :    0.310159
  14 H :    0.308174
  15 C :   -0.313317
  16 H :    0.259785
  17 H :    0.315166
  18 H :    0.161310
  19 C :   -0.721758
  20 H :    0.303106
  21 H :    0.295978
  22 H :    0.329874
  23 C :   -0.382304
  24 H :    0.326201
  25 H :    0.315675
  26 F :   -0.520250
  27 H :    0.268203
  28 H :    0.365238
  29 C :   -0.352614
  30 N :   -0.384268
  31 N :   -0.393618
  32 H :    0.189283
  33 H :    0.155427
  34 H :    1.576595
  35 H :    0.329851
  36 H :    0.121889
Sum of atomic charges:   -0.0000000

LOEWDIN ATOMIC CHARGES
----------------------
   0 C :   -0.225845
   1 C :   -0.204160
   2 C :   -0.131602
   3 H :    0.109647
   4 C :   -0.212442
   5 H :    0.106835
   6 H :    0.094122
   7 H :    0.116409
   8 C :   -0.216367
   9 H :    0.096174
  10 C :   -0.211516
  11 H :    0.116041
  12 C :   -0.219698
  13 H :    0.110458
  14 H :    0.110348
  15 C :   -0.209503
  16 H :    0.093920
  17 H :    0.114174
  18 H :    0.103077
  19 C :   -0.178740
  20 H :    0.119532
  21 H :    0.121857
  22 H :    0.113908
  23 C :   -0.194921
  24 H :    0.125918
  25 H :    0.125347
  26 F :   -0.079357
  27 H :    0.101977
  28 H :    0.102451
  29 C :   -0.521276
  30 N :    0.113423
  31 N :    0.126457
  32 H :    0.086631
  33 H :    0.091781
  34 H :    0.039202
  35 H :    0.065479
  36 H :    0.100260

  Mayer bond orders larger than 0.100000
B(  0-C ,  1-C ) :   0.6893 B(  0-C ,  2-C ) :   0.4015 B(  0-C , 27-H ) :   1.0317
B(  0-C , 28-H ) :   0.9479 B(  0-C , 29-C ) :   0.2837 B(  1-C ,  2-C ) :  -0.1031
B(  1-C ,  3-H ) :   0.9388 B(  1-C ,  4-C ) :   0.9322 B(  1-C ,  5-H ) :   0.9652
B(  2-C ,  4-C ) :   0.1091 B(  2-C , 26-F ) :   0.5505 B(  2-C , 28-H ) :  -0.1110
B(  2-C , 29-C ) :   1.8745 B(  2-C , 30-N ) :  -0.1277 B(  2-C , 34-H ) :  -0.3594
B(  4-C ,  6-H ) :   1.3002 B(  4-C ,  7-H ) :   0.8913 B(  4-C ,  8-C ) :   0.3729
B(  4-C ,  9-H ) :  -0.1124 B(  6-H ,  8-C ) :  -0.1469 B(  8-C ,  9-H ) :   1.0456
B(  8-C , 10-C ) :   0.8158 B(  8-C , 11-H ) :   0.9731 B( 10-C , 12-C ) :   0.8579
B( 10-C , 13-H ) :   0.9746 B( 10-C , 14-H ) :   0.9632 B( 10-C , 15-C ) :   0.1285
B( 12-C , 15-C ) :   0.3621 B( 12-C , 16-H ) :   1.0263 B( 12-C , 17-H ) :   0.9559
B( 12-C , 19-C ) :   0.1522 B( 15-C , 16-H ) :  -0.1149 B( 15-C , 18-H ) :   1.1258
B( 15-C , 19-C ) :   0.8566 B( 15-C , 20-H ) :   0.9181 B( 19-C , 21-H ) :   0.9618
B( 19-C , 22-H ) :   0.9295 B( 19-C , 23-C ) :   0.8346 B( 19-C , 26-F ) :   0.1513
B( 23-C , 24-H ) :   0.9513 B( 23-C , 25-H ) :   0.9194 B( 23-C , 26-F ) :   0.6182
B( 26-F , 29-C ) :   0.1379 B( 26-F , 34-H ) :  -0.9222 B( 26-F , 35-H ) :   0.1113
B( 29-C , 30-N ) :   1.1589 B( 29-C , 31-N ) :   1.0299 B( 29-C , 34-H ) :  -0.3454
B( 30-N , 35-H ) :   0.7658 B( 30-N , 36-H ) :   1.0636 B( 31-N , 32-H ) :   0.9538
B( 31-N , 33-H ) :   1.0261 B( 34-H , 35-H ) :  -0.1062

FINAL SINGLE POINT ENERGY      -642.231088380064

DIPOLE MOMENT
-------------
                                X             Y             Z
Electronic contribution:     -1.59870      -4.83902      10.66434
Nuclear contribution   :      1.15699       3.94991     -10.89335
                        -----------------------------------------
Total Dipole Moment    :     -0.44172      -0.88911      -0.22901
                        -----------------------------------------
Magnitude (a.u.)       :      1.01886
Magnitude (Debye)      :      2.58973

Rotational constants in cm-1:     0.026548     0.016177     0.010851
Rotational constants in MHz :   795.884848   484.988695   325.313537

                             ****ORCA TERMINATED NORMALLY****
TOTAL RUN TIME: 0 days 0 hours 11 minutes 34 seconds 439 msec
