                         Program Version 5.0.0 -  RELEASE  -
|  1> !CAM-B3LYP RIJCOSX def2-TZVPD def2/J TightSCF xyzfile
|  2>
|  3> *xyzfile 0 1 D2.xyz
|  4>
|  5> %MaxCore 64000
|  6>
|  7> %pal nprocs 4
|  8> end
|  9>
| 10> %scf
| 11>   MaxIter 150
| 12> end
| 13>
| 14>
| 15>                          ****END OF INPUT****

CARTESIAN COORDINATES (ANGSTROEM)
---------------------------------
  C      3.488276    1.600919   -1.522040
  C      4.342970    1.313419   -2.756826
  N      2.810285    0.428783   -1.014196
  H      5.132033    0.604994   -2.484466
  C      3.535896    0.749253   -3.924604
  H      4.841247    2.242136   -3.054083
  H      2.991617   -0.132199   -3.574137
  H      4.225505    0.392784   -4.695962
  C      2.564776    1.750890   -4.544523
  H      1.918749    2.171679   -3.769419
  C      1.686235    1.161657   -5.650111
  H      3.132494    2.594775   -4.951604
  C      0.839616   -0.037582   -5.220473
  H      2.323886    0.866395   -6.490796
  H      1.029518    1.951850   -6.029329
  C     -0.151019    0.254955   -4.094256
  H      1.499442   -0.857141   -4.922958
  H      0.290097   -0.410143   -6.091131
  H      0.328265    0.833022   -3.299125
  C     -0.721843   -0.999513   -3.439309
  H     -0.957367    0.884951   -4.485450
  H     -1.083403   -1.697555   -4.205656
  H     -1.581056   -0.723848   -2.820490
  C      0.287250   -1.711771   -2.527405
  H      1.131780   -2.067380   -3.159396
  H     -0.204137   -2.637326   -2.170480
  F      0.710505   -0.927506   -1.481767
  H      2.714548    2.331455   -1.760302
  H      4.090991    2.063151   -0.733382
  C      3.290978   -0.418021   -0.129083
  C      2.517536   -1.432017    0.239360
  N      4.535490   -0.284410    0.395800
  H      5.043627    0.571888    0.222899
  H      4.723346   -0.733273    1.281800
  H      1.934787    0.102305   -1.403788
  H      1.674638   -1.505616   -0.316095
  H      2.928503   -2.218502    0.725494

 Total Charge           Charge          ....    0
 Multiplicity           Mult            ....    1
 Number of Electrons    NEL             ....  112
 Basis Dimension        Dim             ....  728

ORBITAL ENERGIES
----------------

  NO   OCC          E(Eh)            E(eV)
   0   2.0000     -24.770072      -674.0279
   1   2.0000     -14.373742      -391.1294
   2   2.0000     -14.362741      -390.8300
   3   2.0000     -10.333544      -281.1900
   4   2.0000     -10.271080      -279.4903
   5   2.0000     -10.270670      -279.4791
   6   2.0000     -10.257061      -279.1088
   7   2.0000     -10.246583      -278.8237
   8   2.0000     -10.242982      -278.7257
   9   2.0000     -10.240987      -278.6714
  10   2.0000     -10.237743      -278.5832
  11   2.0000     -10.235712      -278.5279
  12   2.0000     -10.235123      -278.5119
  13   2.0000     -10.123832      -275.4835
  14   2.0000      -1.316472       -35.8230
  15   2.0000      -1.035740       -28.1839
  16   2.0000      -0.950540       -25.8655
  17   2.0000      -0.911456       -24.8020
  18   2.0000      -0.883407       -24.0387
  19   2.0000      -0.855871       -23.2894
  20   2.0000      -0.809386       -22.0245
  21   2.0000      -0.785355       -21.3706
  22   2.0000      -0.750219       -20.4145
  23   2.0000      -0.723119       -19.6771
  24   2.0000      -0.689177       -18.7535
  25   2.0000      -0.673826       -18.3357
  26   2.0000      -0.652834       -17.7645
  27   2.0000      -0.635222       -17.2853
  28   2.0000      -0.610666       -16.6171
  29   2.0000      -0.596362       -16.2278
  30   2.0000      -0.583469       -15.8770
  31   2.0000      -0.569329       -15.4922
  32   2.0000      -0.556355       -15.1392
  33   2.0000      -0.545080       -14.8324
  34   2.0000      -0.538645       -14.6573
  35   2.0000      -0.523925       -14.2567
  36   2.0000      -0.507877       -13.8200
  37   2.0000      -0.500656       -13.6235
  38   2.0000      -0.497698       -13.5431
  39   2.0000      -0.482358       -13.1256
  40   2.0000      -0.464299       -12.6342
  41   2.0000      -0.450015       -12.2455
  42   2.0000      -0.441930       -12.0255
  43   2.0000      -0.438426       -11.9302
  44   2.0000      -0.433000       -11.7825
  45   2.0000      -0.427139       -11.6230
  46   2.0000      -0.412405       -11.2221
  47   2.0000      -0.408297       -11.1103
  48   2.0000      -0.402905       -10.9636
  49   2.0000      -0.393226       -10.7002
  50   2.0000      -0.385959       -10.5025
  51   2.0000      -0.380511       -10.3542
  52   2.0000      -0.377565       -10.2741
  53   2.0000      -0.373951       -10.1757
  54   2.0000      -0.305928        -8.3247
  55   2.0000      -0.201135        -5.4732
  56   0.0000       0.030006         0.8165
  57   0.0000       0.034337         0.9344
  58   0.0000       0.039083         1.0635
  59   0.0000       0.042737         1.1629
  60   0.0000       0.057203         1.5566

MULLIKEN ATOMIC CHARGES
-----------------------
   0 C :   -1.129014
   1 C :   -0.506370
   2 N :   -0.123074
   3 H :    0.329718
   4 C :   -0.324615
   5 H :    0.332713
   6 H :    0.100441
   7 H :    0.285019
   8 C :   -0.458909
   9 H :    0.271051
  10 C :   -0.835182
  11 H :    0.282485
  12 C :   -0.505607
  13 H :    0.310218
  14 H :    0.310848
  15 C :   -0.347258
  16 H :    0.263143
  17 H :    0.315752
  18 H :    0.173329
  19 C :   -0.697141
  20 H :    0.313017
  21 H :    0.290868
  22 H :    0.330218
  23 C :   -0.397976
  24 H :    0.321556
  25 H :    0.335287
  26 F :   -0.571192
  27 H :    0.325702
  28 H :    0.428338
  29 C :    0.687119
  30 C :   -1.268626
  31 N :   -0.385559
  32 H :    0.166113
  33 H :    0.209136
  34 H :    0.396665
  35 H :    0.496854
  36 H :    0.274936
Sum of atomic charges:    0.0000000

LOEWDIN ATOMIC CHARGES
----------------------
   0 C :   -0.191781
   1 C :   -0.190111
   2 N :    0.035098
   3 H :    0.110513
   4 C :   -0.210432
   5 H :    0.111547
   6 H :    0.096159
   7 H :    0.119136
   8 C :   -0.218525
   9 H :    0.094178
  10 C :   -0.210036
  11 H :    0.116848
  12 C :   -0.219082
  13 H :    0.111695
  14 H :    0.111581
  15 C :   -0.211320
  16 H :    0.094321
  17 H :    0.115692
  18 H :    0.099847
  19 C :   -0.178935
  20 H :    0.119889
  21 H :    0.122223
  22 H :    0.114450
  23 C :   -0.192884
  24 H :    0.125757
  25 H :    0.129487
  26 F :   -0.081346
  27 H :    0.110654
  28 H :    0.111014
  29 C :   -0.539694
  30 C :    0.003097
  31 N :    0.120934
  32 H :    0.077769
  33 H :    0.103918
  34 H :    0.095513
  35 H :   -0.017984
  36 H :    0.010809

  Mayer bond orders larger than 0.100000
B(  0-C ,  1-C ) :   0.6813 B(  0-C ,  2-N ) :   1.0099 B(  0-C , 27-H ) :   0.9100
B(  0-C , 28-H ) :   0.8246 B(  0-C , 29-C ) :  -0.1974 B(  0-C , 31-N ) :   0.1061
B(  0-C , 34-H ) :  -0.2433 B(  1-C ,  3-H ) :   0.9202 B(  1-C ,  4-C ) :   0.9287
B(  1-C ,  5-H ) :   0.9763 B(  2-N , 29-C ) :   0.8791 B(  2-N , 34-H ) :   0.9314
B(  4-C ,  6-H ) :   1.2726 B(  4-C ,  7-H ) :   0.9067 B(  4-C ,  8-C ) :   0.3631
B(  4-C ,  9-H ) :  -0.1148 B(  6-H ,  8-C ) :  -0.1360 B(  8-C ,  9-H ) :   1.0308
B(  8-C , 10-C ) :   0.8327 B(  8-C , 11-H ) :   0.9667 B( 10-C , 12-C ) :   0.8473
B( 10-C , 13-H ) :   0.9763 B( 10-C , 14-H ) :   0.9632 B( 10-C , 15-C ) :   0.1371
B( 12-C , 15-C ) :   0.3698 B( 12-C , 16-H ) :   1.0273 B( 12-C , 17-H ) :   0.9508
B( 12-C , 19-C ) :   0.1452 B( 15-C , 16-H ) :  -0.1132 B( 15-C , 18-H ) :   1.1175
B( 15-C , 19-C ) :   0.8843 B( 15-C , 20-H ) :   0.9104 B( 19-C , 21-H ) :   0.9709
B( 19-C , 22-H ) :   0.9222 B( 19-C , 23-C ) :   0.8219 B( 19-C , 26-F ) :   0.1293
B( 23-C , 24-H ) :   0.9576 B( 23-C , 25-H ) :   0.9033 B( 23-C , 26-F ) :   0.6365
B( 26-F , 30-C ) :   0.2269 B( 26-F , 35-H ) :  -0.1231 B( 29-C , 30-C ) :   1.1799
B( 29-C , 31-N ) :   0.9575 B( 29-C , 34-H ) :  -0.1538 B( 29-C , 36-H ) :  -0.1464
B( 30-C , 35-H ) :   0.8309 B( 30-C , 36-H ) :   1.1706 B( 31-N , 32-H ) :   1.0001
B( 31-N , 33-H ) :   0.9669

FINAL SINGLE POINT ENERGY      -642.219158899769

DIPOLE MOMENT
-------------
                                X             Y             Z
Electronic contribution:     -1.28012      -3.13303       9.40865
Nuclear contribution   :      1.09892       3.58083     -10.64472
                        -----------------------------------------
Total Dipole Moment    :     -0.18120       0.44780      -1.23606
                        -----------------------------------------
Magnitude (a.u.)       :      1.32711
Magnitude (Debye)      :      3.37324

Rotational constants in cm-1:     0.026768     0.016312     0.010954
Rotational constants in MHz :   802.489946   489.033275   328.388904

                             ****ORCA TERMINATED NORMALLY****
TOTAL RUN TIME: 0 days 0 hours 11 minutes 57 seconds 944 msec
