                         Program Version 5.0.0 -  RELEASE  -
|  1> !CAM-B3LYP RIJCOSX def2-TZVPD def2/J TightSCF xyzfile
|  2>
|  3> *xyzfile 0 1 D3.xyz
|  4>
|  5> %MaxCore 64000
|  6>
|  7> %pal nprocs 4
|  8> end
|  9>
| 10> %scf
| 11>   MaxIter 150
| 12> end
| 13>
| 14>
| 15>                          ****END OF INPUT****

CARTESIAN COORDINATES (ANGSTROEM)
---------------------------------
  C      3.488276    1.600919   -1.522040
  C      4.342970    1.313419   -2.756826
  N      2.810285    0.428783   -1.014196
  H      5.132033    0.604994   -2.484466
  C      3.535896    0.749253   -3.924604
  H      4.841247    2.242136   -3.054083
  H      2.991617   -0.132199   -3.574137
  H      4.225505    0.392784   -4.695962
  C      2.564776    1.750890   -4.544523
  H      1.918749    2.171679   -3.769419
  C      1.686235    1.161657   -5.650111
  H      3.132494    2.594775   -4.951604
  C      0.839616   -0.037582   -5.220473
  H      2.323886    0.866395   -6.490796
  H      1.029518    1.951850   -6.029329
  C     -0.151019    0.254955   -4.094256
  H      1.499442   -0.857141   -4.922958
  H      0.290097   -0.410143   -6.091131
  H      0.328265    0.833022   -3.299125
  C     -0.721843   -0.999513   -3.439309
  H     -0.957367    0.884951   -4.485450
  H     -1.083403   -1.697555   -4.205656
  H     -1.581056   -0.723848   -2.820490
  C      0.287250   -1.711771   -2.527405
  H      1.131780   -2.067380   -3.159396
  H     -0.204137   -2.637326   -2.170480
  F      0.710505   -0.927506   -1.481767
  H      2.714548    2.331455   -1.760302
  H      4.090991    2.063151   -0.733382
  C      3.290978   -0.418021   -0.129083
  N      2.517536   -1.432017    0.239360
  C      4.535490   -0.284410    0.395800
  H      5.043627    0.571888    0.222899
  H      4.723346   -0.733273    1.281800
  H      1.934787    0.102305   -1.403788
  H      1.674638   -1.505616   -0.316095
  H      2.928503   -2.218502    0.725494

 Total Charge           Charge          ....    0
 Multiplicity           Mult            ....    1
 Number of Electrons    NEL             ....  112
 Basis Dimension        Dim             ....  728

ORBITAL ENERGIES
----------------

  NO   OCC          E(Eh)            E(eV)
   0   2.0000     -24.799865      -674.8386
   1   2.0000     -14.367139      -390.9497
   2   2.0000     -14.361873      -390.8064
   3   2.0000     -10.351753      -281.6855
   4   2.0000     -10.273989      -279.5695
   5   2.0000     -10.269162      -279.4381
   6   2.0000     -10.262679      -279.2617
   7   2.0000     -10.254114      -279.0286
   8   2.0000     -10.248018      -278.8627
   9   2.0000     -10.242984      -278.7258
  10   2.0000     -10.237274      -278.5704
  11   2.0000     -10.233455      -278.4665
  12   2.0000     -10.227911      -278.3156
  13   2.0000     -10.134881      -275.7841
  14   2.0000      -1.344952       -36.5980
  15   2.0000      -1.041632       -28.3442
  16   2.0000      -0.951517       -25.8921
  17   2.0000      -0.917643       -24.9703
  18   2.0000      -0.886979       -24.1359
  19   2.0000      -0.852218       -23.1900
  20   2.0000      -0.809236       -22.0204
  21   2.0000      -0.775681       -21.1074
  22   2.0000      -0.769254       -20.9325
  23   2.0000      -0.734018       -19.9736
  24   2.0000      -0.699249       -19.0275
  25   2.0000      -0.672202       -18.2915
  26   2.0000      -0.650049       -17.6887
  27   2.0000      -0.637293       -17.3416
  28   2.0000      -0.631859       -17.1938
  29   2.0000      -0.602032       -16.3821
  30   2.0000      -0.594233       -16.1699
  31   2.0000      -0.581977       -15.8364
  32   2.0000      -0.565409       -15.3856
  33   2.0000      -0.549795       -14.9607
  34   2.0000      -0.535093       -14.5606
  35   2.0000      -0.524998       -14.2859
  36   2.0000      -0.510513       -13.8918
  37   2.0000      -0.507193       -13.8014
  38   2.0000      -0.498928       -13.5765
  39   2.0000      -0.478735       -13.0270
  40   2.0000      -0.470914       -12.8142
  41   2.0000      -0.453281       -12.3344
  42   2.0000      -0.447514       -12.1775
  43   2.0000      -0.440023       -11.9736
  44   2.0000      -0.438248       -11.9253
  45   2.0000      -0.427331       -11.6283
  46   2.0000      -0.418213       -11.3801
  47   2.0000      -0.415513       -11.3067
  48   2.0000      -0.405845       -11.0436
  49   2.0000      -0.402027       -10.9397
  50   2.0000      -0.395072       -10.7504
  51   2.0000      -0.380761       -10.3610
  52   2.0000      -0.379335       -10.3222
  53   2.0000      -0.372101       -10.1254
  54   2.0000      -0.295017        -8.0278
  55   2.0000      -0.205667        -5.5965
  56   0.0000       0.022084         0.6009
  57   0.0000       0.031578         0.8593
  58   0.0000       0.038435         1.0459
  59   0.0000       0.042690         1.1616
  60   0.0000       0.056223         1.5299

MULLIKEN ATOMIC CHARGES
-----------------------
   0 C :   -1.083370
   1 C :   -0.550363
   2 N :   -0.202394
   3 H :    0.344491
   4 C :   -0.308057
   5 H :    0.322092
   6 H :    0.074470
   7 H :    0.288263
   8 C :   -0.439660
   9 H :    0.249130
  10 C :   -0.853945
  11 H :    0.286044
  12 C :   -0.496436
  13 H :    0.312694
  14 H :    0.311162
  15 C :   -0.346436
  16 H :    0.262956
  17 H :    0.318402
  18 H :    0.178051
  19 C :   -0.725793
  20 H :    0.310365
  21 H :    0.292561
  22 H :    0.331179
  23 C :   -0.361868
  24 H :    0.319929
  25 H :    0.330011
  26 F :   -0.570487
  27 H :    0.329681
  28 H :    0.428364
  29 C :    0.693773
  30 N :   -0.404608
  31 C :   -1.318956
  32 H :    0.285737
  33 H :    0.304087
  34 H :    0.529729
  35 H :    0.403993
  36 H :    0.155208
Sum of atomic charges:    0.0000000

LOEWDIN ATOMIC CHARGES
----------------------
   0 C :   -0.186895
   1 C :   -0.184107
   2 N :    0.034199
   3 H :    0.112206
   4 C :   -0.211954
   5 H :    0.113349
   6 H :    0.093410
   7 H :    0.118993
   8 C :   -0.218616
   9 H :    0.093783
  10 C :   -0.209791
  11 H :    0.117530
  12 C :   -0.218964
  13 H :    0.112160
  14 H :    0.111662
  15 C :   -0.210132
  16 H :    0.093998
  17 H :    0.115889
  18 H :    0.100365
  19 C :   -0.177009
  20 H :    0.121169
  21 H :    0.124157
  22 H :    0.115250
  23 C :   -0.190058
  24 H :    0.127495
  25 H :    0.129105
  26 F :   -0.070024
  27 H :    0.110180
  28 H :    0.115729
  29 C :   -0.550483
  30 N :    0.123233
  31 C :   -0.004073
  32 H :   -0.015385
  33 H :   -0.001947
  34 H :    0.091483
  35 H :    0.059759
  36 H :    0.114336

  Mayer bond orders larger than 0.100000
B(  0-C ,  1-C ) :   0.7272 B(  0-C ,  2-N ) :   0.9835 B(  0-C , 27-H ) :   0.8715
B(  0-C , 28-H ) :   0.8099 B(  0-C , 29-C ) :  -0.1405 B(  0-C , 31-C ) :   0.1512
B(  0-C , 34-H ) :  -0.3158 B(  1-C ,  3-H ) :   0.9352 B(  1-C ,  4-C ) :   0.9102
B(  1-C ,  5-H ) :   0.9431 B(  2-N , 29-C ) :   0.9066 B(  2-N , 34-H ) :   0.8416
B(  4-C ,  6-H ) :   1.2855 B(  4-C ,  7-H ) :   0.9074 B(  4-C ,  8-C ) :   0.3694
B(  4-C ,  9-H ) :  -0.1204 B(  6-H ,  8-C ) :  -0.1403 B(  8-C ,  9-H ) :   1.0433
B(  8-C , 10-C ) :   0.8259 B(  8-C , 11-H ) :   0.9648 B( 10-C , 12-C ) :   0.8547
B( 10-C , 13-H ) :   0.9758 B( 10-C , 14-H ) :   0.9645 B( 10-C , 15-C ) :   0.1408
B( 12-C , 15-C ) :   0.3600 B( 12-C , 16-H ) :   1.0258 B( 12-C , 17-H ) :   0.9511
B( 12-C , 19-C ) :   0.1433 B( 15-C , 16-H ) :  -0.1183 B( 15-C , 18-H ) :   1.1130
B( 15-C , 19-C ) :   0.8661 B( 15-C , 20-H ) :   0.9170 B( 19-C , 21-H ) :   0.9596
B( 19-C , 22-H ) :   0.9350 B( 19-C , 23-C ) :   0.8436 B( 19-C , 26-F ) :   0.1554
B( 23-C , 24-H ) :   0.9624 B( 23-C , 25-H ) :   0.9026 B( 23-C , 26-F ) :   0.6027
B( 26-F , 34-H ) :  -0.1251 B( 29-C , 30-N ) :   1.1092 B( 29-C , 31-C ) :   1.0315
B( 29-C , 33-H ) :  -0.1297 B( 30-N , 35-H ) :   0.7354 B( 30-N , 36-H ) :   1.0135
B( 31-C , 32-H ) :   1.0528 B( 31-C , 33-H ) :   1.1111

FINAL SINGLE POINT ENERGY      -642.231411321770

DIPOLE MOMENT
-------------
                                X             Y             Z
Electronic contribution:     -3.24693      -4.29787       9.05152
Nuclear contribution   :      1.49917       3.80845     -10.61369
                        -----------------------------------------
Total Dipole Moment    :     -1.74776      -0.48942      -1.56217
                        -----------------------------------------
Magnitude (a.u.)       :      2.39470
Magnitude (Debye)      :      6.08684

Rotational constants in cm-1:     0.026547     0.016542     0.011018
Rotational constants in MHz :   795.873737   495.912559   330.323979

                             ****ORCA TERMINATED NORMALLY****
TOTAL RUN TIME: 0 days 0 hours 11 minutes 22 seconds 378 msec
