                         Program Version 5.0.0 -  RELEASE  -
|  1> !B3LYP D3BJ RIJCOSX def2-TZVP def2/J TightSCF
|  2> *xyz -1 1
|  3> C         -0.72184       -0.99951       -3.43931
|  4> C          0.28725       -1.71177       -2.52740
|  5> H          1.13178       -2.06738       -3.15940
|  6> H         -0.20414       -2.63733       -2.17048
|  7> O          0.71050       -0.92751       -1.48177
|  8> H         -1.01315       -1.65739       -4.23129
|  9> H         -0.27123       -0.12142       -3.85259
| 10> H         -1.58442       -0.72333       -2.86958
| 11> *
| 12> %MaxCore 64000
| 13>
| 14> %pal nprocs 4
| 15> end
| 16>
| 17> %scf
| 18>   MaxIter 150
| 19> end
| 20>
| 21>
| 22>                          ****END OF INPUT****

CARTESIAN COORDINATES (ANGSTROEM)
---------------------------------
  C     -0.721840   -0.999510   -3.439310
  C      0.287250   -1.711770   -2.527400
  H      1.131780   -2.067380   -3.159400
  H     -0.204140   -2.637330   -2.170480
  O      0.710500   -0.927510   -1.481770
  H     -1.013150   -1.657390   -4.231290
  H     -0.271230   -0.121420   -3.852590
  H     -1.584420   -0.723330   -2.869580

 Total Charge           Charge          ....   -1
 Multiplicity           Mult            ....    1
 Number of Electrons    NEL             ....   26
 Basis Dimension        Dim             ....  123

ORBITAL ENERGIES
----------------

  NO   OCC          E(Eh)            E(eV)
   0   2.0000     -18.770723      -510.7773
   1   2.0000      -9.971812      -271.3468
   2   2.0000      -9.951475      -270.7934
   3   2.0000      -0.662911       -18.0387
   4   2.0000      -0.517966       -14.0946
   5   2.0000      -0.363735        -9.8977
   6   2.0000      -0.242455        -6.5975
   7   2.0000      -0.220735        -6.0065
   8   2.0000      -0.165011        -4.4902
   9   2.0000      -0.148549        -4.0422
  10   2.0000      -0.098180        -2.6716
  11   2.0000       0.044855         1.2206
  12   2.0000       0.047363         1.2888
  13   0.0000       0.216325         5.8865
  14   0.0000       0.252108         6.8602
  15   0.0000       0.277502         7.5512
  16   0.0000       0.279742         7.6122
  17   0.0000       0.313597         8.5334

MULLIKEN ATOMIC CHARGES
-----------------------
   0 C :   -0.098722
   1 C :    0.067241
   2 H :   -0.080926
   3 H :   -0.079204
   4 O :   -0.774910
   5 H :   -0.052209
   6 H :    0.008188
   7 H :    0.010542
Sum of atomic charges:   -1.0000000

LOEWDIN ATOMIC CHARGES
----------------------
   0 C :   -0.358694
   1 C :   -0.543589
   2 H :    0.048547
   3 H :    0.049958
   4 O :   -0.430374
   5 H :    0.067988
   6 H :    0.082678
   7 H :    0.083486

  Mayer bond orders larger than 0.100000
B(  0-C ,  1-C ) :   0.8682 B(  0-C ,  4-O ) :  -0.2916 B(  0-C ,  5-H ) :   0.9136
B(  0-C ,  6-H ) :   0.9624 B(  0-C ,  7-H ) :   0.9646 B(  1-C ,  2-H ) :   0.9154
B(  1-C ,  3-H ) :   0.9166 B(  1-C ,  4-O ) :   1.6230 B(  4-O ,  5-H ) :   0.1126

Dispersion correction           -0.006234616
FINAL SINGLE POINT ENERGY      -154.396760893265

DIPOLE MOMENT
-------------
                                X             Y             Z
Electronic contribution:      1.53310       0.82083       2.52723
Nuclear contribution   :     -2.24828      -1.06600      -3.62481
                        -----------------------------------------
Total Dipole Moment    :     -0.71518      -0.24517      -1.09758
                        -----------------------------------------
Magnitude (a.u.)       :      1.33277
Magnitude (Debye)      :      3.38762

Rotational constants in cm-1:     1.278116     0.325414     0.286672
Rotational constants in MHz : 38316.964654  9755.653004  8594.216906

                             ****ORCA TERMINATED NORMALLY****
TOTAL RUN TIME: 0 days 0 hours 0 minutes 12 seconds 314 msec
