                         Program Version 5.0.0 -  RELEASE  -
|  1> !B3LYP D3BJ RIJCOSX def2-TZVP def2/J TightSCF
|  2> *xyz 1 1
|  3> C          3.48828        1.60092       -1.52204
|  4> C          4.34297        1.31342       -2.75683
|  5> N          2.81029        0.42878       -1.01420
|  6> H          2.71455        2.33145       -1.76030
|  7> H          4.09099        2.06315       -0.73338
|  8> C          3.29098       -0.41802       -0.12908
|  9> N          2.51754       -1.43202        0.23936
| 10> N          4.53549       -0.28441        0.39580
| 11> H          5.04363        0.57189        0.22290
| 12> H          4.72335       -0.73327        1.28180
| 13> H          1.93479        0.10230       -1.40379
| 14> H          1.67464       -1.50562       -0.31610
| 15> H          2.92850       -2.21850        0.72549
| 16> H          3.73575        0.86277       -3.51385
| 17> H          5.13754        0.64699       -2.49333
| 18> H          4.75374        2.22930       -3.12740
| 19> *
| 20> %MaxCore 64000
| 21>
| 22> %pal nprocs 4
| 23> end
| 24>
| 25> %scf
| 26>   MaxIter 150
| 27> end
| 28>
| 29>
| 30>                          ****END OF INPUT****

CARTESIAN COORDINATES (ANGSTROEM)
---------------------------------
  C      3.488280    1.600920   -1.522040
  C      4.342970    1.313420   -2.756830
  N      2.810290    0.428780   -1.014200
  H      2.714550    2.331450   -1.760300
  H      4.090990    2.063150   -0.733380
  C      3.290980   -0.418020   -0.129080
  N      2.517540   -1.432020    0.239360
  N      4.535490   -0.284410    0.395800
  H      5.043630    0.571890    0.222900
  H      4.723350   -0.733270    1.281800
  H      1.934790    0.102300   -1.403790
  H      1.674640   -1.505620   -0.316100
  H      2.928500   -2.218500    0.725490
  H      3.735750    0.862770   -3.513850
  H      5.137540    0.646990   -2.493330
  H      4.753740    2.229300   -3.127400

 Total Charge           Charge          ....    1
 Multiplicity           Mult            ....    1
 Number of Electrons    NEL             ....   48
 Basis Dimension        Dim             ....  246

ORBITAL ENERGIES
----------------

  NO   OCC          E(Eh)            E(eV)
   0   2.0000     -14.542907      -395.7326
   1   2.0000     -14.537749      -395.5923
   2   2.0000     -14.535701      -395.5365
   3   2.0000     -10.501164      -285.7512
   4   2.0000     -10.378898      -282.4242
   5   2.0000     -10.303677      -280.3773
   6   2.0000      -1.218825       -33.1659
   7   2.0000      -1.107563       -30.1383
   8   2.0000      -1.094080       -29.7714
   9   2.0000      -0.933531       -25.4027
  10   2.0000      -0.838979       -22.8298
  11   2.0000      -0.808009       -21.9871
  12   2.0000      -0.780007       -21.2251
  13   2.0000      -0.747840       -20.3498
  14   2.0000      -0.693020       -18.8580
  15   2.0000      -0.684247       -18.6193
  16   2.0000      -0.654067       -17.7981
  17   2.0000      -0.638104       -17.3637
  18   2.0000      -0.603621       -16.4254
  19   2.0000      -0.561478       -15.2786
  20   2.0000      -0.534183       -14.5359
  21   2.0000      -0.515089       -14.0163
  22   2.0000      -0.479093       -13.0368
  23   2.0000      -0.453112       -12.3298
  24   0.0000      -0.169174        -4.6034
  25   0.0000      -0.157875        -4.2960
  26   0.0000      -0.126472        -3.4415
  27   0.0000      -0.110377        -3.0035
  28   0.0000      -0.084745        -2.3060

MULLIKEN ATOMIC CHARGES
-----------------------
   0 C :   -0.163623
   1 C :   -0.282231
   2 N :   -0.217561
   3 H :    0.161286
   4 H :    0.126994
   5 C :    0.416679
   6 N :   -0.363399
   7 N :   -0.396936
   8 H :    0.270677
   9 H :    0.272475
  10 H :    0.234971
  11 H :    0.258134
  12 H :    0.282718
  13 H :    0.127454
  14 H :    0.118936
  15 H :    0.153425
Sum of atomic charges:    1.0000000

LOEWDIN ATOMIC CHARGES
----------------------
   0 C :   -0.279640
   1 C :   -0.276242
   2 N :    0.181161
   3 H :    0.150594
   4 H :    0.138236
   5 C :   -0.399744
   6 N :    0.066279
   7 N :    0.050140
   8 H :    0.189909
   9 H :    0.194879
  10 H :    0.208603
  11 H :    0.197071
  12 H :    0.199676
  13 H :    0.124737
  14 H :    0.119812
  15 H :    0.134526

  Mayer bond orders larger than 0.100000
B(  0-C ,  1-C ) :   0.9586 B(  0-C ,  2-N ) :   0.8667 B(  0-C ,  3-H ) :   0.9574
B(  0-C ,  4-H ) :   0.9676 B(  1-C , 13-H ) :   0.9676 B(  1-C , 14-H ) :   0.9628
B(  1-C , 15-H ) :   0.9687 B(  2-N ,  5-C ) :   1.4016 B(  2-N , 10-H ) :   0.9039
B(  5-C ,  6-N ) :   1.3311 B(  5-C ,  7-N ) :   1.3075 B(  6-N , 11-H ) :   0.9028
B(  6-N , 12-H ) :   0.8944 B(  7-N ,  8-H ) :   0.8967 B(  7-N ,  9-H ) :   0.8997

Dispersion correction           -0.020255788
FINAL SINGLE POINT ENERGY      -284.350073288026

DIPOLE MOMENT
-------------
                                X             Y             Z
Electronic contribution:     -1.93796      -3.01166       3.74160
Nuclear contribution   :      1.59382       2.33278      -3.02574
                        -----------------------------------------
Total Dipole Moment    :     -0.34414      -0.67888       0.71586
                        -----------------------------------------
Magnitude (a.u.)       :      1.04488
Magnitude (Debye)      :      2.65587

Rotational constants in cm-1:     0.232230     0.073139     0.063030
Rotational constants in MHz :  6962.079716  2192.649203  1889.578947

                             ****ORCA TERMINATED NORMALLY****
TOTAL RUN TIME: 0 days 0 hours 0 minutes 32 seconds 883 msec
