                         Program Version 5.0.0 -  RELEASE  -
|  1> !B3LYP D3BJ RIJCOSX def2-TZVP def2/J TightSCF
|  2> *xyz 0 1
|  3> C         -0.72184       -0.99951       -3.43931
|  4> C          0.28725       -1.71177       -2.52740
|  5> H          1.13178       -2.06738       -3.15940
|  6> H         -0.20414       -2.63733       -2.17048
|  7> F          0.71050       -0.92751       -1.48177
|  8> H         -1.01315       -1.65739       -4.23129
|  9> H         -0.27123       -0.12142       -3.85259
| 10> H         -1.58442       -0.72333       -2.86958
| 11> *
| 12> %MaxCore 64000
| 13>
| 14> %pal nprocs 4
| 15> end
| 16>
| 17> %scf
| 18>   MaxIter 150
| 19> end
| 20>
| 21>
| 22>                          ****END OF INPUT****

CARTESIAN COORDINATES (ANGSTROEM)
---------------------------------
  C     -0.721840   -0.999510   -3.439310
  C      0.287250   -1.711770   -2.527400
  H      1.131780   -2.067380   -3.159400
  H     -0.204140   -2.637330   -2.170480
  F      0.710500   -0.927510   -1.481770
  H     -1.013150   -1.657390   -4.231290
  H     -0.271230   -0.121420   -3.852590
  H     -1.584420   -0.723330   -2.869580

 Total Charge           Charge          ....    0
 Multiplicity           Mult            ....    1
 Number of Electrons    NEL             ....   26
 Basis Dimension        Dim             ....  123

ORBITAL ENERGIES
----------------

  NO   OCC          E(Eh)            E(eV)
   0   2.0000     -24.665225      -671.1749
   1   2.0000     -10.246768      -278.8287
   2   2.0000     -10.162954      -276.5480
   3   2.0000      -1.195441       -32.5296
   4   2.0000      -0.764366       -20.7994
   5   2.0000      -0.631135       -17.1740
   6   2.0000      -0.506711       -13.7883
   7   2.0000      -0.493865       -13.4388
   8   2.0000      -0.456487       -12.4216
   9   2.0000      -0.405244       -11.0273
  10   2.0000      -0.402035       -10.9399
  11   2.0000      -0.336882        -9.1670
  12   2.0000      -0.331284        -9.0147
  13   0.0000       0.040768         1.1094
  14   0.0000       0.079053         2.1511
  15   0.0000       0.095196         2.5904
  16   0.0000       0.097763         2.6603
  17   0.0000       0.111627         3.0375

MULLIKEN ATOMIC CHARGES
-----------------------
   0 C :   -0.298365
   1 C :    0.062288
   2 H :    0.082744
   3 H :    0.081922
   4 F :   -0.247414
   5 H :    0.099980
   6 H :    0.109154
   7 H :    0.109690
Sum of atomic charges:    0.0000000

LOEWDIN ATOMIC CHARGES
----------------------
   0 C :   -0.304886
   1 C :   -0.360565
   2 H :    0.114760
   3 H :    0.114291
   4 F :    0.087162
   5 H :    0.119551
   6 H :    0.114698
   7 H :    0.114990

  Mayer bond orders larger than 0.100000
B(  0-C ,  1-C ) :   0.9745 B(  0-C ,  5-H ) :   0.9579 B(  0-C ,  6-H ) :   0.9714
B(  0-C ,  7-H ) :   0.9714 B(  1-C ,  2-H ) :   0.9689 B(  1-C ,  3-H ) :   0.9696
B(  1-C ,  4-F ) :   0.9858

Dispersion correction           -0.005741004
FINAL SINGLE POINT ENERGY      -179.048323517698

DIPOLE MOMENT
-------------
                                X             Y             Z
Electronic contribution:      2.70683       1.05477       4.23398
Nuclear contribution   :     -2.97459      -1.40206      -4.79987
                        -----------------------------------------
Total Dipole Moment    :     -0.26777      -0.34728      -0.56589
                        -----------------------------------------
Magnitude (a.u.)       :      0.71592
Magnitude (Debye)      :      1.81972

Rotational constants in cm-1:     1.257024     0.302702     0.267953
Rotational constants in MHz : 37684.643733  9074.792567  8033.038070

                             ****ORCA TERMINATED NORMALLY****
TOTAL RUN TIME: 0 days 0 hours 0 minutes 12 seconds 305 msec
