                         Program Version 5.0.0 -  RELEASE  -
|  1> !B3LYP D3BJ RIJCOSX def2-TZVP def2/J TightSCF
|  2> *xyz 0 1
|  3> C          3.48828        1.60092       -1.52204
|  4> C          4.34297        1.31342       -2.75683
|  5> C          2.81029        0.42878       -1.01420
|  6> H          2.71455        2.33145       -1.76030
|  7> H          4.09099        2.06315       -0.73338
|  8> C          3.29098       -0.41802       -0.12908
|  9> N          2.51754       -1.43202        0.23936
| 10> N          4.53549       -0.28441        0.39580
| 11> H          5.04363        0.57189        0.22290
| 12> H          4.72335       -0.73327        1.28180
| 13> H          1.93479        0.10230       -1.40379
| 14> H          1.67464       -1.50562       -0.31610
| 15> H          2.92850       -2.21850        0.72549
| 16> H          3.73575        0.86277       -3.51385
| 17> H          5.13754        0.64699       -2.49333
| 18> H          4.75374        2.22930       -3.12740
| 19> *
| 20> %MaxCore 64000
| 21>
| 22> %pal nprocs 4
| 23> end
| 24>
| 25> %scf
| 26>   MaxIter 150
| 27> end
| 28>
| 29>
| 30>                          ****END OF INPUT****

CARTESIAN COORDINATES (ANGSTROEM)
---------------------------------
  C      3.488280    1.600920   -1.522040
  C      4.342970    1.313420   -2.756830
  C      2.810290    0.428780   -1.014200
  H      2.714550    2.331450   -1.760300
  H      4.090990    2.063150   -0.733380
  C      3.290980   -0.418020   -0.129080
  N      2.517540   -1.432020    0.239360
  N      4.535490   -0.284410    0.395800
  H      5.043630    0.571890    0.222900
  H      4.723350   -0.733270    1.281800
  H      1.934790    0.102300   -1.403790
  H      1.674640   -1.505620   -0.316100
  H      2.928500   -2.218500    0.725490
  H      3.735750    0.862770   -3.513850
  H      5.137540    0.646990   -2.493330
  H      4.753740    2.229300   -3.127400

 Total Charge           Charge          ....    0
 Multiplicity           Mult            ....    1
 Number of Electrons    NEL             ....   48
 Basis Dimension        Dim             ....  246

ORBITAL ENERGIES
----------------

  NO   OCC          E(Eh)            E(eV)
   0   2.0000     -14.312828      -389.4718
   1   2.0000     -14.308213      -389.3463
   2   2.0000     -10.205565      -277.7075
   3   2.0000     -10.143172      -276.0098
   4   2.0000     -10.130839      -275.6742
   5   2.0000     -10.089323      -274.5444
   6   2.0000      -0.956685       -26.0327
   7   2.0000      -0.869538       -23.6613
   8   2.0000      -0.772763       -21.0279
   9   2.0000      -0.693828       -18.8800
  10   2.0000      -0.613026       -16.6813
  11   2.0000      -0.578027       -15.7289
  12   2.0000      -0.535394       -14.5688
  13   2.0000      -0.509105       -13.8534
  14   2.0000      -0.465549       -12.6682
  15   2.0000      -0.437828       -11.9139
  16   2.0000      -0.416214       -11.3258
  17   2.0000      -0.394217       -10.7272
  18   2.0000      -0.380583       -10.3562
  19   2.0000      -0.350853        -9.5472
  20   2.0000      -0.332153        -9.0384
  21   2.0000      -0.320696        -8.7266
  22   2.0000      -0.263679        -7.1751
  23   2.0000      -0.160822        -4.3762
  24   0.0000       0.020377         0.5545
  25   0.0000       0.050115         1.3637
  26   0.0000       0.059568         1.6209
  27   0.0000       0.077122         2.0986
  28   0.0000       0.087826         2.3899

MULLIKEN ATOMIC CHARGES
-----------------------
   0 C :   -0.203859
   1 C :   -0.267925
   2 C :   -0.250178
   3 H :    0.080883
   4 H :    0.054061
   5 C :    0.313474
   6 N :   -0.444388
   7 N :   -0.472355
   8 H :    0.226041
   9 H :    0.204647
  10 H :    0.057411
  11 H :    0.224138
  12 H :    0.209217
  13 H :    0.089816
  14 H :    0.092241
  15 H :    0.086775
Sum of atomic charges:   -0.0000000

LOEWDIN ATOMIC CHARGES
----------------------
   0 C :   -0.303119
   1 C :   -0.297136
   2 C :   -0.275106
   3 H :    0.136524
   4 H :    0.124484
   5 C :   -0.450674
   6 N :   -0.017619
   7 N :   -0.028546
   8 H :    0.168425
   9 H :    0.157233
  10 H :    0.118628
  11 H :    0.179784
  12 H :    0.160034
  13 H :    0.111665
  14 H :    0.110177
  15 H :    0.105245

  Mayer bond orders larger than 0.100000
B(  0-C ,  1-C ) :   0.9439 B(  0-C ,  2-C ) :   1.0247 B(  0-C ,  3-H ) :   0.9785
B(  0-C ,  4-H ) :   0.9763 B(  1-C , 13-H ) :   0.9814 B(  1-C , 14-H ) :   0.9780
B(  1-C , 15-H ) :   0.9749 B(  2-C ,  5-C ) :   1.6698 B(  2-C , 10-H ) :   0.9739
B(  5-C ,  6-N ) :   1.1558 B(  5-C ,  7-N ) :   1.1383 B(  6-N , 11-H ) :   0.9210
B(  6-N , 12-H ) :   0.9247 B(  7-N ,  8-H ) :   0.9244 B(  7-N ,  9-H ) :   0.9261

Dispersion correction           -0.021183990
FINAL SINGLE POINT ENERGY      -267.868726453424

DIPOLE MOMENT
-------------
                                X             Y             Z
Electronic contribution:     -1.26923      -2.97570       3.70040
Nuclear contribution   :      1.44676       2.38443      -3.07370
                        -----------------------------------------
Total Dipole Moment    :      0.17753      -0.59127       0.62670
                        -----------------------------------------
Magnitude (a.u.)       :      0.87970
Magnitude (Debye)      :      2.23603

Rotational constants in cm-1:     0.235977     0.073199     0.063283
Rotational constants in MHz :  7074.404583  2194.453291  1897.179599

                             ****ORCA TERMINATED NORMALLY****
TOTAL RUN TIME: 0 days 0 hours 0 minutes 33 seconds 964 msec
