                         Program Version 5.0.0 -  RELEASE  -
|  1> !B3LYP D3BJ RIJCOSX def2-TZVP def2/J TightSCF
|  2> *xyz 0 1
|  3> C          3.48828        1.60092       -1.52204
|  4> C          4.34297        1.31342       -2.75683
|  5> N          2.81029        0.42878       -1.01420
|  6> H          2.71455        2.33145       -1.76030
|  7> H          4.09099        2.06315       -0.73338
|  8> C          3.29098       -0.41802       -0.12908
|  9> C          2.51754       -1.43202        0.23936
| 10> N          4.53549       -0.28441        0.39580
| 11> H          5.04363        0.57189        0.22290
| 12> H          4.72335       -0.73327        1.28180
| 13> H          1.93479        0.10230       -1.40379
| 14> H          1.67464       -1.50562       -0.31610
| 15> H          2.92850       -2.21850        0.72549
| 16> H          3.73575        0.86277       -3.51385
| 17> H          5.13754        0.64699       -2.49333
| 18> H          4.75374        2.22930       -3.12740
| 19> *
| 20> %MaxCore 64000
| 21>
| 22> %pal nprocs 4
| 23> end
| 24>
| 25> %scf
| 26>   MaxIter 150
| 27> end
| 28>
| 29>
| 30>                          ****END OF INPUT****

CARTESIAN COORDINATES (ANGSTROEM)
---------------------------------
  C      3.488280    1.600920   -1.522040
  C      4.342970    1.313420   -2.756830
  N      2.810290    0.428780   -1.014200
  H      2.714550    2.331450   -1.760300
  H      4.090990    2.063150   -0.733380
  C      3.290980   -0.418020   -0.129080
  C      2.517540   -1.432020    0.239360
  N      4.535490   -0.284410    0.395800
  H      5.043630    0.571890    0.222900
  H      4.723350   -0.733270    1.281800
  H      1.934790    0.102300   -1.403790
  H      1.674640   -1.505620   -0.316100
  H      2.928500   -2.218500    0.725490
  H      3.735750    0.862770   -3.513850
  H      5.137540    0.646990   -2.493330
  H      4.753740    2.229300   -3.127400

 Total Charge           Charge          ....    0
 Multiplicity           Mult            ....    1
 Number of Electrons    NEL             ....   48
 Basis Dimension        Dim             ....  246

ORBITAL ENERGIES
----------------

  NO   OCC          E(Eh)            E(eV)
   0   2.0000     -14.314624      -389.5207
   1   2.0000     -14.312999      -389.4765
   2   2.0000     -10.211042      -277.8566
   3   2.0000     -10.210099      -277.8309
   4   2.0000     -10.157945      -276.4117
   5   2.0000     -10.075316      -274.1633
   6   2.0000      -0.968200       -26.3461
   7   2.0000      -0.882989       -24.0274
   8   2.0000      -0.774782       -21.0829
   9   2.0000      -0.701281       -19.0828
  10   2.0000      -0.629555       -17.1311
  11   2.0000      -0.597060       -16.2468
  12   2.0000      -0.534843       -14.5538
  13   2.0000      -0.498984       -13.5780
  14   2.0000      -0.478533       -13.0215
  15   2.0000      -0.440737       -11.9931
  16   2.0000      -0.429287       -11.6815
  17   2.0000      -0.404245       -11.0001
  18   2.0000      -0.378646       -10.3035
  19   2.0000      -0.373224       -10.1559
  20   2.0000      -0.362613        -9.8672
  21   2.0000      -0.356813        -9.7094
  22   2.0000      -0.257180        -6.9982
  23   2.0000      -0.160255        -4.3608
  24   0.0000       0.019933         0.5424
  25   0.0000       0.046382         1.2621
  26   0.0000       0.055790         1.5181
  27   0.0000       0.076326         2.0769
  28   0.0000       0.083525         2.2728

MULLIKEN ATOMIC CHARGES
-----------------------
   0 C :   -0.133746
   1 C :   -0.252412
   2 N :   -0.275695
   3 H :    0.105542
   4 H :    0.088702
   5 C :    0.359002
   6 C :   -0.482120
   7 N :   -0.469476
   8 H :    0.207864
   9 H :    0.233189
  10 H :    0.205096
  11 H :    0.040365
  12 H :    0.079236
  13 H :    0.095113
  14 H :    0.104133
  15 H :    0.095209
Sum of atomic charges:    0.0000000

LOEWDIN ATOMIC CHARGES
----------------------
   0 C :   -0.311704
   1 C :   -0.300108
   2 N :    0.128764
   3 H :    0.129470
   4 H :    0.124333
   5 C :   -0.453929
   6 C :   -0.348194
   7 N :   -0.024157
   8 H :    0.155186
   9 H :    0.174299
  10 H :    0.195669
  11 H :    0.095520
  12 H :    0.094763
  13 H :    0.113394
  14 H :    0.113989
  15 H :    0.112706

  Mayer bond orders larger than 0.100000
B(  0-C ,  1-C ) :   0.9405 B(  0-C ,  2-N ) :   0.9490 B(  0-C ,  3-H ) :   0.9755
B(  0-C ,  4-H ) :   0.9748 B(  1-C , 13-H ) :   0.9737 B(  1-C , 14-H ) :   0.9725
B(  1-C , 15-H ) :   0.9688 B(  2-N ,  5-C ) :   1.1975 B(  2-N , 10-H ) :   0.9228
B(  5-C ,  6-C ) :   1.6333 B(  5-C ,  7-N ) :   1.1284 B(  6-C , 11-H ) :   1.0059
B(  6-C , 12-H ) :   1.0071 B(  7-N ,  8-H ) :   0.9274 B(  7-N ,  9-H ) :   0.9247

Dispersion correction           -0.020932358
FINAL SINGLE POINT ENERGY      -267.857373129310

DIPOLE MOMENT
-------------
                                X             Y             Z
Electronic contribution:     -0.86046      -1.04400       2.43264
Nuclear contribution   :      1.38466       1.98967      -2.80776
                        -----------------------------------------
Total Dipole Moment    :      0.52419       0.94567      -0.37513
                        -----------------------------------------
Magnitude (a.u.)       :      1.14446
Magnitude (Debye)      :      2.90899

Rotational constants in cm-1:     0.235618     0.075969     0.065309
Rotational constants in MHz :  7063.646698  2277.495424  1957.925383

                             ****ORCA TERMINATED NORMALLY****
TOTAL RUN TIME: 0 days 0 hours 0 minutes 33 seconds 646 msec
