                         Program Version 5.0.0 -  RELEASE  -
|  1> !B3LYP D3BJ RIJCOSX def2-TZVP def2/J TightSCF
|  2> *xyz 0 1
|  3> C          3.48828        1.60092       -1.52204
|  4> C          4.34297        1.31342       -2.75683
|  5> N          2.81029        0.42878       -1.01420
|  6> H          2.71455        2.33145       -1.76030
|  7> H          4.09099        2.06315       -0.73338
|  8> C          3.29098       -0.41802       -0.12908
|  9> N          2.51754       -1.43202        0.23936
| 10> C          4.53549       -0.28441        0.39580
| 11> H          5.04363        0.57189        0.22290
| 12> H          4.72335       -0.73327        1.28180
| 13> H          1.93479        0.10230       -1.40379
| 14> H          1.67464       -1.50562       -0.31610
| 15> H          2.92850       -2.21850        0.72549
| 16> H          3.73575        0.86277       -3.51385
| 17> H          5.13754        0.64699       -2.49333
| 18> H          4.75374        2.22930       -3.12740
| 19> *
| 20> %MaxCore 64000
| 21>
| 22> %pal nprocs 4
| 23> end
| 24>
| 25> %scf
| 26>   MaxIter 150
| 27> end
| 28>
| 29>
| 30>                          ****END OF INPUT****

CARTESIAN COORDINATES (ANGSTROEM)
---------------------------------
  C      3.488280    1.600920   -1.522040
  C      4.342970    1.313420   -2.756830
  N      2.810290    0.428780   -1.014200
  H      2.714550    2.331450   -1.760300
  H      4.090990    2.063150   -0.733380
  C      3.290980   -0.418020   -0.129080
  N      2.517540   -1.432020    0.239360
  C      4.535490   -0.284410    0.395800
  H      5.043630    0.571890    0.222900
  H      4.723350   -0.733270    1.281800
  H      1.934790    0.102300   -1.403790
  H      1.674640   -1.505620   -0.316100
  H      2.928500   -2.218500    0.725490
  H      3.735750    0.862770   -3.513850
  H      5.137540    0.646990   -2.493330
  H      4.753740    2.229300   -3.127400

 Total Charge           Charge          ....    0
 Multiplicity           Mult            ....    1
 Number of Electrons    NEL             ....   48
 Basis Dimension        Dim             ....  246

ORBITAL ENERGIES
----------------

  NO   OCC          E(Eh)            E(eV)
   0   2.0000     -14.320040      -389.6681
   1   2.0000     -14.314843      -389.5267
   2   2.0000     -10.212498      -277.8962
   3   2.0000     -10.203068      -277.6396
   4   2.0000     -10.149874      -276.1921
   5   2.0000     -10.075893      -274.1790
   6   2.0000      -0.977049       -26.5868
   7   2.0000      -0.888028       -24.1645
   8   2.0000      -0.755336       -20.5537
   9   2.0000      -0.704188       -19.1619
  10   2.0000      -0.643492       -17.5103
  11   2.0000      -0.562591       -15.3089
  12   2.0000      -0.541537       -14.7360
  13   2.0000      -0.528641       -14.3851
  14   2.0000      -0.467494       -12.7211
  15   2.0000      -0.440022       -11.9736
  16   2.0000      -0.424455       -11.5500
  17   2.0000      -0.394402       -10.7322
  18   2.0000      -0.379327       -10.3220
  19   2.0000      -0.367991       -10.0135
  20   2.0000      -0.358448        -9.7539
  21   2.0000      -0.348353        -9.4792
  22   2.0000      -0.251446        -6.8422
  23   2.0000      -0.162803        -4.4301
  24   0.0000       0.014255         0.3879
  25   0.0000       0.049223         1.3394
  26   0.0000       0.060386         1.6432
  27   0.0000       0.076254         2.0750
  28   0.0000       0.092637         2.5208

MULLIKEN ATOMIC CHARGES
-----------------------
   0 C :   -0.088570
   1 C :   -0.282217
   2 N :   -0.285813
   3 H :    0.098479
   4 H :    0.109304
   5 C :    0.334779
   6 N :   -0.433984
   7 C :   -0.507329
   8 H :    0.064776
   9 H :    0.075268
  10 H :    0.169257
  11 H :    0.192158
  12 H :    0.241731
  13 H :    0.082771
  14 H :    0.131359
  15 H :    0.098033
Sum of atomic charges:   -0.0000000

LOEWDIN ATOMIC CHARGES
----------------------
   0 C :   -0.294305
   1 C :   -0.298051
   2 N :    0.126437
   3 H :    0.126921
   4 H :    0.135411
   5 C :   -0.465502
   6 N :   -0.008882
   7 C :   -0.366205
   8 H :    0.091874
   9 H :    0.092778
  10 H :    0.175402
  11 H :    0.160622
  12 H :    0.179128
  13 H :    0.109745
  14 H :    0.120744
  15 H :    0.113883

  Mayer bond orders larger than 0.100000
B(  0-C ,  1-C ) :   0.9504 B(  0-C ,  2-N ) :   0.9260 B(  0-C ,  3-H ) :   0.9762
B(  0-C ,  4-H ) :   0.9637 B(  1-C , 13-H ) :   0.9737 B(  1-C , 14-H ) :   0.9752
B(  1-C , 15-H ) :   0.9719 B(  2-N ,  5-C ) :   1.1903 B(  2-N , 10-H ) :   0.9289
B(  5-C ,  6-N ) :   1.1500 B(  5-C ,  7-C ) :   1.6256 B(  6-N , 11-H ) :   0.9297
B(  6-N , 12-H ) :   0.9196 B(  7-C ,  8-H ) :   1.0124 B(  7-C ,  9-H ) :   0.9959

Dispersion correction           -0.021084015
FINAL SINGLE POINT ENERGY      -267.857198987137

DIPOLE MOMENT
-------------
                                X             Y             Z
Electronic contribution:     -2.87454      -2.32026       2.18081
Nuclear contribution   :      1.81275       2.23313      -2.77458
                        -----------------------------------------
Total Dipole Moment    :     -1.06179      -0.08714      -0.59377
                        -----------------------------------------
Magnitude (a.u.)       :      1.21965
Magnitude (Debye)      :      3.10011

Rotational constants in cm-1:     0.245202     0.073668     0.064348
Rotational constants in MHz :  7350.977980  2208.513334  1929.108541

                             ****ORCA TERMINATED NORMALLY****
TOTAL RUN TIME: 0 days 0 hours 0 minutes 33 seconds 549 msec
