                         Program Version 5.0.0 -  RELEASE  -
|  1> !B3LYP D3BJ RIJCOSX def2-TZVP def2/J TightSCF xyzfile
|  2>
|  3> *xyzfile 0 1 D1.xyz
|  4>
|  5> %MaxCore 64000
|  6>
|  7> %pal nprocs 18
|  8> end
|  9>
| 10> %scf
| 11>   MaxIter 150
| 12> end
| 13>
| 14>
| 15>                          ****END OF INPUT****

CARTESIAN COORDINATES (ANGSTROEM)
---------------------------------
  C      3.488276    1.600919   -1.522040
  C      4.342970    1.313419   -2.756826
  C      2.810285    0.428783   -1.014196
  H      5.132033    0.604994   -2.484466
  C      3.535896    0.749253   -3.924604
  H      4.841247    2.242136   -3.054083
  H      2.991617   -0.132199   -3.574137
  H      4.225505    0.392784   -4.695962
  C      2.564776    1.750890   -4.544523
  H      1.918749    2.171679   -3.769419
  C      1.686235    1.161657   -5.650111
  H      3.132494    2.594775   -4.951604
  C      0.839616   -0.037582   -5.220473
  H      2.323886    0.866395   -6.490796
  H      1.029518    1.951850   -6.029329
  C     -0.151019    0.254955   -4.094256
  H      1.499442   -0.857141   -4.922958
  H      0.290097   -0.410143   -6.091131
  H      0.328265    0.833022   -3.299125
  C     -0.721843   -0.999513   -3.439309
  H     -0.957367    0.884951   -4.485450
  H     -1.083403   -1.697555   -4.205656
  H     -1.581056   -0.723848   -2.820490
  C      0.287250   -1.711771   -2.527405
  H      1.131780   -2.067380   -3.159396
  H     -0.204137   -2.637326   -2.170480
  F      0.710505   -0.927506   -1.481767
  H      2.714548    2.331455   -1.760302
  H      4.090991    2.063151   -0.733382
  C      3.290978   -0.418021   -0.129083
  N      2.517536   -1.432017    0.239360
  N      4.535490   -0.284410    0.395800
  H      5.043627    0.571888    0.222899
  H      4.723346   -0.733273    1.281800
  H      1.934787    0.102305   -1.403788
  H      1.674638   -1.505616   -0.316095
  H      2.928503   -2.218502    0.725494

 Total Charge           Charge          ....    0
 Multiplicity           Mult            ....    1
 Number of Electrons    NEL             ....  112
 Basis Dimension        Dim             ....  572

ORBITAL ENERGIES
----------------

  NO   OCC          E(Eh)            E(eV)
   0   2.0000     -24.696395      -672.0231
   1   2.0000     -14.298145      -389.0723
   2   2.0000     -14.281965      -388.6320
   3   2.0000     -10.257556      -279.1223
   4   2.0000     -10.187929      -277.2276
   5   2.0000     -10.179161      -276.9891
   6   2.0000     -10.163791      -276.5708
   7   2.0000     -10.159671      -276.4587
   8   2.0000     -10.155020      -276.3322
   9   2.0000     -10.147040      -276.1150
  10   2.0000     -10.141296      -275.9587
  11   2.0000     -10.136060      -275.8162
  12   2.0000     -10.129527      -275.6384
  13   2.0000     -10.062152      -273.8051
  14   2.0000      -1.235774       -33.6271
  15   2.0000      -0.938733       -25.5442
  16   2.0000      -0.852555       -23.1992
  17   2.0000      -0.817111       -22.2347
  18   2.0000      -0.792188       -21.5565
  19   2.0000      -0.763126       -20.7657
  20   2.0000      -0.729725       -19.8568
  21   2.0000      -0.691484       -18.8162
  22   2.0000      -0.665670       -18.1138
  23   2.0000      -0.631974       -17.1969
  24   2.0000      -0.602205       -16.3868
  25   2.0000      -0.587656       -15.9909
  26   2.0000      -0.563523       -15.3342
  27   2.0000      -0.546562       -14.8727
  28   2.0000      -0.533053       -14.5051
  29   2.0000      -0.520673       -14.1682
  30   2.0000      -0.511730       -13.9249
  31   2.0000      -0.495036       -13.4706
  32   2.0000      -0.485251       -13.2044
  33   2.0000      -0.462100       -12.5744
  34   2.0000      -0.454422       -12.3654
  35   2.0000      -0.441782       -12.0215
  36   2.0000      -0.435682       -11.8555
  37   2.0000      -0.421938       -11.4815
  38   2.0000      -0.411977       -11.2105
  39   2.0000      -0.402075       -10.9410
  40   2.0000      -0.394202       -10.7268
  41   2.0000      -0.375143       -10.2082
  42   2.0000      -0.371044       -10.0966
  43   2.0000      -0.363406        -9.8888
  44   2.0000      -0.359894        -9.7932
  45   2.0000      -0.357541        -9.7292
  46   2.0000      -0.337676        -9.1886
  47   2.0000      -0.329730        -8.9724
  48   2.0000      -0.320414        -8.7189
  49   2.0000      -0.318313        -8.6617
  50   2.0000      -0.314680        -8.5629
  51   2.0000      -0.300419        -8.1748
  52   2.0000      -0.294167        -8.0047
  53   2.0000      -0.288557        -7.8520
  54   2.0000      -0.246522        -6.7082
  55   2.0000      -0.143751        -3.9117
  56   0.0000       0.028814         0.7841
  57   0.0000       0.036910         1.0044
  58   0.0000       0.045742         1.2447
  59   0.0000       0.052009         1.4152
  60   0.0000       0.061949         1.6857

MULLIKEN ATOMIC CHARGES
-----------------------
   0 C :   -0.274385
   1 C :   -0.052862
   2 C :   -0.354507
   3 H :    0.074500
   4 C :   -0.178183
   5 H :    0.055404
   6 H :    0.090132
   7 H :    0.073522
   8 C :   -0.222899
   9 H :    0.096450
  10 C :   -0.102539
  11 H :    0.081172
  12 C :   -0.227932
  13 H :    0.081733
  14 H :    0.079553
  15 C :   -0.178796
  16 H :    0.094460
  17 H :    0.088094
  18 H :    0.111305
  19 C :   -0.130238
  20 H :    0.090740
  21 H :    0.089791
  22 H :    0.098764
  23 C :   -0.012580
  24 H :    0.102153
  25 H :    0.110993
  26 F :   -0.242040
  27 H :    0.087416
  28 H :    0.064271
  29 C :    0.289128
  30 N :   -0.467518
  31 N :   -0.472898
  32 H :    0.221959
  33 H :    0.199104
  34 H :    0.195076
  35 H :    0.245546
  36 H :    0.196108
Sum of atomic charges:   -0.0000000

LOEWDIN ATOMIC CHARGES
----------------------
   0 C :   -0.284242
   1 C :   -0.258172
   2 C :   -0.280758
   3 H :    0.130693
   4 C :   -0.262369
   5 H :    0.124395
   6 H :    0.131957
   7 H :    0.129717
   8 C :   -0.264066
   9 H :    0.130093
  10 C :   -0.263061
  11 H :    0.132758
  12 C :   -0.266340
  13 H :    0.133055
  14 H :    0.132434
  15 C :   -0.262744
  16 H :    0.129278
  17 H :    0.131821
  18 H :    0.140424
  19 C :   -0.267228
  20 H :    0.134640
  21 H :    0.141705
  22 H :    0.137418
  23 C :   -0.338000
  24 H :    0.123339
  25 H :    0.123613
  26 F :    0.145885
  27 H :    0.135106
  28 H :    0.125343
  29 C :   -0.453824
  30 N :   -0.026457
  31 N :   -0.033880
  32 H :    0.166061
  33 H :    0.153948
  34 H :    0.115486
  35 H :    0.158824
  36 H :    0.153150

  Mayer bond orders larger than 0.100000
B(  0-C ,  1-C ) :   0.9354 B(  0-C ,  2-C ) :   0.9682 B(  0-C , 27-H ) :   1.0065
B(  0-C , 28-H ) :   0.9842 B(  1-C ,  3-H ) :   0.9606 B(  1-C ,  4-C ) :   0.9873
B(  1-C ,  5-H ) :   0.9646 B(  2-C , 29-C ) :   1.6470 B(  2-C , 34-H ) :   0.9577
B(  4-C ,  6-H ) :   0.9706 B(  4-C ,  7-H ) :   0.9665 B(  4-C ,  8-C ) :   0.9601
B(  8-C ,  9-H ) :   0.9867 B(  8-C , 10-C ) :   0.9687 B(  8-C , 11-H ) :   0.9646
B( 10-C , 12-C ) :   0.9688 B( 10-C , 13-H ) :   0.9670 B( 10-C , 14-H ) :   0.9716
B( 12-C , 15-C ) :   0.9548 B( 12-C , 16-H ) :   0.9833 B( 12-C , 17-H ) :   0.9625
B( 15-C , 18-H ) :   0.9789 B( 15-C , 19-C ) :   0.9634 B( 15-C , 20-H ) :   0.9638
B( 19-C , 21-H ) :   0.9538 B( 19-C , 22-H ) :   0.9654 B( 19-C , 23-C ) :   0.9936
B( 23-C , 24-H ) :   0.9746 B( 23-C , 25-H ) :   0.9613 B( 23-C , 26-F ) :   0.8952
B( 29-C , 30-N ) :   1.1942 B( 29-C , 31-N ) :   1.1316 B( 30-N , 35-H ) :   0.8872
B( 30-N , 36-H ) :   0.9290 B( 31-N , 32-H ) :   0.9244 B( 31-N , 33-H ) :   0.9270

Dispersion correction           -0.065309319
FINAL SINGLE POINT ENERGY      -642.214663652014

DIPOLE MOMENT
-------------
                                X             Y             Z
Electronic contribution:     -1.57471      -4.90447      10.77594
Nuclear contribution   :      1.15699       3.94991     -10.89335
                        -----------------------------------------
Total Dipole Moment    :     -0.41772      -0.95456      -0.11741
                        -----------------------------------------
Magnitude (a.u.)       :      1.04856
Magnitude (Debye)      :      2.66522

Rotational constants in cm-1:     0.026548     0.016177     0.010851
Rotational constants in MHz :   795.884848   484.988695   325.313537

                             ****ORCA TERMINATED NORMALLY****
TOTAL RUN TIME: 0 days 0 hours 1 minutes 27 seconds 231 msec
