                         Program Version 5.0.0 -  RELEASE  -
|  1> !B3LYP D3BJ RIJCOSX def2-TZVP def2/J TightSCF xyzfile
|  2>
|  3> *xyzfile 0 1 D2.xyz
|  4>
|  5> %MaxCore 64000
|  6>
|  7> %pal nprocs 18
|  8> end
|  9>
| 10> %scf
| 11>   MaxIter 150
| 12> end
| 13>
| 14>
| 15>                          ****END OF INPUT****

CARTESIAN COORDINATES (ANGSTROEM)
---------------------------------
  C      3.488276    1.600919   -1.522040
  C      4.342970    1.313419   -2.756826
  N      2.810285    0.428783   -1.014196
  H      5.132033    0.604994   -2.484466
  C      3.535896    0.749253   -3.924604
  H      4.841247    2.242136   -3.054083
  H      2.991617   -0.132199   -3.574137
  H      4.225505    0.392784   -4.695962
  C      2.564776    1.750890   -4.544523
  H      1.918749    2.171679   -3.769419
  C      1.686235    1.161657   -5.650111
  H      3.132494    2.594775   -4.951604
  C      0.839616   -0.037582   -5.220473
  H      2.323886    0.866395   -6.490796
  H      1.029518    1.951850   -6.029329
  C     -0.151019    0.254955   -4.094256
  H      1.499442   -0.857141   -4.922958
  H      0.290097   -0.410143   -6.091131
  H      0.328265    0.833022   -3.299125
  C     -0.721843   -0.999513   -3.439309
  H     -0.957367    0.884951   -4.485450
  H     -1.083403   -1.697555   -4.205656
  H     -1.581056   -0.723848   -2.820490
  C      0.287250   -1.711771   -2.527405
  H      1.131780   -2.067380   -3.159396
  H     -0.204137   -2.637326   -2.170480
  F      0.710505   -0.927506   -1.481767
  H      2.714548    2.331455   -1.760302
  H      4.090991    2.063151   -0.733382
  C      3.290978   -0.418021   -0.129083
  C      2.517536   -1.432017    0.239360
  N      4.535490   -0.284410    0.395800
  H      5.043627    0.571888    0.222899
  H      4.723346   -0.733273    1.281800
  H      1.934787    0.102305   -1.403788
  H      1.674638   -1.505616   -0.316095
  H      2.928503   -2.218502    0.725494

 Total Charge           Charge          ....    0
 Multiplicity           Mult            ....    1
 Number of Electrons    NEL             ....  112
 Basis Dimension        Dim             ....  572

ORBITAL ENERGIES
----------------

  NO   OCC          E(Eh)            E(eV)
   0   2.0000     -24.694401      -671.9688
   1   2.0000     -14.296795      -389.0356
   2   2.0000     -14.287647      -388.7866
   3   2.0000     -10.256561      -279.0952
   4   2.0000     -10.194521      -277.4070
   5   2.0000     -10.190603      -277.3004
   6   2.0000     -10.181226      -277.0453
   7   2.0000     -10.171105      -276.7698
   8   2.0000     -10.167507      -276.6719
   9   2.0000     -10.165443      -276.6158
  10   2.0000     -10.162203      -276.5276
  11   2.0000     -10.160066      -276.4694
  12   2.0000     -10.159286      -276.4482
  13   2.0000     -10.047736      -273.4128
  14   2.0000      -1.233748       -33.5720
  15   2.0000      -0.949283       -25.8313
  16   2.0000      -0.866713       -23.5845
  17   2.0000      -0.825153       -22.4536
  18   2.0000      -0.798228       -21.7209
  19   2.0000      -0.771366       -20.9899
  20   2.0000      -0.726583       -19.7713
  21   2.0000      -0.703025       -19.1303
  22   2.0000      -0.668998       -18.2044
  23   2.0000      -0.642699       -17.4887
  24   2.0000      -0.610725       -16.6187
  25   2.0000      -0.595727       -16.2106
  26   2.0000      -0.575903       -15.6711
  27   2.0000      -0.558628       -15.2010
  28   2.0000      -0.534686       -14.5495
  29   2.0000      -0.521542       -14.1919
  30   2.0000      -0.509699       -13.8696
  31   2.0000      -0.495048       -13.4709
  32   2.0000      -0.482742       -13.1361
  33   2.0000      -0.472191       -12.8490
  34   2.0000      -0.466639       -12.6979
  35   2.0000      -0.453011       -12.3271
  36   2.0000      -0.436717       -11.8837
  37   2.0000      -0.430062       -11.7026
  38   2.0000      -0.427667       -11.6374
  39   2.0000      -0.413147       -11.2423
  40   2.0000      -0.394399       -10.7321
  41   2.0000      -0.382618       -10.4116
  42   2.0000      -0.373740       -10.1700
  43   2.0000      -0.371845       -10.1184
  44   2.0000      -0.363822        -9.9001
  45   2.0000      -0.360011        -9.7964
  46   2.0000      -0.346236        -9.4216
  47   2.0000      -0.343358        -9.3433
  48   2.0000      -0.336531        -9.1575
  49   2.0000      -0.328509        -8.9392
  50   2.0000      -0.319948        -8.7062
  51   2.0000      -0.317355        -8.6357
  52   2.0000      -0.314691        -8.5632
  53   2.0000      -0.311040        -8.4638
  54   2.0000      -0.239576        -6.5192
  55   2.0000      -0.141129        -3.8403
  56   0.0000       0.027765         0.7555
  57   0.0000       0.033772         0.9190
  58   0.0000       0.040819         1.1107
  59   0.0000       0.046122         1.2550
  60   0.0000       0.056932         1.5492

MULLIKEN ATOMIC CHARGES
-----------------------
   0 C :   -0.213232
   1 C :   -0.037788
   2 N :   -0.278909
   3 H :    0.090466
   4 C :   -0.232564
   5 H :    0.066706
   6 H :    0.101724
   7 H :    0.087096
   8 C :   -0.214090
   9 H :    0.092284
  10 C :   -0.105586
  11 H :    0.086944
  12 C :   -0.232870
  13 H :    0.086664
  14 H :    0.084072
  15 C :   -0.183165
  16 H :    0.098563
  17 H :    0.093553
  18 H :    0.096308
  19 C :   -0.129431
  20 H :    0.094978
  21 H :    0.090654
  22 H :    0.101691
  23 C :    0.002283
  24 H :    0.099877
  25 H :    0.117449
  26 F :   -0.242833
  27 H :    0.117324
  28 H :    0.100625
  29 C :    0.333756
  30 C :   -0.545852
  31 N :   -0.476700
  32 H :    0.203672
  33 H :    0.228292
  34 H :    0.238917
  35 H :    0.106589
  36 H :    0.072533
Sum of atomic charges:    0.0000000

LOEWDIN ATOMIC CHARGES
----------------------
   0 C :   -0.294323
   1 C :   -0.266176
   2 N :    0.127593
   3 H :    0.134118
   4 C :   -0.264523
   5 H :    0.131076
   6 H :    0.132435
   7 H :    0.134363
   8 C :   -0.265682
   9 H :    0.128257
  10 C :   -0.261805
  11 H :    0.134081
  12 C :   -0.265893
  13 H :    0.134457
  14 H :    0.133925
  15 C :   -0.264402
  16 H :    0.129866
  17 H :    0.133734
  18 H :    0.134747
  19 C :   -0.267866
  20 H :    0.135487
  21 H :    0.142008
  22 H :    0.138123
  23 C :   -0.332010
  24 H :    0.122884
  25 H :    0.128083
  26 F :    0.145631
  27 H :    0.128472
  28 H :    0.125375
  29 C :   -0.456755
  30 C :   -0.362730
  31 N :   -0.030403
  32 H :    0.152341
  33 H :    0.171243
  34 H :    0.172899
  35 H :    0.091703
  36 H :    0.089666

  Mayer bond orders larger than 0.100000
B(  0-C ,  1-C ) :   0.9147 B(  0-C ,  2-N ) :   0.9425 B(  0-C , 27-H ) :   0.9896
B(  0-C , 28-H ) :   0.9812 B(  1-C ,  3-H ) :   0.9602 B(  1-C ,  4-C ) :   0.9636
B(  1-C ,  5-H ) :   0.9611 B(  2-N , 29-C ) :   1.2143 B(  2-N , 34-H ) :   0.8837
B(  4-C ,  6-H ) :   0.9789 B(  4-C ,  7-H ) :   0.9658 B(  4-C ,  8-C ) :   0.9536
B(  8-C ,  9-H ) :   0.9849 B(  8-C , 10-C ) :   0.9712 B(  8-C , 11-H ) :   0.9643
B( 10-C , 12-C ) :   0.9641 B( 10-C , 13-H ) :   0.9680 B( 10-C , 14-H ) :   0.9720
B( 12-C , 15-C ) :   0.9511 B( 12-C , 16-H ) :   0.9854 B( 12-C , 17-H ) :   0.9627
B( 15-C , 18-H ) :   0.9837 B( 15-C , 19-C ) :   0.9604 B( 15-C , 20-H ) :   0.9632
B( 19-C , 21-H ) :   0.9539 B( 19-C , 22-H ) :   0.9662 B( 19-C , 23-C ) :   0.9868
B( 23-C , 24-H ) :   0.9737 B( 23-C , 25-H ) :   0.9673 B( 23-C , 26-F ) :   0.8825
B( 29-C , 30-C ) :   1.6331 B( 29-C , 31-N ) :   1.1086 B( 30-C , 35-H ) :   1.0152
B( 30-C , 36-H ) :   0.9967 B( 31-N , 32-H ) :   0.9276 B( 31-N , 33-H ) :   0.9258

Dispersion correction           -0.064839659
FINAL SINGLE POINT ENERGY      -642.203465357034

DIPOLE MOMENT
-------------
                                X             Y             Z
Electronic contribution:     -1.25832      -3.13395       9.46852
Nuclear contribution   :      1.09892       3.58083     -10.64472
                        -----------------------------------------
Total Dipole Moment    :     -0.15940       0.44688      -1.17620
                        -----------------------------------------
Magnitude (a.u.)       :      1.26829
Magnitude (Debye)      :      3.22373

Rotational constants in cm-1:     0.026768     0.016312     0.010954
Rotational constants in MHz :   802.489946   489.033275   328.388904

                             ****ORCA TERMINATED NORMALLY****
TOTAL RUN TIME: 0 days 0 hours 1 minutes 24 seconds 872 msec
