                         Program Version 5.0.0 -  RELEASE  -
|  1> !B3LYP D3BJ RIJCOSX def2-TZVP def2/J TightSCF xyzfile
|  2>
|  3> *xyzfile 0 1 D3.xyz
|  4>
|  5> %MaxCore 64000
|  6>
|  7> %pal nprocs 18
|  8> end
|  9>
| 10> %scf
| 11>   MaxIter 150
| 12> end
| 13>
| 14>
| 15>                          ****END OF INPUT****

CARTESIAN COORDINATES (ANGSTROEM)
---------------------------------
  C      3.488276    1.600919   -1.522040
  C      4.342970    1.313419   -2.756826
  N      2.810285    0.428783   -1.014196
  H      5.132033    0.604994   -2.484466
  C      3.535896    0.749253   -3.924604
  H      4.841247    2.242136   -3.054083
  H      2.991617   -0.132199   -3.574137
  H      4.225505    0.392784   -4.695962
  C      2.564776    1.750890   -4.544523
  H      1.918749    2.171679   -3.769419
  C      1.686235    1.161657   -5.650111
  H      3.132494    2.594775   -4.951604
  C      0.839616   -0.037582   -5.220473
  H      2.323886    0.866395   -6.490796
  H      1.029518    1.951850   -6.029329
  C     -0.151019    0.254955   -4.094256
  H      1.499442   -0.857141   -4.922958
  H      0.290097   -0.410143   -6.091131
  H      0.328265    0.833022   -3.299125
  C     -0.721843   -0.999513   -3.439309
  H     -0.957367    0.884951   -4.485450
  H     -1.083403   -1.697555   -4.205656
  H     -1.581056   -0.723848   -2.820490
  C      0.287250   -1.711771   -2.527405
  H      1.131780   -2.067380   -3.159396
  H     -0.204137   -2.637326   -2.170480
  F      0.710505   -0.927506   -1.481767
  H      2.714548    2.331455   -1.760302
  H      4.090991    2.063151   -0.733382
  C      3.290978   -0.418021   -0.129083
  N      2.517536   -1.432017    0.239360
  C      4.535490   -0.284410    0.395800
  H      5.043627    0.571888    0.222899
  H      4.723346   -0.733273    1.281800
  H      1.934787    0.102305   -1.403788
  H      1.674638   -1.505616   -0.316095
  H      2.928503   -2.218502    0.725494

 Total Charge           Charge          ....    0
 Multiplicity           Mult            ....    1
 Number of Electrons    NEL             ....  112
 Basis Dimension        Dim             ....  572

ORBITAL ENERGIES
----------------

  NO   OCC          E(Eh)            E(eV)
   0   2.0000     -24.724465      -672.7869
   1   2.0000     -14.291403      -388.8888
   2   2.0000     -14.285116      -388.7178
   3   2.0000     -10.275176      -279.6018
   4   2.0000     -10.193561      -277.3809
   5   2.0000     -10.192894      -277.3628
   6   2.0000     -10.186326      -277.1840
   7   2.0000     -10.178727      -276.9772
   8   2.0000     -10.172601      -276.8106
   9   2.0000     -10.167471      -276.6710
  10   2.0000     -10.161708      -276.5141
  11   2.0000     -10.157725      -276.4057
  12   2.0000     -10.151987      -276.2496
  13   2.0000     -10.058386      -273.7026
  14   2.0000      -1.262587       -34.3567
  15   2.0000      -0.955012       -25.9872
  16   2.0000      -0.867227       -23.5985
  17   2.0000      -0.831673       -22.6310
  18   2.0000      -0.801787       -21.8177
  19   2.0000      -0.768206       -20.9039
  20   2.0000      -0.726934       -19.7809
  21   2.0000      -0.694111       -18.8877
  22   2.0000      -0.686398       -18.6778
  23   2.0000      -0.653507       -17.7828
  24   2.0000      -0.620843       -16.8940
  25   2.0000      -0.594114       -16.1667
  26   2.0000      -0.573850       -15.6153
  27   2.0000      -0.560664       -15.2565
  28   2.0000      -0.555234       -15.1087
  29   2.0000      -0.527561       -14.3557
  30   2.0000      -0.519988       -14.1496
  31   2.0000      -0.508349       -13.8329
  32   2.0000      -0.492589       -13.4040
  33   2.0000      -0.475748       -12.9458
  34   2.0000      -0.463024       -12.5995
  35   2.0000      -0.454104       -12.3568
  36   2.0000      -0.439751       -11.9662
  37   2.0000      -0.436651       -11.8819
  38   2.0000      -0.428183       -11.6515
  39   2.0000      -0.410413       -11.1679
  40   2.0000      -0.400583       -10.9004
  41   2.0000      -0.385633       -10.4936
  42   2.0000      -0.379930       -10.3384
  43   2.0000      -0.372653       -10.1404
  44   2.0000      -0.369723       -10.0607
  45   2.0000      -0.360514        -9.8101
  46   2.0000      -0.351823        -9.5736
  47   2.0000      -0.348490        -9.4829
  48   2.0000      -0.340205        -9.2574
  49   2.0000      -0.336751        -9.1635
  50   2.0000      -0.330658        -8.9977
  51   2.0000      -0.317564        -8.6413
  52   2.0000      -0.316138        -8.6026
  53   2.0000      -0.309062        -8.4100
  54   2.0000      -0.229457        -6.2439
  55   2.0000      -0.145181        -3.9506
  56   0.0000       0.018862         0.5133
  57   0.0000       0.032550         0.8857
  58   0.0000       0.041211         1.1214
  59   0.0000       0.045612         1.2412
  60   0.0000       0.056758         1.5445

MULLIKEN ATOMIC CHARGES
-----------------------
   0 C :   -0.161425
   1 C :   -0.061593
   2 N :   -0.297317
   3 H :    0.112195
   4 C :   -0.229120
   5 H :    0.070830
   6 H :    0.085870
   7 H :    0.086852
   8 C :   -0.218107
   9 H :    0.092537
  10 C :   -0.106757
  11 H :    0.088766
  12 C :   -0.231487
  13 H :    0.088068
  14 H :    0.084637
  15 C :   -0.187378
  16 H :    0.097175
  17 H :    0.095228
  18 H :    0.100655
  19 C :   -0.135116
  20 H :    0.099341
  21 H :    0.097372
  22 H :    0.105562
  23 C :   -0.010821
  24 H :    0.112036
  25 H :    0.122975
  26 F :   -0.263293
  27 H :    0.110434
  28 H :    0.116477
  29 C :    0.322534
  30 N :   -0.469291
  31 C :   -0.534086
  32 H :    0.061192
  33 H :    0.069604
  34 H :    0.226297
  35 H :    0.232407
  36 H :    0.226746
Sum of atomic charges:   -0.0000000

LOEWDIN ATOMIC CHARGES
----------------------
   0 C :   -0.276379
   1 C :   -0.260979
   2 N :    0.125257
   3 H :    0.141463
   4 C :   -0.266126
   5 H :    0.132558
   6 H :    0.128092
   7 H :    0.134021
   8 C :   -0.265799
   9 H :    0.127869
  10 C :   -0.261682
  11 H :    0.134914
  12 C :   -0.265982
  13 H :    0.135035
  14 H :    0.133967
  15 C :   -0.263432
  16 H :    0.129386
  17 H :    0.133984
  18 H :    0.135651
  19 C :   -0.266131
  20 H :    0.136994
  21 H :    0.144484
  22 H :    0.139128
  23 C :   -0.334903
  24 H :    0.125403
  25 H :    0.128264
  26 F :    0.137591
  27 H :    0.125756
  28 H :    0.136228
  29 C :   -0.462797
  30 N :   -0.018868
  31 C :   -0.380841
  32 H :    0.089569
  33 H :    0.090124
  34 H :    0.161067
  35 H :    0.145907
  36 H :    0.171208

  Mayer bond orders larger than 0.100000
B(  0-C ,  1-C ) :   0.9361 B(  0-C ,  2-N ) :   0.9288 B(  0-C , 27-H ) :   0.9909
B(  0-C , 28-H ) :   0.9664 B(  1-C ,  3-H ) :   0.9588 B(  1-C ,  4-C ) :   0.9679
B(  1-C ,  5-H ) :   0.9678 B(  2-N , 29-C ) :   1.2133 B(  2-N , 34-H ) :   0.8862
B(  4-C ,  6-H ) :   0.9776 B(  4-C ,  7-H ) :   0.9657 B(  4-C ,  8-C ) :   0.9512
B(  8-C ,  9-H ) :   0.9860 B(  8-C , 10-C ) :   0.9687 B(  8-C , 11-H ) :   0.9650
B( 10-C , 12-C ) :   0.9652 B( 10-C , 13-H ) :   0.9678 B( 10-C , 14-H ) :   0.9720
B( 12-C , 15-C ) :   0.9486 B( 12-C , 16-H ) :   0.9855 B( 12-C , 17-H ) :   0.9623
B( 15-C , 18-H ) :   0.9843 B( 15-C , 19-C ) :   0.9597 B( 15-C , 20-H ) :   0.9639
B( 19-C , 21-H ) :   0.9525 B( 19-C , 22-H ) :   0.9668 B( 19-C , 23-C ) :   0.9909
B( 23-C , 24-H ) :   0.9742 B( 23-C , 25-H ) :   0.9645 B( 23-C , 26-F ) :   0.8600
B( 29-C , 30-N ) :   1.1575 B( 29-C , 31-C ) :   1.5895 B( 30-N , 35-H ) :   0.8960
B( 30-N , 36-H ) :   0.9256 B( 31-C , 32-H ) :   1.0103 B( 31-C , 33-H ) :   0.9941

Dispersion correction           -0.064838174
FINAL SINGLE POINT ENERGY      -642.215500558578

DIPOLE MOMENT
-------------
                                X             Y             Z
Electronic contribution:     -3.26588      -4.33105       9.09438
Nuclear contribution   :      1.49917       3.80845     -10.61369
                        -----------------------------------------
Total Dipole Moment    :     -1.76671      -0.52259      -1.51930
                        -----------------------------------------
Magnitude (a.u.)       :      2.38802
Magnitude (Debye)      :      6.06987

Rotational constants in cm-1:     0.026547     0.016542     0.011018
Rotational constants in MHz :   795.873737   495.912559   330.323979

                             ****ORCA TERMINATED NORMALLY****
TOTAL RUN TIME: 0 days 0 hours 1 minutes 12 seconds 304 msec
