                         Program Version 5.0.0 -  RELEASE  -
|  1> !wB97X-D3 RIJCOSX def2-SVPD def2/J TightSCF
|  2> *xyz 1 1
|  3> C          3.91385       -1.65829        3.01513
|  4> N          5.03927       -0.90115        2.49282
|  5> C          6.21038       -1.41726        2.17824
|  6> N          6.53591       -2.67712        2.55608
|  7> N          7.07675       -0.70082        1.47891
|  8> H          7.95464       -1.12155        1.20755
|  9> H          6.75616        0.10664        0.96028
| 10> H          4.84217        0.01761        2.11519
| 11> H          5.99388       -3.12692        3.28278
| 12> H          7.49844       -2.97548        2.46878
| 13> C          3.13916       -2.37657        1.91061
| 14> H          3.26723       -0.93940        3.52069
| 15> H          4.24720       -2.35509        3.79006
| 16> C          2.39995       -1.38958        1.00949
| 17> H          2.44075       -3.08712        2.36298
| 18> H          3.84448       -2.97046        1.31868
| 19> H          1.87065       -1.92698        0.25058
| 20> H          3.10498       -0.72749        0.55181
| 21> H          1.70633       -0.82279        1.59477
| 22> *
| 23> %MaxCore 64000
| 24> %pal nprocs 8
| 25> end
| 26> %scf
| 27>   MaxIter 150
| 28> end
| 29>
| 30>
| 31>                          ****END OF INPUT****

CARTESIAN COORDINATES (ANGSTROEM)
---------------------------------
  C      3.913850   -1.658290    3.015130
  N      5.039270   -0.901150    2.492820
  C      6.210380   -1.417260    2.178240
  N      6.535910   -2.677120    2.556080
  N      7.076750   -0.700820    1.478910
  H      7.954640   -1.121550    1.207550
  H      6.756160    0.106640    0.960280
  H      4.842170    0.017610    2.115190
  H      5.993880   -3.126920    3.282780
  H      7.498440   -2.975480    2.468780
  C      3.139160   -2.376570    1.910610
  H      3.267230   -0.939400    3.520690
  H      4.247200   -2.355090    3.790060
  C      2.399950   -1.389580    1.009490
  H      2.440750   -3.087120    2.362980
  H      3.844480   -2.970460    1.318680
  H      1.870650   -1.926980    0.250580
  H      3.104980   -0.727490    0.551810
  H      1.706330   -0.822790    1.594770

 Total Charge           Charge          ....    1
 Multiplicity           Mult            ....    1
 Number of Electrons    NEL             ....   56
 Basis Dimension        Dim             ....  236

ORBITAL ENERGIES
----------------

  NO   OCC          E(Eh)            E(eV)
   0   2.0000     -14.661855      -398.9694
   1   2.0000     -14.661390      -398.9567
   2   2.0000     -14.658380      -398.8748
   3   2.0000     -10.628754      -289.2231
   4   2.0000     -10.493578      -285.5448
   5   2.0000     -10.431908      -283.8667
   6   2.0000     -10.404478      -283.1202
   7   2.0000      -1.327748       -36.1298
   8   2.0000      -1.215891       -33.0861
   9   2.0000      -1.198415       -32.6105
  10   2.0000      -1.051998       -28.6263
  11   2.0000      -0.971885       -26.4463
  12   2.0000      -0.930129       -25.3101
  13   2.0000      -0.892606       -24.2890
  14   2.0000      -0.870299       -23.6820
  15   2.0000      -0.833303       -22.6753
  16   2.0000      -0.793145       -21.5826
  17   2.0000      -0.785306       -21.3693
  18   2.0000      -0.759198       -20.6588
  19   2.0000      -0.731346       -19.9009
  20   2.0000      -0.699246       -19.0275
  21   2.0000      -0.680274       -18.5112
  22   2.0000      -0.649108       -17.6631
  23   2.0000      -0.601060       -16.3557
  24   2.0000      -0.584107       -15.8944
  25   2.0000      -0.580313       -15.7911
  26   2.0000      -0.569564       -15.4986
  27   2.0000      -0.538535       -14.6543
  28   0.0000      -0.089710        -2.4411
  29   0.0000      -0.074901        -2.0382
  30   0.0000      -0.044765        -1.2181
  31   0.0000      -0.032728        -0.8906
  32   0.0000      -0.010949        -0.2979

MULLIKEN ATOMIC CHARGES
-----------------------
   0 C :    0.709758
   1 N :   -0.489427
   2 C :    1.385262
   3 N :   -0.023674
   4 N :   -0.116698
   5 H :    0.007957
   6 H :   -0.024759
   7 H :   -0.200522
   8 H :   -0.003779
   9 H :   -0.126514
  10 C :   -0.285935
  11 H :   -0.231769
  12 H :   -0.092171
  13 C :    0.639308
  14 H :   -0.064934
  15 H :   -0.006826
  16 H :   -0.022127
  17 H :   -0.098280
  18 H :    0.045130
Sum of atomic charges:    1.0000000

LOEWDIN ATOMIC CHARGES
----------------------
   0 C :    0.071726
   1 N :    0.042738
   2 C :   -0.022506
   3 N :    0.275051
   4 N :    0.255158
   5 H :    0.042075
   6 H :    0.043998
   7 H :    0.059975
   8 H :    0.015915
   9 H :    0.037161
  10 C :   -0.051950
  11 H :    0.044514
  12 H :    0.024246
  13 C :    0.132990
  14 H :    0.037504
  15 H :    0.021660
  16 H :   -0.000788
  17 H :   -0.025043
  18 H :   -0.004425

  Mayer bond orders larger than 0.100000
B(  0-C ,  1-N ) :   0.9018 B(  0-C ,  7-H ) :  -0.1616 B(  0-C , 10-C ) :   1.1006
B(  0-C , 11-H ) :   0.7939 B(  0-C , 12-H ) :   0.9292 B(  0-C , 15-H ) :   0.1127
B(  1-N ,  2-C ) :   1.0545 B(  1-N ,  3-N ) :   0.1834 B(  1-N ,  4-N ) :   0.2608
B(  1-N ,  7-H ) :   1.2921 B(  1-N , 11-H ) :   0.2418 B(  1-N , 12-H ) :   0.1027
B(  2-C ,  3-N ) :   0.9344 B(  2-C ,  4-N ) :   0.8273 B(  2-C ,  6-H ) :  -0.1600
B(  2-C ,  7-H ) :  -0.2568 B(  2-C ,  9-H ) :  -0.1186 B(  3-N ,  4-N ) :   0.1270
B(  3-N ,  8-H ) :   1.0451 B(  3-N ,  9-H ) :   1.2360 B(  4-N ,  5-H ) :   1.1301
B(  4-N ,  6-H ) :   1.1766 B(  5-H ,  6-H ) :  -0.1545 B(  8-H ,  9-H ) :  -0.1835
B( 10-C , 13-C ) :   1.2561 B( 10-C , 14-H ) :   1.0087 B( 10-C , 15-H ) :   0.9437
B( 10-C , 16-H ) :   0.1920 B( 10-C , 17-H ) :   0.1649 B( 10-C , 18-H ) :   0.1646
B( 11-H , 12-H ) :  -0.1024 B( 13-C , 16-H ) :   0.8366 B( 13-C , 17-H ) :   0.8492
B( 13-C , 18-H ) :   0.8049

Dispersion correction           -0.005320907
FINAL SINGLE POINT ENERGY      -323.418487189991

DIPOLE MOMENT
-------------
                                X             Y             Z
Electronic contribution:      6.88757       1.01385       1.46762
Nuclear contribution   :     -5.22950      -0.81973      -1.43960
                        -----------------------------------------
Total Dipole Moment    :      1.65807       0.19412       0.02802
                        -----------------------------------------
Magnitude (a.u.)       :      1.66963
Magnitude (Debye)      :      4.24386

Rotational constants in cm-1:     0.158118     0.049676     0.044442
Rotational constants in MHz :  4740.256785  1489.254255  1332.331442

                             ****ORCA TERMINATED NORMALLY****
TOTAL RUN TIME: 0 days 0 hours 0 minutes 30 seconds 101 msec
