                         Program Version 5.0.0 -  RELEASE  -
|  1> !LC-PBE RIJCOSX def2-SVPD def2/J TightSCF xyzfile
|  2>
|  3> *xyzfile 0 1 D1.xyz
|  4>
|  5> %MaxCore 64000
|  6>
|  7> %pal nprocs 4
|  8> end
|  9>
| 10> %scf
| 11>   MaxIter 150
| 12> end
| 13>
| 14>
| 15>                          ****END OF INPUT****

CARTESIAN COORDINATES (ANGSTROEM)
---------------------------------
  C      3.913853   -1.658291    3.015134
  C      5.039266   -0.901154    2.492821
  C      4.084215    1.742081   -2.114724
  C      4.265245    2.500518   -0.795890
  H      4.868534    3.392674   -0.981134
  H      3.307640    2.824571   -0.387809
  C      4.982240    1.650257    0.247422
  C      6.210384   -1.417261    2.178244
  N      6.535913   -2.677122    2.556078
  N      7.076754   -0.700820    1.478906
  H      7.954643   -1.121554    1.207554
  H      6.756161    0.106637    0.960278
  H      4.842168    0.017609    2.115191
  H      5.993876   -3.126918    3.282784
  H      7.498441   -2.975482    2.468776
  F      4.368065    1.389270    1.313706
  O      6.128919    1.233512   -0.045620
  C      3.139159   -2.376572    1.910609
  H      3.267235   -0.939401    3.520693
  H      4.247195   -2.355095    3.790065
  C      1.997274    0.430918   -1.399218
  C      3.412746    0.376886   -1.965497
  H      4.047407   -0.246590   -1.326706
  H      3.390774   -0.118719   -2.942839
  H      5.068475    1.598504   -2.565728
  H      3.503356    2.363939   -2.804565
  C      2.399946   -1.389579    1.009490
  H      2.440750   -3.087118    2.362976
  H      3.844475   -2.970462    1.318677
  C      2.070177   -1.936705   -0.372401
  H      1.481611   -1.061542    1.509912
  H      3.008628   -0.490001    0.897451
  C      1.322238   -0.935775   -1.256413
  H      1.472747   -2.850902   -0.283997
  H      3.003539   -2.234041   -0.862535
  H      1.376444    1.058920   -2.047420
  H      2.015341    0.929780   -0.426535
  H      0.316648   -0.787213   -0.848278
  H      1.185611   -1.379252   -2.248613

 Total Charge           Charge          ....    0
 Multiplicity           Mult            ....    1
 Number of Electrons    NEL             ....  126
 Basis Dimension        Dim             ....  510

ORBITAL ENERGIES
----------------

  NO   OCC          E(Eh)            E(eV)
   0   2.0000     -24.596667      -669.3093
   1   2.0000     -19.026802      -517.7456
   2   2.0000     -14.213709      -386.7747
   3   2.0000     -14.186354      -386.0303
   4   2.0000     -10.340905      -281.3903
   5   2.0000     -10.168646      -276.7029
   6   2.0000     -10.155230      -276.3379
   7   2.0000     -10.148032      -276.1420
   8   2.0000     -10.131582      -275.6944
   9   2.0000     -10.126457      -275.5549
  10   2.0000     -10.119997      -275.3791
  11   2.0000     -10.111963      -275.1605
  12   2.0000     -10.105695      -274.9899
  13   2.0000     -10.096930      -274.7514
  14   2.0000     -10.091703      -274.6092
  15   2.0000     -10.024919      -272.7919
  16   2.0000      -1.485092       -40.4114
  17   2.0000      -1.221576       -33.2408
  18   2.0000      -1.106783       -30.1171
  19   2.0000      -1.012026       -27.5386
  20   2.0000      -1.005015       -27.3479
  21   2.0000      -0.980147       -26.6712
  22   2.0000      -0.948602       -25.8128
  23   2.0000      -0.915676       -24.9168
  24   2.0000      -0.874374       -23.7929
  25   2.0000      -0.850229       -23.1359
  26   2.0000      -0.822155       -22.3720
  27   2.0000      -0.796235       -21.6667
  28   2.0000      -0.763199       -20.7677
  29   2.0000      -0.744830       -20.2678
  30   2.0000      -0.729093       -19.8396
  31   2.0000      -0.715735       -19.4761
  32   2.0000      -0.713688       -19.4204
  33   2.0000      -0.704927       -19.1821
  34   2.0000      -0.675809       -18.3897
  35   2.0000      -0.663804       -18.0630
  36   2.0000      -0.637206       -17.3392
  37   2.0000      -0.630020       -17.1437
  38   2.0000      -0.626018       -17.0348
  39   2.0000      -0.606967       -16.5164
  40   2.0000      -0.590870       -16.0784
  41   2.0000      -0.579083       -15.7576
  42   2.0000      -0.570873       -15.5342
  43   2.0000      -0.560646       -15.2560
  44   2.0000      -0.556542       -15.1443
  45   2.0000      -0.550190       -14.9714
  46   2.0000      -0.532893       -14.5007
  47   2.0000      -0.528385       -14.3781
  48   2.0000      -0.511289       -13.9129
  49   2.0000      -0.501329       -13.6418
  50   2.0000      -0.500047       -13.6070
  51   2.0000      -0.495441       -13.4816
  52   2.0000      -0.480881       -13.0854
  53   2.0000      -0.468499       -12.7485
  54   2.0000      -0.464988       -12.6530
  55   2.0000      -0.454653       -12.3717
  56   2.0000      -0.440442       -11.9850
  57   2.0000      -0.435949       -11.8628
  58   2.0000      -0.430088       -11.7033
  59   2.0000      -0.424641       -11.5551
  60   2.0000      -0.418426       -11.3859
  61   2.0000      -0.377099       -10.2614
  62   2.0000      -0.258831        -7.0431
  63   0.0000       0.043172         1.1748
  64   0.0000       0.083955         2.2845
  65   0.0000       0.098228         2.6729
  66   0.0000       0.100693         2.7400
  67   0.0000       0.104939         2.8555

MULLIKEN ATOMIC CHARGES
-----------------------
   0 C :    0.388762
   1 C :    0.244744
   2 C :    0.238914
   3 C :    0.076557
   4 H :    0.015488
   5 H :    0.239023
   6 C :    0.386669
   7 C :    0.640080
   8 N :   -0.095910
   9 N :    0.238900
  10 H :   -0.121241
  11 H :   -0.349045
  12 H :   -0.742134
  13 H :    0.015442
  14 H :   -0.213642
  15 F :   -0.414407
  16 O :   -0.365506
  17 C :    0.256130
  18 H :    0.109626
  19 H :   -0.149173
  20 C :   -0.242999
  21 C :   -0.237846
  22 H :    0.019943
  23 H :   -0.064874
  24 H :    0.100221
  25 H :   -0.011913
  26 C :    0.438646
  27 H :   -0.009163
  28 H :    0.017093
  29 C :   -0.165320
  30 H :    0.124379
  31 H :   -0.886237
  32 C :    0.508012
  33 H :   -0.284484
  34 H :    0.199375
  35 H :   -0.291609
  36 H :    0.215782
  37 H :    0.091940
  38 H :    0.079775
Sum of atomic charges:   -0.0000000

LOEWDIN ATOMIC CHARGES
----------------------
   0 C :   -0.071899
   1 C :   -0.040472
   2 C :   -0.034095
   3 C :    0.036685
   4 H :    0.056536
   5 H :    0.036726
   6 C :    0.042778
   7 C :   -0.201456
   8 N :    0.184115
   9 N :    0.189116
  10 H :    0.003437
  11 H :   -0.118585
  12 H :   -0.103835
  13 H :   -0.010323
  14 H :   -0.004746
  15 F :   -0.019491
  16 O :   -0.093879
  17 C :   -0.049240
  18 H :    0.031261
  19 H :    0.011862
  20 C :   -0.059444
  21 C :   -0.049016
  22 H :    0.027025
  23 H :    0.045094
  24 H :    0.041227
  25 H :    0.042062
  26 C :   -0.054904
  27 H :    0.029321
  28 H :    0.032066
  29 C :   -0.062246
  30 H :    0.046854
  31 H :   -0.014083
  32 C :   -0.054916
  33 H :    0.036843
  34 H :    0.030061
  35 H :    0.036861
  36 H :    0.014485
  37 H :    0.034871
  38 H :    0.033341

  Mayer bond orders larger than 0.100000
B(  0-C ,  1-C ) :   0.9566 B(  0-C , 12-H ) :   0.6558 B(  0-C , 17-C ) :   1.0572
B(  0-C , 18-H ) :   0.7419 B(  0-C , 19-H ) :   0.7147 B(  1-C ,  7-C ) :   1.8883
B(  1-C ,  8-N ) :   0.2373 B(  1-C ,  9-N ) :   0.2234 B(  1-C , 12-H ) :  -0.1227
B(  1-C , 18-H ) :   0.2555 B(  1-C , 19-H ) :   0.2605 B(  2-C ,  3-C ) :   1.1777
B(  2-C ,  4-H ) :   0.1371 B(  2-C , 21-C ) :   1.2634 B(  2-C , 24-H ) :   0.7424
B(  2-C , 25-H ) :   0.8679 B(  3-C ,  4-H ) :   0.7114 B(  3-C ,  5-H ) :   0.7831
B(  3-C ,  6-C ) :   1.2944 B(  3-C , 25-H ) :   0.1226 B(  4-H ,  6-C ) :   0.2442
B(  5-H ,  6-C ) :   0.1637 B(  6-C , 15-F ) :   0.8017 B(  6-C , 16-O ) :   1.7346
B(  7-C ,  8-N ) :   0.8260 B(  7-C ,  9-N ) :   0.7983 B(  7-C , 11-H ) :  -0.2535
B(  7-C , 12-H ) :   0.4138 B(  7-C , 14-H ) :  -0.1461 B(  8-N , 13-H ) :   1.0140
B(  8-N , 14-H ) :   1.2802 B(  9-N , 10-H ) :   1.1410 B(  9-N , 11-H ) :   1.2435
B( 10-H , 11-H ) :  -0.1901 B( 12-H , 15-F ) :   0.2013 B( 13-H , 14-H ) :  -0.1763
B( 15-F , 31-H ) :   0.1084 B( 17-C , 26-C ) :   1.1623 B( 17-C , 27-H ) :   0.8796
B( 17-C , 28-H ) :   0.9271 B( 17-C , 30-H ) :   0.1442 B( 20-C , 21-C ) :   1.2245
B( 20-C , 23-H ) :   0.1375 B( 20-C , 32-C ) :   1.1693 B( 20-C , 35-H ) :   1.1030
B( 20-C , 36-H ) :   0.8341 B( 20-C , 37-H ) :   0.2284 B( 20-C , 38-H ) :   0.1131
B( 21-C , 22-H ) :   0.9718 B( 21-C , 23-H ) :   0.9175 B( 21-C , 24-H ) :   0.2041
B( 21-C , 25-H ) :   0.1502 B( 21-C , 35-H ) :   0.1069 B( 26-C , 27-H ) :   0.1594
B( 26-C , 28-H ) :   0.1054 B( 26-C , 29-C ) :   1.2653 B( 26-C , 30-H ) :   0.6661
B( 26-C , 31-H ) :   0.3540 B( 26-C , 33-H ) :   0.1298 B( 26-C , 34-H ) :   0.1021
B( 29-C , 31-H ) :   0.1237 B( 29-C , 32-C ) :   1.1271 B( 29-C , 33-H ) :   1.0881
B( 29-C , 34-H ) :   0.8501 B( 29-C , 38-H ) :   0.2013 B( 30-H , 31-H ) :   0.2579
B( 32-C , 37-H ) :   0.7267 B( 32-C , 38-H ) :   0.7295

FINAL SINGLE POINT ENERGY      -752.798377524501

DIPOLE MOMENT
-------------
                                X             Y             Z
Electronic contribution:     11.23363       8.97379       5.88987
Nuclear contribution   :    -11.48003      -8.36271      -6.78621
                        -----------------------------------------
Total Dipole Moment    :     -0.24640       0.61108      -0.89634
                        -----------------------------------------
Magnitude (a.u.)       :      1.11246
Magnitude (Debye)      :      2.82764

Rotational constants in cm-1:     0.020055     0.013548     0.009477
Rotational constants in MHz :   601.234832   406.162779   284.104317

                             ****ORCA TERMINATED NORMALLY****
TOTAL RUN TIME: 0 days 0 hours 5 minutes 11 seconds 575 msec
