                         Program Version 5.0.0 -  RELEASE  -
|  1> !LC-PBE RIJCOSX def2-SVPD def2/J TightSCF xyzfile
|  2>
|  3> *xyzfile 0 1 D6.xyz
|  4>
|  5> %MaxCore 64000
|  6>
|  7> %pal nprocs 4
|  8> end
|  9>
| 10> %scf
| 11>   MaxIter 150
| 12> end
| 13>
| 14>
| 15>                          ****END OF INPUT****

CARTESIAN COORDINATES (ANGSTROEM)
---------------------------------
  C      3.913853   -1.658291    3.015134
  N      5.039266   -0.901154    2.492821
  C      4.084215    1.742081   -2.114724
  C      4.265245    2.500518   -0.795890
  H      4.868534    3.392674   -0.981134
  H      3.307640    2.824571   -0.387809
  C      4.982240    1.650257    0.247422
  C      6.210384   -1.417261    2.178244
  N      6.535913   -2.677122    2.556078
  C      7.076754   -0.700820    1.478906
  H      7.954643   -1.121554    1.207554
  H      6.756161    0.106637    0.960278
  H      4.842168    0.017609    2.115191
  H      5.993876   -3.126918    3.282784
  H      7.498441   -2.975482    2.468776
  O      4.368065    1.389270    1.313706
  F      6.128919    1.233512   -0.045620
  C      3.139159   -2.376572    1.910609
  H      3.267235   -0.939401    3.520693
  H      4.247195   -2.355095    3.790065
  C      1.997274    0.430918   -1.399218
  C      3.412746    0.376886   -1.965497
  H      4.047407   -0.246590   -1.326706
  H      3.390774   -0.118719   -2.942839
  H      5.068475    1.598504   -2.565728
  H      3.503356    2.363939   -2.804565
  C      2.399946   -1.389579    1.009490
  H      2.440750   -3.087118    2.362976
  H      3.844475   -2.970462    1.318677
  C      2.070177   -1.936705   -0.372401
  H      1.481611   -1.061542    1.509912
  H      3.008628   -0.490001    0.897451
  C      1.322238   -0.935775   -1.256413
  H      1.472747   -2.850902   -0.283997
  H      3.003539   -2.234041   -0.862535
  H      1.376444    1.058920   -2.047420
  H      2.015341    0.929780   -0.426535
  H      0.316648   -0.787213   -0.848278
  H      1.185611   -1.379252   -2.248613

 Total Charge           Charge          ....    0
 Multiplicity           Mult            ....    1
 Number of Electrons    NEL             ....  126
 Basis Dimension        Dim             ....  510

ORBITAL ENERGIES
----------------

  NO   OCC          E(Eh)            E(eV)
   0   2.0000     -24.595530      -669.2784
   1   2.0000     -19.026561      -517.7391
   2   2.0000     -14.211750      -386.7214
   3   2.0000     -14.192951      -386.2098
   4   2.0000     -10.340707      -281.3849
   5   2.0000     -10.168934      -276.7108
   6   2.0000     -10.158090      -276.4157
   7   2.0000     -10.152493      -276.2634
   8   2.0000     -10.146857      -276.1100
   9   2.0000     -10.135810      -275.8094
  10   2.0000     -10.127528      -275.5840
  11   2.0000     -10.123251      -275.4677
  12   2.0000     -10.117472      -275.3104
  13   2.0000     -10.112385      -275.1720
  14   2.0000     -10.111768      -275.1552
  15   2.0000     -10.009819      -272.3810
  16   2.0000      -1.485540       -40.4236
  17   2.0000      -1.219117       -33.1739
  18   2.0000      -1.116180       -30.3728
  19   2.0000      -1.025823       -27.9141
  20   2.0000      -1.015011       -27.6198
  21   2.0000      -0.980929       -26.6924
  22   2.0000      -0.946784       -25.7633
  23   2.0000      -0.906903       -24.6781
  24   2.0000      -0.879994       -23.9459
  25   2.0000      -0.839274       -22.8378
  26   2.0000      -0.834404       -22.7053
  27   2.0000      -0.799300       -21.7500
  28   2.0000      -0.769352       -20.9351
  29   2.0000      -0.752734       -20.4829
  30   2.0000      -0.732184       -19.9237
  31   2.0000      -0.725028       -19.7290
  32   2.0000      -0.723404       -19.6848
  33   2.0000      -0.704350       -19.1663
  34   2.0000      -0.673254       -18.3202
  35   2.0000      -0.657722       -17.8975
  36   2.0000      -0.638060       -17.3625
  37   2.0000      -0.633951       -17.2507
  38   2.0000      -0.621234       -16.9046
  39   2.0000      -0.608762       -16.5653
  40   2.0000      -0.599165       -16.3041
  41   2.0000      -0.578082       -15.7304
  42   2.0000      -0.575872       -15.6703
  43   2.0000      -0.567870       -15.4525
  44   2.0000      -0.558979       -15.2106
  45   2.0000      -0.551662       -15.0115
  46   2.0000      -0.533666       -14.5218
  47   2.0000      -0.522906       -14.2290
  48   2.0000      -0.520649       -14.1676
  49   2.0000      -0.512092       -13.9347
  50   2.0000      -0.505352       -13.7513
  51   2.0000      -0.488517       -13.2932
  52   2.0000      -0.485341       -13.2068
  53   2.0000      -0.474955       -12.9242
  54   2.0000      -0.472588       -12.8598
  55   2.0000      -0.465994       -12.6803
  56   2.0000      -0.452429       -12.3112
  57   2.0000      -0.440415       -11.9843
  58   2.0000      -0.437776       -11.9125
  59   2.0000      -0.433561       -11.7978
  60   2.0000      -0.431249       -11.7349
  61   2.0000      -0.364488        -9.9182
  62   2.0000      -0.260481        -7.0880
  63   0.0000       0.045689         1.2432
  64   0.0000       0.082762         2.2521
  65   0.0000       0.097414         2.6508
  66   0.0000       0.099619         2.7108
  67   0.0000       0.100374         2.7313

MULLIKEN ATOMIC CHARGES
-----------------------
   0 C :    0.933462
   1 N :    0.228402
   2 C :    0.235639
   3 C :    0.086309
   4 H :    0.030827
   5 H :    0.212522
   6 C :    0.496937
   7 C :    0.740877
   8 N :    0.055062
   9 C :    0.849029
  10 H :   -0.231582
  11 H :   -0.919563
  12 H :   -1.027741
  13 H :   -0.062808
  14 H :   -0.133620
  15 O :   -0.470560
  16 F :   -0.413941
  17 C :    0.171445
  18 H :   -0.205238
  19 H :   -0.168771
  20 C :   -0.246721
  21 C :   -0.235176
  22 H :    0.021066
  23 H :   -0.071656
  24 H :    0.067738
  25 H :   -0.012872
  26 C :    0.470977
  27 H :   -0.072234
  28 H :    0.063437
  29 C :   -0.127301
  30 H :    0.047919
  31 H :   -0.837448
  32 C :    0.525115
  33 H :   -0.284449
  34 H :    0.180807
  35 H :   -0.283545
  36 H :    0.225914
  37 H :    0.094573
  38 H :    0.067166
Sum of atomic charges:    0.0000000

LOEWDIN ATOMIC CHARGES
----------------------
   0 C :    0.035476
   1 N :    0.004449
   2 C :   -0.039383
   3 C :    0.039644
   4 H :    0.053335
   5 H :    0.045017
   6 C :    0.042800
   7 C :   -0.216018
   8 N :    0.183108
   9 C :    0.134456
  10 H :   -0.085416
  11 H :   -0.159642
  12 H :   -0.085172
  13 H :   -0.022377
  14 H :    0.009656
  15 O :   -0.105991
  16 F :   -0.012690
  17 C :   -0.041955
  18 H :    0.038746
  19 H :    0.015449
  20 C :   -0.055058
  21 C :   -0.049605
  22 H :    0.027125
  23 H :    0.044757
  24 H :    0.038408
  25 H :    0.042237
  26 C :   -0.054581
  27 H :    0.032686
  28 H :    0.031906
  29 C :   -0.061663
  30 H :    0.048066
  31 H :   -0.016611
  32 C :   -0.053572
  33 H :    0.036686
  34 H :    0.030552
  35 H :    0.037513
  36 H :    0.018654
  37 H :    0.035454
  38 H :    0.033553

  Mayer bond orders larger than 0.100000
B(  0-C ,  1-N ) :   0.9622 B(  0-C , 12-H ) :  -0.4596 B(  0-C , 17-C ) :   1.0546
B(  0-C , 18-H ) :   0.7279 B(  0-C , 19-H ) :   0.8422 B(  0-C , 26-C ) :   0.1407
B(  1-N ,  7-C ) :   1.1063 B(  1-N ,  8-N ) :   0.1660 B(  1-N ,  9-C ) :   0.1099
B(  1-N , 12-H ) :   1.0818 B(  1-N , 18-H ) :   0.1883 B(  2-C ,  3-C ) :   1.1822
B(  2-C ,  4-H ) :   0.1380 B(  2-C , 21-C ) :   1.2530 B(  2-C , 24-H ) :   0.7520
B(  2-C , 25-H ) :   0.8728 B(  3-C ,  4-H ) :   0.7270 B(  3-C ,  5-H ) :   0.7894
B(  3-C ,  6-C ) :   1.2479 B(  3-C , 25-H ) :   0.1192 B(  4-H ,  6-C ) :   0.2268
B(  5-H ,  6-C ) :   0.1636 B(  6-C , 15-O ) :   1.7625 B(  6-C , 16-F ) :   0.6721
B(  7-C ,  8-N ) :   0.8389 B(  7-C ,  9-C ) :   1.6709 B(  7-C , 10-H ) :   0.2551
B(  7-C , 12-H ) :  -0.6378 B(  8-N ,  9-C ) :   0.2405 B(  8-N , 13-H ) :   0.9979
B(  8-N , 14-H ) :   1.2079 B(  9-C , 10-H ) :   0.5214 B(  9-C , 11-H ) :   0.3840
B( 10-H , 11-H ) :   0.2465 B( 11-H , 16-F ) :   0.2116 B( 12-H , 15-O ) :   0.1586
B( 12-H , 18-H ) :   0.1368 B( 13-H , 14-H ) :  -0.1773 B( 15-O , 16-F ) :   0.1121
B( 17-C , 19-H ) :   0.1334 B( 17-C , 26-C ) :   1.1543 B( 17-C , 27-H ) :   0.9604
B( 17-C , 28-H ) :   0.8992 B( 17-C , 30-H ) :   0.1218 B( 18-H , 19-H ) :  -0.1867
B( 20-C , 21-C ) :   1.2394 B( 20-C , 23-H ) :   0.1339 B( 20-C , 32-C ) :   1.1737
B( 20-C , 35-H ) :   1.0847 B( 20-C , 36-H ) :   0.8320 B( 20-C , 37-H ) :   0.2257
B( 20-C , 38-H ) :   0.1169 B( 21-C , 22-H ) :   0.9540 B( 21-C , 23-H ) :   0.9276
B( 21-C , 24-H ) :   0.2044 B( 21-C , 25-H ) :   0.1412 B( 21-C , 35-H ) :   0.1154
B( 26-C , 27-H ) :   0.1438 B( 26-C , 29-C ) :   1.2739 B( 26-C , 30-H ) :   0.6756
B( 26-C , 31-H ) :   0.3241 B( 26-C , 33-H ) :   0.1034 B( 26-C , 34-H ) :   0.1251
B( 29-C , 31-H ) :   0.1231 B( 29-C , 32-C ) :   1.1227 B( 29-C , 33-H ) :   1.0917
B( 29-C , 34-H ) :   0.8445 B( 29-C , 38-H ) :   0.1870 B( 30-H , 31-H ) :   0.2905
B( 32-C , 37-H ) :   0.7263 B( 32-C , 38-H ) :   0.7449

FINAL SINGLE POINT ENERGY      -752.785682755563

DIPOLE MOMENT
-------------
                                X             Y             Z
Electronic contribution:     12.37462       8.54077       4.35293
Nuclear contribution   :    -13.25777      -8.13937      -5.31678
                        -----------------------------------------
Total Dipole Moment    :     -0.88314       0.40140      -0.96384
                        -----------------------------------------
Magnitude (a.u.)       :      1.36750
Magnitude (Debye)      :      3.47591

Rotational constants in cm-1:     0.020021     0.013636     0.009443
Rotational constants in MHz :   600.208195   408.782966   283.102361

                             ****ORCA TERMINATED NORMALLY****
TOTAL RUN TIME: 0 days 0 hours 5 minutes 34 seconds 600 msec
