                         Program Version 5.0.0 -  RELEASE  -
|  1> !wB97X-D3 RIJCOSX def2-SVPD def2/J TightSCF CPCM(Water)
|  2> *xyz -1 1
|  3> C         -0.72184       -0.99951       -3.43931
|  4> C          0.28725       -1.71177       -2.52740
|  5> H          1.13178       -2.06738       -3.15940
|  6> H         -0.20414       -2.63733       -2.17048
|  7> O          0.71050       -0.92751       -1.48177
|  8> H         -1.01315       -1.65739       -4.23129
|  9> H         -0.27123       -0.12142       -3.85259
| 10> H         -1.58442       -0.72333       -2.86958
| 11> *
| 12> %MaxCore 64000
| 13>
| 14> %pal nprocs 18
| 15> end
| 16>
| 17> %scf
| 18>   MaxIter 150
| 19> end
| 20>
| 21>
| 22>                          ****END OF INPUT****

CARTESIAN COORDINATES (ANGSTROEM)
---------------------------------
  C     -0.721840   -0.999510   -3.439310
  C      0.287250   -1.711770   -2.527400
  H      1.131780   -2.067380   -3.159400
  H     -0.204140   -2.637330   -2.170480
  O      0.710500   -0.927510   -1.481770
  H     -1.013150   -1.657390   -4.231290
  H     -0.271230   -0.121420   -3.852590
  H     -1.584420   -0.723330   -2.869580

 Total Charge           Charge          ....   -1
 Multiplicity           Mult            ....    1
 Number of Electrons    NEL             ....   26
 Basis Dimension        Dim             ....  103

ORBITAL ENERGIES
----------------

  NO   OCC          E(Eh)            E(eV)
   0   2.0000     -19.120162      -520.2861
   1   2.0000     -10.286910      -279.9210
   2   2.0000     -10.245269      -278.7879
   3   2.0000      -0.987420       -26.8691
   4   2.0000      -0.806445       -21.9445
   5   2.0000      -0.656524       -17.8649
   6   2.0000      -0.527738       -14.3605
   7   2.0000      -0.499207       -13.5841
   8   2.0000      -0.449200       -12.2234
   9   2.0000      -0.429734       -11.6936
  10   2.0000      -0.411679       -11.2023
  11   2.0000      -0.271999        -7.4015
  12   2.0000      -0.270588        -7.3631
  13   0.0000       0.106797         2.9061
  14   0.0000       0.134605         3.6628
  15   0.0000       0.151278         4.1165
  16   0.0000       0.155457         4.2302
  17   0.0000       0.189351         5.1525

MULLIKEN ATOMIC CHARGES
-----------------------
   0 C :    0.368267
   1 C :    0.107075
   2 H :   -0.142342
   3 H :   -0.150155
   4 O :   -0.967153
   5 H :   -0.033211
   6 H :   -0.095351
   7 H :   -0.087129
Sum of atomic charges:   -1.0000000

LOEWDIN ATOMIC CHARGES
----------------------
   0 C :    0.078079
   1 C :   -0.269469
   2 H :   -0.012798
   3 H :   -0.017048
   4 O :   -0.684854
   5 H :   -0.030701
   6 H :   -0.032157
   7 H :   -0.031053

  Mayer bond orders larger than 0.100000
B(  0-C ,  1-C ) :   1.2216 B(  0-C ,  5-H ) :   0.8748 B(  0-C ,  6-H ) :   0.8845
B(  0-C ,  7-H ) :   0.8814 B(  1-C ,  2-H ) :   0.9679 B(  1-C ,  3-H ) :   0.9610
B(  1-C ,  4-O ) :   1.2805 B(  1-C ,  5-H ) :   0.1102 B(  1-C ,  6-H ) :   0.1553
B(  1-C ,  7-H ) :   0.1562

Dispersion correction           -0.000859691
FINAL SINGLE POINT ENERGY      -154.390663952692

DIPOLE MOMENT
-------------
                                X             Y             Z
Electronic contribution:      1.05358       0.37302       1.61845
Nuclear contribution   :     -2.24828      -1.06600      -3.62481
                        -----------------------------------------
Total Dipole Moment    :     -1.19470      -0.69297      -2.00635
                        -----------------------------------------
Magnitude (a.u.)       :      2.43577
Magnitude (Debye)      :      6.19123

Rotational constants in cm-1:     1.278116     0.325414     0.286672
Rotational constants in MHz : 38316.964654  9755.653004  8594.216906

                             ****ORCA TERMINATED NORMALLY****
TOTAL RUN TIME: 0 days 0 hours 0 minutes 5 seconds 443 msec
