                         Program Version 5.0.0 -  RELEASE  -
|  1> !wB97X-D3 RIJCOSX def2-SVPD def2/J TightSCF CPCM(Water)
|  2> *xyz 1 1
|  3> C          3.48828        1.60092       -1.52204
|  4> C          4.34297        1.31342       -2.75683
|  5> N          2.81029        0.42878       -1.01420
|  6> H          2.71455        2.33145       -1.76030
|  7> H          4.09099        2.06315       -0.73338
|  8> C          3.29098       -0.41802       -0.12908
|  9> N          2.51754       -1.43202        0.23936
| 10> N          4.53549       -0.28441        0.39580
| 11> H          5.04363        0.57189        0.22290
| 12> H          4.72335       -0.73327        1.28180
| 13> H          1.93479        0.10230       -1.40379
| 14> H          1.67464       -1.50562       -0.31610
| 15> H          2.92850       -2.21850        0.72549
| 16> H          3.73575        0.86277       -3.51385
| 17> H          5.13754        0.64699       -2.49333
| 18> H          4.75374        2.22930       -3.12740
| 19> *
| 20> %MaxCore 64000
| 21>
| 22> %pal nprocs 18
| 23> end
| 24>
| 25> %scf
| 26>   MaxIter 150
| 27> end
| 28>
| 29>
| 30>                          ****END OF INPUT****

CARTESIAN COORDINATES (ANGSTROEM)
---------------------------------
  C      3.488280    1.600920   -1.522040
  C      4.342970    1.313420   -2.756830
  N      2.810290    0.428780   -1.014200
  H      2.714550    2.331450   -1.760300
  H      4.090990    2.063150   -0.733380
  C      3.290980   -0.418020   -0.129080
  N      2.517540   -1.432020    0.239360
  N      4.535490   -0.284410    0.395800
  H      5.043630    0.571890    0.222900
  H      4.723350   -0.733270    1.281800
  H      1.934790    0.102300   -1.403790
  H      1.674640   -1.505620   -0.316100
  H      2.928500   -2.218500    0.725490
  H      3.735750    0.862770   -3.513850
  H      5.137540    0.646990   -2.493330
  H      4.753740    2.229300   -3.127400

 Total Charge           Charge          ....    1
 Multiplicity           Mult            ....    1
 Number of Electrons    NEL             ....   48
 Basis Dimension        Dim             ....  200

ORBITAL ENERGIES
----------------

  NO   OCC          E(Eh)            E(eV)
   0   2.0000     -14.494684      -394.4204
   1   2.0000     -14.484378      -394.1400
   2   2.0000     -14.484271      -394.1371
   3   2.0000     -10.455284      -284.5028
   4   2.0000     -10.342290      -281.4280
   5   2.0000     -10.280827      -279.7555
   6   2.0000      -1.158309       -31.5192
   7   2.0000      -1.044492       -28.4221
   8   2.0000      -1.026423       -27.9304
   9   2.0000      -0.885941       -24.1077
  10   2.0000      -0.781112       -21.2551
  11   2.0000      -0.747234       -20.3333
  12   2.0000      -0.711372       -19.3574
  13   2.0000      -0.680758       -18.5244
  14   2.0000      -0.618049       -16.8180
  15   2.0000      -0.606423       -16.5016
  16   2.0000      -0.591062       -16.0836
  17   2.0000      -0.576317       -15.6824
  18   2.0000      -0.547413       -14.8959
  19   2.0000      -0.505132       -13.7453
  20   2.0000      -0.482577       -13.1316
  21   2.0000      -0.456761       -12.4291
  22   2.0000      -0.401853       -10.9350
  23   2.0000      -0.378236       -10.2923
  24   0.0000       0.078138         2.1262
  25   0.0000       0.087489         2.3807
  26   0.0000       0.115594         3.1455
  27   0.0000       0.125958         3.4275
  28   0.0000       0.128940         3.5086

MULLIKEN ATOMIC CHARGES
-----------------------
   0 C :    0.208928
   1 C :    0.513884
   2 N :   -0.489466
   3 H :   -0.200910
   4 H :   -0.005938
   5 C :    1.235886
   6 N :   -0.108789
   7 N :   -0.097826
   8 H :    0.017424
   9 H :   -0.063572
  10 H :   -0.145290
  11 H :    0.100214
  12 H :    0.001801
  13 H :   -0.012877
  14 H :   -0.023653
  15 H :    0.070184
Sum of atomic charges:    1.0000000

LOEWDIN ATOMIC CHARGES
----------------------
   0 C :    0.044198
   1 C :    0.145113
   2 N :    0.039934
   3 H :    0.039305
   4 H :    0.033229
   5 C :   -0.028411
   6 N :    0.261720
   7 N :    0.276319
   8 H :    0.013688
   9 H :    0.041861
  10 H :    0.071211
  11 H :    0.042045
  12 H :    0.052176
  13 H :   -0.009715
  14 H :   -0.016176
  15 H :   -0.006498

  Mayer bond orders larger than 0.100000
B(  0-C ,  1-C ) :   1.2510 B(  0-C ,  2-N ) :   0.8809 B(  0-C ,  3-H ) :   0.9746
B(  0-C ,  4-H ) :   0.8760 B(  0-C , 10-H ) :  -0.1930 B(  0-C , 13-H ) :   0.2147
B(  0-C , 14-H ) :   0.1865 B(  0-C , 15-H ) :   0.1471 B(  1-C , 13-H ) :   0.8294
B(  1-C , 14-H ) :   0.8472 B(  1-C , 15-H ) :   0.8174 B(  2-N ,  3-H ) :   0.1542
B(  2-N ,  4-H ) :   0.1358 B(  2-N ,  5-C ) :   1.0083 B(  2-N ,  6-N ) :   0.2503
B(  2-N ,  7-N ) :   0.1861 B(  2-N , 10-H ) :   1.3528 B(  5-C ,  6-N ) :   0.9565
B(  5-C ,  7-N ) :   0.9320 B(  5-C ,  9-H ) :  -0.1095 B(  5-C , 10-H ) :  -0.2297
B(  6-N ,  7-N ) :   0.1314 B(  6-N , 11-H ) :   1.0187 B(  6-N , 12-H ) :   1.1577
B(  7-N ,  8-H ) :   0.9994 B(  7-N ,  9-H ) :   1.2394 B(  8-H ,  9-H ) :  -0.1565
B( 11-H , 12-H ) :  -0.1304

Dispersion correction           -0.003785614
FINAL SINGLE POINT ENERGY      -284.232827880356

DIPOLE MOMENT
-------------
                                X             Y             Z
Electronic contribution:     -2.07254      -3.18671       3.96598
Nuclear contribution   :      1.59382       2.33278      -3.02574
                        -----------------------------------------
Total Dipole Moment    :     -0.47872      -0.85394       0.94024
                        -----------------------------------------
Magnitude (a.u.)       :      1.35737
Magnitude (Debye)      :      3.45015

Rotational constants in cm-1:     0.232230     0.073139     0.063030
Rotational constants in MHz :  6962.079716  2192.649203  1889.578947

                             ****ORCA TERMINATED NORMALLY****
TOTAL RUN TIME: 0 days 0 hours 0 minutes 13 seconds 269 msec
