                         Program Version 5.0.0 -  RELEASE  -
|  1> !wB97X-D3 RIJCOSX def2-SVPD def2/J TightSCF CPCM(Water) xyzfile
|  2>
|  3> *xyzfile 0 1 B.xyz
|  4>
|  5> %MaxCore 64000
|  6>
|  7> %pal nprocs 18
|  8> end
|  9>
| 10> %scf
| 11>   MaxIter 150
| 12> end
| 13>
| 14>
| 15>                          ****END OF INPUT****

CARTESIAN COORDINATES (ANGSTROEM)
---------------------------------
  C      3.488276    1.600919   -1.522040
  C      4.342970    1.313419   -2.756826
  N      2.810285    0.428783   -1.014196
  H      5.132033    0.604994   -2.484466
  C      3.535896    0.749253   -3.924604
  H      4.841247    2.242136   -3.054083
  H      2.991617   -0.132199   -3.574137
  H      4.225505    0.392784   -4.695962
  C      2.564776    1.750890   -4.544523
  H      1.918749    2.171679   -3.769419
  C      1.686235    1.161657   -5.650111
  H      3.132494    2.594775   -4.951604
  C      0.839616   -0.037582   -5.220473
  H      2.323886    0.866395   -6.490796
  H      1.029518    1.951850   -6.029329
  C     -0.151019    0.254955   -4.094256
  H      1.499442   -0.857141   -4.922958
  H      0.290097   -0.410143   -6.091131
  H      0.328265    0.833022   -3.299125
  C     -0.721843   -0.999513   -3.439309
  H     -0.957367    0.884951   -4.485450
  H     -1.083403   -1.697555   -4.205656
  H     -1.581056   -0.723848   -2.820490
  C      0.287250   -1.711771   -2.527405
  H      1.131780   -2.067380   -3.159396
  H     -0.204137   -2.637326   -2.170480
  O      0.710505   -0.927506   -1.481767
  H      2.714548    2.331455   -1.760302
  H      4.090991    2.063151   -0.733382
  C      3.290978   -0.418021   -0.129083
  N      2.517536   -1.432017    0.239360
  N      4.535490   -0.284410    0.395800
  H      5.043627    0.571888    0.222899
  H      4.723346   -0.733273    1.281800
  H      1.934787    0.102305   -1.403788
  H      1.674638   -1.505616   -0.316095
  H      2.928503   -2.218502    0.725494

 Total Charge           Charge          ....    0
 Multiplicity           Mult            ....    1
 Number of Electrons    NEL             ....  112
 Basis Dimension        Dim             ....  467

ORBITAL ENERGIES
----------------

  NO   OCC          E(Eh)            E(eV)
   0   2.0000     -19.142451      -520.8926
   1   2.0000     -14.466877      -393.6637
   2   2.0000     -14.448239      -393.1566
   3   2.0000     -14.439467      -392.9179
   4   2.0000     -10.426597      -283.7221
   5   2.0000     -10.324998      -280.9575
   6   2.0000     -10.296252      -280.1753
   7   2.0000     -10.283585      -279.8306
   8   2.0000     -10.276651      -279.6419
   9   2.0000     -10.274274      -279.5772
  10   2.0000     -10.274117      -279.5729
  11   2.0000     -10.269972      -279.4601
  12   2.0000     -10.265790      -279.3463
  13   2.0000     -10.260548      -279.2037
  14   2.0000      -1.129342       -30.7310
  15   2.0000      -1.026009       -27.9191
  16   2.0000      -1.014614       -27.6091
  17   2.0000      -0.996592       -27.1187
  18   2.0000      -0.920613       -25.0512
  19   2.0000      -0.890575       -24.2338
  20   2.0000      -0.855571       -23.2813
  21   2.0000      -0.811589       -22.0844
  22   2.0000      -0.772559       -21.0224
  23   2.0000      -0.745697       -20.2915
  24   2.0000      -0.717450       -19.5228
  25   2.0000      -0.703127       -19.1331
  26   2.0000      -0.684320       -18.6213
  27   2.0000      -0.664891       -18.0926
  28   2.0000      -0.648250       -17.6398
  29   2.0000      -0.633455       -17.2372
  30   2.0000      -0.599062       -16.3013
  31   2.0000      -0.585823       -15.9411
  32   2.0000      -0.578158       -15.7325
  33   2.0000      -0.567697       -15.4478
  34   2.0000      -0.562760       -15.3135
  35   2.0000      -0.550344       -14.9756
  36   2.0000      -0.537255       -14.6194
  37   2.0000      -0.532096       -14.4791
  38   2.0000      -0.514977       -14.0132
  39   2.0000      -0.498792       -13.5728
  40   2.0000      -0.484955       -13.1963
  41   2.0000      -0.481940       -13.1142
  42   2.0000      -0.465068       -12.6551
  43   2.0000      -0.451896       -12.2967
  44   2.0000      -0.450714       -12.2645
  45   2.0000      -0.432692       -11.7742
  46   2.0000      -0.423049       -11.5118
  47   2.0000      -0.417773       -11.3682
  48   2.0000      -0.408010       -11.1025
  49   2.0000      -0.395338       -10.7577
  50   2.0000      -0.392593       -10.6830
  51   2.0000      -0.388332       -10.5670
  52   2.0000      -0.380238       -10.3468
  53   2.0000      -0.348431        -9.4813
  54   2.0000      -0.300102        -8.1662
  55   2.0000      -0.295915        -8.0523
  56   0.0000       0.091420         2.4877
  57   0.0000       0.097942         2.6651
  58   0.0000       0.104804         2.8519
  59   0.0000       0.107699         2.9306
  60   0.0000       0.113414         3.0861

MULLIKEN ATOMIC CHARGES
-----------------------
   0 C :    1.122141
   1 C :    0.228672
   2 N :    0.141978
   3 H :   -0.030393
   4 C :    0.292318
   5 H :   -0.065689
   6 H :   -0.350227
   7 H :   -0.118651
   8 C :   -0.113128
   9 H :    0.062732
  10 C :    0.591021
  11 H :   -0.192667
  12 C :   -0.033166
  13 H :   -0.013818
  14 H :   -0.110146
  15 C :    0.177087
  16 H :   -0.038882
  17 H :   -0.186714
  18 H :   -0.303472
  19 C :    0.275238
  20 H :   -0.094843
  21 H :   -0.049503
  22 H :   -0.051089
  23 C :    0.682323
  24 H :   -0.156407
  25 H :   -0.277917
  26 O :   -0.931168
  27 H :   -0.232364
  28 H :   -0.205421
  29 C :    1.148843
  30 N :    0.261061
  31 N :    0.045069
  32 H :   -0.012995
  33 H :   -0.081405
  34 H :   -1.025018
  35 H :   -0.250535
  36 H :   -0.102862
Sum of atomic charges:    0.0000000

LOEWDIN ATOMIC CHARGES
----------------------
   0 C :    0.082273
   1 C :   -0.013172
   2 N :    0.055767
   3 H :    0.021909
   4 C :   -0.028244
   5 H :    0.030270
   6 H :    0.000521
   7 H :    0.030559
   8 C :   -0.034855
   9 H :    0.000770
  10 C :   -0.034023
  11 H :    0.027185
  12 C :   -0.036726
  13 H :    0.022652
  14 H :    0.022688
  15 C :   -0.034130
  16 H :   -0.003134
  17 H :    0.023427
  18 H :   -0.005630
  19 C :   -0.041430
  20 H :    0.023493
  21 H :    0.021329
  22 H :    0.015409
  23 C :   -0.077149
  24 H :    0.002975
  25 H :    0.005147
  26 O :   -0.471600
  27 H :    0.024874
  28 H :    0.025245
  29 C :   -0.031252
  30 N :    0.259006
  31 N :    0.259195
  32 H :    0.003457
  33 H :    0.031613
  34 H :   -0.099300
  35 H :   -0.115377
  36 H :    0.036261

  Mayer bond orders larger than 0.100000
B(  0-C ,  1-C ) :   1.0705 B(  0-C ,  2-N ) :   0.8482 B(  0-C , 27-H ) :   0.7098
B(  0-C , 28-H ) :   0.8356 B(  0-C , 34-H ) :  -0.5917 B(  1-C ,  3-H ) :   0.7813
B(  1-C ,  4-C ) :   1.2172 B(  1-C ,  5-H ) :   0.9218 B(  1-C , 27-H ) :   0.1149
B(  1-C , 28-H ) :   0.1263 B(  2-N , 27-H ) :   0.1959 B(  2-N , 29-C ) :   1.2388
B(  2-N , 31-N ) :   0.1782 B(  2-N , 34-H ) :   1.0820 B(  3-H ,  4-C ) :   0.1872
B(  4-C ,  6-H ) :   0.8343 B(  4-C ,  7-H ) :   0.7978 B(  4-C ,  8-C ) :   1.1826
B(  4-C , 11-H ) :   0.1677 B(  6-H ,  8-C ) :   0.1600 B(  7-H ,  8-C ) :   0.1434
B(  8-C ,  9-H ) :   0.8423 B(  8-C , 10-C ) :   1.1694 B(  8-C , 11-H ) :   0.9426
B(  8-C , 13-H ) :   0.1149 B(  8-C , 14-H ) :   0.2826 B( 10-C , 12-C ) :   1.1813
B( 10-C , 13-H ) :   0.7253 B( 10-C , 14-H ) :   0.7009 B( 12-C , 13-H ) :   0.2199
B( 12-C , 14-H ) :   0.1199 B( 12-C , 15-C ) :   1.2020 B( 12-C , 16-H ) :   0.8922
B( 12-C , 17-H ) :   0.8706 B( 12-C , 18-H ) :   0.1503 B( 12-C , 20-H ) :   0.1950
B( 13-H , 14-H ) :  -0.1166 B( 15-C , 17-H ) :   0.2471 B( 15-C , 18-H ) :   0.8682
B( 15-C , 19-C ) :   1.1853 B( 15-C , 20-H ) :   0.8003 B( 15-C , 21-H ) :   0.1066
B( 15-C , 22-H ) :   0.2127 B( 18-H , 19-C ) :   0.1419 B( 19-C , 21-H ) :   0.8036
B( 19-C , 22-H ) :   0.7294 B( 19-C , 23-C ) :   1.1341 B( 19-C , 24-H ) :   0.1117
B( 19-C , 25-H ) :   0.1219 B( 21-H , 23-C ) :   0.1468 B( 22-H , 23-C ) :   0.1473
B( 23-C , 24-H ) :   0.8566 B( 23-C , 25-H ) :   0.9270 B( 23-C , 26-O ) :   0.9567
B( 26-O , 34-H ) :   0.2333 B( 26-O , 35-H ) :   0.2963 B( 27-H , 34-H ) :   0.1481
B( 29-C , 30-N ) :   0.9291 B( 29-C , 31-N ) :   0.9670 B( 29-C , 34-H ) :  -0.6938
B( 29-C , 35-H ) :  -0.1193 B( 29-C , 36-H ) :  -0.1014 B( 30-N , 31-N ) :   0.1048
B( 30-N , 35-H ) :   0.9804 B( 30-N , 36-H ) :   1.2330 B( 31-N , 32-H ) :   1.0199
B( 31-N , 33-H ) :   1.1771 B( 32-H , 33-H ) :  -0.1464 B( 35-H , 36-H ) :  -0.1702

Dispersion correction           -0.017848657
FINAL SINGLE POINT ENERGY      -633.856151641946

DIPOLE MOMENT
-------------
                                X             Y             Z
Electronic contribution:      4.56659      -1.86773      11.53181
Nuclear contribution   :     -0.74583       2.62534      -9.91488
                        -----------------------------------------
Total Dipole Moment    :      3.82077       0.75762       1.61693
                        -----------------------------------------
Magnitude (a.u.)       :      4.21743
Magnitude (Debye)      :     10.71985

Rotational constants in cm-1:     0.027028     0.016098     0.010898
Rotational constants in MHz :   810.278072   482.590922   326.703462

                             ****ORCA TERMINATED NORMALLY****
TOTAL RUN TIME: 0 days 0 hours 1 minutes 21 seconds 852 msec
