                         Program Version 5.0.0 -  RELEASE  -
|  1> !wB97X-D3 RIJCOSX def2-SVPD def2/J TightSCF CPCM(Water)
|  2> *xyz 0 1
|  3> C         -0.72184       -0.99951       -3.43931
|  4> C          0.28725       -1.71177       -2.52740
|  5> H          1.13178       -2.06738       -3.15940
|  6> H         -0.20414       -2.63733       -2.17048
|  7> F          0.71050       -0.92751       -1.48177
|  8> H         -1.01315       -1.65739       -4.23129
|  9> H         -0.27123       -0.12142       -3.85259
| 10> H         -1.58442       -0.72333       -2.86958
| 11> *
| 12> %MaxCore 64000
| 13>
| 14> %pal nprocs 18
| 15> end
| 16>
| 17> %scf
| 18>   MaxIter 150
| 19> end
| 20>
| 21>
| 22>                          ****END OF INPUT****

CARTESIAN COORDINATES (ANGSTROEM)
---------------------------------
  C     -0.721840   -0.999510   -3.439310
  C      0.287250   -1.711770   -2.527400
  H      1.131780   -2.067380   -3.159400
  H     -0.204140   -2.637330   -2.170480
  F      0.710500   -0.927510   -1.481770
  H     -1.013150   -1.657390   -4.231290
  H     -0.271230   -0.121420   -3.852590
  H     -1.584420   -0.723330   -2.869580

 Total Charge           Charge          ....    0
 Multiplicity           Mult            ....    1
 Number of Electrons    NEL             ....   26
 Basis Dimension        Dim             ....  103

ORBITAL ENERGIES
----------------

  NO   OCC          E(Eh)            E(eV)
   0   2.0000     -24.796700      -674.7525
   1   2.0000     -10.364368      -282.0288
   2   2.0000     -10.276335      -279.6333
   3   2.0000      -1.304942       -35.5093
   4   2.0000      -0.868003       -23.6196
   5   2.0000      -0.733543       -19.9607
   6   2.0000      -0.614074       -16.7098
   7   2.0000      -0.599548       -16.3145
   8   2.0000      -0.564106       -15.3501
   9   2.0000      -0.502724       -13.6798
  10   2.0000      -0.490580       -13.3494
  11   2.0000      -0.433240       -11.7891
  12   2.0000      -0.423671       -11.5287
  13   0.0000       0.100968         2.7475
  14   0.0000       0.129423         3.5218
  15   0.0000       0.154620         4.2074
  16   0.0000       0.166300         4.5252
  17   0.0000       0.197489         5.3740

MULLIKEN ATOMIC CHARGES
-----------------------
   0 C :    0.199020
   1 C :    0.326378
   2 H :   -0.000278
   3 H :   -0.012192
   4 F :   -0.483642
   5 H :    0.015766
   6 H :   -0.025848
   7 H :   -0.019204
Sum of atomic charges:    0.0000000

LOEWDIN ATOMIC CHARGES
----------------------
   0 C :    0.131792
   1 C :    0.069940
   2 H :    0.040285
   3 H :    0.035594
   4 F :   -0.247417
   5 H :   -0.005050
   6 H :   -0.012961
   7 H :   -0.012184

  Mayer bond orders larger than 0.100000
B(  0-C ,  1-C ) :   1.3324 B(  0-C ,  5-H ) :   0.8783 B(  0-C ,  6-H ) :   0.9090
B(  0-C ,  7-H ) :   0.9045 B(  1-C ,  2-H ) :   0.9616 B(  1-C ,  3-H ) :   0.9606
B(  1-C ,  4-F ) :   0.7174 B(  1-C ,  5-H ) :   0.1079 B(  1-C ,  6-H ) :   0.1217
B(  1-C ,  7-H ) :   0.1233

Dispersion correction           -0.000872236
FINAL SINGLE POINT ENERGY      -178.892858069822

DIPOLE MOMENT
-------------
                                X             Y             Z
Electronic contribution:      2.63877       0.91911       4.06263
Nuclear contribution   :     -2.97459      -1.40206      -4.79987
                        -----------------------------------------
Total Dipole Moment    :     -0.33583      -0.48295      -0.73724
                        -----------------------------------------
Magnitude (a.u.)       :      0.94315
Magnitude (Debye)      :      2.39731

Rotational constants in cm-1:     1.257024     0.302702     0.267953
Rotational constants in MHz : 37684.643733  9074.792567  8033.038070

                             ****ORCA TERMINATED NORMALLY****
TOTAL RUN TIME: 0 days 0 hours 0 minutes 6 seconds 543 msec
