                         Program Version 5.0.0 -  RELEASE  -
|  1> !wB97X-D3 RIJCOSX def2-SVPD def2/J TightSCF CPCM(Water)
|  2> *xyz 0 1
|  3> C          3.48828        1.60092       -1.52204
|  4> C          4.34297        1.31342       -2.75683
|  5> C          2.81029        0.42878       -1.01420
|  6> H          2.71455        2.33145       -1.76030
|  7> H          4.09099        2.06315       -0.73338
|  8> C          3.29098       -0.41802       -0.12908
|  9> N          2.51754       -1.43202        0.23936
| 10> N          4.53549       -0.28441        0.39580
| 11> H          5.04363        0.57189        0.22290
| 12> H          4.72335       -0.73327        1.28180
| 13> H          1.93479        0.10230       -1.40379
| 14> H          1.67464       -1.50562       -0.31610
| 15> H          2.92850       -2.21850        0.72549
| 16> H          3.73575        0.86277       -3.51385
| 17> H          5.13754        0.64699       -2.49333
| 18> H          4.75374        2.22930       -3.12740
| 19> *
| 20> %MaxCore 64000
| 21>
| 22> %pal nprocs 18
| 23> end
| 24>
| 25> %scf
| 26>   MaxIter 150
| 27> end
| 28>
| 29>
| 30>                          ****END OF INPUT****

CARTESIAN COORDINATES (ANGSTROEM)
---------------------------------
  C      3.488280    1.600920   -1.522040
  C      4.342970    1.313420   -2.756830
  C      2.810290    0.428780   -1.014200
  H      2.714550    2.331450   -1.760300
  H      4.090990    2.063150   -0.733380
  C      3.290980   -0.418020   -0.129080
  N      2.517540   -1.432020    0.239360
  N      4.535490   -0.284410    0.395800
  H      5.043630    0.571890    0.222900
  H      4.723350   -0.733270    1.281800
  H      1.934790    0.102300   -1.403790
  H      1.674640   -1.505620   -0.316100
  H      2.928500   -2.218500    0.725490
  H      3.735750    0.862770   -3.513850
  H      5.137540    0.646990   -2.493330
  H      4.753740    2.229300   -3.127400

 Total Charge           Charge          ....    0
 Multiplicity           Mult            ....    1
 Number of Electrons    NEL             ....   48
 Basis Dimension        Dim             ....  200

ORBITAL ENERGIES
----------------

  NO   OCC          E(Eh)            E(eV)
   0   2.0000     -14.432129      -392.7182
   1   2.0000     -14.427382      -392.5890
   2   2.0000     -10.333305      -281.1835
   3   2.0000     -10.269854      -279.4569
   4   2.0000     -10.260078      -279.1909
   5   2.0000     -10.214387      -277.9476
   6   2.0000      -1.066258       -29.0143
   7   2.0000      -0.972596       -26.4657
   8   2.0000      -0.889502       -24.2046
   9   2.0000      -0.805825       -21.9276
  10   2.0000      -0.721508       -19.6332
  11   2.0000      -0.680940       -18.5293
  12   2.0000      -0.636012       -17.3068
  13   2.0000      -0.609829       -16.5943
  14   2.0000      -0.558903       -15.2085
  15   2.0000      -0.539877       -14.6908
  16   2.0000      -0.522363       -14.2142
  17   2.0000      -0.501913       -13.6577
  18   2.0000      -0.482656       -13.1337
  19   2.0000      -0.454125       -12.3574
  20   2.0000      -0.431292       -11.7360
  21   2.0000      -0.417547       -11.3620
  22   2.0000      -0.359347        -9.7783
  23   2.0000      -0.253666        -6.9026
  24   0.0000       0.095880         2.6090
  25   0.0000       0.118689         3.2297
  26   0.0000       0.129136         3.5140
  27   0.0000       0.131581         3.5805
  28   0.0000       0.157855         4.2954

MULLIKEN ATOMIC CHARGES
-----------------------
   0 C :   -0.220159
   1 C :    0.559328
   2 C :   -0.277847
   3 H :   -0.028413
   4 H :   -0.019890
   5 C :    0.562678
   6 N :   -0.078100
   7 N :   -0.107221
   8 H :    0.036616
   9 H :   -0.151405
  10 H :   -0.238414
  11 H :    0.133656
  12 H :   -0.106882
  13 H :   -0.034283
  14 H :   -0.053200
  15 H :    0.023537
Sum of atomic charges:   -0.0000000

LOEWDIN ATOMIC CHARGES
----------------------
   0 C :   -0.106071
   1 C :    0.112900
   2 C :   -0.060506
   3 H :    0.013301
   4 H :    0.011012
   5 C :   -0.237896
   6 N :    0.170507
   7 N :    0.200890
   8 H :   -0.011443
   9 H :    0.003364
  10 H :   -0.050046
  11 H :    0.009625
  12 H :    0.010817
  13 H :   -0.018768
  14 H :   -0.023716
  15 H :   -0.023970

  Mayer bond orders larger than 0.100000
B(  0-C ,  1-C ) :   1.2096 B(  0-C ,  2-C ) :   1.2677 B(  0-C ,  3-H ) :   0.8657
B(  0-C ,  4-H ) :   0.8517 B(  0-C , 10-H ) :   0.2073 B(  0-C , 13-H ) :   0.2108
B(  0-C , 14-H ) :   0.1931 B(  0-C , 15-H ) :   0.1515 B(  1-C , 13-H ) :   0.8363
B(  1-C , 14-H ) :   0.8477 B(  1-C , 15-H ) :   0.8273 B(  2-C ,  3-H ) :   0.2072
B(  2-C ,  4-H ) :   0.2350 B(  2-C ,  5-C ) :   1.7498 B(  2-C ,  6-N ) :   0.2863
B(  2-C ,  7-N ) :   0.1728 B(  2-C ,  8-H ) :  -0.1111 B(  2-C , 10-H ) :   0.9075
B(  5-C ,  6-N ) :   0.9463 B(  5-C ,  7-N ) :   0.9406 B(  5-C , 10-H ) :   0.2513
B(  6-N , 11-H ) :   0.9814 B(  6-N , 12-H ) :   1.1661 B(  7-N ,  8-H ) :   0.9608
B(  7-N ,  9-H ) :   1.2407 B(  8-H ,  9-H ) :  -0.1364 B( 11-H , 12-H ) :  -0.1270

Dispersion correction           -0.003779931
FINAL SINGLE POINT ENERGY      -267.680998402655

DIPOLE MOMENT
-------------
                                X             Y             Z
Electronic contribution:     -1.14343      -3.05336       3.82352
Nuclear contribution   :      1.44676       2.38443      -3.07370
                        -----------------------------------------
Total Dipole Moment    :      0.30333      -0.66893       0.74982
                        -----------------------------------------
Magnitude (a.u.)       :      1.04963
Magnitude (Debye)      :      2.66794

Rotational constants in cm-1:     0.235977     0.073199     0.063283
Rotational constants in MHz :  7074.404583  2194.453291  1897.179599

                             ****ORCA TERMINATED NORMALLY****
TOTAL RUN TIME: 0 days 0 hours 0 minutes 14 seconds 347 msec
