                         Program Version 5.0.0 -  RELEASE  -
|  1> !wB97X-D3 RIJCOSX def2-SVPD def2/J TightSCF CPCM(Water)
|  2> *xyz 0 1
|  3> C          3.48828        1.60092       -1.52204
|  4> C          4.34297        1.31342       -2.75683
|  5> N          2.81029        0.42878       -1.01420
|  6> H          2.71455        2.33145       -1.76030
|  7> H          4.09099        2.06315       -0.73338
|  8> C          3.29098       -0.41802       -0.12908
|  9> C          2.51754       -1.43202        0.23936
| 10> N          4.53549       -0.28441        0.39580
| 11> H          5.04363        0.57189        0.22290
| 12> H          4.72335       -0.73327        1.28180
| 13> H          1.93479        0.10230       -1.40379
| 14> H          1.67464       -1.50562       -0.31610
| 15> H          2.92850       -2.21850        0.72549
| 16> H          3.73575        0.86277       -3.51385
| 17> H          5.13754        0.64699       -2.49333
| 18> H          4.75374        2.22930       -3.12740
| 19> *
| 20> %MaxCore 64000
| 21>
| 22> %pal nprocs 18
| 23> end
| 24>
| 25> %scf
| 26>   MaxIter 150
| 27> end
| 28>
| 29>
| 30>                          ****END OF INPUT****

CARTESIAN COORDINATES (ANGSTROEM)
---------------------------------
  C      3.488280    1.600920   -1.522040
  C      4.342970    1.313420   -2.756830
  N      2.810290    0.428780   -1.014200
  H      2.714550    2.331450   -1.760300
  H      4.090990    2.063150   -0.733380
  C      3.290980   -0.418020   -0.129080
  C      2.517540   -1.432020    0.239360
  N      4.535490   -0.284410    0.395800
  H      5.043630    0.571890    0.222900
  H      4.723350   -0.733270    1.281800
  H      1.934790    0.102300   -1.403790
  H      1.674640   -1.505620   -0.316100
  H      2.928500   -2.218500    0.725490
  H      3.735750    0.862770   -3.513850
  H      5.137540    0.646990   -2.493330
  H      4.753740    2.229300   -3.127400

 Total Charge           Charge          ....    0
 Multiplicity           Mult            ....    1
 Number of Electrons    NEL             ....   48
 Basis Dimension        Dim             ....  200

ORBITAL ENERGIES
----------------

  NO   OCC          E(Eh)            E(eV)
   0   2.0000     -14.437198      -392.8561
   1   2.0000     -14.435589      -392.8124
   2   2.0000     -10.344846      -281.4976
   3   2.0000     -10.320816      -280.8437
   4   2.0000     -10.269326      -279.4426
   5   2.0000     -10.206565      -277.7348
   6   2.0000      -1.081102       -29.4183
   7   2.0000      -0.989577       -26.9278
   8   2.0000      -0.880583       -23.9619
   9   2.0000      -0.812034       -22.0966
  10   2.0000      -0.731289       -19.8994
  11   2.0000      -0.700001       -19.0480
  12   2.0000      -0.637596       -17.3499
  13   2.0000      -0.599785       -16.3210
  14   2.0000      -0.572994       -15.5920
  15   2.0000      -0.531551       -14.4642
  16   2.0000      -0.527433       -14.3522
  17   2.0000      -0.504503       -13.7282
  18   2.0000      -0.483679       -13.1616
  19   2.0000      -0.463283       -12.6066
  20   2.0000      -0.460633       -12.5345
  21   2.0000      -0.441412       -12.0114
  22   2.0000      -0.352061        -9.5801
  23   2.0000      -0.260688        -7.0937
  24   0.0000       0.093668         2.5488
  25   0.0000       0.115808         3.1513
  26   0.0000       0.127450         3.4681
  27   0.0000       0.134760         3.6670
  28   0.0000       0.147002         4.0001

MULLIKEN ATOMIC CHARGES
-----------------------
   0 C :    0.233360
   1 C :    0.551429
   2 N :   -0.332038
   3 H :   -0.258333
   4 H :   -0.045327
   5 C :    0.440134
   6 C :    0.429202
   7 N :   -0.011615
   8 H :   -0.097253
   9 H :   -0.064751
  10 H :   -0.205442
  11 H :   -0.195983
  12 H :   -0.394889
  13 H :   -0.040400
  14 H :   -0.044960
  15 H :    0.036865
Sum of atomic charges:    0.0000000

LOEWDIN ATOMIC CHARGES
----------------------
   0 C :    0.020792
   1 C :    0.130416
   2 N :   -0.022985
   3 H :    0.025466
   4 H :    0.021021
   5 C :   -0.244977
   6 C :    0.096628
   7 N :    0.203662
   8 H :   -0.017126
   9 H :    0.014637
  10 H :    0.044274
  11 H :   -0.110974
  12 H :   -0.107919
  13 H :   -0.015619
  14 H :   -0.022315
  15 H :   -0.014979

  Mayer bond orders larger than 0.100000
B(  0-C ,  1-C ) :   1.2423 B(  0-C ,  2-N ) :   0.8990 B(  0-C ,  3-H ) :   0.9666
B(  0-C ,  4-H ) :   0.8767 B(  0-C , 10-H ) :  -0.2021 B(  0-C , 13-H ) :   0.2283
B(  0-C , 14-H ) :   0.1916 B(  0-C , 15-H ) :   0.1544 B(  1-C , 13-H ) :   0.8210
B(  1-C , 14-H ) :   0.8433 B(  1-C , 15-H ) :   0.8269 B(  2-N ,  3-H ) :   0.1576
B(  2-N ,  4-H ) :   0.1403 B(  2-N ,  5-C ) :   1.1106 B(  2-N ,  6-C ) :   0.2328
B(  2-N ,  7-N ) :   0.1019 B(  2-N , 10-H ) :   1.2842 B(  5-C ,  6-C ) :   1.7832
B(  5-C ,  7-N ) :   0.9204 B(  5-C , 10-H ) :  -0.1812 B(  5-C , 11-H ) :   0.2481
B(  5-C , 12-H ) :   0.2224 B(  6-C ,  7-N ) :   0.1934 B(  6-C , 11-H ) :   0.7908
B(  6-C , 12-H ) :   0.7469 B(  7-N ,  8-H ) :   1.0055 B(  7-N ,  9-H ) :   1.1875
B(  8-H ,  9-H ) :  -0.1454 B( 11-H , 12-H ) :   0.1002

Dispersion correction           -0.003812158
FINAL SINGLE POINT ENERGY      -267.669733306983

DIPOLE MOMENT
-------------
                                X             Y             Z
Electronic contribution:     -0.65241      -0.66168       2.25772
Nuclear contribution   :      1.38466       1.98967      -2.80776
                        -----------------------------------------
Total Dipole Moment    :      0.73224       1.32799      -0.55004
                        -----------------------------------------
Magnitude (a.u.)       :      1.61316
Magnitude (Debye)      :      4.10033

Rotational constants in cm-1:     0.235618     0.075969     0.065309
Rotational constants in MHz :  7063.646698  2277.495424  1957.925383

                             ****ORCA TERMINATED NORMALLY****
TOTAL RUN TIME: 0 days 0 hours 0 minutes 14 seconds 697 msec
