                         Program Version 5.0.0 -  RELEASE  -
|  1> !wB97X-D3 RIJCOSX def2-SVPD def2/J TightSCF CPCM(Water)
|  2> *xyz 0 1
|  3> C          3.48828        1.60092       -1.52204
|  4> C          4.34297        1.31342       -2.75683
|  5> N          2.81029        0.42878       -1.01420
|  6> H          2.71455        2.33145       -1.76030
|  7> H          4.09099        2.06315       -0.73338
|  8> C          3.29098       -0.41802       -0.12908
|  9> N          2.51754       -1.43202        0.23936
| 10> C          4.53549       -0.28441        0.39580
| 11> H          5.04363        0.57189        0.22290
| 12> H          4.72335       -0.73327        1.28180
| 13> H          1.93479        0.10230       -1.40379
| 14> H          1.67464       -1.50562       -0.31610
| 15> H          2.92850       -2.21850        0.72549
| 16> H          3.73575        0.86277       -3.51385
| 17> H          5.13754        0.64699       -2.49333
| 18> H          4.75374        2.22930       -3.12740
| 19> *
| 20> %MaxCore 64000
| 21>
| 22> %pal nprocs 18
| 23> end
| 24>
| 25> %scf
| 26>   MaxIter 150
| 27> end
| 28>
| 29>
| 30>                          ****END OF INPUT****

CARTESIAN COORDINATES (ANGSTROEM)
---------------------------------
  C      3.488280    1.600920   -1.522040
  C      4.342970    1.313420   -2.756830
  N      2.810290    0.428780   -1.014200
  H      2.714550    2.331450   -1.760300
  H      4.090990    2.063150   -0.733380
  C      3.290980   -0.418020   -0.129080
  N      2.517540   -1.432020    0.239360
  C      4.535490   -0.284410    0.395800
  H      5.043630    0.571890    0.222900
  H      4.723350   -0.733270    1.281800
  H      1.934790    0.102300   -1.403790
  H      1.674640   -1.505620   -0.316100
  H      2.928500   -2.218500    0.725490
  H      3.735750    0.862770   -3.513850
  H      5.137540    0.646990   -2.493330
  H      4.753740    2.229300   -3.127400

 Total Charge           Charge          ....    0
 Multiplicity           Mult            ....    1
 Number of Electrons    NEL             ....   48
 Basis Dimension        Dim             ....  200

ORBITAL ENERGIES
----------------

  NO   OCC          E(Eh)            E(eV)
   0   2.0000     -14.441885      -392.9837
   1   2.0000     -14.435668      -392.8145
   2   2.0000     -10.347209      -281.5619
   3   2.0000     -10.319758      -280.8149
   4   2.0000     -10.268923      -279.4316
   5   2.0000     -10.208592      -277.7899
   6   2.0000      -1.089211       -29.6389
   7   2.0000      -0.994666       -27.0662
   8   2.0000      -0.862012       -23.4565
   9   2.0000      -0.821748       -22.3609
  10   2.0000      -0.748157       -20.3584
  11   2.0000      -0.665115       -18.0987
  12   2.0000      -0.645069       -17.5532
  13   2.0000      -0.629231       -17.1222
  14   2.0000      -0.564010       -15.3475
  15   2.0000      -0.537754       -14.6330
  16   2.0000      -0.529800       -14.4166
  17   2.0000      -0.496100       -13.4996
  18   2.0000      -0.478957       -13.0331
  19   2.0000      -0.468255       -12.7419
  20   2.0000      -0.459984       -12.5168
  21   2.0000      -0.438082       -11.9208
  22   2.0000      -0.344593        -9.3769
  23   2.0000      -0.264880        -7.2078
  24   0.0000       0.094429         2.5696
  25   0.0000       0.118744         3.2312
  26   0.0000       0.123712         3.3664
  27   0.0000       0.126536         3.4432
  28   0.0000       0.150294         4.0897

MULLIKEN ATOMIC CHARGES
-----------------------
   0 C :    0.244941
   1 C :    0.564968
   2 N :   -0.468890
   3 H :   -0.245995
   4 H :    0.049416
   5 C :    0.486620
   6 N :   -0.030342
   7 C :    0.424074
   8 H :   -0.203282
   9 H :   -0.455455
  10 H :   -0.248357
  11 H :   -0.033091
  12 H :    0.002843
  13 H :   -0.044694
  14 H :   -0.079475
  15 H :    0.036719
Sum of atomic charges:    0.0000000

LOEWDIN ATOMIC CHARGES
----------------------
   0 C :    0.024063
   1 C :    0.133033
   2 N :   -0.019951
   3 H :    0.026158
   4 H :    0.019898
   5 C :   -0.247325
   6 N :    0.189003
   7 C :    0.114679
   8 H :   -0.138851
   9 H :   -0.120151
  10 H :    0.042608
  11 H :    0.008766
  12 H :    0.024853
  13 H :   -0.016119
  14 H :   -0.026403
  15 H :   -0.014263

  Mayer bond orders larger than 0.100000
B(  0-C ,  1-C ) :   1.2162 B(  0-C ,  2-N ) :   0.8869 B(  0-C ,  3-H ) :   0.9952
B(  0-C ,  4-H ) :   0.8498 B(  0-C , 10-H ) :  -0.1907 B(  0-C , 13-H ) :   0.2026
B(  0-C , 14-H ) :   0.1913 B(  0-C , 15-H ) :   0.1526 B(  1-C , 13-H ) :   0.8350
B(  1-C , 14-H ) :   0.8537 B(  1-C , 15-H ) :   0.8320 B(  2-N ,  3-H ) :   0.1401
B(  2-N ,  4-H ) :   0.1251 B(  2-N ,  5-C ) :   0.9537 B(  2-N ,  6-N ) :   0.1550
B(  2-N ,  7-C ) :   0.3499 B(  2-N , 10-H ) :   1.4039 B(  5-C ,  6-N ) :   0.9365
B(  5-C ,  7-C ) :   1.7828 B(  5-C ,  8-H ) :   0.3040 B(  5-C ,  9-H ) :   0.2172
B(  5-C , 10-H ) :  -0.2478 B(  6-N ,  7-C ) :   0.2604 B(  6-N , 11-H ) :   1.0414
B(  6-N , 12-H ) :   1.1378 B(  7-C ,  8-H ) :   0.6766 B(  7-C ,  9-H ) :   0.7814
B(  8-H ,  9-H ) :   0.1816 B( 11-H , 12-H ) :  -0.1250

Dispersion correction           -0.003779941
FINAL SINGLE POINT ENERGY      -267.671099909760

DIPOLE MOMENT
-------------
                                X             Y             Z
Electronic contribution:     -3.32982      -2.26624       1.94760
Nuclear contribution   :      1.81275       2.23313      -2.77458
                        -----------------------------------------
Total Dipole Moment    :     -1.51707      -0.03311      -0.82698
                        -----------------------------------------
Magnitude (a.u.)       :      1.72814
Magnitude (Debye)      :      4.39259

Rotational constants in cm-1:     0.245202     0.073668     0.064348
Rotational constants in MHz :  7350.977980  2208.513334  1929.108541

                             ****ORCA TERMINATED NORMALLY****
TOTAL RUN TIME: 0 days 0 hours 0 minutes 13 seconds 482 msec
