                         Program Version 5.0.0 -  RELEASE  -
|  1> !wB97X-D3 RIJCOSX def2-SVPD def2/J TightSCF CPCM(Water) xyzfile
|  2>
|  3> *xyzfile 0 1 D2.xyz
|  4>
|  5> %MaxCore 64000
|  6>
|  7> %pal nprocs 18
|  8> end
|  9>
| 10> %scf
| 11>   MaxIter 150
| 12> end
| 13>
| 14>
| 15>                          ****END OF INPUT****

CARTESIAN COORDINATES (ANGSTROEM)
---------------------------------
  C      3.488276    1.600919   -1.522040
  C      4.342970    1.313419   -2.756826
  N      2.810285    0.428783   -1.014196
  H      5.132033    0.604994   -2.484466
  C      3.535896    0.749253   -3.924604
  H      4.841247    2.242136   -3.054083
  H      2.991617   -0.132199   -3.574137
  H      4.225505    0.392784   -4.695962
  C      2.564776    1.750890   -4.544523
  H      1.918749    2.171679   -3.769419
  C      1.686235    1.161657   -5.650111
  H      3.132494    2.594775   -4.951604
  C      0.839616   -0.037582   -5.220473
  H      2.323886    0.866395   -6.490796
  H      1.029518    1.951850   -6.029329
  C     -0.151019    0.254955   -4.094256
  H      1.499442   -0.857141   -4.922958
  H      0.290097   -0.410143   -6.091131
  H      0.328265    0.833022   -3.299125
  C     -0.721843   -0.999513   -3.439309
  H     -0.957367    0.884951   -4.485450
  H     -1.083403   -1.697555   -4.205656
  H     -1.581056   -0.723848   -2.820490
  C      0.287250   -1.711771   -2.527405
  H      1.131780   -2.067380   -3.159396
  H     -0.204137   -2.637326   -2.170480
  F      0.710505   -0.927506   -1.481767
  H      2.714548    2.331455   -1.760302
  H      4.090991    2.063151   -0.733382
  C      3.290978   -0.418021   -0.129083
  C      2.517536   -1.432017    0.239360
  N      4.535490   -0.284410    0.395800
  H      5.043627    0.571888    0.222899
  H      4.723346   -0.733273    1.281800
  H      1.934787    0.102305   -1.403788
  H      1.674638   -1.505616   -0.316095
  H      2.928503   -2.218502    0.725494

 Total Charge           Charge          ....    0
 Multiplicity           Mult            ....    1
 Number of Electrons    NEL             ....  112
 Basis Dimension        Dim             ....  467

ORBITAL ENERGIES
----------------

  NO   OCC          E(Eh)            E(eV)
   0   2.0000     -24.815814      -675.2726
   1   2.0000     -14.430614      -392.6770
   2   2.0000     -14.420522      -392.4024
   3   2.0000     -10.369003      -282.1549
   4   2.0000     -10.336270      -281.2642
   5   2.0000     -10.313260      -280.6381
   6   2.0000     -10.288990      -279.9777
   7   2.0000     -10.279371      -279.7159
   8   2.0000     -10.276908      -279.6489
   9   2.0000     -10.276451      -279.6364
  10   2.0000     -10.276259      -279.6312
  11   2.0000     -10.274961      -279.5959
  12   2.0000     -10.274485      -279.5830
  13   2.0000     -10.189599      -277.2731
  14   2.0000      -1.333094       -36.2753
  15   2.0000      -1.072981       -29.1973
  16   2.0000      -0.984053       -26.7774
  17   2.0000      -0.927430       -25.2367
  18   2.0000      -0.902417       -24.5560
  19   2.0000      -0.878208       -23.8972
  20   2.0000      -0.834851       -22.7174
  21   2.0000      -0.810425       -22.0528
  22   2.0000      -0.776414       -21.1273
  23   2.0000      -0.747226       -20.3330
  24   2.0000      -0.710139       -19.3239
  25   2.0000      -0.705472       -19.1969
  26   2.0000      -0.677708       -18.4414
  27   2.0000      -0.657265       -17.8851
  28   2.0000      -0.641703       -17.4616
  29   2.0000      -0.624122       -16.9832
  30   2.0000      -0.614361       -16.7176
  31   2.0000      -0.593360       -16.1462
  32   2.0000      -0.590178       -16.0596
  33   2.0000      -0.571981       -15.5644
  34   2.0000      -0.566885       -15.4257
  35   2.0000      -0.548442       -14.9239
  36   2.0000      -0.531908       -14.4740
  37   2.0000      -0.527446       -14.3525
  38   2.0000      -0.522636       -14.2216
  39   2.0000      -0.506503       -13.7826
  40   2.0000      -0.494021       -13.4430
  41   2.0000      -0.481971       -13.1151
  42   2.0000      -0.470055       -12.7909
  43   2.0000      -0.463943       -12.6245
  44   2.0000      -0.459186       -12.4951
  45   2.0000      -0.453071       -12.3287
  46   2.0000      -0.436292       -11.8721
  47   2.0000      -0.433978       -11.8091
  48   2.0000      -0.428191       -11.6517
  49   2.0000      -0.419224       -11.4077
  50   2.0000      -0.408689       -11.1210
  51   2.0000      -0.398882       -10.8541
  52   2.0000      -0.394885       -10.7454
  53   2.0000      -0.392828       -10.6894
  54   2.0000      -0.344671        -9.3790
  55   2.0000      -0.251822        -6.8524
  56   0.0000       0.093343         2.5400
  57   0.0000       0.103226         2.8089
  58   0.0000       0.106882         2.9084
  59   0.0000       0.108783         2.9601
  60   0.0000       0.122319         3.3285

MULLIKEN ATOMIC CHARGES
-----------------------
   0 C :    1.091229
   1 C :    0.265206
   2 N :    0.263248
   3 H :   -0.043220
   4 C :    0.312894
   5 H :   -0.108390
   6 H :   -0.338464
   7 H :   -0.130980
   8 C :   -0.109498
   9 H :    0.057813
  10 C :    0.583699
  11 H :   -0.193197
  12 C :   -0.031015
  13 H :   -0.004476
  14 H :   -0.110475
  15 C :    0.171671
  16 H :   -0.032906
  17 H :   -0.187784
  18 H :   -0.294647
  19 C :    0.179871
  20 H :   -0.073526
  21 H :   -0.009465
  22 H :   -0.009841
  23 C :    0.761722
  24 H :   -0.034605
  25 H :   -0.148918
  26 F :   -0.660036
  27 H :   -0.269595
  28 H :   -0.230746
  29 C :    0.403667
  30 C :    0.818933
  31 N :    0.071028
  32 H :   -0.083538
  33 H :   -0.087197
  34 H :   -0.887182
  35 H :   -0.586735
  36 H :   -0.314545
Sum of atomic charges:    0.0000000

LOEWDIN ATOMIC CHARGES
----------------------
   0 C :    0.068336
   1 C :   -0.020242
   2 N :    0.005611
   3 H :    0.018374
   4 C :   -0.030573
   5 H :    0.025675
   6 H :   -0.000247
   7 H :    0.029156
   8 C :   -0.035171
   9 H :    0.000476
  10 C :   -0.031779
  11 H :    0.027423
  12 C :   -0.033305
  13 H :    0.024224
  14 H :    0.024028
  15 C :   -0.025665
  16 H :    0.000461
  17 H :    0.026956
  18 H :    0.005350
  19 C :   -0.008854
  20 H :    0.031706
  21 H :    0.042196
  22 H :    0.030740
  23 C :    0.170539
  24 H :    0.041170
  25 H :    0.047873
  26 F :   -0.235963
  27 H :    0.016780
  28 H :    0.019282
  29 C :   -0.222501
  30 C :    0.122241
  31 N :    0.200805
  32 H :   -0.020280
  33 H :    0.011518
  34 H :   -0.046593
  35 H :   -0.169761
  36 H :   -0.109984

  Mayer bond orders larger than 0.100000
B(  0-C ,  1-C ) :   1.0702 B(  0-C ,  2-N ) :   0.9683 B(  0-C ,  5-H ) :   0.1116
B(  0-C , 27-H ) :   0.6915 B(  0-C , 28-H ) :   0.8263 B(  0-C , 34-H ) :  -0.5955
B(  1-C ,  3-H ) :   0.7710 B(  1-C ,  4-C ) :   1.2090 B(  1-C ,  5-H ) :   0.9139
B(  1-C ,  6-H ) :   0.1018 B(  1-C , 27-H ) :   0.1124 B(  1-C , 28-H ) :   0.1263
B(  2-N , 27-H ) :   0.1386 B(  2-N , 29-C ) :   1.1119 B(  2-N , 30-C ) :   0.2006
B(  2-N , 31-N ) :   0.1604 B(  2-N , 34-H ) :   0.9113 B(  3-H ,  4-C ) :   0.1929
B(  4-C ,  6-H ) :   0.8456 B(  4-C ,  7-H ) :   0.7908 B(  4-C ,  8-C ) :   1.1761
B(  4-C , 11-H ) :   0.1635 B(  6-H ,  8-C ) :   0.1603 B(  7-H ,  8-C ) :   0.1433
B(  8-C ,  9-H ) :   0.8440 B(  8-C , 10-C ) :   1.1687 B(  8-C , 11-H ) :   0.9454
B(  8-C , 13-H ) :   0.1150 B(  8-C , 14-H ) :   0.2772 B( 10-C , 12-C ) :   1.1910
B( 10-C , 13-H ) :   0.7254 B( 10-C , 14-H ) :   0.7059 B( 12-C , 13-H ) :   0.2213
B( 12-C , 14-H ) :   0.1242 B( 12-C , 15-C ) :   1.1978 B( 12-C , 16-H ) :   0.8875
B( 12-C , 17-H ) :   0.8877 B( 12-C , 18-H ) :   0.1440 B( 12-C , 20-H ) :   0.1928
B( 13-H , 14-H ) :  -0.1189 B( 15-C , 17-H ) :   0.2386 B( 15-C , 18-H ) :   0.8685
B( 15-C , 19-C ) :   1.1615 B( 15-C , 20-H ) :   0.8445 B( 15-C , 22-H ) :   0.1987
B( 18-H , 19-C ) :   0.1238 B( 19-C , 21-H ) :   0.8288 B( 19-C , 22-H ) :   0.7594
B( 19-C , 23-C ) :   1.2284 B( 19-C , 24-H ) :   0.1178 B( 19-C , 25-H ) :   0.1315
B( 21-H , 23-C ) :   0.1419 B( 22-H , 23-C ) :   0.1571 B( 23-C , 24-H ) :   0.8453
B( 23-C , 25-H ) :   0.9432 B( 23-C , 26-F ) :   0.5680 B( 24-H , 26-F ) :   0.1153
B( 26-F , 34-H ) :   0.1208 B( 26-F , 35-H ) :   0.1826 B( 27-H , 34-H ) :   0.1905
B( 29-C , 30-C ) :   1.8191 B( 29-C , 31-N ) :   0.9283 B( 29-C , 34-H ) :  -0.5752
B( 29-C , 35-H ) :   0.2740 B( 29-C , 36-H ) :   0.4191 B( 30-C , 31-N ) :   0.2337
B( 30-C , 35-H ) :   0.3557 B( 30-C , 36-H ) :   0.4617 B( 31-N , 32-H ) :   0.9655
B( 31-N , 33-H ) :   1.1713 B( 32-H , 33-H ) :  -0.1382 B( 34-H , 35-H ) :  -0.1048
B( 35-H , 36-H ) :   0.2454

Dispersion correction           -0.017724603
FINAL SINGLE POINT ENERGY      -641.741488719513

DIPOLE MOMENT
-------------
                                X             Y             Z
Electronic contribution:     -1.11906      -2.84940       9.06202
Nuclear contribution   :      1.09892       3.58083     -10.64472
                        -----------------------------------------
Total Dipole Moment    :     -0.02014       0.73143      -1.58269
                        -----------------------------------------
Magnitude (a.u.)       :      1.74365
Magnitude (Debye)      :      4.43200

Rotational constants in cm-1:     0.026768     0.016312     0.010954
Rotational constants in MHz :   802.489946   489.033275   328.388904

                             ****ORCA TERMINATED NORMALLY****
TOTAL RUN TIME: 0 days 0 hours 1 minutes 32 seconds 385 msec
