                         Program Version 5.0.0 -  RELEASE  -
|  1> !wB97X-D3 RIJCOSX def2-SVPD def2/J TightSCF CPCM(Water) xyzfile
|  2>
|  3> *xyzfile 0 1 D3.xyz
|  4>
|  5> %MaxCore 64000
|  6>
|  7> %pal nprocs 18
|  8> end
|  9>
| 10> %scf
| 11>   MaxIter 150
| 12> end
| 13>
| 14>
| 15>                          ****END OF INPUT****

CARTESIAN COORDINATES (ANGSTROEM)
---------------------------------
  C      3.488276    1.600919   -1.522040
  C      4.342970    1.313419   -2.756826
  N      2.810285    0.428783   -1.014196
  H      5.132033    0.604994   -2.484466
  C      3.535896    0.749253   -3.924604
  H      4.841247    2.242136   -3.054083
  H      2.991617   -0.132199   -3.574137
  H      4.225505    0.392784   -4.695962
  C      2.564776    1.750890   -4.544523
  H      1.918749    2.171679   -3.769419
  C      1.686235    1.161657   -5.650111
  H      3.132494    2.594775   -4.951604
  C      0.839616   -0.037582   -5.220473
  H      2.323886    0.866395   -6.490796
  H      1.029518    1.951850   -6.029329
  C     -0.151019    0.254955   -4.094256
  H      1.499442   -0.857141   -4.922958
  H      0.290097   -0.410143   -6.091131
  H      0.328265    0.833022   -3.299125
  C     -0.721843   -0.999513   -3.439309
  H     -0.957367    0.884951   -4.485450
  H     -1.083403   -1.697555   -4.205656
  H     -1.581056   -0.723848   -2.820490
  C      0.287250   -1.711771   -2.527405
  H      1.131780   -2.067380   -3.159396
  H     -0.204137   -2.637326   -2.170480
  F      0.710505   -0.927506   -1.481767
  H      2.714548    2.331455   -1.760302
  H      4.090991    2.063151   -0.733382
  C      3.290978   -0.418021   -0.129083
  N      2.517536   -1.432017    0.239360
  C      4.535490   -0.284410    0.395800
  H      5.043627    0.571888    0.222899
  H      4.723346   -0.733273    1.281800
  H      1.934787    0.102305   -1.403788
  H      1.674638   -1.505616   -0.316095
  H      2.928503   -2.218502    0.725494

 Total Charge           Charge          ....    0
 Multiplicity           Mult            ....    1
 Number of Electrons    NEL             ....  112
 Basis Dimension        Dim             ....  467

ORBITAL ENERGIES
----------------

  NO   OCC          E(Eh)            E(eV)
   0   2.0000     -24.832051      -675.7145
   1   2.0000     -14.425781      -392.5454
   2   2.0000     -14.420943      -392.4138
   3   2.0000     -10.373996      -282.2908
   4   2.0000     -10.340624      -281.3827
   5   2.0000     -10.312295      -280.6118
   6   2.0000     -10.291288      -280.0402
   7   2.0000     -10.280414      -279.7443
   8   2.0000     -10.276789      -279.6456
   9   2.0000     -10.276580      -279.6400
  10   2.0000     -10.276534      -279.6387
  11   2.0000     -10.274671      -279.5880
  12   2.0000     -10.274348      -279.5792
  13   2.0000     -10.203465      -277.6504
  14   2.0000      -1.347473       -36.6666
  15   2.0000      -1.080834       -29.4110
  16   2.0000      -0.987355       -26.8673
  17   2.0000      -0.927389       -25.2355
  18   2.0000      -0.902793       -24.5663
  19   2.0000      -0.870812       -23.6960
  20   2.0000      -0.830194       -22.5907
  21   2.0000      -0.812393       -22.1063
  22   2.0000      -0.793127       -21.5821
  23   2.0000      -0.753189       -20.4953
  24   2.0000      -0.715234       -19.4625
  25   2.0000      -0.696375       -18.9493
  26   2.0000      -0.669666       -18.2225
  27   2.0000      -0.662438       -18.0259
  28   2.0000      -0.655440       -17.8354
  29   2.0000      -0.632166       -17.2021
  30   2.0000      -0.616022       -16.7628
  31   2.0000      -0.602273       -16.3887
  32   2.0000      -0.595363       -16.2007
  33   2.0000      -0.575640       -15.6639
  34   2.0000      -0.555345       -15.1117
  35   2.0000      -0.551015       -14.9939
  36   2.0000      -0.537404       -14.6235
  37   2.0000      -0.527841       -14.3633
  38   2.0000      -0.525397       -14.2968
  39   2.0000      -0.501262       -13.6400
  40   2.0000      -0.498340       -13.5605
  41   2.0000      -0.481382       -13.0991
  42   2.0000      -0.471288       -12.8244
  43   2.0000      -0.468158       -12.7392
  44   2.0000      -0.465835       -12.6760
  45   2.0000      -0.453488       -12.3400
  46   2.0000      -0.444856       -12.1052
  47   2.0000      -0.438531       -11.9330
  48   2.0000      -0.427897       -11.6437
  49   2.0000      -0.424057       -11.5392
  50   2.0000      -0.410041       -11.1578
  51   2.0000      -0.399284       -10.8651
  52   2.0000      -0.395494       -10.7619
  53   2.0000      -0.393039       -10.6951
  54   2.0000      -0.335156        -9.1201
  55   2.0000      -0.259648        -7.0654
  56   0.0000       0.093617         2.5475
  57   0.0000       0.103199         2.8082
  58   0.0000       0.106062         2.8861
  59   0.0000       0.109985         2.9928
  60   0.0000       0.123213         3.3528

MULLIKEN ATOMIC CHARGES
-----------------------
   0 C :    1.083116
   1 C :    0.286498
   2 N :    0.290265
   3 H :   -0.084338
   4 C :    0.274924
   5 H :   -0.092242
   6 H :   -0.337463
   7 H :   -0.120716
   8 C :   -0.116199
   9 H :    0.061137
  10 C :    0.588234
  11 H :   -0.189244
  12 C :   -0.034941
  13 H :   -0.002571
  14 H :   -0.108470
  15 C :    0.162272
  16 H :   -0.029772
  17 H :   -0.192214
  18 H :   -0.296849
  19 C :    0.182220
  20 H :   -0.074139
  21 H :   -0.004406
  22 H :   -0.002376
  23 C :    0.760635
  24 H :   -0.025431
  25 H :   -0.128241
  26 F :   -0.722014
  27 H :   -0.260902
  28 H :   -0.151015
  29 C :    0.473033
  30 N :    0.372440
  31 C :    0.555806
  32 H :   -0.073971
  33 H :   -0.587356
  34 H :   -1.091396
  35 H :   -0.296139
  36 H :   -0.068175
Sum of atomic charges:    0.0000000

LOEWDIN ATOMIC CHARGES
----------------------
   0 C :    0.071546
   1 C :   -0.016577
   2 N :    0.008876
   3 H :    0.014082
   4 C :   -0.031036
   5 H :    0.026670
   6 H :   -0.000719
   7 H :    0.029117
   8 C :   -0.035370
   9 H :    0.000386
  10 C :   -0.031643
  11 H :    0.027459
  12 C :   -0.033016
  13 H :    0.024311
  14 H :    0.024097
  15 C :   -0.025101
  16 H :    0.000711
  17 H :    0.027189
  18 H :    0.005733
  19 C :   -0.006400
  20 H :    0.032346
  21 H :    0.043872
  22 H :    0.031769
  23 C :    0.174675
  24 H :    0.043933
  25 H :    0.050247
  26 F :   -0.216525
  27 H :    0.017786
  28 H :    0.017967
  29 C :   -0.227458
  30 N :    0.208133
  31 C :    0.110256
  32 H :   -0.142581
  33 H :   -0.124398
  34 H :   -0.050275
  35 H :   -0.073727
  36 H :    0.023666

  Mayer bond orders larger than 0.100000
B(  0-C ,  1-C ) :   1.0499 B(  0-C ,  2-N ) :   0.9727 B(  0-C , 27-H ) :   0.7384
B(  0-C , 28-H ) :   0.8175 B(  0-C , 34-H ) :  -0.6452 B(  1-C ,  3-H ) :   0.7848
B(  1-C ,  4-C ) :   1.2055 B(  1-C ,  5-H ) :   0.9137 B(  1-C ,  6-H ) :   0.1057
B(  1-C , 28-H ) :   0.1145 B(  2-N , 27-H ) :   0.1859 B(  2-N , 29-C ) :   1.0582
B(  2-N , 31-C ) :   0.4205 B(  2-N , 33-H ) :   0.1126 B(  2-N , 34-H ) :   0.6976
B(  3-H ,  4-C ) :   0.2067 B(  4-C ,  6-H ) :   0.8445 B(  4-C ,  7-H ) :   0.8015
B(  4-C ,  8-C ) :   1.1773 B(  4-C , 11-H ) :   0.1664 B(  6-H ,  8-C ) :   0.1599
B(  7-H ,  8-C ) :   0.1481 B(  8-C ,  9-H ) :   0.8461 B(  8-C , 10-C ) :   1.1727
B(  8-C , 11-H ) :   0.9420 B(  8-C , 13-H ) :   0.1171 B(  8-C , 14-H ) :   0.2816
B( 10-C , 12-C ) :   1.1879 B( 10-C , 13-H ) :   0.7246 B( 10-C , 14-H ) :   0.7036
B( 12-C , 13-H ) :   0.2202 B( 12-C , 14-H ) :   0.1207 B( 12-C , 15-C ) :   1.1980
B( 12-C , 16-H ) :   0.8864 B( 12-C , 17-H ) :   0.8961 B( 12-C , 18-H ) :   0.1431
B( 12-C , 20-H ) :   0.1922 B( 13-H , 14-H ) :  -0.1177 B( 15-C , 17-H ) :   0.2342
B( 15-C , 18-H ) :   0.8719 B( 15-C , 19-C ) :   1.1686 B( 15-C , 20-H ) :   0.8482
B( 15-C , 22-H ) :   0.1983 B( 18-H , 19-C ) :   0.1239 B( 19-C , 21-H ) :   0.8221
B( 19-C , 22-H ) :   0.7606 B( 19-C , 23-C ) :   1.2210 B( 19-C , 24-H ) :   0.1181
B( 19-C , 25-H ) :   0.1318 B( 19-C , 26-F ) :   0.1041 B( 21-H , 23-C ) :   0.1483
B( 22-H , 23-C ) :   0.1453 B( 23-C , 24-H ) :   0.8476 B( 23-C , 25-H ) :   0.9339
B( 23-C , 26-F ) :   0.5401 B( 24-H , 26-F ) :   0.1218 B( 26-F , 34-H ) :   0.1834
B( 26-F , 35-H ) :   0.1929 B( 27-H , 28-H ) :  -0.1298 B( 27-H , 34-H ) :   0.1239
B( 29-C , 30-N ) :   0.9028 B( 29-C , 31-C ) :   1.7334 B( 29-C , 32-H ) :   0.3845
B( 29-C , 33-H ) :   0.3776 B( 29-C , 34-H ) :  -0.6177 B( 30-N , 31-C ) :   0.2459
B( 30-N , 35-H ) :   0.9237 B( 30-N , 36-H ) :   1.1874 B( 31-C , 32-H ) :   0.5852
B( 31-C , 33-H ) :   0.5936 B( 35-H , 36-H ) :  -0.1458

Dispersion correction           -0.017696423
FINAL SINGLE POINT ENERGY      -641.754509541935

DIPOLE MOMENT
-------------
                                X             Y             Z
Electronic contribution:     -3.82331      -4.44503       8.69541
Nuclear contribution   :      1.49917       3.80845     -10.61369
                        -----------------------------------------
Total Dipole Moment    :     -2.32414      -0.63658      -1.91828
                        -----------------------------------------
Magnitude (a.u.)       :      3.08004
Magnitude (Debye)      :      7.82884

Rotational constants in cm-1:     0.026547     0.016542     0.011018
Rotational constants in MHz :   795.873737   495.912559   330.323979

                             ****ORCA TERMINATED NORMALLY****
TOTAL RUN TIME: 0 days 0 hours 1 minutes 33 seconds 92 msec
