                         Program Version 5.0.0 -  RELEASE  -
|  1> !PBE0 D3BJ RIJCOSX def2-SVPD def2/J TightSCF
|  2> *xyz -1 1
|  3> C         -5.57236       -5.80780       -0.81644
|  4> S         -6.90318       -4.61903       -0.52846
|  5> O         -8.11485       -5.25093       -0.95701
|  6> O         -6.53271       -3.42684       -1.31485
|  7> O         -6.86563       -4.29496        0.91412
|  8> C         -3.82708       -4.66110        0.78617
|  9> C         -4.45780       -5.94187        0.22919
| 10> H         -5.17735       -5.54257       -1.79771
| 11> H         -6.07420       -6.76889       -0.92127
| 12> H         -3.68106       -6.56224       -0.22988
| 13> H         -4.84394       -6.51273        1.07581
| 14> H         -3.43706       -4.07576       -0.02016
| 15> H         -3.03403       -4.91680        1.45744
| 16> H         -4.56975       -4.09647        1.31013
| 17> *
| 18> %MaxCore 64000
| 19>
| 20> %pal nprocs 4
| 21> end
| 22>
| 23> %scf
| 24>   MaxIter 150
| 25> end
| 26>
| 27>                          ****END OF INPUT****

CARTESIAN COORDINATES (ANGSTROEM)
---------------------------------
  C     -5.572360   -5.807800   -0.816440
  S     -6.903180   -4.619030   -0.528460
  O     -8.114850   -5.250930   -0.957010
  O     -6.532710   -3.426840   -1.314850
  O     -6.865630   -4.294960    0.914120
  C     -3.827080   -4.661100    0.786170
  C     -4.457800   -5.941870    0.229190
  H     -5.177350   -5.542570   -1.797710
  H     -6.074200   -6.768890   -0.921270
  H     -3.681060   -6.562240   -0.229880
  H     -4.843940   -6.512730    1.075810
  H     -3.437060   -4.075760   -0.020160
  H     -3.034030   -4.916800    1.457440
  H     -4.569750   -4.096470    1.310130

 Total Charge           Charge          ....   -1
 Multiplicity           Mult            ....    1
 Number of Electrons    NEL             ....   66
 Basis Dimension        Dim             ....  212

ORBITAL ENERGIES
----------------

  NO   OCC          E(Eh)            E(eV)
   0   2.0000     -89.039806     -2422.8963
   1   2.0000     -19.004045      -517.1264
   2   2.0000     -18.991262      -516.7785
   3   2.0000     -18.989844      -516.7399
   4   2.0000     -10.108422      -275.0642
   5   2.0000     -10.099283      -274.8155
   6   2.0000     -10.082742      -274.3654
   7   2.0000      -7.999078      -217.6660
   8   2.0000      -5.941316      -161.6714
   9   2.0000      -5.941188      -161.6679
  10   2.0000      -5.940779      -161.6568
  11   2.0000      -0.958481       -26.0816
  12   2.0000      -0.817846       -22.2547
  13   2.0000      -0.794041       -21.6070
  14   2.0000      -0.673542       -18.3280
  15   2.0000      -0.584951       -15.9173
  16   2.0000      -0.488996       -13.3063
  17   2.0000      -0.397428       -10.8146
  18   2.0000      -0.348455        -9.4820
  19   2.0000      -0.332541        -9.0489
  20   2.0000      -0.311569        -8.4782
  21   2.0000      -0.296132        -8.0582
  22   2.0000      -0.280999        -7.6464
  23   2.0000      -0.267556        -7.2806
  24   2.0000      -0.236309        -6.4303
  25   2.0000      -0.232031        -6.3139
  26   2.0000      -0.216404        -5.8887
  27   2.0000      -0.167258        -4.5513
  28   2.0000      -0.164600        -4.4790
  29   2.0000      -0.131796        -3.5863
  30   2.0000      -0.118504        -3.2247
  31   2.0000      -0.116057        -3.1581
  32   2.0000      -0.079209        -2.1554
  33   0.0000       0.141426         3.8484
  34   0.0000       0.167566         4.5597
  35   0.0000       0.173308         4.7159
  36   0.0000       0.180983         4.9248
  37   0.0000       0.201060         5.4711

MULLIKEN ATOMIC CHARGES
-----------------------
   0 C :   -0.084095
   1 S :    1.417670
   2 O :   -0.841701
   3 O :   -0.841322
   4 O :   -0.869709
   5 C :    0.602333
   6 C :   -0.430556
   7 H :    0.095205
   8 H :    0.047852
   9 H :   -0.047719
  10 H :    0.028760
  11 H :   -0.005090
  12 H :   -0.001204
  13 H :   -0.070425
Sum of atomic charges:   -1.0000000

LOEWDIN ATOMIC CHARGES
----------------------
   0 C :   -0.083851
   1 S :    0.882154
   2 O :   -0.572620
   3 O :   -0.599248
   4 O :   -0.585383
   5 C :    0.117152
   6 C :   -0.095302
   7 H :    0.003078
   8 H :   -0.003482
   9 H :    0.006884
  10 H :    0.017544
  11 H :   -0.016322
  12 H :   -0.032031
  13 H :   -0.038572

  Mayer bond orders larger than 0.100000
B(  0-C ,  1-S ) :   0.8821 B(  0-C ,  6-C ) :   1.3054 B(  0-C ,  7-H ) :   0.9132
B(  0-C ,  8-H ) :   0.9043 B(  0-C ,  9-H ) :   0.1376 B(  0-C , 10-H ) :   0.1255
B(  1-S ,  2-O ) :   1.3116 B(  1-S ,  3-O ) :   1.2310 B(  1-S ,  4-O ) :   1.2246
B(  5-C ,  6-C ) :   1.2919 B(  5-C , 11-H ) :   0.8005 B(  5-C , 12-H ) :   0.7597
B(  5-C , 13-H ) :   0.8720 B(  6-C ,  7-H ) :   0.1166 B(  6-C ,  8-H ) :   0.1305
B(  6-C ,  9-H ) :   0.8970 B(  6-C , 10-H ) :   0.9209 B(  6-C , 11-H ) :   0.1917
B(  6-C , 12-H ) :   0.1939 B(  6-C , 13-H ) :   0.1932

Dispersion correction           -0.011390655
FINAL SINGLE POINT ENERGY      -741.557236645872

DIPOLE MOMENT
-------------
                                X             Y             Z
Electronic contribution:     -9.84114       3.20856      -2.57717
Nuclear contribution   :     11.75544      -4.53524       2.70749
                        -----------------------------------------
Total Dipole Moment    :      1.91430      -1.32668       0.13032
                        -----------------------------------------
Magnitude (a.u.)       :      2.33273
Magnitude (Debye)      :      5.92933

Rotational constants in cm-1:     0.134586     0.054907     0.051455
Rotational constants in MHz :  4034.798577  1646.069534  1542.570153

                             ****ORCA TERMINATED NORMALLY****
TOTAL RUN TIME: 0 days 0 hours 0 minutes 24 seconds 251 msec
