                         Program Version 5.0.0 -  RELEASE  -
|  1> !PBE0 D3BJ RIJCOSX def2-SVPD def2/J TightSCF
|  2> *xyz 1 1
|  3> C         -4.38262       -1.67089        1.21620
|  4> N         -5.76354       -1.91517        0.70501
|  5> C         -3.28173       -2.19127        0.29436
|  6> H         -5.84081       -2.11520       -0.30065
|  7> H         -6.40882       -1.14866        0.93612
|  8> H         -6.17478       -2.79061        1.05143
|  9> H         -4.32862       -2.13922        2.19810
| 10> H         -4.26158       -0.59740        1.35725
| 11> C         -3.47464       -3.60590       -0.25961
| 12> H         -2.35455       -2.12760        0.87143
| 13> H         -3.16661       -1.49969       -0.54504
| 14> H         -2.64612       -3.85908       -0.88759
| 15> H         -4.37934       -3.64545       -0.82956
| 16> H         -3.53324       -4.30157        0.55126
| 17> *
| 18> %MaxCore 64000
| 19>
| 20> %pal nprocs 4
| 21> end
| 22>
| 23> %scf
| 24>   MaxIter 150
| 25> end
| 26>
| 27>                          ****END OF INPUT****

CARTESIAN COORDINATES (ANGSTROEM)
---------------------------------
  C     -4.382620   -1.670890    1.216200
  N     -5.763540   -1.915170    0.705010
  C     -3.281730   -2.191270    0.294360
  H     -5.840810   -2.115200   -0.300650
  H     -6.408820   -1.148660    0.936120
  H     -6.174780   -2.790610    1.051430
  H     -4.328620   -2.139220    2.198100
  H     -4.261580   -0.597400    1.357250
  C     -3.474640   -3.605900   -0.259610
  H     -2.354550   -2.127600    0.871430
  H     -3.166610   -1.499690   -0.545040
  H     -2.646120   -3.859080   -0.887590
  H     -4.379340   -3.645450   -0.829560
  H     -3.533240   -4.301570    0.551260

 Total Charge           Charge          ....    1
 Multiplicity           Mult            ....    1
 Number of Electrons    NEL             ....   34
 Basis Dimension        Dim             ....  160

ORBITAL ENERGIES
----------------

  NO   OCC          E(Eh)            E(eV)
   0   2.0000     -14.726769      -400.7358
   1   2.0000     -10.481097      -285.2051
   2   2.0000     -10.411400      -283.3086
   3   2.0000     -10.382199      -282.5140
   4   2.0000      -1.228418       -33.4269
   5   2.0000      -0.990939       -26.9648
   6   2.0000      -0.905649       -24.6440
   7   2.0000      -0.814720       -22.1697
   8   2.0000      -0.803930       -21.8761
   9   2.0000      -0.782643       -21.2968
  10   2.0000      -0.704491       -19.1702
  11   2.0000      -0.649749       -17.6806
  12   2.0000      -0.621238       -16.9047
  13   2.0000      -0.597437       -16.2571
  14   2.0000      -0.542753       -14.7691
  15   2.0000      -0.537747       -14.6328
  16   2.0000      -0.519465       -14.1353
  17   0.0000      -0.181812        -4.9473
  18   0.0000      -0.129348        -3.5198
  19   0.0000      -0.125526        -3.4157
  20   0.0000      -0.107590        -2.9277
  21   0.0000      -0.083979        -2.2852

MULLIKEN ATOMIC CHARGES
-----------------------
   0 C :    0.594237
   1 N :   -0.899662
   2 C :   -0.558515
   3 H :    0.380906
   4 H :    0.368416
   5 H :    0.433263
   6 H :    0.011957
   7 H :    0.029308
   8 C :    0.608992
   9 H :    0.041477
  10 H :    0.017207
  11 H :   -0.001649
  12 H :   -0.060439
  13 H :    0.034504
Sum of atomic charges:    1.0000000

LOEWDIN ATOMIC CHARGES
----------------------
   0 C :    0.098766
   1 N :    0.328048
   2 C :   -0.049035
   3 H :    0.090602
   4 H :    0.109429
   5 H :    0.106030
   6 H :    0.053717
   7 H :    0.052267
   8 C :    0.144434
   9 H :    0.048263
  10 H :    0.037386
  11 H :    0.008961
  12 H :   -0.027771
  13 H :   -0.001096

  Mayer bond orders larger than 0.100000
B(  0-C ,  1-N ) :   0.6201 B(  0-C ,  2-C ) :   1.2381 B(  0-C ,  6-H ) :   0.8398
B(  0-C ,  7-H ) :   0.8982 B(  0-C ,  9-H ) :   0.1240 B(  0-C , 10-H ) :   0.1022
B(  1-N ,  3-H ) :   0.6747 B(  1-N ,  4-H ) :   0.7723 B(  1-N ,  5-H ) :   0.7378
B(  1-N ,  6-H ) :   0.1166 B(  2-C ,  6-H ) :   0.1256 B(  2-C ,  8-C ) :   1.3179
B(  2-C ,  9-H ) :   0.9369 B(  2-C , 10-H ) :   0.9563 B(  2-C , 11-H ) :   0.1910
B(  2-C , 12-H ) :   0.1601 B(  2-C , 13-H ) :   0.1736 B(  8-C , 11-H ) :   0.8067
B(  8-C , 12-H ) :   0.8652 B(  8-C , 13-H ) :   0.8153

Dispersion correction           -0.007771152
FINAL SINGLE POINT ENERGY      -174.522804190774

DIPOLE MOMENT
-------------
                                X             Y             Z
Electronic contribution:     -1.72676       1.31353       0.78580
Nuclear contribution   :     -0.18358      -0.73024      -0.44649
                        -----------------------------------------
Total Dipole Moment    :     -1.91033       0.58329       0.33930
                        -----------------------------------------
Magnitude (a.u.)       :      2.02601
Magnitude (Debye)      :      5.14971

Rotational constants in cm-1:     0.423641     0.164544     0.133152
Rotational constants in MHz : 12700.438743  4932.897948  3991.802402

                             ****ORCA TERMINATED NORMALLY****
TOTAL RUN TIME: 0 days 0 hours 0 minutes 12 seconds 364 msec
