                         Program Version 5.0.0 -  RELEASE  -
|  1> !PBE0 D3BJ RIJCOSX def2-SVPD def2/J TightSCF xyzfile
|  2>
|  3> *xyzfile 0 1 B.xyz
|  4>
|  5> %MaxCore 64000
|  6>
|  7> %pal nprocs 4
|  8> end
|  9>
| 10> %scf
| 11>   MaxIter 150
| 12> end
| 13>
| 14>
| 15>                          ****END OF INPUT****

CARTESIAN COORDINATES (ANGSTROEM)
---------------------------------
  C     -4.382623   -1.670889    1.216201
  N     -5.763539   -1.915170    0.705012
  C     -3.281728   -2.191272    0.294361
  C     -5.572364   -5.807798   -0.816445
  S     -6.903179   -4.619033   -0.528458
  H     -5.840812   -2.115205   -0.300646
  H     -6.408823   -1.148656    0.936124
  H     -6.174781   -2.790606    1.051433
  O     -8.114853   -5.250932   -0.957007
  O     -6.532715   -3.426838   -1.314848
  H     -4.328618   -2.139223    2.198103
  H     -4.261583   -0.597399    1.357248
  O     -6.865632   -4.294957    0.914118
  C     -3.474641   -3.605898   -0.259608
  H     -2.354548   -2.127602    0.871433
  H     -3.166611   -1.499693   -0.545037
  C     -3.827078   -4.661097    0.786174
  H     -2.560559   -3.889391   -0.788050
  H     -4.255932   -3.570040   -1.019300
  C     -4.457800   -5.941875    0.229195
  H     -5.177347   -5.542575   -1.797714
  H     -6.074202   -6.768894   -0.921272
  H     -4.530506   -4.253640    1.511979
  H     -2.933400   -4.932302    1.356825
  H     -3.681064   -6.562236   -0.229885
  H     -4.843942   -6.512728    1.075805

 Total Charge           Charge          ....    0
 Multiplicity           Mult            ....    1
 Number of Electrons    NEL             ....   98
 Basis Dimension        Dim             ....  356

ORBITAL ENERGIES
----------------

  NO   OCC          E(Eh)            E(eV)
   0   2.0000     -89.209182     -2427.5052
   1   2.0000     -19.174985      -521.7779
   2   2.0000     -19.171108      -521.6724
   3   2.0000     -19.158559      -521.3309
   4   2.0000     -14.503113      -394.6498
   5   2.0000     -10.321935      -280.8741
   6   2.0000     -10.269338      -279.4429
   7   2.0000     -10.243982      -278.7529
   8   2.0000     -10.241849      -278.6949
   9   2.0000     -10.239986      -278.6442
  10   2.0000     -10.238197      -278.5955
  11   2.0000      -8.167868      -222.2590
  12   2.0000      -6.110901      -166.2861
  13   2.0000      -6.109999      -166.2615
  14   2.0000      -6.108793      -166.2287
  15   2.0000      -1.131555       -30.7912
  16   2.0000      -1.025851       -27.9148
  17   2.0000      -0.984271       -26.7834
  18   2.0000      -0.979801       -26.6617
  19   2.0000      -0.850804       -23.1516
  20   2.0000      -0.810743       -22.0614
  21   2.0000      -0.760459       -20.6932
  22   2.0000      -0.708585       -19.2816
  23   2.0000      -0.655064       -17.8252
  24   2.0000      -0.618113       -16.8197
  25   2.0000      -0.603639       -16.4259
  26   2.0000      -0.592318       -16.1178
  27   2.0000      -0.556010       -15.1298
  28   2.0000      -0.528636       -14.3849
  29   2.0000      -0.506983       -13.7957
  30   2.0000      -0.500894       -13.6300
  31   2.0000      -0.487912       -13.2768
  32   2.0000      -0.466210       -12.6862
  33   2.0000      -0.460280       -12.5249
  34   2.0000      -0.450204       -12.2507
  35   2.0000      -0.436625       -11.8812
  36   2.0000      -0.435534       -11.8515
  37   2.0000      -0.403264       -10.9734
  38   2.0000      -0.391414       -10.6509
  39   2.0000      -0.387460       -10.5433
  40   2.0000      -0.360872        -9.8198
  41   2.0000      -0.352459        -9.5909
  42   2.0000      -0.347022        -9.4430
  43   2.0000      -0.337753        -9.1907
  44   2.0000      -0.332451        -9.0465
  45   2.0000      -0.296358        -8.0643
  46   2.0000      -0.290413        -7.9025
  47   2.0000      -0.281616        -7.6632
  48   2.0000      -0.259788        -7.0692
  49   0.0000      -0.013076        -0.3558
  50   0.0000       0.021695         0.5904
  51   0.0000       0.028236         0.7683
  52   0.0000       0.031352         0.8531
  53   0.0000       0.047063         1.2807

MULLIKEN ATOMIC CHARGES
-----------------------
   0 C :    0.656896
   1 N :   -0.581408
   2 C :    0.109828
   3 C :    0.013308
   4 S :    1.493448
   5 H :    0.331865
   6 H :    0.300851
   7 H :    0.213210
   8 O :   -0.853522
   9 O :   -0.816417
  10 H :    0.205566
  11 H :   -0.309835
  12 O :   -0.884696
  13 C :    0.048499
  14 H :    0.030088
  15 H :    0.044982
  16 C :   -0.150939
  17 H :   -0.216592
  18 H :    0.036487
  19 C :    0.334791
  20 H :    0.189415
  21 H :   -0.196265
  22 H :    0.109828
  23 H :   -0.196515
  24 H :    0.026264
  25 H :    0.060863
Sum of atomic charges:    0.0000000

LOEWDIN ATOMIC CHARGES
----------------------
   0 C :    0.093403
   1 N :    0.337938
   2 C :   -0.010475
   3 C :   -0.051886
   4 S :    0.978603
   5 H :   -0.009570
   6 H :    0.100253
   7 H :   -0.060963
   8 O :   -0.501087
   9 O :   -0.545754
  10 H :    0.036213
  11 H :    0.031105
  12 O :   -0.524794
  13 C :   -0.010460
  14 H :    0.032546
  15 H :    0.030985
  16 C :   -0.022934
  17 H :    0.032749
  18 H :   -0.013296
  19 C :   -0.027034
  20 H :    0.015225
  21 H :    0.012978
  22 H :   -0.012117
  23 H :    0.028780
  24 H :    0.027843
  25 H :    0.031748

  Mayer bond orders larger than 0.100000
B(  0-C ,  1-N ) :   0.6563 B(  0-C ,  2-C ) :   1.2315 B(  0-C , 10-H ) :   0.7250
B(  0-C , 11-H ) :   1.0126 B(  0-C , 14-H ) :   0.1277 B(  0-C , 15-H ) :   0.1217
B(  1-N ,  5-H ) :   0.7004 B(  1-N ,  6-H ) :   0.8679 B(  1-N ,  7-H ) :   1.0924
B(  2-C , 11-H ) :   0.1430 B(  2-C , 13-C ) :   1.2766 B(  2-C , 14-H ) :   0.8444
B(  2-C , 15-H ) :   0.7566 B(  3-C ,  4-S ) :   0.9217 B(  3-C ,  8-O ) :   0.1461
B(  3-C , 19-C ) :   1.2398 B(  3-C , 20-H ) :   0.8537 B(  3-C , 21-H ) :   0.9706
B(  3-C , 24-H ) :   0.1251 B(  3-C , 25-H ) :   0.1187 B(  4-S ,  8-O ) :   1.3857
B(  4-S ,  9-O ) :   1.0830 B(  4-S , 12-O ) :   1.0575 B(  5-H ,  9-O ) :   0.1689
B(  7-H , 12-O ) :   0.1245 B(  9-O , 12-O ) :   0.1438 B( 10-H , 11-H ) :  -0.1109
B( 13-C , 14-H ) :   0.1256 B( 13-C , 15-H ) :   0.1853 B( 13-C , 16-C ) :   1.1884
B( 13-C , 17-H ) :   0.8658 B( 13-C , 18-H ) :   0.8732 B( 13-C , 23-H ) :   0.1565
B( 16-C , 17-H ) :   0.1653 B( 16-C , 18-H ) :   0.1352 B( 16-C , 19-C ) :   1.3153
B( 16-C , 22-H ) :   0.8745 B( 16-C , 23-H ) :   0.9039 B( 16-C , 24-H ) :   0.1280
B( 16-C , 25-H ) :   0.2213 B( 19-C , 21-H ) :   0.1699 B( 19-C , 24-H ) :   0.7940
B( 19-C , 25-H ) :   0.7049

Dispersion correction           -0.027146421
FINAL SINGLE POINT ENERGY      -915.083588287303

DIPOLE MOMENT
-------------
                                X             Y             Z
Electronic contribution:    -13.49363      -2.94712      -3.67545
Nuclear contribution   :     16.18863       5.15617       4.97370
                        -----------------------------------------
Total Dipole Moment    :      2.69499       2.20905       1.29825
                        -----------------------------------------
Magnitude (a.u.)       :      3.71865
Magnitude (Debye)      :      9.45205

Rotational constants in cm-1:     0.048546     0.025588     0.020102
Rotational constants in MHz :  1455.374030   767.095631   602.645620

                             ****ORCA TERMINATED NORMALLY****
TOTAL RUN TIME: 0 days 0 hours 1 minutes 28 seconds 571 msec
