                         Program Version 5.0.0 -  RELEASE  -
|  1> !PBE0 D3BJ RIJCOSX def2-SVPD def2/J TightSCF
|  2> *xyz 0 1
|  3> C         -5.57236       -5.80780       -0.81644
|  4> S         -6.90318       -4.61903       -0.52846
|  5> F         -8.11485       -5.25093       -0.95701
|  6> O         -6.53271       -3.42684       -1.31485
|  7> O         -6.86563       -4.29496        0.91412
|  8> C         -3.82708       -4.66110        0.78617
|  9> C         -4.45780       -5.94187        0.22919
| 10> H         -5.17735       -5.54257       -1.79771
| 11> H         -6.07420       -6.76889       -0.92127
| 12> H         -3.68106       -6.56224       -0.22988
| 13> H         -4.84394       -6.51273        1.07581
| 14> H         -3.43706       -4.07576       -0.02016
| 15> H         -3.03403       -4.91680        1.45744
| 16> H         -4.56975       -4.09647        1.31013
| 17> *
| 18> %MaxCore 64000
| 19>
| 20> %pal nprocs 4
| 21> end
| 22>
| 23> %scf
| 24>   MaxIter 150
| 25> end
| 26>
| 27>                          ****END OF INPUT****

CARTESIAN COORDINATES (ANGSTROEM)
---------------------------------
  C     -5.572360   -5.807800   -0.816440
  S     -6.903180   -4.619030   -0.528460
  F     -8.114850   -5.250930   -0.957010
  O     -6.532710   -3.426840   -1.314850
  O     -6.865630   -4.294960    0.914120
  C     -3.827080   -4.661100    0.786170
  C     -4.457800   -5.941870    0.229190
  H     -5.177350   -5.542570   -1.797710
  H     -6.074200   -6.768890   -0.921270
  H     -3.681060   -6.562240   -0.229880
  H     -4.843940   -6.512730    1.075810
  H     -3.437060   -4.075760   -0.020160
  H     -3.034030   -4.916800    1.457440
  H     -4.569750   -4.096470    1.310130

 Total Charge           Charge          ....    0
 Multiplicity           Mult            ....    1
 Number of Electrons    NEL             ....   66
 Basis Dimension        Dim             ....  212

ORBITAL ENERGIES
----------------

  NO   OCC          E(Eh)            E(eV)
   0   2.0000     -89.298019     -2429.9226
   1   2.0000     -24.909410      -677.8195
   2   2.0000     -19.223138      -523.0882
   3   2.0000     -19.222786      -523.0786
   4   2.0000     -10.299128      -280.2535
   5   2.0000     -10.265376      -279.3351
   6   2.0000     -10.222818      -278.1770
   7   2.0000      -8.258213      -224.7174
   8   2.0000      -6.204481      -168.8325
   9   2.0000      -6.198007      -168.6563
  10   2.0000      -6.196868      -168.6254
  11   2.0000      -1.419397       -38.6238
  12   2.0000      -1.125875       -30.6366
  13   2.0000      -1.022697       -27.8290
  14   2.0000      -0.849477       -23.1154
  15   2.0000      -0.779978       -21.2243
  16   2.0000      -0.732226       -19.9249
  17   2.0000      -0.658099       -17.9078
  18   2.0000      -0.616170       -16.7668
  19   2.0000      -0.603829       -16.4310
  20   2.0000      -0.570702       -15.5296
  21   2.0000      -0.510407       -13.8889
  22   2.0000      -0.499035       -13.5794
  23   2.0000      -0.475245       -12.9321
  24   2.0000      -0.462509       -12.5855
  25   2.0000      -0.435484       -11.8501
  26   2.0000      -0.402096       -10.9416
  27   2.0000      -0.391513       -10.6536
  28   2.0000      -0.383597       -10.4382
  29   2.0000      -0.369242       -10.0476
  30   2.0000      -0.337660        -9.1882
  31   2.0000      -0.335524        -9.1301
  32   2.0000      -0.316314        -8.6073
  33   0.0000       0.002517         0.0685
  34   0.0000       0.016522         0.4496
  35   0.0000       0.040542         1.1032
  36   0.0000       0.041211         1.1214
  37   0.0000       0.049826         1.3558

MULLIKEN ATOMIC CHARGES
-----------------------
   0 C :   -0.106808
   1 S :    1.601585
   2 F :   -0.448429
   3 O :   -0.703477
   4 O :   -0.744822
   5 C :    0.614427
   6 C :   -0.420471
   7 H :    0.138371
   8 H :    0.095257
   9 H :   -0.017078
  10 H :    0.051409
  11 H :    0.007741
  12 H :    0.016976
  13 H :   -0.084680
Sum of atomic charges:    0.0000000

LOEWDIN ATOMIC CHARGES
----------------------
   0 C :   -0.049755
   1 S :    1.146774
   2 F :   -0.257061
   3 O :   -0.484513
   4 O :   -0.481072
   5 C :    0.138896
   6 C :   -0.066703
   7 H :    0.024621
   8 H :    0.013245
   9 H :    0.033077
  10 H :    0.030828
  11 H :   -0.005975
  12 H :   -0.010487
  13 H :   -0.031875

  Mayer bond orders larger than 0.100000
B(  0-C ,  1-S ) :   0.9357 B(  0-C ,  6-C ) :   1.3523 B(  0-C ,  7-H ) :   0.9111
B(  0-C ,  8-H ) :   0.8558 B(  0-C ,  9-H ) :   0.1314 B(  0-C , 10-H ) :   0.1251
B(  1-S ,  2-F ) :   0.6421 B(  1-S ,  3-O ) :   1.4476 B(  1-S ,  4-O ) :   1.4166
B(  5-C ,  6-C ) :   1.3132 B(  5-C , 11-H ) :   0.7991 B(  5-C , 12-H ) :   0.7596
B(  5-C , 13-H ) :   0.8787 B(  6-C ,  7-H ) :   0.1105 B(  6-C ,  8-H ) :   0.1423
B(  6-C ,  9-H ) :   0.8846 B(  6-C , 10-H ) :   0.9122 B(  6-C , 11-H ) :   0.1866
B(  6-C , 12-H ) :   0.1869 B(  6-C , 13-H ) :   0.1810

Dispersion correction           -0.011013137
FINAL SINGLE POINT ENERGY      -766.023805633984

DIPOLE MOMENT
-------------
                                X             Y             Z
Electronic contribution:    -13.36642       2.42649      -3.88165
Nuclear contribution   :     13.81909      -4.05404       3.42760
                        -----------------------------------------
Total Dipole Moment    :      0.45267      -1.62755      -0.45405
                        -----------------------------------------
Magnitude (a.u.)       :      1.74928
Magnitude (Debye)      :      4.44632

Rotational constants in cm-1:     0.132500     0.053014     0.049575
Rotational constants in MHz :  3972.256497  1589.318970  1486.215991

                             ****ORCA TERMINATED NORMALLY****
TOTAL RUN TIME: 0 days 0 hours 0 minutes 23 seconds 150 msec
