                         Program Version 5.0.0 -  RELEASE  -
|  1> !PBE0 D3BJ RIJCOSX def2-SVPD def2/J TightSCF
|  2> *xyz 0 1
|  3> C         -4.38262       -1.67089        1.21620
|  4> C         -5.76354       -1.91517        0.70501
|  5> C         -3.28173       -2.19127        0.29436
|  6> H         -5.84081       -2.11520       -0.30065
|  7> H         -6.40882       -1.14866        0.93612
|  8> H         -6.17478       -2.79061        1.05143
|  9> H         -4.32862       -2.13922        2.19810
| 10> H         -4.26158       -0.59740        1.35725
| 11> C         -3.47464       -3.60590       -0.25961
| 12> H         -2.35455       -2.12760        0.87143
| 13> H         -3.16661       -1.49969       -0.54504
| 14> H         -2.64612       -3.85908       -0.88759
| 15> H         -4.37934       -3.64545       -0.82956
| 16> H         -3.53324       -4.30157        0.55126
| 17> *
| 18> %MaxCore 64000
| 19>
| 20> %pal nprocs 4
| 21> end
| 22>
| 23> %scf
| 24>   MaxIter 150
| 25> end
| 26>
| 27>                          ****END OF INPUT****

CARTESIAN COORDINATES (ANGSTROEM)
---------------------------------
  C     -4.382620   -1.670890    1.216200
  C     -5.763540   -1.915170    0.705010
  C     -3.281730   -2.191270    0.294360
  H     -5.840810   -2.115200   -0.300650
  H     -6.408820   -1.148660    0.936120
  H     -6.174780   -2.790610    1.051430
  H     -4.328620   -2.139220    2.198100
  H     -4.261580   -0.597400    1.357250
  C     -3.474640   -3.605900   -0.259610
  H     -2.354550   -2.127600    0.871430
  H     -3.166610   -1.499690   -0.545040
  H     -2.646120   -3.859080   -0.887590
  H     -4.379340   -3.645450   -0.829560
  H     -3.533240   -4.301570    0.551260

 Total Charge           Charge          ....    0
 Multiplicity           Mult            ....    1
 Number of Electrons    NEL             ....   34
 Basis Dimension        Dim             ....  160

ORBITAL ENERGIES
----------------

  NO   OCC          E(Eh)            E(eV)
   0   2.0000     -10.223064      -278.1837
   1   2.0000     -10.219505      -278.0869
   2   2.0000     -10.212385      -277.8931
   3   2.0000     -10.192687      -277.3571
   4   2.0000      -0.816808       -22.2265
   5   2.0000      -0.743297       -20.2261
   6   2.0000      -0.664737       -18.0884
   7   2.0000      -0.578647       -15.7458
   8   2.0000      -0.479443       -13.0463
   9   2.0000      -0.474523       -12.9124
  10   2.0000      -0.431463       -11.7407
  11   2.0000      -0.409258       -11.1365
  12   2.0000      -0.396249       -10.7825
  13   2.0000      -0.371063       -10.0971
  14   2.0000      -0.340265        -9.2591
  15   2.0000      -0.332896        -9.0585
  16   2.0000      -0.322774        -8.7831
  17   0.0000       0.031289         0.8514
  18   0.0000       0.057035         1.5520
  19   0.0000       0.061757         1.6805
  20   0.0000       0.074006         2.0138
  21   0.0000       0.098971         2.6931

MULLIKEN ATOMIC CHARGES
-----------------------
   0 C :   -0.323801
   1 C :    0.856676
   2 C :   -0.433276
   3 H :   -0.284620
   4 H :   -0.282816
   5 H :   -0.040250
   6 H :   -0.026056
   7 H :    0.009424
   8 C :    0.525868
   9 H :   -0.012096
  10 H :    0.038157
  11 H :   -0.006357
  12 H :   -0.010247
  13 H :   -0.010605
Sum of atomic charges:   -0.0000000

LOEWDIN ATOMIC CHARGES
----------------------
   0 C :   -0.069813
   1 C :    0.114960
   2 C :   -0.084433
   3 H :   -0.043443
   4 H :   -0.031937
   5 H :   -0.029806
   6 H :    0.022621
   7 H :    0.021095
   8 C :    0.120950
   9 H :    0.016843
  10 H :    0.022395
  11 H :   -0.017687
  12 H :   -0.028272
  13 H :   -0.013474

  Mayer bond orders larger than 0.100000
B(  0-C ,  1-C ) :   1.2692 B(  0-C ,  2-C ) :   1.2358 B(  0-C ,  3-H ) :   0.2456
B(  0-C ,  4-H ) :   0.1769 B(  0-C ,  5-H ) :   0.2072 B(  0-C ,  6-H ) :   0.8734
B(  0-C ,  7-H ) :   0.9028 B(  0-C ,  9-H ) :   0.1593 B(  0-C , 10-H ) :   0.1228
B(  1-C ,  3-H ) :   0.7027 B(  1-C ,  4-H ) :   0.8014 B(  1-C ,  5-H ) :   0.6429
B(  1-C ,  6-H ) :   0.1166 B(  2-C ,  6-H ) :   0.1323 B(  2-C ,  8-C ) :   1.3357
B(  2-C ,  9-H ) :   0.9093 B(  2-C , 10-H ) :   0.9093 B(  2-C , 11-H ) :   0.1941
B(  2-C , 12-H ) :   0.1710 B(  2-C , 13-H ) :   0.1705 B(  3-H ,  5-H ) :   0.2790
B(  8-C , 11-H ) :   0.7771 B(  8-C , 12-H ) :   0.8703 B(  8-C , 13-H ) :   0.8327

Dispersion correction           -0.007803940
FINAL SINGLE POINT ENERGY      -158.132276737314

DIPOLE MOMENT
-------------
                                X             Y             Z
Electronic contribution:      0.63805       0.59521       0.37930
Nuclear contribution   :     -0.64996      -0.59433      -0.37777
                        -----------------------------------------
Total Dipole Moment    :     -0.01191       0.00088       0.00152
                        -----------------------------------------
Magnitude (a.u.)       :      0.01204
Magnitude (Debye)      :      0.03060

Rotational constants in cm-1:     0.431358     0.171688     0.138554
Rotational constants in MHz : 12931.797515  5147.084397  4153.759343

                             ****ORCA TERMINATED NORMALLY****
TOTAL RUN TIME: 0 days 0 hours 0 minutes 11 seconds 623 msec
