                         Program Version 5.0.0 -  RELEASE  -
|  1> !PBE0 D3BJ RIJCOSX def2-SVPD def2/J TightSCF
|  2> *xyz 0 1
|  3> C         -5.57236       -5.80780       -0.81644
|  4> S         -6.90318       -4.61903       -0.52846
|  5> O         -8.11485       -5.25093       -0.95701
|  6> F         -6.53271       -3.42684       -1.31485
|  7> O         -6.86563       -4.29496        0.91412
|  8> C         -3.82708       -4.66110        0.78617
|  9> C         -4.45780       -5.94187        0.22919
| 10> H         -5.17735       -5.54257       -1.79771
| 11> H         -6.07420       -6.76889       -0.92127
| 12> H         -3.68106       -6.56224       -0.22988
| 13> H         -4.84394       -6.51273        1.07581
| 14> H         -3.43706       -4.07576       -0.02016
| 15> H         -3.03403       -4.91680        1.45744
| 16> H         -4.56975       -4.09647        1.31013
| 17> *
| 18> %MaxCore 64000
| 19>
| 20> %pal nprocs 4
| 21> end
| 22>
| 23> %scf
| 24>   MaxIter 150
| 25> end
| 26>
| 27>                          ****END OF INPUT****

CARTESIAN COORDINATES (ANGSTROEM)
---------------------------------
  C     -5.572360   -5.807800   -0.816440
  S     -6.903180   -4.619030   -0.528460
  O     -8.114850   -5.250930   -0.957010
  F     -6.532710   -3.426840   -1.314850
  O     -6.865630   -4.294960    0.914120
  C     -3.827080   -4.661100    0.786170
  C     -4.457800   -5.941870    0.229190
  H     -5.177350   -5.542570   -1.797710
  H     -6.074200   -6.768890   -0.921270
  H     -3.681060   -6.562240   -0.229880
  H     -4.843940   -6.512730    1.075810
  H     -3.437060   -4.075760   -0.020160
  H     -3.034030   -4.916800    1.457440
  H     -4.569750   -4.096470    1.310130

 Total Charge           Charge          ....    0
 Multiplicity           Mult            ....    1
 Number of Electrons    NEL             ....   66
 Basis Dimension        Dim             ....  212

ORBITAL ENERGIES
----------------

  NO   OCC          E(Eh)            E(eV)
   0   2.0000     -89.296035     -2429.8686
   1   2.0000     -24.887792      -677.2313
   2   2.0000     -19.236901      -523.4627
   3   2.0000     -19.222432      -523.0690
   4   2.0000     -10.298535      -280.2374
   5   2.0000     -10.264959      -279.3237
   6   2.0000     -10.228950      -278.3439
   7   2.0000      -8.256157      -224.6614
   8   2.0000      -6.202256      -168.7720
   9   2.0000      -6.196169      -168.6063
  10   2.0000      -6.194984      -168.5741
  11   2.0000      -1.382137       -37.6099
  12   2.0000      -1.142616       -31.0922
  13   2.0000      -1.038891       -28.2697
  14   2.0000      -0.850254       -23.1366
  15   2.0000      -0.772889       -21.0314
  16   2.0000      -0.722730       -19.6665
  17   2.0000      -0.654043       -17.7974
  18   2.0000      -0.591408       -16.0930
  19   2.0000      -0.586583       -15.9617
  20   2.0000      -0.571578       -15.5534
  21   2.0000      -0.515588       -14.0299
  22   2.0000      -0.496930       -13.5222
  23   2.0000      -0.474232       -12.9045
  24   2.0000      -0.465683       -12.6719
  25   2.0000      -0.450058       -12.2467
  26   2.0000      -0.409308       -11.1378
  27   2.0000      -0.394853       -10.7445
  28   2.0000      -0.390396       -10.6232
  29   2.0000      -0.372398       -10.1335
  30   2.0000      -0.351345        -9.5606
  31   2.0000      -0.339495        -9.2381
  32   2.0000      -0.326053        -8.8723
  33   0.0000       0.004553         0.1239
  34   0.0000       0.020057         0.5458
  35   0.0000       0.035446         0.9645
  36   0.0000       0.041152         1.1198
  37   0.0000       0.050912         1.3854

MULLIKEN ATOMIC CHARGES
-----------------------
   0 C :   -0.108491
   1 S :    1.561252
   2 O :   -0.706859
   3 F :   -0.418418
   4 O :   -0.743578
   5 C :    0.614484
   6 C :   -0.393573
   7 H :    0.139294
   8 H :    0.086055
   9 H :   -0.015267
  10 H :    0.052470
  11 H :   -0.003821
  12 H :    0.020528
  13 H :   -0.084076
Sum of atomic charges:   -0.0000000

LOEWDIN ATOMIC CHARGES
----------------------
   0 C :   -0.043292
   1 S :    1.142197
   2 O :   -0.459831
   3 F :   -0.276302
   4 O :   -0.477488
   5 C :    0.133234
   6 C :   -0.071461
   7 H :    0.019790
   8 H :    0.025828
   9 H :    0.031116
  10 H :    0.033026
  11 H :   -0.010913
  12 H :   -0.009740
  13 H :   -0.036165

  Mayer bond orders larger than 0.100000
B(  0-C ,  1-S ) :   0.9479 B(  0-C ,  6-C ) :   1.3413 B(  0-C ,  7-H ) :   0.8869
B(  0-C ,  8-H ) :   0.9013 B(  0-C ,  9-H ) :   0.1264 B(  0-C , 10-H ) :   0.1296
B(  1-S ,  2-O ) :   1.5354 B(  1-S ,  3-F ) :   0.5907 B(  1-S ,  4-O ) :   1.4507
B(  5-C ,  6-C ) :   1.3097 B(  5-C , 11-H ) :   0.8011 B(  5-C , 12-H ) :   0.7652
B(  5-C , 13-H ) :   0.8796 B(  6-C ,  7-H ) :   0.1155 B(  6-C ,  8-H ) :   0.1251
B(  6-C ,  9-H ) :   0.8856 B(  6-C , 10-H ) :   0.9143 B(  6-C , 11-H ) :   0.1818
B(  6-C , 12-H ) :   0.1850 B(  6-C , 13-H ) :   0.1790

Dispersion correction           -0.010960903
FINAL SINGLE POINT ENERGY      -766.042513223295

DIPOLE MOMENT
-------------
                                X             Y             Z
Electronic contribution:    -10.64197       5.55987      -4.49850
Nuclear contribution   :     12.11759      -6.01574       3.81244
                        -----------------------------------------
Total Dipole Moment    :      1.47562      -0.45586      -0.68607
                        -----------------------------------------
Magnitude (a.u.)       :      1.68996
Magnitude (Debye)      :      4.29553

Rotational constants in cm-1:     0.128152     0.053825     0.050608
Rotational constants in MHz :  3841.897096  1613.621976  1517.196867

                             ****ORCA TERMINATED NORMALLY****
TOTAL RUN TIME: 0 days 0 hours 0 minutes 23 seconds 228 msec
