                         Program Version 5.0.0 -  RELEASE  -
|  1> !PBE0 D3BJ RIJCOSX def2-SVPD def2/J TightSCF
|  2> *xyz 0 1
|  3> C         -5.57236       -5.80780       -0.81644
|  4> S         -6.90318       -4.61903       -0.52846
|  5> O         -8.11485       -5.25093       -0.95701
|  6> O         -6.53271       -3.42684       -1.31485
|  7> F         -6.86563       -4.29496        0.91412
|  8> C         -3.82708       -4.66110        0.78617
|  9> C         -4.45780       -5.94187        0.22919
| 10> H         -5.17735       -5.54257       -1.79771
| 11> H         -6.07420       -6.76889       -0.92127
| 12> H         -3.68106       -6.56224       -0.22988
| 13> H         -4.84394       -6.51273        1.07581
| 14> H         -3.43706       -4.07576       -0.02016
| 15> H         -3.03403       -4.91680        1.45744
| 16> H         -4.56975       -4.09647        1.31013
| 17> *
| 18> %MaxCore 64000
| 19>
| 20> %pal nprocs 4
| 21> end
| 22>
| 23> %scf
| 24>   MaxIter 150
| 25> end
| 26>
| 27>                          ****END OF INPUT****

CARTESIAN COORDINATES (ANGSTROEM)
---------------------------------
  C     -5.572360   -5.807800   -0.816440
  S     -6.903180   -4.619030   -0.528460
  O     -8.114850   -5.250930   -0.957010
  O     -6.532710   -3.426840   -1.314850
  F     -6.865630   -4.294960    0.914120
  C     -3.827080   -4.661100    0.786170
  C     -4.457800   -5.941870    0.229190
  H     -5.177350   -5.542570   -1.797710
  H     -6.074200   -6.768890   -0.921270
  H     -3.681060   -6.562240   -0.229880
  H     -4.843940   -6.512730    1.075810
  H     -3.437060   -4.075760   -0.020160
  H     -3.034030   -4.916800    1.457440
  H     -4.569750   -4.096470    1.310130

 Total Charge           Charge          ....    0
 Multiplicity           Mult            ....    1
 Number of Electrons    NEL             ....   66
 Basis Dimension        Dim             ....  212

ORBITAL ENERGIES
----------------

  NO   OCC          E(Eh)            E(eV)
   0   2.0000     -89.294768     -2429.8342
   1   2.0000     -24.886574      -677.1981
   2   2.0000     -19.236046      -523.4394
   3   2.0000     -19.220985      -523.0296
   4   2.0000     -10.297403      -280.2066
   5   2.0000     -10.271514      -279.5021
   6   2.0000     -10.239275      -278.6248
   7   2.0000      -8.254924      -224.6279
   8   2.0000      -6.201092      -168.7403
   9   2.0000      -6.194954      -168.5733
  10   2.0000      -6.193671      -168.5384
  11   2.0000      -1.379474       -37.5374
  12   2.0000      -1.142508       -31.0892
  13   2.0000      -1.038292       -28.2534
  14   2.0000      -0.854431       -23.2502
  15   2.0000      -0.773704       -21.0535
  16   2.0000      -0.724075       -19.7031
  17   2.0000      -0.660255       -17.9664
  18   2.0000      -0.597441       -16.2572
  19   2.0000      -0.588770       -16.0212
  20   2.0000      -0.561081       -15.2678
  21   2.0000      -0.514074       -13.9887
  22   2.0000      -0.492123       -13.3914
  23   2.0000      -0.487740       -13.2721
  24   2.0000      -0.467980       -12.7344
  25   2.0000      -0.450023       -12.2458
  26   2.0000      -0.411968       -11.2102
  27   2.0000      -0.402099       -10.9417
  28   2.0000      -0.396420       -10.7871
  29   2.0000      -0.378615       -10.3026
  30   2.0000      -0.350180        -9.5289
  31   2.0000      -0.337978        -9.1969
  32   2.0000      -0.327247        -8.9048
  33   0.0000      -0.002922        -0.0795
  34   0.0000       0.031051         0.8449
  35   0.0000       0.037429         1.0185
  36   0.0000       0.041019         1.1162
  37   0.0000       0.047116         1.2821

MULLIKEN ATOMIC CHARGES
-----------------------
   0 C :   -0.080135
   1 S :    1.536117
   2 O :   -0.705759
   3 O :   -0.710729
   4 F :   -0.437736
   5 C :    0.623644
   6 C :   -0.405462
   7 H :    0.136403
   8 H :    0.094625
   9 H :   -0.007171
  10 H :    0.028811
  11 H :    0.006961
  12 H :    0.023625
  13 H :   -0.103195
Sum of atomic charges:   -0.0000000

LOEWDIN ATOMIC CHARGES
----------------------
   0 C :   -0.038065
   1 S :    1.135268
   2 O :   -0.460114
   3 O :   -0.486243
   4 F :   -0.276897
   5 C :    0.134958
   6 C :   -0.078922
   7 H :    0.032846
   8 H :    0.020471
   9 H :    0.032285
  10 H :    0.027586
  11 H :   -0.003431
  12 H :   -0.008568
  13 H :   -0.031176

  Mayer bond orders larger than 0.100000
B(  0-C ,  1-S ) :   0.9600 B(  0-C ,  6-C ) :   1.3109 B(  0-C ,  7-H ) :   0.8978
B(  0-C ,  8-H ) :   0.8956 B(  0-C ,  9-H ) :   0.1328 B(  0-C , 10-H ) :   0.1186
B(  1-S ,  2-O ) :   1.5166 B(  1-S ,  3-O ) :   1.4572 B(  1-S ,  4-F ) :   0.6027
B(  5-C ,  6-C ) :   1.3071 B(  5-C , 11-H ) :   0.8063 B(  5-C , 12-H ) :   0.7599
B(  5-C , 13-H ) :   0.8760 B(  6-C ,  7-H ) :   0.1189 B(  6-C ,  8-H ) :   0.1293
B(  6-C ,  9-H ) :   0.8787 B(  6-C , 10-H ) :   0.9335 B(  6-C , 11-H ) :   0.1914
B(  6-C , 12-H ) :   0.1866 B(  6-C , 13-H ) :   0.1753

Dispersion correction           -0.010907779
FINAL SINGLE POINT ENERGY      -766.042490286767

DIPOLE MOMENT
-------------
                                X             Y             Z
Electronic contribution:    -11.14204       4.03670      -0.68161
Nuclear contribution   :     12.47562      -5.08213       1.41531
                        -----------------------------------------
Total Dipole Moment    :      1.33358      -1.04543       0.73370
                        -----------------------------------------
Magnitude (a.u.)       :      1.84653
Magnitude (Debye)      :      4.69350

Rotational constants in cm-1:     0.128398     0.054249     0.051014
Rotational constants in MHz :  3849.278549  1626.338413  1529.351405

                             ****ORCA TERMINATED NORMALLY****
TOTAL RUN TIME: 0 days 0 hours 0 minutes 23 seconds 414 msec
