                         Program Version 5.0.0 -  RELEASE  -
|  1> !PBE0 D3BJ RIJCOSX def2-SVPD def2/J TightSCF xyzfile
|  2>
|  3> *xyzfile 0 1 D2.xyz
|  4>
|  5> %MaxCore 64000
|  6>
|  7> %pal nprocs 4
|  8> end
|  9>
| 10> %scf
| 11>   MaxIter 150
| 12> end
| 13>
| 14>
| 15>                          ****END OF INPUT****

CARTESIAN COORDINATES (ANGSTROEM)
---------------------------------
  C     -4.382623   -1.670889    1.216201
  C     -5.763539   -1.915170    0.705012
  C     -3.281728   -2.191272    0.294361
  C     -5.572364   -5.807798   -0.816445
  S     -6.903179   -4.619033   -0.528458
  H     -5.840812   -2.115205   -0.300646
  H     -6.408823   -1.148656    0.936124
  H     -6.174781   -2.790606    1.051433
  O     -8.114853   -5.250932   -0.957007
  F     -6.532715   -3.426838   -1.314848
  H     -4.328618   -2.139223    2.198103
  H     -4.261583   -0.597399    1.357248
  O     -6.865632   -4.294957    0.914118
  C     -3.474641   -3.605898   -0.259608
  H     -2.354548   -2.127602    0.871433
  H     -3.166611   -1.499693   -0.545037
  C     -3.827078   -4.661097    0.786174
  H     -2.560559   -3.889391   -0.788050
  H     -4.255932   -3.570040   -1.019300
  C     -4.457800   -5.941875    0.229195
  H     -5.177347   -5.542575   -1.797714
  H     -6.074202   -6.768894   -0.921272
  H     -4.530506   -4.253640    1.511979
  H     -2.933400   -4.932302    1.356825
  H     -3.681064   -6.562236   -0.229885
  H     -4.843942   -6.512728    1.075805

 Total Charge           Charge          ....    0
 Multiplicity           Mult            ....    1
 Number of Electrons    NEL             ....   98
 Basis Dimension        Dim             ....  356

ORBITAL ENERGIES
----------------

  NO   OCC          E(Eh)            E(eV)
   0   2.0000     -89.302738     -2430.0511
   1   2.0000     -24.892636      -677.3631
   2   2.0000     -19.241536      -523.5888
   3   2.0000     -19.227707      -523.2125
   4   2.0000     -10.300516      -280.2913
   5   2.0000     -10.263831      -279.2930
   6   2.0000     -10.237746      -278.5832
   7   2.0000     -10.236124      -278.5391
   8   2.0000     -10.224929      -278.2345
   9   2.0000     -10.211822      -277.8778
  10   2.0000     -10.161770      -276.5158
  11   2.0000      -8.261756      -224.8138
  12   2.0000      -6.207888      -168.9252
  13   2.0000      -6.201918      -168.7628
  14   2.0000      -6.200606      -168.7271
  15   2.0000      -1.389975       -37.8231
  16   2.0000      -1.148415       -31.2500
  17   2.0000      -1.048075       -28.5196
  18   2.0000      -0.859001       -23.3746
  19   2.0000      -0.823542       -22.4097
  20   2.0000      -0.775904       -21.1134
  21   2.0000      -0.750473       -20.4214
  22   2.0000      -0.714316       -19.4375
  23   2.0000      -0.673474       -18.3262
  24   2.0000      -0.635730       -17.2991
  25   2.0000      -0.604211       -16.4414
  26   2.0000      -0.591712       -16.1013
  27   2.0000      -0.574703       -15.6385
  28   2.0000      -0.569569       -15.4988
  29   2.0000      -0.516261       -14.0482
  30   2.0000      -0.506777       -13.7901
  31   2.0000      -0.489557       -13.3215
  32   2.0000      -0.483875       -13.1669
  33   2.0000      -0.471511       -12.8305
  34   2.0000      -0.454802       -12.3758
  35   2.0000      -0.440413       -11.9843
  36   2.0000      -0.421438       -11.4679
  37   2.0000      -0.411977       -11.2105
  38   2.0000      -0.405595       -11.0368
  39   2.0000      -0.401925       -10.9369
  40   2.0000      -0.374422       -10.1885
  41   2.0000      -0.368067       -10.0156
  42   2.0000      -0.366826        -9.9818
  43   2.0000      -0.351993        -9.5782
  44   2.0000      -0.341874        -9.3029
  45   2.0000      -0.335017        -9.1163
  46   2.0000      -0.323887        -8.8134
  47   2.0000      -0.323113        -8.7923
  48   2.0000      -0.289244        -7.8707
  49   0.0000       0.005168         0.1406
  50   0.0000       0.017295         0.4706
  51   0.0000       0.026733         0.7274
  52   0.0000       0.035829         0.9750
  53   0.0000       0.042759         1.1635

MULLIKEN ATOMIC CHARGES
-----------------------
   0 C :   -0.187145
   1 C :    1.492439
   2 C :    0.312893
   3 C :    0.029508
   4 S :    1.619893
   5 H :   -0.289372
   6 H :   -0.347416
   7 H :   -0.604319
   8 O :   -0.774401
   9 F :   -0.446827
  10 H :    0.191835
  11 H :   -0.317421
  12 O :   -0.798587
  13 C :   -0.073448
  14 H :    0.006140
  15 H :    0.114377
  16 C :   -0.115942
  17 H :   -0.260776
  18 H :    0.044138
  19 C :    0.348632
  20 H :    0.216989
  21 H :   -0.192166
  22 H :    0.093068
  23 H :   -0.163878
  24 H :    0.034760
  25 H :    0.067026
Sum of atomic charges:    0.0000000

LOEWDIN ATOMIC CHARGES
----------------------
   0 C :   -0.046109
   1 C :    0.133768
   2 C :   -0.028206
   3 C :   -0.033223
   4 S :    1.179027
   5 H :   -0.075120
   6 H :   -0.015979
   7 H :   -0.134115
   8 O :   -0.445495
   9 F :   -0.280309
  10 H :    0.020358
  11 H :    0.018638
  12 O :   -0.449720
  13 C :   -0.017379
  14 H :    0.020357
  15 H :    0.026906
  16 C :   -0.013606
  17 H :    0.027439
  18 H :   -0.014007
  19 C :   -0.020820
  20 H :    0.019555
  21 H :    0.024576
  22 H :   -0.000357
  23 H :    0.034013
  24 H :    0.034732
  25 H :    0.035076

  Mayer bond orders larger than 0.100000
B(  0-C ,  1-C ) :   1.1839 B(  0-C ,  2-C ) :   1.1831 B(  0-C ,  5-H ) :   0.2906
B(  0-C ,  7-H ) :   0.2867 B(  0-C , 10-H ) :   0.6946 B(  0-C , 11-H ) :   1.0907
B(  0-C , 14-H ) :   0.1551 B(  0-C , 15-H ) :   0.1427 B(  1-C ,  2-C ) :   0.1069
B(  1-C ,  5-H ) :   0.1644 B(  1-C ,  6-H ) :   0.6523 B(  1-C , 10-H ) :   0.1834
B(  2-C , 10-H ) :   0.1135 B(  2-C , 13-C ) :   1.2921 B(  2-C , 14-H ) :   0.7986
B(  2-C , 15-H ) :   0.6877 B(  3-C ,  4-S ) :   0.9373 B(  3-C ,  8-O ) :   0.1147
B(  3-C , 19-C ) :   1.2544 B(  3-C , 20-H ) :   0.8424 B(  3-C , 21-H ) :   0.9504
B(  3-C , 24-H ) :   0.1157 B(  3-C , 25-H ) :   0.1185 B(  4-S ,  8-O ) :   1.5080
B(  4-S ,  9-F ) :   0.5520 B(  4-S , 12-O ) :   1.3859 B(  5-H ,  7-H ) :   0.7747
B(  5-H ,  9-F ) :   0.1264 B(  5-H , 11-H ) :   0.1321 B(  5-H , 18-H ) :   0.1294
B(  6-H ,  7-H ) :   0.1222 B(  6-H , 11-H ) :  -0.1242 B(  6-H , 17-H ) :   0.1008
B(  6-H , 18-H ) :  -0.1209 B(  7-H , 10-H ) :  -0.1053 B(  7-H , 17-H ) :  -0.1143
B(  9-F , 12-O ) :   0.1079 B( 10-H , 11-H ) :  -0.1812 B( 10-H , 22-H ) :   0.1284
B( 13-C , 14-H ) :   0.1639 B( 13-C , 15-H ) :   0.2143 B( 13-C , 16-C ) :   1.2072
B( 13-C , 17-H ) :   0.9399 B( 13-C , 18-H ) :   0.8293 B( 13-C , 23-H ) :   0.1638
B( 16-C , 17-H ) :   0.1824 B( 16-C , 18-H ) :   0.1379 B( 16-C , 19-C ) :   1.2954
B( 16-C , 22-H ) :   0.8860 B( 16-C , 23-H ) :   0.8791 B( 16-C , 24-H ) :   0.1269
B( 16-C , 25-H ) :   0.2159 B( 19-C , 21-H ) :   0.1775 B( 19-C , 24-H ) :   0.7919
B( 19-C , 25-H ) :   0.7082

Dispersion correction           -0.026527128
FINAL SINGLE POINT ENERGY      -922.959817441220

DIPOLE MOMENT
-------------
                                X             Y             Z
Electronic contribution:    -15.94280      -5.38885      -7.21341
Nuclear contribution   :     17.25367       4.78608       6.55647
                        -----------------------------------------
Total Dipole Moment    :      1.31087      -0.60277      -0.65694
                        -----------------------------------------
Magnitude (a.u.)       :      1.58533
Magnitude (Debye)      :      4.02959

Rotational constants in cm-1:     0.048508     0.025517     0.020225
Rotational constants in MHz :  1454.219007   764.979652   606.316599

                             ****ORCA TERMINATED NORMALLY****
TOTAL RUN TIME: 0 days 0 hours 1 minutes 42 seconds 53 msec
