                         Program Version 5.0.0 -  RELEASE  -
|  1> !wB97X-D3 RIJCOSX def2-SVPD def2/J TightSCF
|  2> *xyz -1 1
|  3> C          3.76678       -2.26611       -6.51175
|  4> C          2.49670       -1.84416       -5.73570
|  5> H          1.62642       -2.21743       -6.30895
|  6> H          2.48182       -2.45607       -4.79341
|  7> O          2.45973       -0.50920       -5.50576
|  8> H          3.82914       -1.70941       -7.42340
|  9> H          3.71764       -3.31144       -6.73483
| 10> H          4.63199       -2.06931       -5.91377
| 11> *
| 12>
| 13> %MaxCore 64000
| 14>
| 15> %pal nprocs 18
| 16> end
| 17>
| 18> %scf
| 19>   MaxIter 150
| 20> end
| 21>
| 22>
| 23>                          ****END OF INPUT****

CARTESIAN COORDINATES (ANGSTROEM)
---------------------------------
  C      3.766780   -2.266110   -6.511750
  C      2.496700   -1.844160   -5.735700
  H      1.626420   -2.217430   -6.308950
  H      2.481820   -2.456070   -4.793410
  O      2.459730   -0.509200   -5.505760
  H      3.829140   -1.709410   -7.423400
  H      3.717640   -3.311440   -6.734830
  H      4.631990   -2.069310   -5.913770

 Total Charge           Charge          ....   -1
 Multiplicity           Mult            ....    1
 Number of Electrons    NEL             ....   26
 Basis Dimension        Dim             ....  103

ORBITAL ENERGIES
----------------

  NO   OCC          E(Eh)            E(eV)
   0   2.0000     -18.907902      -514.5102
   1   2.0000     -10.104196      -274.9492
   2   2.0000     -10.079388      -274.2741
   3   2.0000      -0.787703       -21.4345
   4   2.0000      -0.630935       -17.1686
   5   2.0000      -0.473927       -12.8962
   6   2.0000      -0.349455        -9.5092
   7   2.0000      -0.325289        -8.8516
   8   2.0000      -0.269257        -7.3269
   9   2.0000      -0.251293        -6.8380
  10   2.0000      -0.209115        -5.6903
  11   2.0000      -0.059558        -1.6207
  12   2.0000      -0.058275        -1.5857
  13   0.0000       0.246641         6.7114
  14   0.0000       0.277547         7.5524
  15   0.0000       0.316295         8.6068
  16   0.0000       0.328481         8.9384
  17   0.0000       0.344711         9.3801

MULLIKEN ATOMIC CHARGES
-----------------------
   0 C :    0.282632
   1 C :    0.139702
   2 H :   -0.168369
   3 H :   -0.124948
   4 O :   -0.898607
   5 H :   -0.087346
   6 H :   -0.058780
   7 H :   -0.084284
Sum of atomic charges:   -1.0000000

LOEWDIN ATOMIC CHARGES
----------------------
   0 C :    0.059729
   1 C :   -0.265781
   2 H :   -0.034934
   3 H :   -0.027254
   4 O :   -0.587901
   5 H :   -0.042013
   6 H :   -0.058986
   7 H :   -0.042861

  Mayer bond orders larger than 0.100000
B(  0-C ,  1-C ) :   1.1669 B(  0-C ,  2-H ) :   0.1087 B(  0-C ,  3-H ) :   0.1046
B(  0-C ,  4-O ) :   0.1095 B(  0-C ,  5-H ) :   0.9168 B(  0-C ,  6-H ) :   0.8966
B(  0-C ,  7-H ) :   0.9085 B(  1-C ,  2-H ) :   0.9793 B(  1-C ,  3-H ) :   0.9835
B(  1-C ,  4-O ) :   1.1932 B(  1-C ,  5-H ) :   0.1619 B(  1-C ,  6-H ) :   0.1130
B(  1-C ,  7-H ) :   0.1560

Dispersion correction           -0.000860927
FINAL SINGLE POINT ENERGY      -154.274294547676

DIPOLE MOMENT
-------------
                                X             Y             Z
Electronic contribution:     -1.03556       2.40345       0.91549
Nuclear contribution   :      1.63615      -3.79938      -1.48621
                        -----------------------------------------
Total Dipole Moment    :      0.60060      -1.39594      -0.57072
                        -----------------------------------------
Magnitude (a.u.)       :      1.62329
Magnitude (Debye)      :      4.12608

Rotational constants in cm-1:     1.265582     0.329289     0.289024
Rotational constants in MHz : 37941.194363  9871.829581  8664.719106

                             ****ORCA TERMINATED NORMALLY****
TOTAL RUN TIME: 0 days 0 hours 0 minutes 4 seconds 756 msec
