                         Program Version 5.0.0 -  RELEASE  -
|  1> !wB97X-D3 RIJCOSX def2-SVPD def2/J TightSCF
|  2> *xyz 1 1
|  3> C          4.99986       -1.59613       -5.92488
|  4> N          5.28156       -1.97413       -4.53576
|  5> C          3.76678       -2.26611       -6.51175
|  6> C          4.79250       -1.36132       -3.45730
|  7> N          3.93990       -0.37492       -3.55736
|  8> N          5.25986       -1.75422       -2.23913
|  9> H          5.92282       -2.52145       -2.18672
| 10> H          4.65468       -1.64040       -1.44202
| 11> H          5.70914       -2.87560       -4.38702
| 12> H          3.33010       -0.31764       -4.36125
| 13> H          3.69849        0.11447       -2.70833
| 14> H          4.84333       -0.51793       -5.94302
| 15> H          5.90170       -1.82250       -6.49647
| 16> H          3.63046       -1.94025       -7.52177
| 17> H          2.90710       -2.00116       -5.93240
| 18> H          3.89538       -3.32820       -6.49392
| 19> *
| 20>
| 21> %MaxCore 64000
| 22>
| 23> %pal nprocs 18
| 24> end
| 25>
| 26> %scf
| 27>   MaxIter 150
| 28> end
| 29>
| 30>
| 31>                          ****END OF INPUT****

CARTESIAN COORDINATES (ANGSTROEM)
---------------------------------
  C      4.999860   -1.596130   -5.924880
  N      5.281560   -1.974130   -4.535760
  C      3.766780   -2.266110   -6.511750
  C      4.792500   -1.361320   -3.457300
  N      3.939900   -0.374920   -3.557360
  N      5.259860   -1.754220   -2.239130
  H      5.922820   -2.521450   -2.186720
  H      4.654680   -1.640400   -1.442020
  H      5.709140   -2.875600   -4.387020
  H      3.330100   -0.317640   -4.361250
  H      3.698490    0.114470   -2.708330
  H      4.843330   -0.517930   -5.943020
  H      5.901700   -1.822500   -6.496470
  H      3.630460   -1.940250   -7.521770
  H      2.907100   -2.001160   -5.932400
  H      3.895380   -3.328200   -6.493920

 Total Charge           Charge          ....    1
 Multiplicity           Mult            ....    1
 Number of Electrons    NEL             ....   48
 Basis Dimension        Dim             ....  200

ORBITAL ENERGIES
----------------

  NO   OCC          E(Eh)            E(eV)
   0   2.0000     -14.667340      -399.1186
   1   2.0000     -14.662897      -398.9977
   2   2.0000     -14.657705      -398.8564
   3   2.0000     -10.631007      -289.2844
   4   2.0000     -10.496750      -285.6311
   5   2.0000     -10.429720      -283.8071
   6   2.0000      -1.328274       -36.1442
   7   2.0000      -1.216030       -33.0899
   8   2.0000      -1.200272       -32.6611
   9   2.0000      -1.042272       -28.3617
  10   2.0000      -0.948787       -25.8178
  11   2.0000      -0.910779       -24.7836
  12   2.0000      -0.895978       -24.3808
  13   2.0000      -0.844546       -22.9813
  14   2.0000      -0.798680       -21.7332
  15   2.0000      -0.794603       -21.6222
  16   2.0000      -0.743398       -20.2289
  17   2.0000      -0.735326       -20.0092
  18   2.0000      -0.707691       -19.2572
  19   2.0000      -0.661281       -17.9944
  20   2.0000      -0.630732       -17.1631
  21   2.0000      -0.610733       -16.6189
  22   2.0000      -0.577017       -15.7014
  23   2.0000      -0.545373       -14.8404
  24   0.0000      -0.097597        -2.6558
  25   0.0000      -0.073561        -2.0017
  26   0.0000      -0.040973        -1.1149
  27   0.0000      -0.031817        -0.8658
  28   0.0000      -0.009500        -0.2585

MULLIKEN ATOMIC CHARGES
-----------------------
   0 C :    0.270823
   1 N :   -0.440684
   2 C :    0.589534
   3 C :    1.257019
   4 N :    0.013542
   5 N :   -0.134854
   6 H :    0.001611
   7 H :    0.011312
   8 H :   -0.227708
   9 H :   -0.029064
  10 H :   -0.041810
  11 H :   -0.035645
  12 H :   -0.209023
  13 H :    0.088732
  14 H :   -0.104154
  15 H :   -0.009631
Sum of atomic charges:    1.0000000

LOEWDIN ATOMIC CHARGES
----------------------
   0 C :    0.042216
   1 N :    0.039130
   2 C :    0.152756
   3 C :   -0.023900
   4 N :    0.278874
   5 N :    0.253399
   6 H :    0.035978
   7 H :    0.030360
   8 H :    0.057105
   9 H :    0.030563
  10 H :    0.047980
  11 H :    0.026967
  12 H :    0.043121
  13 H :    0.007514
  14 H :   -0.019457
  15 H :   -0.002608

  Mayer bond orders larger than 0.100000
B(  0-C ,  1-N ) :   0.8634 B(  0-C ,  2-C ) :   1.2339 B(  0-C ,  8-H ) :  -0.1855
B(  0-C , 11-H ) :   0.8780 B(  0-C , 12-H ) :   0.9629 B(  0-C , 13-H ) :   0.1481
B(  0-C , 14-H ) :   0.1852 B(  0-C , 15-H ) :   0.2014 B(  1-N ,  3-C ) :   1.0534
B(  1-N ,  4-N ) :   0.2059 B(  1-N ,  5-N ) :   0.1869 B(  1-N ,  8-H ) :   1.3169
B(  1-N , 11-H ) :   0.1450 B(  1-N , 12-H ) :   0.1397 B(  2-C , 13-H ) :   0.8065
B(  2-C , 14-H ) :   0.8380 B(  2-C , 15-H ) :   0.8258 B(  3-C ,  4-N ) :   1.0724
B(  3-C ,  5-N ) :   0.8396 B(  3-C ,  8-H ) :  -0.1970 B(  3-C ,  9-H ) :  -0.1034
B(  4-N ,  5-N ) :   0.1442 B(  4-N ,  9-H ) :   1.1168 B(  4-N , 10-H ) :   1.1730
B(  5-N ,  6-H ) :   1.0669 B(  5-N ,  7-H ) :   1.1304 B(  6-H ,  7-H ) :  -0.1221
B(  9-H , 10-H ) :  -0.1629

Dispersion correction           -0.003771172
FINAL SINGLE POINT ENERGY      -284.136917194323

DIPOLE MOMENT
-------------
                                X             Y             Z
Electronic contribution:      1.74659       1.09650       4.73686
Nuclear contribution   :     -1.95709      -1.20097      -3.70214
                        -----------------------------------------
Total Dipole Moment    :     -0.21050      -0.10447       1.03473
                        -----------------------------------------
Magnitude (a.u.)       :      1.06108
Magnitude (Debye)      :      2.69704

Rotational constants in cm-1:     0.241661     0.071598     0.061743
Rotational constants in MHz :  7244.800091  2146.442409  1851.001864

                             ****ORCA TERMINATED NORMALLY****
TOTAL RUN TIME: 0 days 0 hours 0 minutes 11 seconds 785 msec
