                         Program Version 5.0.0 -  RELEASE  -
|  1> !wB97X-D3 RIJCOSX def2-SVPD def2/J TightSCF
|  2> *xyz 0 1
|  3> C          3.76678       -2.26611       -6.51175
|  4> C          2.49670       -1.84416       -5.73570
|  5> H          1.62642       -2.21743       -6.30895
|  6> H          2.48182       -2.45607       -4.79341
|  7> F          2.45973       -0.50920       -5.50576
|  8> H          3.82914       -1.70941       -7.42340
|  9> H          3.71764       -3.31144       -6.73483
| 10> H          4.63199       -2.06931       -5.91377
| 11> *
| 12>
| 13> %MaxCore 64000
| 14>
| 15> %pal nprocs 18
| 16> end
| 17>
| 18> %scf
| 19>   MaxIter 150
| 20> end
| 21>
| 22>
| 23>                          ****END OF INPUT****

CARTESIAN COORDINATES (ANGSTROEM)
---------------------------------
  C      3.766780   -2.266110   -6.511750
  C      2.496700   -1.844160   -5.735700
  H      1.626420   -2.217430   -6.308950
  H      2.481820   -2.456070   -4.793410
  F      2.459730   -0.509200   -5.505760
  H      3.829140   -1.709410   -7.423400
  H      3.717640   -3.311440   -6.734830
  H      4.631990   -2.069310   -5.913770

 Total Charge           Charge          ....    0
 Multiplicity           Mult            ....    1
 Number of Electrons    NEL             ....   26
 Basis Dimension        Dim             ....  103

ORBITAL ENERGIES
----------------

  NO   OCC          E(Eh)            E(eV)
   0   2.0000     -24.793271      -674.6592
   1   2.0000     -10.372614      -282.2532
   2   2.0000     -10.285633      -279.8863
   3   2.0000      -1.307620       -35.5822
   4   2.0000      -0.872492       -23.7417
   5   2.0000      -0.738851       -20.1051
   6   2.0000      -0.618099       -16.8193
   7   2.0000      -0.603153       -16.4126
   8   2.0000      -0.566453       -15.4140
   9   2.0000      -0.506772       -13.7900
  10   2.0000      -0.499214       -13.5843
  11   2.0000      -0.432678       -11.7738
  12   2.0000      -0.427061       -11.6209
  13   0.0000       0.094122         2.5612
  14   0.0000       0.124463         3.3868
  15   0.0000       0.155309         4.2262
  16   0.0000       0.159704         4.3458
  17   0.0000       0.188076         5.1178

MULLIKEN ATOMIC CHARGES
-----------------------
   0 C :    0.214599
   1 C :    0.357935
   2 H :   -0.040386
   3 H :   -0.002286
   4 F :   -0.453198
   5 H :   -0.035355
   6 H :   -0.012265
   7 H :   -0.029045
Sum of atomic charges:   -0.0000000

LOEWDIN ATOMIC CHARGES
----------------------
   0 C :    0.131059
   1 C :    0.062844
   2 H :    0.028394
   3 H :    0.037968
   4 F :   -0.217705
   5 H :   -0.014098
   6 H :   -0.013604
   7 H :   -0.014856

  Mayer bond orders larger than 0.100000
B(  0-C ,  1-C ) :   1.3076 B(  0-C ,  5-H ) :   0.9162 B(  0-C ,  6-H ) :   0.8840
B(  0-C ,  7-H ) :   0.9122 B(  1-C ,  2-H ) :   0.9608 B(  1-C ,  3-H ) :   0.9567
B(  1-C ,  4-F ) :   0.7429 B(  1-C ,  5-H ) :   0.1195 B(  1-C ,  6-H ) :   0.1012
B(  1-C ,  7-H ) :   0.1143

Dispersion correction           -0.000877181
FINAL SINGLE POINT ENERGY      -178.887220990408

DIPOLE MOMENT
-------------
                                X             Y             Z
Electronic contribution:     -2.07735       4.31380       1.80760
Nuclear contribution   :      2.16248      -5.01128      -1.96962
                        -----------------------------------------
Total Dipole Moment    :      0.08512      -0.69748      -0.16202
                        -----------------------------------------
Magnitude (a.u.)       :      0.72110
Magnitude (Debye)      :      1.83288

Rotational constants in cm-1:     1.244010     0.306580     0.270375
Rotational constants in MHz : 37294.476802  9191.037795  8105.639967

                             ****ORCA TERMINATED NORMALLY****
TOTAL RUN TIME: 0 days 0 hours 0 minutes 4 seconds 301 msec
