                         Program Version 5.0.0 -  RELEASE  -
|  1> !wB97X-D3 RIJCOSX def2-SVPD def2/J TightSCF
|  2> *xyz 0 1
|  3> C          4.99986       -1.59613       -5.92488
|  4> C          5.28156       -1.97413       -4.53576
|  5> C          3.76678       -2.26611       -6.51175
|  6> C          4.79250       -1.36132       -3.45730
|  7> N          3.93990       -0.37492       -3.55736
|  8> N          5.25986       -1.75422       -2.23913
|  9> H          5.92282       -2.52145       -2.18672
| 10> H          4.65468       -1.64040       -1.44202
| 11> H          5.70914       -2.87560       -4.38702
| 12> H          3.33010       -0.31764       -4.36125
| 13> H          3.69849        0.11447       -2.70833
| 14> H          4.84333       -0.51793       -5.94302
| 15> H          5.90170       -1.82250       -6.49647
| 16> H          3.63046       -1.94025       -7.52177
| 17> H          2.90710       -2.00116       -5.93240
| 18> H          3.89538       -3.32820       -6.49392
| 19> *
| 20>
| 21> %MaxCore 64000
| 22>
| 23> %pal nprocs 18
| 24> end
| 25>
| 26> %scf
| 27>   MaxIter 150
| 28> end
| 29>
| 30>
| 31>                          ****END OF INPUT****

CARTESIAN COORDINATES (ANGSTROEM)
---------------------------------
  C      4.999860   -1.596130   -5.924880
  C      5.281560   -1.974130   -4.535760
  C      3.766780   -2.266110   -6.511750
  C      4.792500   -1.361320   -3.457300
  N      3.939900   -0.374920   -3.557360
  N      5.259860   -1.754220   -2.239130
  H      5.922820   -2.521450   -2.186720
  H      4.654680   -1.640400   -1.442020
  H      5.709140   -2.875600   -4.387020
  H      3.330100   -0.317640   -4.361250
  H      3.698490    0.114470   -2.708330
  H      4.843330   -0.517930   -5.943020
  H      5.901700   -1.822500   -6.496470
  H      3.630460   -1.940250   -7.521770
  H      2.907100   -2.001160   -5.932400
  H      3.895380   -3.328200   -6.493920

 Total Charge           Charge          ....    0
 Multiplicity           Mult            ....    1
 Number of Electrons    NEL             ....   48
 Basis Dimension        Dim             ....  200

ORBITAL ENERGIES
----------------

  NO   OCC          E(Eh)            E(eV)
   0   2.0000     -14.442270      -392.9941
   1   2.0000     -14.434149      -392.7732
   2   2.0000     -10.333991      -281.2022
   3   2.0000     -10.262853      -279.2664
   4   2.0000     -10.258627      -279.1514
   5   2.0000     -10.212455      -277.8950
   6   2.0000      -1.073028       -29.1986
   7   2.0000      -0.978360       -26.6225
   8   2.0000      -0.884130       -24.0584
   9   2.0000      -0.802968       -21.8499
  10   2.0000      -0.721012       -19.6197
  11   2.0000      -0.683053       -18.5868
  12   2.0000      -0.650249       -17.6942
  13   2.0000      -0.606635       -16.5074
  14   2.0000      -0.578526       -15.7425
  15   2.0000      -0.544553       -14.8180
  16   2.0000      -0.515735       -14.0339
  17   2.0000      -0.496463       -13.5094
  18   2.0000      -0.482121       -13.1192
  19   2.0000      -0.449485       -12.2311
  20   2.0000      -0.421403       -11.4670
  21   2.0000      -0.413170       -11.2429
  22   2.0000      -0.362051        -9.8519
  23   2.0000      -0.249365        -6.7856
  24   0.0000       0.086865         2.3637
  25   0.0000       0.112951         3.0736
  26   0.0000       0.125675         3.4198
  27   0.0000       0.134269         3.6537
  28   0.0000       0.151639         4.1263

MULLIKEN ATOMIC CHARGES
-----------------------
   0 C :   -0.183504
   1 C :   -0.312055
   2 C :    0.621458
   3 C :    0.829125
   4 N :    0.110096
   5 N :   -0.117329
   6 H :    0.003011
   7 H :   -0.091579
   8 H :   -0.338752
   9 H :   -0.079731
  10 H :   -0.183530
  11 H :   -0.026185
  12 H :   -0.085850
  13 H :    0.022920
  14 H :   -0.131271
  15 H :   -0.036825
Sum of atomic charges:    0.0000000

LOEWDIN ATOMIC CHARGES
----------------------
   0 C :   -0.102674
   1 C :   -0.033010
   2 C :    0.111258
   3 C :   -0.224066
   4 N :    0.193965
   5 N :    0.172336
   6 H :    0.002454
   7 H :   -0.019622
   8 H :   -0.053215
   9 H :   -0.000785
  10 H :    0.000440
  11 H :    0.005050
  12 H :    0.015345
  13 H :   -0.022101
  14 H :   -0.028776
  15 H :   -0.016599

  Mayer bond orders larger than 0.100000
B(  0-C ,  1-C ) :   1.1682 B(  0-C ,  2-C ) :   1.1869 B(  0-C ,  8-H ) :   0.2141
B(  0-C , 11-H ) :   0.8577 B(  0-C , 12-H ) :   0.8963 B(  0-C , 13-H ) :   0.1505
B(  0-C , 14-H ) :   0.1928 B(  0-C , 15-H ) :   0.2123 B(  1-C ,  3-C ) :   1.6201
B(  1-C ,  4-N ) :   0.2833 B(  1-C ,  5-N ) :   0.3164 B(  1-C ,  8-H ) :   0.9039
B(  1-C , 11-H ) :   0.2623 B(  1-C , 12-H ) :   0.1658 B(  2-C , 13-H ) :   0.8170
B(  2-C , 14-H ) :   0.8475 B(  2-C , 15-H ) :   0.8228 B(  3-C ,  4-N ) :   1.0633
B(  3-C ,  5-N ) :   0.7583 B(  3-C ,  8-H ) :   0.1074 B(  3-C , 11-H ) :  -0.1036
B(  4-N ,  9-H ) :   1.0915 B(  4-N , 10-H ) :   1.2268 B(  5-N ,  6-H ) :   1.0557
B(  5-N ,  7-H ) :   1.1345 B(  6-H ,  7-H ) :  -0.1091 B(  9-H , 10-H ) :  -0.1539

Dispersion correction           -0.003764804
FINAL SINGLE POINT ENERGY      -267.668743098300

DIPOLE MOMENT
-------------
                                X             Y             Z
Electronic contribution:      1.21474       1.38109       4.49625
Nuclear contribution   :     -1.82485      -1.28952      -3.74132
                        -----------------------------------------
Total Dipole Moment    :     -0.61011       0.09157       0.75493
                        -----------------------------------------
Magnitude (a.u.)       :      0.97496
Magnitude (Debye)      :      2.47814

Rotational constants in cm-1:     0.245790     0.071632     0.062004
Rotational constants in MHz :  7368.599517  2147.482078  1858.844841

                             ****ORCA TERMINATED NORMALLY****
TOTAL RUN TIME: 0 days 0 hours 0 minutes 14 seconds 300 msec
