                         Program Version 5.0.0 -  RELEASE  -
|  1> !wB97X-D3 RIJCOSX def2-SVPD def2/J TightSCF
|  2> *xyz 0 1
|  3> C          4.99986       -1.59613       -5.92488
|  4> N          5.28156       -1.97413       -4.53576
|  5> C          3.76678       -2.26611       -6.51175
|  6> C          4.79250       -1.36132       -3.45730
|  7> C          3.93990       -0.37492       -3.55736
|  8> N          5.25986       -1.75422       -2.23913
|  9> H          5.92282       -2.52145       -2.18672
| 10> H          4.65468       -1.64040       -1.44202
| 11> H          5.70914       -2.87560       -4.38702
| 12> H          3.33010       -0.31764       -4.36125
| 13> H          3.69849        0.11447       -2.70833
| 14> H          4.84333       -0.51793       -5.94302
| 15> H          5.90170       -1.82250       -6.49647
| 16> H          3.63046       -1.94025       -7.52177
| 17> H          2.90710       -2.00116       -5.93240
| 18> H          3.89538       -3.32820       -6.49392
| 19> *
| 20>
| 21> %MaxCore 64000
| 22>
| 23> %pal nprocs 18
| 24> end
| 25>
| 26> %scf
| 27>   MaxIter 150
| 28> end
| 29>
| 30>
| 31>                          ****END OF INPUT****

CARTESIAN COORDINATES (ANGSTROEM)
---------------------------------
  C      4.999860   -1.596130   -5.924880
  N      5.281560   -1.974130   -4.535760
  C      3.766780   -2.266110   -6.511750
  C      4.792500   -1.361320   -3.457300
  C      3.939900   -0.374920   -3.557360
  N      5.259860   -1.754220   -2.239130
  H      5.922820   -2.521450   -2.186720
  H      4.654680   -1.640400   -1.442020
  H      5.709140   -2.875600   -4.387020
  H      3.330100   -0.317640   -4.361250
  H      3.698490    0.114470   -2.708330
  H      4.843330   -0.517930   -5.943020
  H      5.901700   -1.822500   -6.496470
  H      3.630460   -1.940250   -7.521770
  H      2.907100   -2.001160   -5.932400
  H      3.895380   -3.328200   -6.493920

 Total Charge           Charge          ....    0
 Multiplicity           Mult            ....    1
 Number of Electrons    NEL             ....   48
 Basis Dimension        Dim             ....  200

ORBITAL ENERGIES
----------------

  NO   OCC          E(Eh)            E(eV)
   0   2.0000     -14.438802      -392.8998
   1   2.0000     -14.435278      -392.8039
   2   2.0000     -10.336268      -281.2641
   3   2.0000     -10.321142      -280.8526
   4   2.0000     -10.274687      -279.5884
   5   2.0000     -10.202387      -277.6211
   6   2.0000      -1.072782       -29.1919
   7   2.0000      -0.987322       -26.8664
   8   2.0000      -0.865626       -23.5549
   9   2.0000      -0.825735       -22.4694
  10   2.0000      -0.744265       -20.2525
  11   2.0000      -0.668277       -18.1847
  12   2.0000      -0.647921       -17.6308
  13   2.0000      -0.614076       -16.7099
  14   2.0000      -0.557451       -15.1690
  15   2.0000      -0.547037       -14.8856
  16   2.0000      -0.527274       -14.3479
  17   2.0000      -0.497866       -13.5476
  18   2.0000      -0.481804       -13.1106
  19   2.0000      -0.467947       -12.7335
  20   2.0000      -0.450898       -12.2696
  21   2.0000      -0.442614       -12.0441
  22   2.0000      -0.344684        -9.3793
  23   2.0000      -0.261941        -7.1278
  24   0.0000       0.088030         2.3954
  25   0.0000       0.111257         3.0275
  26   0.0000       0.120949         3.2912
  27   0.0000       0.126859         3.4520
  28   0.0000       0.150674         4.1001

MULLIKEN ATOMIC CHARGES
-----------------------
   0 C :    0.248585
   1 N :   -0.407741
   2 C :    0.640470
   3 C :    0.746301
   4 C :    0.296959
   5 N :   -0.044942
   6 H :   -0.128257
   7 H :   -0.018928
   8 H :   -0.348703
   9 H :   -0.252425
  10 H :   -0.344383
  11 H :    0.035567
  12 H :   -0.276135
  13 H :    0.034711
  14 H :   -0.136878
  15 H :   -0.044201
Sum of atomic charges:    0.0000000

LOEWDIN ATOMIC CHARGES
----------------------
   0 C :    0.017244
   1 N :   -0.028826
   2 C :    0.128376
   3 C :   -0.230364
   4 C :    0.147494
   5 N :    0.178086
   6 H :   -0.012370
   7 H :   -0.003071
   8 H :    0.017362
   9 H :   -0.101561
  10 H :   -0.091194
  11 H :    0.016980
  12 H :    0.018776
  13 H :   -0.014861
  14 H :   -0.022663
  15 H :   -0.019408

  Mayer bond orders larger than 0.100000
B(  0-C ,  1-N ) :   0.8724 B(  0-C ,  2-C ) :   1.1997 B(  0-C ,  4-C ) :   0.1074
B(  0-C ,  8-H ) :  -0.1782 B(  0-C , 11-H ) :   0.8537 B(  0-C , 12-H ) :   0.9805
B(  0-C , 13-H ) :   0.1628 B(  0-C , 14-H ) :   0.1905 B(  0-C , 15-H ) :   0.1977
B(  1-N ,  3-C ) :   0.9304 B(  1-N ,  4-C ) :   0.3539 B(  1-N ,  5-N ) :   0.1275
B(  1-N ,  8-H ) :   1.3558 B(  1-N , 11-H ) :   0.1298 B(  1-N , 12-H ) :   0.1370
B(  2-C , 13-H ) :   0.7979 B(  2-C , 14-H ) :   0.8720 B(  2-C , 15-H ) :   0.8186
B(  3-C ,  4-C ) :   1.7722 B(  3-C ,  5-N ) :   0.8328 B(  3-C ,  8-H ) :  -0.2269
B(  3-C ,  9-H ) :   0.1792 B(  3-C , 10-H ) :   0.2682 B(  4-C ,  5-N ) :   0.2776
B(  4-C ,  9-H ) :   0.6768 B(  4-C , 10-H ) :   0.7716 B(  5-N ,  6-H ) :   1.0794
B(  5-N ,  7-H ) :   1.1021 B(  6-H ,  7-H ) :  -0.1147 B(  9-H , 11-H ) :   0.1064

Dispersion correction           -0.003763430
FINAL SINGLE POINT ENERGY      -267.661251988171

DIPOLE MOMENT
-------------
                                X             Y             Z
Electronic contribution:      2.39858      -0.08860       3.48734
Nuclear contribution   :     -2.10948      -0.95026      -3.53375
                        -----------------------------------------
Total Dipole Moment    :      0.28911      -1.03886      -0.04641
                        -----------------------------------------
Magnitude (a.u.)       :      1.07934
Magnitude (Debye)      :      2.74346

Rotational constants in cm-1:     0.255209     0.072067     0.062929
Rotational constants in MHz :  7650.964615  2160.525743  1886.569524

                             ****ORCA TERMINATED NORMALLY****
TOTAL RUN TIME: 0 days 0 hours 0 minutes 12 seconds 842 msec
