                         Program Version 5.0.0 -  RELEASE  -
|  1> !wB97X-D3 RIJCOSX def2-SVPD def2/J TightSCF
|  2> *xyz 0 1
|  3> C          4.99986       -1.59613       -5.92488
|  4> N          5.28156       -1.97413       -4.53576
|  5> C          3.76678       -2.26611       -6.51175
|  6> C          4.79250       -1.36132       -3.45730
|  7> N          3.93990       -0.37492       -3.55736
|  8> C          5.25986       -1.75422       -2.23913
|  9> H          5.92282       -2.52145       -2.18672
| 10> H          4.65468       -1.64040       -1.44202
| 11> H          5.70914       -2.87560       -4.38702
| 12> H          3.33010       -0.31764       -4.36125
| 13> H          3.69849        0.11447       -2.70833
| 14> H          4.84333       -0.51793       -5.94302
| 15> H          5.90170       -1.82250       -6.49647
| 16> H          3.63046       -1.94025       -7.52177
| 17> H          2.90710       -2.00116       -5.93240
| 18> H          3.89538       -3.32820       -6.49392
| 19> *
| 20>
| 21> %MaxCore 64000
| 22>
| 23> %pal nprocs 18
| 24> end
| 25>
| 26> %scf
| 27>   MaxIter 150
| 28> end
| 29>
| 30>
| 31>                          ****END OF INPUT****

CARTESIAN COORDINATES (ANGSTROEM)
---------------------------------
  C      4.999860   -1.596130   -5.924880
  N      5.281560   -1.974130   -4.535760
  C      3.766780   -2.266110   -6.511750
  C      4.792500   -1.361320   -3.457300
  N      3.939900   -0.374920   -3.557360
  C      5.259860   -1.754220   -2.239130
  H      5.922820   -2.521450   -2.186720
  H      4.654680   -1.640400   -1.442020
  H      5.709140   -2.875600   -4.387020
  H      3.330100   -0.317640   -4.361250
  H      3.698490    0.114470   -2.708330
  H      4.843330   -0.517930   -5.943020
  H      5.901700   -1.822500   -6.496470
  H      3.630460   -1.940250   -7.521770
  H      2.907100   -2.001160   -5.932400
  H      3.895380   -3.328200   -6.493920

 Total Charge           Charge          ....    0
 Multiplicity           Mult            ....    1
 Number of Electrons    NEL             ....   48
 Basis Dimension        Dim             ....  200

ORBITAL ENERGIES
----------------

  NO   OCC          E(Eh)            E(eV)
   0   2.0000     -14.442825      -393.0092
   1   2.0000     -14.438838      -392.9008
   2   2.0000     -10.340751      -281.3861
   3   2.0000     -10.330374      -281.1038
   4   2.0000     -10.285985      -279.8959
   5   2.0000     -10.196940      -277.4728
   6   2.0000      -1.083339       -29.4792
   7   2.0000      -0.998250       -27.1638
   8   2.0000      -0.883728       -24.0475
   9   2.0000      -0.805298       -21.9133
  10   2.0000      -0.735378       -20.0107
  11   2.0000      -0.709450       -19.3051
  12   2.0000      -0.650396       -17.6982
  13   2.0000      -0.602850       -16.4044
  14   2.0000      -0.584143       -15.8953
  15   2.0000      -0.546370       -14.8675
  16   2.0000      -0.532549       -14.4914
  17   2.0000      -0.504131       -13.7181
  18   2.0000      -0.486040       -13.2258
  19   2.0000      -0.464108       -12.6290
  20   2.0000      -0.459854       -12.5133
  21   2.0000      -0.444772       -12.1029
  22   2.0000      -0.351618        -9.5680
  23   2.0000      -0.247051        -6.7226
  24   0.0000       0.081896         2.2285
  25   0.0000       0.115668         3.1475
  26   0.0000       0.118224         3.2170
  27   0.0000       0.123350         3.3565
  28   0.0000       0.145447         3.9578

MULLIKEN ATOMIC CHARGES
-----------------------
   0 C :    0.303248
   1 N :   -0.316968
   2 C :    0.616825
   3 C :    0.431371
   4 N :    0.123483
   5 C :    0.470676
   6 H :   -0.233467
   7 H :   -0.410308
   8 H :   -0.293706
   9 H :   -0.133070
  10 H :   -0.070479
  11 H :   -0.071903
  12 H :   -0.286031
  13 H :    0.038103
  14 H :   -0.120646
  15 H :   -0.047128
Sum of atomic charges:   -0.0000000

LOEWDIN ATOMIC CHARGES
----------------------
   0 C :    0.011045
   1 N :   -0.016443
   2 C :    0.124499
   3 C :   -0.234580
   4 N :    0.194437
   5 C :    0.133410
   6 H :   -0.108263
   7 H :   -0.114936
   8 H :    0.031857
   9 H :   -0.012158
  10 H :    0.016205
  11 H :    0.011629
  12 H :    0.019844
  13 H :   -0.014874
  14 H :   -0.026018
  15 H :   -0.015656

  Mayer bond orders larger than 0.100000
B(  0-C ,  1-N ) :   0.8815 B(  0-C ,  2-C ) :   1.2106 B(  0-C ,  8-H ) :  -0.2028
B(  0-C , 11-H ) :   0.8884 B(  0-C , 12-H ) :   0.9530 B(  0-C , 13-H ) :   0.1569
B(  0-C , 14-H ) :   0.2013 B(  0-C , 15-H ) :   0.2150 B(  1-N ,  3-C ) :   1.0609
B(  1-N ,  4-N ) :   0.1579 B(  1-N ,  5-C ) :   0.2261 B(  1-N ,  8-H ) :   1.2591
B(  1-N , 11-H ) :   0.1439 B(  1-N , 12-H ) :   0.1459 B(  2-C , 13-H ) :   0.8110
B(  2-C , 14-H ) :   0.8347 B(  2-C , 15-H ) :   0.8213 B(  3-C ,  4-N ) :   1.0983
B(  3-C ,  5-C ) :   1.7407 B(  3-C ,  6-H ) :   0.1779 B(  3-C ,  7-H ) :   0.2039
B(  3-C ,  8-H ) :  -0.1617 B(  4-N ,  5-C ) :   0.1911 B(  4-N ,  9-H ) :   1.1055
B(  4-N , 10-H ) :   1.1571 B(  5-C ,  6-H ) :   0.7800 B(  5-C ,  7-H ) :   0.7627
B(  6-H ,  7-H ) :   0.1509 B(  9-H , 10-H ) :  -0.1546

Dispersion correction           -0.003798810
FINAL SINGLE POINT ENERGY      -267.655469304647

DIPOLE MOMENT
-------------
                                X             Y             Z
Electronic contribution:      1.13401       1.24884       2.11416
Nuclear contribution   :     -1.82946      -1.24287      -3.25410
                        -----------------------------------------
Total Dipole Moment    :     -0.69544       0.00597      -1.13994
                        -----------------------------------------
Magnitude (a.u.)       :      1.33534
Magnitude (Debye)      :      3.39417

Rotational constants in cm-1:     0.244672     0.074506     0.064043
Rotational constants in MHz :  7335.067153  2233.624025  1919.970379

                             ****ORCA TERMINATED NORMALLY****
TOTAL RUN TIME: 0 days 0 hours 0 minutes 13 seconds 17 msec
