                         Program Version 5.0.0 -  RELEASE  -
|  1> !B3LYP D3BJ RIJCOSX def2-TZVP def2/J TightSCF
|  2> *xyz -1 1
|  3> C         -0.10608        1.76991       -4.08984
|  4> C         -0.25875        1.00432       -5.40983
|  5> C          0.39596       -0.37070       -5.33994
|  6> H          0.23915        1.56939       -6.20125
|  7> H         -1.30936        0.88869       -5.68245
|  8> O         -0.32633       -1.39040       -5.49128
|  9> O          1.61941       -0.40073       -5.03683
| 10> H         -0.57627        2.72718       -4.17630
| 11> H          0.93321        1.90140       -3.87192
| 12> H         -0.56868        1.21534       -3.30031
| 13> *
| 14> %MaxCore 64000
| 15>
| 16> %pal nprocs 4
| 17> end
| 18>
| 19> %scf
| 20>   MaxIter 150
| 21> end
| 22>
| 23>
| 24>                          ****END OF INPUT****

CARTESIAN COORDINATES (ANGSTROEM)
---------------------------------
  C     -0.106080    1.769910   -4.089840
  C     -0.258750    1.004320   -5.409830
  C      0.395960   -0.370700   -5.339940
  H      0.239150    1.569390   -6.201250
  H     -1.309360    0.888690   -5.682450
  O     -0.326330   -1.390400   -5.491280
  O      1.619410   -0.400730   -5.036830
  H     -0.576270    2.727180   -4.176300
  H      0.933210    1.901400   -3.871920
  H     -0.568680    1.215340   -3.300310

 Total Charge           Charge          ....   -1
 Multiplicity           Mult            ....    1
 Number of Electrons    NEL             ....   40
 Basis Dimension        Dim             ....  185

ORBITAL ENERGIES
----------------

  NO   OCC          E(Eh)            E(eV)
   0   2.0000     -18.847938      -512.8785
   1   2.0000     -18.846728      -512.8455
   2   2.0000     -10.040833      -273.2250
   3   2.0000     -10.000833      -272.1365
   4   2.0000      -9.989304      -271.8228
   5   2.0000      -0.807791       -21.9811
   6   2.0000      -0.715210       -19.4619
   7   2.0000      -0.600350       -16.3364
   8   2.0000      -0.469715       -12.7816
   9   2.0000      -0.314652        -8.5621
  10   2.0000      -0.288184        -7.8419
  11   2.0000      -0.253837        -6.9072
  12   2.0000      -0.222916        -6.0659
  13   2.0000      -0.208199        -5.6654
  14   2.0000      -0.201058        -5.4711
  15   2.0000      -0.170351        -4.6355
  16   2.0000      -0.152896        -4.1605
  17   2.0000      -0.038056        -1.0356
  18   2.0000      -0.033119        -0.9012
  19   2.0000      -0.016966        -0.4617
  20   0.0000       0.184097         5.0095
  21   0.0000       0.224260         6.1024
  22   0.0000       0.243218         6.6183
  23   0.0000       0.248256         6.7554
  24   0.0000       0.260334         7.0840

MULLIKEN ATOMIC CHARGES
-----------------------
   0 C :   -0.304560
   1 C :   -0.098265
   2 C :    0.205655
   3 H :    0.019872
   4 H :    0.024652
   5 O :   -0.526843
   6 O :   -0.534427
   7 H :    0.045660
   8 H :    0.088584
   9 H :    0.079672
Sum of atomic charges:   -1.0000000

LOEWDIN ATOMIC CHARGES
----------------------
   0 C :   -0.318859
   1 C :   -0.286682
   2 C :   -0.695379
   3 H :    0.117898
   4 H :    0.113677
   5 O :   -0.116669
   6 O :   -0.119925
   7 H :    0.090192
   8 H :    0.109375
   9 H :    0.106372

  Mayer bond orders larger than 0.100000
B(  0-C ,  1-C ) :   0.9489 B(  0-C ,  7-H ) :   0.9685 B(  0-C ,  8-H ) :   0.9715
B(  0-C ,  9-H ) :   0.9838 B(  1-C ,  2-C ) :   0.9314 B(  1-C ,  3-H ) :   0.9510
B(  1-C ,  4-H ) :   0.9486 B(  2-C ,  5-O ) :   1.8892 B(  2-C ,  6-O ) :   1.8371

Dispersion correction           -0.010997393
FINAL SINGLE POINT ENERGY      -267.810323714194

DIPOLE MOMENT
-------------
                                X             Y             Z
Electronic contribution:      1.77234      -5.40041      -1.70906
Nuclear contribution   :     -2.46071       7.20791       1.95694
                        -----------------------------------------
Total Dipole Moment    :     -0.68838       1.80751       0.24788
                        -----------------------------------------
Magnitude (a.u.)       :      1.94997
Magnitude (Debye)      :      4.95643

Rotational constants in cm-1:     0.309435     0.135317     0.107436
Rotational constants in MHz :  9276.637721  4056.700783  3220.846587

                             ****ORCA TERMINATED NORMALLY****
TOTAL RUN TIME: 0 days 0 hours 0 minutes 19 seconds 785 msec
