                         Program Version 5.0.0 -  RELEASE  -
|  1> !B3LYP D3BJ RIJCOSX def2-TZVP def2/J TightSCF
|  2> *xyz 1 1
|  3> C          0.81607       -2.10149       -2.18655
|  4> H          1.69623       -2.36869       -1.60046
|  5> N          1.10055       -2.46749       -3.59927
|  6> C          0.51624       -0.61363       -2.03937
|  7> H         -0.02007       -2.71285       -1.84084
|  8> H          1.70061       -1.75723       -4.07838
|  9> H          0.29386       -2.35977       -4.25632
| 10> H          1.50132       -3.42848       -3.69491
| 11> H         -0.34841       -0.36504       -2.61858
| 12> H          1.35358       -0.04503       -2.38643
| 13> H          0.33317       -0.38682       -1.00984
| 14> *
| 15> %MaxCore 64000
| 16>
| 17> %pal nprocs 4
| 18> end
| 19>
| 20> %scf
| 21>   MaxIter 150
| 22> end
| 23>
| 24>
| 25>                          ****END OF INPUT****

CARTESIAN COORDINATES (ANGSTROEM)
---------------------------------
  C      0.816070   -2.101490   -2.186550
  H      1.696230   -2.368690   -1.600460
  N      1.100550   -2.467490   -3.599270
  C      0.516240   -0.613630   -2.039370
  H     -0.020070   -2.712850   -1.840840
  H      1.700610   -1.757230   -4.078380
  H      0.293860   -2.359770   -4.256320
  H      1.501320   -3.428480   -3.694910
  H     -0.348410   -0.365040   -2.618580
  H      1.353580   -0.045030   -2.386430
  H      0.333170   -0.386820   -1.009840

 Total Charge           Charge          ....    1
 Multiplicity           Mult            ....    1
 Number of Electrons    NEL             ....   26
 Basis Dimension        Dim             ....  141

ORBITAL ENERGIES
----------------

  NO   OCC          E(Eh)            E(eV)
   0   2.0000     -14.653076      -398.7305
   1   2.0000     -10.423106      -283.6271
   2   2.0000     -10.343447      -281.4595
   3   2.0000      -1.210354       -32.9354
   4   2.0000      -0.965700       -26.2780
   5   2.0000      -0.850761       -23.1504
   6   2.0000      -0.790082       -21.4992
   7   2.0000      -0.772337       -21.0164
   8   2.0000      -0.702452       -19.1147
   9   2.0000      -0.638539       -17.3755
  10   2.0000      -0.584099       -15.8941
  11   2.0000      -0.569963       -15.5095
  12   2.0000      -0.552577       -15.0364
  13   0.0000      -0.201092        -5.4720
  14   0.0000      -0.140371        -3.8197
  15   0.0000      -0.136847        -3.7238
  16   0.0000      -0.116108        -3.1595
  17   0.0000      -0.072686        -1.9779

MULLIKEN ATOMIC CHARGES
-----------------------
   0 C :   -0.153280
   1 H :    0.179945
   2 N :   -0.298472
   3 C :   -0.340140
   4 H :    0.184166
   5 H :    0.314856
   6 H :    0.318041
   7 H :    0.337013
   8 H :    0.141748
   9 H :    0.142278
  10 H :    0.173843
Sum of atomic charges:    1.0000000

LOEWDIN ATOMIC CHARGES
----------------------
   0 C :   -0.272928
   1 H :    0.152469
   2 N :    0.152290
   3 C :   -0.271178
   4 H :    0.152287
   5 H :    0.227077
   6 H :    0.226515
   7 H :    0.230448
   8 H :    0.128423
   9 H :    0.128027
  10 H :    0.146571

  Mayer bond orders larger than 0.100000
B(  0-C ,  1-H ) :   0.9502 B(  0-C ,  2-N ) :   0.8440 B(  0-C ,  3-C ) :   0.9807
B(  0-C ,  4-H ) :   0.9523 B(  2-N ,  5-H ) :   0.8788 B(  2-N ,  6-H ) :   0.8792
B(  2-N ,  7-H ) :   0.8698 B(  3-C ,  8-H ) :   0.9622 B(  3-C ,  9-H ) :   0.9593
B(  3-C , 10-H ) :   0.9587

Dispersion correction           -0.010009798
FINAL SINGLE POINT ENERGY      -135.501315888919

DIPOLE MOMENT
-------------
                                X             Y             Z
Electronic contribution:      0.41971      -1.43520      -1.07226
Nuclear contribution   :     -0.07506       0.54337      -0.16191
                        -----------------------------------------
Total Dipole Moment    :      0.34465      -0.89184      -1.23417
                        -----------------------------------------
Magnitude (a.u.)       :      1.56120
Magnitude (Debye)      :      3.96825

Rotational constants in cm-1:     0.999557     0.280801     0.246932
Rotational constants in MHz : 29965.963633  8418.199581  7402.841054

                             ****ORCA TERMINATED NORMALLY****
TOTAL RUN TIME: 0 days 0 hours 0 minutes 11 seconds 406 msec
