                         Program Version 5.0.0 -  RELEASE  -
|  1> !B3LYP D3BJ RIJCOSX def2-TZVP def2/J TightSCF
|  2> *xyz 0 1
|  3> C         -0.10608        1.76991       -4.08984
|  4> C         -0.25875        1.00432       -5.40983
|  5> C          0.39596       -0.37070       -5.33994
|  6> H          0.23915        1.56939       -6.20125
|  7> H         -1.30936        0.88869       -5.68245
|  8> F         -0.32633       -1.39040       -5.49128
|  9> O          1.61941       -0.40073       -5.03683
| 10> H         -0.57627        2.72718       -4.17630
| 11> H          0.93321        1.90140       -3.87192
| 12> H         -0.56868        1.21534       -3.30031
| 13> *
| 14> %MaxCore 64000
| 15>
| 16> %pal nprocs 4
| 17> end
| 18>
| 19> %scf
| 20>   MaxIter 150
| 21> end
| 22>
| 23>
| 24>                          ****END OF INPUT****

CARTESIAN COORDINATES (ANGSTROEM)
---------------------------------
  C     -0.106080    1.769910   -4.089840
  C     -0.258750    1.004320   -5.409830
  C      0.395960   -0.370700   -5.339940
  H      0.239150    1.569390   -6.201250
  H     -1.309360    0.888690   -5.682450
  F     -0.326330   -1.390400   -5.491280
  O      1.619410   -0.400730   -5.036830
  H     -0.576270    2.727180   -4.176300
  H      0.933210    1.901400   -3.871920
  H     -0.568680    1.215340   -3.300310

 Total Charge           Charge          ....    0
 Multiplicity           Mult            ....    1
 Number of Electrons    NEL             ....   40
 Basis Dimension        Dim             ....  185

ORBITAL ENERGIES
----------------

  NO   OCC          E(Eh)            E(eV)
   0   2.0000     -24.749951      -673.4804
   1   2.0000     -19.128385      -520.5098
   2   2.0000     -10.346536      -281.5436
   3   2.0000     -10.201589      -277.5993
   4   2.0000     -10.173195      -276.8267
   5   2.0000      -1.316649       -35.8278
   6   2.0000      -1.029660       -28.0185
   7   2.0000      -0.800732       -21.7890
   8   2.0000      -0.689905       -18.7733
   9   2.0000      -0.638935       -17.3863
  10   2.0000      -0.547166       -14.8891
  11   2.0000      -0.533670       -14.5219
  12   2.0000      -0.508318       -13.8320
  13   2.0000      -0.466360       -12.6903
  14   2.0000      -0.434624       -11.8267
  15   2.0000      -0.400189       -10.8897
  16   2.0000      -0.379616       -10.3299
  17   2.0000      -0.376449       -10.2437
  18   2.0000      -0.345389        -9.3985
  19   2.0000      -0.292598        -7.9620
  20   0.0000      -0.033399        -0.9088
  21   0.0000       0.033068         0.8998
  22   0.0000       0.072074         1.9612
  23   0.0000       0.085501         2.3266
  24   0.0000       0.097664         2.6576

MULLIKEN ATOMIC CHARGES
-----------------------
   0 C :   -0.328646
   1 C :   -0.178743
   2 C :    0.377480
   3 H :    0.116796
   4 H :    0.100003
   5 F :   -0.106021
   6 O :   -0.339293
   7 H :    0.114351
   8 H :    0.134272
   9 H :    0.109800
Sum of atomic charges:   -0.0000000

LOEWDIN ATOMIC CHARGES
----------------------
   0 C :   -0.279816
   1 C :   -0.254845
   2 C :   -0.491067
   3 H :    0.153289
   4 H :    0.136023
   5 F :    0.319110
   6 O :    0.057619
   7 H :    0.117444
   8 H :    0.124207
   9 H :    0.118038

  Mayer bond orders larger than 0.100000
B(  0-C ,  1-C ) :   0.9577 B(  0-C ,  7-H ) :   0.9700 B(  0-C ,  8-H ) :   0.9701
B(  0-C ,  9-H ) :   0.9755 B(  1-C ,  2-C ) :   0.9847 B(  1-C ,  3-H ) :   0.9440
B(  1-C ,  4-H ) :   0.9566 B(  2-C ,  5-F ) :   1.1525 B(  2-C ,  6-O ) :   2.0385

Dispersion correction           -0.010427987
FINAL SINGLE POINT ENERGY      -292.380315634373

DIPOLE MOMENT
-------------
                                X             Y             Z
Electronic contribution:      0.85642      -8.18767      -2.56831
Nuclear contribution   :     -1.80992       8.85192       2.42184
                        -----------------------------------------
Total Dipole Moment    :     -0.95350       0.66425      -0.14646
                        -----------------------------------------
Magnitude (a.u.)       :      1.17126
Magnitude (Debye)      :      2.97711

Rotational constants in cm-1:     0.298360     0.128849     0.102271
Rotational constants in MHz :  8944.606599  3862.796179  3066.020510

                             ****ORCA TERMINATED NORMALLY****
TOTAL RUN TIME: 0 days 0 hours 0 minutes 19 seconds 320 msec
