                         Program Version 5.0.0 -  RELEASE  -
|  1> !B3LYP D3BJ RIJCOSX def2-TZVP def2/J TightSCF
|  2> *xyz 0 1
|  3> C          0.81607       -2.10149       -2.18655
|  4> H          1.69623       -2.36869       -1.60046
|  5> C          1.10055       -2.46749       -3.59927
|  6> C          0.51624       -0.61363       -2.03937
|  7> H         -0.02007       -2.71285       -1.84084
|  8> H          1.70061       -1.75723       -4.07838
|  9> H          0.29386       -2.35977       -4.25632
| 10> H          1.50132       -3.42848       -3.69491
| 11> H         -0.34841       -0.36504       -2.61858
| 12> H          1.35358       -0.04503       -2.38643
| 13> H          0.33317       -0.38682       -1.00984
| 14> *
| 15> %MaxCore 64000
| 16>
| 17> %pal nprocs 4
| 18> end
| 19>
| 20> %scf
| 21>   MaxIter 150
| 22> end
| 23>
| 24>
| 25>                          ****END OF INPUT****

CARTESIAN COORDINATES (ANGSTROEM)
---------------------------------
  C      0.816070   -2.101490   -2.186550
  H      1.696230   -2.368690   -1.600460
  C      1.100550   -2.467490   -3.599270
  C      0.516240   -0.613630   -2.039370
  H     -0.020070   -2.712850   -1.840840
  H      1.700610   -1.757230   -4.078380
  H      0.293860   -2.359770   -4.256320
  H      1.501320   -3.428480   -3.694910
  H     -0.348410   -0.365040   -2.618580
  H      1.353580   -0.045030   -2.386430
  H      0.333170   -0.386820   -1.009840

 Total Charge           Charge          ....    0
 Multiplicity           Mult            ....    1
 Number of Electrons    NEL             ....   26
 Basis Dimension        Dim             ....  141

ORBITAL ENERGIES
----------------

  NO   OCC          E(Eh)            E(eV)
   0   2.0000     -10.155834      -276.3543
   1   2.0000     -10.145685      -276.0781
   2   2.0000     -10.132781      -275.7270
   3   2.0000      -0.788560       -21.4578
   4   2.0000      -0.687671       -18.7125
   5   2.0000      -0.589118       -16.0307
   6   2.0000      -0.459408       -12.5011
   7   2.0000      -0.445298       -12.1172
   8   2.0000      -0.412137       -11.2148
   9   2.0000      -0.376214       -10.2373
  10   2.0000      -0.342071        -9.3082
  11   2.0000      -0.336886        -9.1671
  12   2.0000      -0.321570        -8.7504
  13   0.0000       0.040478         1.1015
  14   0.0000       0.083420         2.2700
  15   0.0000       0.084723         2.3054
  16   0.0000       0.095274         2.5925
  17   0.0000       0.114326         3.1110

MULLIKEN ATOMIC CHARGES
-----------------------
   0 C :   -0.115371
   1 H :    0.077518
   2 C :   -0.331606
   3 C :   -0.315343
   4 H :    0.078437
   5 H :    0.097050
   6 H :    0.103566
   7 H :    0.106065
   8 H :    0.096343
   9 H :    0.099344
  10 H :    0.103997
Sum of atomic charges:    0.0000000

LOEWDIN ATOMIC CHARGES
----------------------
   0 C :   -0.316085
   1 H :    0.130096
   2 C :   -0.313824
   3 C :   -0.299921
   4 H :    0.129083
   5 H :    0.111969
   6 H :    0.110062
   7 H :    0.109660
   8 H :    0.113250
   9 H :    0.113101
  10 H :    0.112609

  Mayer bond orders larger than 0.100000
B(  0-C ,  1-H ) :   0.9700 B(  0-C ,  2-C ) :   0.9703 B(  0-C ,  3-C ) :   0.9710
B(  0-C ,  4-H ) :   0.9698 B(  2-C ,  5-H ) :   0.9789 B(  2-C ,  6-H ) :   0.9792
B(  2-C ,  7-H ) :   0.9788 B(  3-C ,  8-H ) :   0.9772 B(  3-C ,  9-H ) :   0.9771
B(  3-C , 10-H ) :   0.9802

Dispersion correction           -0.010087108
FINAL SINGLE POINT ENERGY      -119.095931367632

DIPOLE MOMENT
-------------
                                X             Y             Z
Electronic contribution:     -0.01834      -0.30880       0.46581
Nuclear contribution   :      0.01737       0.30387      -0.47422
                        -----------------------------------------
Total Dipole Moment    :     -0.00097      -0.00492      -0.00841
                        -----------------------------------------
Magnitude (a.u.)       :      0.00979
Magnitude (Debye)      :      0.02489

Rotational constants in cm-1:     1.006891     0.295208     0.258491
Rotational constants in MHz : 30185.831813  8850.104914  7749.351732

                             ****ORCA TERMINATED NORMALLY****
TOTAL RUN TIME: 0 days 0 hours 0 minutes 13 seconds 750 msec
