                         Program Version 5.0.0 -  RELEASE  -
|  1> !B3LYP D3BJ RIJCOSX def2-TZVP def2/J TightSCF
|  2> *xyz 0 1
|  3> C         -0.10608        1.76991       -4.08984
|  4> C         -0.25875        1.00432       -5.40983
|  5> C          0.39596       -0.37070       -5.33994
|  6> H          0.23915        1.56939       -6.20125
|  7> H         -1.30936        0.88869       -5.68245
|  8> O         -0.32633       -1.39040       -5.49128
|  9> F          1.61941       -0.40073       -5.03683
| 10> H         -0.57627        2.72718       -4.17630
| 11> H          0.93321        1.90140       -3.87192
| 12> H         -0.56868        1.21534       -3.30031
| 13> *
| 14> %MaxCore 64000
| 15>
| 16> %pal nprocs 4
| 17> end
| 18>
| 19> %scf
| 20>   MaxIter 150
| 21> end
| 22>
| 23>
| 24>                          ****END OF INPUT****

CARTESIAN COORDINATES (ANGSTROEM)
---------------------------------
  C     -0.106080    1.769910   -4.089840
  C     -0.258750    1.004320   -5.409830
  C      0.395960   -0.370700   -5.339940
  H      0.239150    1.569390   -6.201250
  H     -1.309360    0.888690   -5.682450
  O     -0.326330   -1.390400   -5.491280
  F      1.619410   -0.400730   -5.036830
  H     -0.576270    2.727180   -4.176300
  H      0.933210    1.901400   -3.871920
  H     -0.568680    1.215340   -3.300310

 Total Charge           Charge          ....    0
 Multiplicity           Mult            ....    1
 Number of Electrons    NEL             ....   40
 Basis Dimension        Dim             ....  185

ORBITAL ENERGIES
----------------

  NO   OCC          E(Eh)            E(eV)
   0   2.0000     -24.748500      -673.4409
   1   2.0000     -19.129199      -520.5320
   2   2.0000     -10.345653      -281.5195
   3   2.0000     -10.201365      -277.5933
   4   2.0000     -10.178200      -276.9629
   5   2.0000      -1.315228       -35.7892
   6   2.0000      -1.029631       -28.0177
   7   2.0000      -0.805259       -21.9122
   8   2.0000      -0.687248       -18.7010
   9   2.0000      -0.642422       -17.4812
  10   2.0000      -0.548497       -14.9254
  11   2.0000      -0.537102       -14.6153
  12   2.0000      -0.501537       -13.6475
  13   2.0000      -0.466871       -12.7042
  14   2.0000      -0.436124       -11.8675
  15   2.0000      -0.403067       -10.9680
  16   2.0000      -0.384953       -10.4751
  17   2.0000      -0.380325       -10.3492
  18   2.0000      -0.350255        -9.5309
  19   2.0000      -0.289498        -7.8776
  20   0.0000      -0.029503        -0.8028
  21   0.0000       0.029104         0.7920
  22   0.0000       0.070743         1.9250
  23   0.0000       0.087531         2.3818
  24   0.0000       0.101915         2.7732

MULLIKEN ATOMIC CHARGES
-----------------------
   0 C :   -0.333978
   1 C :   -0.175342
   2 C :    0.368546
   3 H :    0.104736
   4 H :    0.123334
   5 O :   -0.332056
   6 F :   -0.112054
   7 H :    0.119360
   8 H :    0.116491
   9 H :    0.120964
Sum of atomic charges:   -0.0000000

LOEWDIN ATOMIC CHARGES
----------------------
   0 C :   -0.286064
   1 C :   -0.249768
   2 C :   -0.493956
   3 H :    0.145751
   4 H :    0.149031
   5 O :    0.059152
   6 F :    0.317561
   7 H :    0.119501
   8 H :    0.118361
   9 H :    0.120431

  Mayer bond orders larger than 0.100000
B(  0-C ,  1-C ) :   0.9462 B(  0-C ,  7-H ) :   0.9706 B(  0-C ,  8-H ) :   0.9718
B(  0-C ,  9-H ) :   0.9738 B(  1-C ,  2-C ) :   1.0014 B(  1-C ,  3-H ) :   0.9400
B(  1-C ,  4-H ) :   0.9641 B(  2-C ,  5-O ) :   2.0638 B(  2-C ,  6-F ) :   1.1363

Dispersion correction           -0.010355853
FINAL SINGLE POINT ENERGY      -292.381717536410

DIPOLE MOMENT
-------------
                                X             Y             Z
Electronic contribution:      4.07139      -6.51812      -1.81050
Nuclear contribution   :     -3.93139       7.77287       1.92635
                        -----------------------------------------
Total Dipole Moment    :      0.14000       1.25475       0.11585
                        -----------------------------------------
Magnitude (a.u.)       :      1.26784
Magnitude (Debye)      :      3.22260

Rotational constants in cm-1:     0.286068     0.133630     0.103472
Rotational constants in MHz :  8576.109806  4006.118234  3102.010802

                             ****ORCA TERMINATED NORMALLY****
TOTAL RUN TIME: 0 days 0 hours 0 minutes 18 seconds 972 msec
