                         Program Version 5.0.0 -  RELEASE  -
|  1> !B3LYP D3BJ RIJCOSX def2-TZVP def2/J TightSCF xyzfile
|  2>
|  3> *xyzfile 0 1 D1.xyz
|  4>
|  5> %MaxCore 64000
|  6>
|  7> %pal nprocs 18
|  8> end
|  9>
| 10> %scf
| 11>   MaxIter 150
| 12> end
| 13>
| 14>
| 15>                          ****END OF INPUT****

CARTESIAN COORDINATES (ANGSTROEM)
---------------------------------
  C      0.816067   -2.101491   -2.186546
  H      1.696232   -2.368691   -1.600457
  C      1.100552   -2.467492   -3.599269
  C      0.516243   -0.613634   -2.039373
  H     -0.020066   -2.712849   -1.840844
  C     -0.868621   -0.193925   -2.546303
  C     -0.984801    1.284739   -2.928686
  H     -0.764939    1.904116   -2.051568
  H     -2.032613    1.478953   -3.178952
  C     -0.106085    1.769914   -4.089836
  H     -0.347744    2.822196   -4.262942
  H      0.949683    1.745875   -3.808781
  C     -0.258747    1.004323   -5.409829
  C      0.395958   -0.370696   -5.339939
  H      0.239150    1.569393   -6.201253
  H     -1.309360    0.888694   -5.682455
  H      1.700606   -1.757225   -4.078378
  H      0.293855   -2.359766   -4.256324
  H      1.501324   -3.428479   -3.694915
  F     -0.326329   -1.390398   -5.491279
  O      1.619412   -0.400726   -5.036827
  H     -1.607271   -0.412651   -1.768955
  H     -1.157234   -0.796164   -3.409254
  H      1.299044   -0.056805   -2.558982
  H      0.612393   -0.365579   -0.979171

 Total Charge           Charge          ....    0
 Multiplicity           Mult            ....    1
 Number of Electrons    NEL             ....   80
 Basis Dimension        Dim             ....  400

ORBITAL ENERGIES
----------------

  NO   OCC          E(Eh)            E(eV)
   0   2.0000     -24.758392      -673.7101
   1   2.0000     -19.135836      -520.7126
   2   2.0000     -10.354923      -281.7718
   3   2.0000     -10.202844      -277.6335
   4   2.0000     -10.182383      -277.0767
   5   2.0000     -10.170738      -276.7599
   6   2.0000     -10.163070      -276.5512
   7   2.0000     -10.149399      -276.1792
   8   2.0000     -10.139917      -275.9212
   9   2.0000     -10.090590      -274.5789
  10   2.0000      -1.330954       -36.2171
  11   2.0000      -1.045453       -28.4482
  12   2.0000      -0.824657       -22.4401
  13   2.0000      -0.792173       -21.5561
  14   2.0000      -0.744641       -20.2627
  15   2.0000      -0.706842       -19.2341
  16   2.0000      -0.666227       -18.1290
  17   2.0000      -0.637902       -17.3582
  18   2.0000      -0.599140       -16.3034
  19   2.0000      -0.559198       -15.2165
  20   2.0000      -0.555569       -15.1178
  21   2.0000      -0.541164       -14.7258
  22   2.0000      -0.525359       -14.2958
  23   2.0000      -0.477533       -12.9943
  24   2.0000      -0.457797       -12.4573
  25   2.0000      -0.442995       -12.0545
  26   2.0000      -0.437916       -11.9163
  27   2.0000      -0.424876       -11.5615
  28   2.0000      -0.411693       -11.2027
  29   2.0000      -0.400113       -10.8876
  30   2.0000      -0.381968       -10.3939
  31   2.0000      -0.368188       -10.0189
  32   2.0000      -0.362702        -9.8696
  33   2.0000      -0.351382        -9.5616
  34   2.0000      -0.338425        -9.2090
  35   2.0000      -0.326349        -8.8804
  36   2.0000      -0.317370        -8.6361
  37   2.0000      -0.306978        -8.3533
  38   2.0000      -0.298102        -8.1118
  39   2.0000      -0.264892        -7.2081
  40   0.0000      -0.044659        -1.2152
  41   0.0000       0.028654         0.7797
  42   0.0000       0.055325         1.5055
  43   0.0000       0.060912         1.6575
  44   0.0000       0.062236         1.6935

MULLIKEN ATOMIC CHARGES
-----------------------
   0 C :   -0.100714
   1 H :    0.072726
   2 C :   -0.399857
   3 C :   -0.188429
   4 H :    0.059137
   5 C :   -0.191436
   6 C :   -0.172724
   7 H :    0.090317
   8 H :    0.087954
   9 C :   -0.191015
  10 H :    0.102193
  11 H :    0.125087
  12 C :   -0.160245
  13 C :    0.359205
  14 H :    0.126648
  15 H :    0.098340
  16 H :    0.159003
  17 H :    0.097168
  18 H :    0.088475
  19 F :   -0.103514
  20 O :   -0.336038
  21 H :    0.089992
  22 H :    0.095992
  23 H :    0.111290
  24 H :    0.080444
Sum of atomic charges:    0.0000000

LOEWDIN ATOMIC CHARGES
----------------------
   0 C :   -0.296922
   1 H :    0.131427
   2 C :   -0.332638
   3 C :   -0.262432
   4 H :    0.127962
   5 C :   -0.261673
   6 C :   -0.262561
   7 H :    0.137912
   8 H :    0.133688
   9 C :   -0.252540
  10 H :    0.138862
  11 H :    0.142109
  12 C :   -0.224242
  13 C :   -0.487574
  14 H :    0.157624
  15 H :    0.140509
  16 H :    0.114437
  17 H :    0.103605
  18 H :    0.102669
  19 F :    0.330502
  20 O :    0.082698
  21 H :    0.135804
  22 H :    0.134202
  23 H :    0.136556
  24 H :    0.130016

  Mayer bond orders larger than 0.100000
B(  0-C ,  1-H ) :   0.9628 B(  0-C ,  2-C ) :   0.9700 B(  0-C ,  3-C ) :   0.9808
B(  0-C ,  4-H ) :   0.9663 B(  2-C , 16-H ) :   0.9507 B(  2-C , 17-H ) :   0.9838
B(  2-C , 18-H ) :   0.9710 B(  3-C ,  5-C ) :   0.9364 B(  3-C , 23-H ) :   0.9844
B(  3-C , 24-H ) :   0.9615 B(  5-C ,  6-C ) :   0.9735 B(  5-C , 21-H ) :   0.9633
B(  5-C , 22-H ) :   0.9744 B(  6-C ,  7-H ) :   0.9641 B(  6-C ,  8-H ) :   0.9685
B(  6-C ,  9-C ) :   0.9826 B(  9-C , 10-H ) :   0.9630 B(  9-C , 11-H ) :   0.9707
B(  9-C , 12-C ) :   0.9427 B( 12-C , 13-C ) :   0.9978 B( 12-C , 14-H ) :   0.9415
B( 12-C , 15-H ) :   0.9527 B( 13-C , 19-F ) :   1.1308 B( 13-C , 20-O ) :   1.9764

Dispersion correction           -0.042805814
FINAL SINGLE POINT ENERGY      -488.842469011546

DIPOLE MOMENT
-------------
                                X             Y             Z
Electronic contribution:      0.35356      -1.98052     -10.57861
Nuclear contribution   :     -1.21560       2.80077      10.24180
                        -----------------------------------------
Total Dipole Moment    :     -0.86204       0.82025      -0.33681
                        -----------------------------------------
Magnitude (a.u.)       :      1.23668
Magnitude (Debye)      :      3.14338

Rotational constants in cm-1:     0.051255     0.042531     0.028894
Rotational constants in MHz :  1536.587743  1275.050721   866.218876

                             ****ORCA TERMINATED NORMALLY****
TOTAL RUN TIME: 0 days 0 hours 0 minutes 41 seconds 655 msec
