                         Program Version 5.0.0 -  RELEASE  -
|  1> !CAM-B3LYP RIJCOSX def2-SVPD def2/J TightSCF
|  2> *xyz -1 1
|  3> C         -1.10433        0.25137       -2.86006
|  4> C         -0.71189        0.84252       -4.21834
|  5> H          0.15463        1.49980       -4.13091
|  6> H         -1.53813        1.45922       -4.58267
|  7> C         -0.39762       -0.20587       -5.28802
|  8> O          0.61717       -0.00535       -5.99827
|  9> O         -1.13317       -1.22138       -5.34147
| 10> H         -1.95489       -0.38644       -2.98099
| 11> H         -1.34603        1.04362       -2.18269
| 12> H         -0.28606       -0.31581       -2.46809
| 13> *
| 14>
| 15> %MaxCore 64000
| 16>
| 17> %pal nprocs 4
| 18> end
| 19>
| 20> %scf
| 21>   MaxIter 150
| 22> end
| 23>
| 24>
| 25>                          ****END OF INPUT****

CARTESIAN COORDINATES (ANGSTROEM)
---------------------------------
  C     -1.104330    0.251370   -2.860060
  C     -0.711890    0.842520   -4.218340
  H      0.154630    1.499800   -4.130910
  H     -1.538130    1.459220   -4.582670
  C     -0.397620   -0.205870   -5.288020
  O      0.617170   -0.005350   -5.998270
  O     -1.133170   -1.221380   -5.341470
  H     -1.954890   -0.386440   -2.980990
  H     -1.346030    1.043620   -2.182690
  H     -0.286060   -0.315810   -2.468090

 Total Charge           Charge          ....   -1
 Multiplicity           Mult            ....    1
 Number of Electrons    NEL             ....   40
 Basis Dimension        Dim             ....  146

ORBITAL ENERGIES
----------------

  NO   OCC          E(Eh)            E(eV)
   0   2.0000     -18.952859      -515.7335
   1   2.0000     -18.952047      -515.7114
   2   2.0000     -10.148393      -276.1518
   3   2.0000     -10.096379      -274.7364
   4   2.0000     -10.086127      -274.4575
   5   2.0000      -0.896052       -24.3828
   6   2.0000      -0.800557       -21.7843
   7   2.0000      -0.682309       -18.5666
   8   2.0000      -0.548977       -14.9384
   9   2.0000      -0.391322       -10.6484
  10   2.0000      -0.365293        -9.9401
  11   2.0000      -0.329903        -8.9771
  12   2.0000      -0.301505        -8.2044
  13   2.0000      -0.285408        -7.7663
  14   2.0000      -0.278050        -7.5661
  15   2.0000      -0.248748        -6.7688
  16   2.0000      -0.230906        -6.2833
  17   2.0000      -0.115616        -3.1461
  18   2.0000      -0.110668        -3.0114
  19   2.0000      -0.098103        -2.6695
  20   0.0000       0.182704         4.9716
  21   0.0000       0.217259         5.9119
  22   0.0000       0.230400         6.2695
  23   0.0000       0.247433         6.7330
  24   0.0000       0.274865         7.4795

MULLIKEN ATOMIC CHARGES
-----------------------
   0 C :    0.789226
   1 C :   -0.163230
   2 H :   -0.132895
   3 H :   -0.084983
   4 C :    0.376355
   5 O :   -0.669229
   6 O :   -0.699895
   7 H :   -0.106645
   8 H :   -0.164597
   9 H :   -0.144106
Sum of atomic charges:   -1.0000000

LOEWDIN ATOMIC CHARGES
----------------------
   0 C :    0.098589
   1 C :   -0.038177
   2 H :   -0.000690
   3 H :    0.009401
   4 C :   -0.313622
   5 O :   -0.332847
   6 O :   -0.322687
   7 H :   -0.030700
   8 H :   -0.044855
   9 H :   -0.024412

  Mayer bond orders larger than 0.100000
B(  0-C ,  1-C ) :   1.2563 B(  0-C ,  7-H ) :   0.7915 B(  0-C ,  8-H ) :   0.7794
B(  0-C ,  9-H ) :   0.8057 B(  1-C ,  2-H ) :   0.9385 B(  1-C ,  3-H ) :   0.8623
B(  1-C ,  4-C ) :   1.0206 B(  1-C ,  7-H ) :   0.2193 B(  1-C ,  8-H ) :   0.2102
B(  1-C ,  9-H ) :   0.1838 B(  2-H ,  4-C ) :   0.2068 B(  4-C ,  5-O ) :   1.4979
B(  4-C ,  6-O ) :   1.5160

FINAL SINGLE POINT ENERGY      -267.545620798748

DIPOLE MOMENT
-------------
                                X             Y             Z
Electronic contribution:      1.52645      -2.32380      -5.16760
Nuclear contribution   :     -2.09607       3.44215       6.87744
                        -----------------------------------------
Total Dipole Moment    :     -0.56962       1.11835       1.70983
                        -----------------------------------------
Magnitude (a.u.)       :      2.12102
Magnitude (Debye)      :      5.39120

Rotational constants in cm-1:     0.324698     0.133739     0.103466
Rotational constants in MHz :  9734.203431  4009.406827  3101.846422

                             ****ORCA TERMINATED NORMALLY****
TOTAL RUN TIME: 0 days 0 hours 0 minutes 23 seconds 16 msec
