                         Program Version 5.0.0 -  RELEASE  -
|  1> !CAM-B3LYP RIJCOSX def2-SVPD def2/J TightSCF
|  2> *xyz 1 1
|  3> C          2.23447       -2.98975       -2.39762
|  4> N          2.75680       -2.94555       -3.76503
|  5> C          1.98721       -2.59045       -4.81898
|  6> N          0.74322       -3.01749       -4.91352
|  7> N          2.49964       -1.84860       -5.80324
|  8> H          3.30978       -1.29282       -5.55895
|  9> H          1.80103       -1.30430       -6.28913
| 10> H          3.71612       -2.62880       -3.82953
| 11> H          0.39583       -3.62775       -4.18502
| 12> H          0.03920       -2.45438       -5.37137
| 13> C          2.19120       -1.61950       -1.71549
| 14> H          2.87278       -3.66637       -1.82801
| 15> H          1.24619       -3.44744       -2.40784
| 16> H          1.56387       -0.96046       -2.27853
| 17> H          3.18033       -1.21449       -1.66568
| 18> H          1.79916       -1.72608       -0.72562
| 19> *
| 20>
| 21> %MaxCore 64000
| 22>
| 23> %pal nprocs 4
| 24> end
| 25>
| 26> %scf
| 27>   MaxIter 150
| 28> end
| 29>
| 30>
| 31>                          ****END OF INPUT****

CARTESIAN COORDINATES (ANGSTROEM)
---------------------------------
  C      2.234470   -2.989750   -2.397620
  N      2.756800   -2.945550   -3.765030
  C      1.987210   -2.590450   -4.818980
  N      0.743220   -3.017490   -4.913520
  N      2.499640   -1.848600   -5.803240
  H      3.309780   -1.292820   -5.558950
  H      1.801030   -1.304300   -6.289130
  H      3.716120   -2.628800   -3.829530
  H      0.395830   -3.627750   -4.185020
  H      0.039200   -2.454380   -5.371370
  C      2.191200   -1.619500   -1.715490
  H      2.872780   -3.666370   -1.828010
  H      1.246190   -3.447440   -2.407840
  H      1.563870   -0.960460   -2.278530
  H      3.180330   -1.214490   -1.665680
  H      1.799160   -1.726080   -0.725620

 Total Charge           Charge          ....    1
 Multiplicity           Mult            ....    1
 Number of Electrons    NEL             ....   48
 Basis Dimension        Dim             ....  200

ORBITAL ENERGIES
----------------

  NO   OCC          E(Eh)            E(eV)
   0   2.0000     -14.637985      -398.3198
   1   2.0000     -14.633842      -398.2071
   2   2.0000     -14.630070      -398.1044
   3   2.0000     -10.605828      -288.5992
   4   2.0000     -10.469456      -284.8884
   5   2.0000     -10.401420      -283.0370
   6   2.0000      -1.300377       -35.3851
   7   2.0000      -1.183680       -32.2096
   8   2.0000      -1.178908       -32.0797
   9   2.0000      -1.006722       -27.3943
  10   2.0000      -0.918623       -24.9970
  11   2.0000      -0.880935       -23.9715
  12   2.0000      -0.862145       -23.4601
  13   2.0000      -0.815980       -22.2039
  14   2.0000      -0.775857       -21.1122
  15   2.0000      -0.757921       -20.6241
  16   2.0000      -0.723574       -19.6894
  17   2.0000      -0.694549       -18.8996
  18   2.0000      -0.674259       -18.3475
  19   2.0000      -0.639919       -17.4131
  20   2.0000      -0.603978       -16.4351
  21   2.0000      -0.584162       -15.8958
  22   2.0000      -0.557285       -15.1645
  23   2.0000      -0.517831       -14.0909
  24   0.0000      -0.151552        -4.1239
  25   0.0000      -0.122305        -3.3281
  26   0.0000      -0.090459        -2.4615
  27   0.0000      -0.077411        -2.1065
  28   0.0000      -0.056314        -1.5324

MULLIKEN ATOMIC CHARGES
-----------------------
   0 C :    0.479845
   1 N :   -0.336127
   2 C :    0.843745
   3 N :    0.178168
   4 N :    0.086891
   5 H :   -0.016716
   6 H :    0.017851
   7 H :   -0.197606
   8 H :   -0.041730
   9 H :   -0.052892
  10 C :    0.885362
  11 H :   -0.303005
  12 H :   -0.210953
  13 H :   -0.178817
  14 H :   -0.093072
  15 H :   -0.060946
Sum of atomic charges:    1.0000000

LOEWDIN ATOMIC CHARGES
----------------------
   0 C :    0.036651
   1 N :    0.054887
   2 C :   -0.048214
   3 N :    0.286993
   4 N :    0.274798
   5 H :    0.035278
   6 H :    0.034879
   7 H :    0.050375
   8 H :    0.025306
   9 H :    0.048008
  10 C :    0.163325
  11 H :    0.040390
  12 H :    0.015359
  13 H :   -0.015315
  14 H :   -0.006905
  15 H :    0.004185

  Mayer bond orders larger than 0.100000
B(  0-C ,  1-N ) :   0.8962 B(  0-C ,  7-H ) :  -0.1022 B(  0-C , 10-C ) :   1.2537
B(  0-C , 11-H ) :   0.8293 B(  0-C , 12-H ) :   0.8321 B(  0-C , 13-H ) :   0.2382
B(  0-C , 14-H ) :   0.2109 B(  0-C , 15-H ) :   0.2018 B(  1-N ,  2-C ) :   1.0943
B(  1-N ,  4-N ) :   0.1441 B(  1-N ,  7-H ) :   1.2101 B(  1-N , 11-H ) :   0.2055
B(  1-N , 12-H ) :   0.1356 B(  2-C ,  3-N ) :   1.0814 B(  2-C ,  4-N ) :   1.0614
B(  2-C ,  7-H ) :  -0.1950 B(  3-N ,  4-N ) :   0.1337 B(  3-N ,  8-H ) :   1.0024
B(  3-N ,  9-H ) :   1.2064 B(  4-N ,  5-H ) :   1.0142 B(  4-N ,  6-H ) :   0.9989
B(  8-H ,  9-H ) :  -0.1619 B( 10-C , 13-H ) :   0.7831 B( 10-C , 14-H ) :   0.7732
B( 10-C , 15-H ) :   0.7666

FINAL SINGLE POINT ENERGY      -284.053022443718

DIPOLE MOMENT
-------------
                                X             Y             Z
Electronic contribution:      0.18095      -1.67993      -5.19378
Nuclear contribution   :     -0.59121       2.30298       4.63196
                        -----------------------------------------
Total Dipole Moment    :     -0.41026       0.62305      -0.56182
                        -----------------------------------------
Magnitude (a.u.)       :      0.93389
Magnitude (Debye)      :      2.37375

Rotational constants in cm-1:     0.205874     0.074757     0.066901
Rotational constants in MHz :  6171.937773  2241.151057  2005.629823

                             ****ORCA TERMINATED NORMALLY****
TOTAL RUN TIME: 0 days 0 hours 0 minutes 42 seconds 674 msec
