                         Program Version 5.0.0 -  RELEASE  -
|  1> !CAM-B3LYP RIJCOSX def2-SVPD def2/J TightSCF xyzfile
|  2>
|  3> *xyzfile 0 1 B.xyz
|  4>
|  5> %MaxCore 64000
|  6>
|  7> %pal nprocs 4
|  8> end
|  9>
| 10> %scf
| 11>   MaxIter 150
| 12> end
| 13>
| 14>
| 15>                          ****END OF INPUT****

CARTESIAN COORDINATES (ANGSTROEM)
---------------------------------
  C      2.234473   -2.989754   -2.397622
  N      2.756799   -2.945553   -3.765029
  C     -1.104325    0.251374   -2.860056
  C     -0.711893    0.842517   -4.218344
  H      0.154626    1.499800   -4.130909
  H     -1.538134    1.459222   -4.582671
  C     -0.397624   -0.205875   -5.288018
  C      1.987208   -2.590451   -4.818975
  N      0.743221   -3.017493   -4.913524
  N      2.499636   -1.848598   -5.803241
  H      3.309780   -1.292818   -5.558947
  H      1.801025   -1.304298   -6.289129
  H      3.716116   -2.628797   -3.829533
  H      0.395828   -3.627747   -4.185024
  H      0.039201   -2.454383   -5.371367
  O      0.617165   -0.005348   -5.998273
  O     -1.133173   -1.221380   -5.341465
  C      2.191199   -1.619503   -1.715492
  H      2.872783   -3.666368   -1.828014
  H      1.246188   -3.447444   -2.407842
  C      1.298729   -0.554314   -2.359773
  H      1.872917   -1.787955   -0.681310
  H      3.216809   -1.238432   -1.654428
  C     -0.196255   -0.863365   -2.325763
  H      1.612531   -0.371346   -3.393065
  H      1.480944    0.388638   -1.834444
  H     -0.404105   -1.761825   -2.909448
  H     -0.490439   -1.087880   -1.294131
  H     -1.143842    1.066711   -2.129680
  H     -2.114401   -0.156834   -2.930323

 Total Charge           Charge          ....    0
 Multiplicity           Mult            ....    1
 Number of Electrons    NEL             ....  102
 Basis Dimension        Dim             ....  402

ORBITAL ENERGIES
----------------

  NO   OCC          E(Eh)            E(eV)
   0   2.0000     -19.134737      -520.6827
   1   2.0000     -19.132887      -520.6323
   2   2.0000     -14.475533      -393.8993
   3   2.0000     -14.445721      -393.0881
   4   2.0000     -14.444685      -393.0599
   5   2.0000     -10.431713      -283.8613
   6   2.0000     -10.335408      -281.2408
   7   2.0000     -10.324324      -280.9391
   8   2.0000     -10.284172      -279.8465
   9   2.0000     -10.264243      -279.3043
  10   2.0000     -10.250321      -278.9254
  11   2.0000     -10.240763      -278.6653
  12   2.0000     -10.227823      -278.3132
  13   2.0000      -1.128867       -30.7180
  14   2.0000      -1.082400       -29.4536
  15   2.0000      -1.021123       -27.7862
  16   2.0000      -1.000630       -27.2285
  17   2.0000      -0.982053       -26.7230
  18   2.0000      -0.898542       -24.4506
  19   2.0000      -0.855120       -23.2690
  20   2.0000      -0.802824       -21.8460
  21   2.0000      -0.757562       -20.6143
  22   2.0000      -0.730301       -19.8725
  23   2.0000      -0.697755       -18.9869
  24   2.0000      -0.688882       -18.7454
  25   2.0000      -0.654679       -17.8147
  26   2.0000      -0.631563       -17.1857
  27   2.0000      -0.609123       -16.5751
  28   2.0000      -0.584288       -15.8993
  29   2.0000      -0.574580       -15.6351
  30   2.0000      -0.556001       -15.1296
  31   2.0000      -0.544832       -14.8256
  32   2.0000      -0.534437       -14.5428
  33   2.0000      -0.520405       -14.1610
  34   2.0000      -0.508763       -13.8441
  35   2.0000      -0.498586       -13.5672
  36   2.0000      -0.483324       -13.1519
  37   2.0000      -0.479352       -13.0438
  38   2.0000      -0.460829       -12.5398
  39   2.0000      -0.451126       -12.2757
  40   2.0000      -0.437025       -11.8921
  41   2.0000      -0.426718       -11.6116
  42   2.0000      -0.413339       -11.2475
  43   2.0000      -0.395032       -10.7494
  44   2.0000      -0.382442       -10.4068
  45   2.0000      -0.375081       -10.2065
  46   2.0000      -0.370634       -10.0855
  47   2.0000      -0.361056        -9.8248
  48   2.0000      -0.298020        -8.1095
  49   2.0000      -0.288704        -7.8560
  50   2.0000      -0.282977        -7.7002
  51   0.0000       0.017633         0.4798
  52   0.0000       0.020401         0.5552
  53   0.0000       0.038723         1.0537
  54   0.0000       0.053492         1.4556
  55   0.0000       0.063502         1.7280

MULLIKEN ATOMIC CHARGES
-----------------------
   0 C :    0.976662
   1 N :   -0.411371
   2 C :    0.697199
   3 C :    0.419121
   4 H :    0.094943
   5 H :   -0.353668
   6 C :    0.237461
   7 C :    0.824517
   8 N :    0.403858
   9 N :    0.173539
  10 H :    0.036358
  11 H :   -0.210790
  12 H :   -0.167938
  13 H :    0.015608
  14 H :   -0.394114
  15 O :   -0.592533
  16 O :   -0.726652
  17 C :    0.530038
  18 H :   -0.436776
  19 H :   -0.066711
  20 C :    0.121657
  21 H :   -0.031972
  22 H :   -0.161671
  23 C :    0.128798
  24 H :   -0.235413
  25 H :   -0.234448
  26 H :   -0.241326
  27 H :   -0.217605
  28 H :   -0.189649
  29 H :    0.012880
Sum of atomic charges:   -0.0000000

LOEWDIN ATOMIC CHARGES
----------------------
   0 C :    0.063205
   1 N :    0.041922
   2 C :   -0.020029
   3 C :    0.033157
   4 H :    0.015103
   5 H :    0.030321
   6 C :   -0.220174
   7 C :   -0.054498
   8 N :    0.313283
   9 N :    0.278630
  10 H :    0.022562
  11 H :   -0.070453
  12 H :    0.034461
  13 H :    0.016686
  14 H :   -0.079762
  15 O :   -0.261183
  16 O :   -0.251973
  17 C :   -0.014549
  18 H :    0.025704
  19 H :    0.009282
  20 C :   -0.022359
  21 H :    0.028125
  22 H :    0.020794
  23 C :   -0.028296
  24 H :    0.005151
  25 H :    0.031143
  26 H :   -0.012094
  27 H :    0.023386
  28 H :    0.017961
  29 H :    0.024494

  Mayer bond orders larger than 0.100000
B(  0-C ,  1-N ) :   0.9144 B(  0-C , 17-C ) :   1.0897 B(  0-C , 18-H ) :   0.7029
B(  0-C , 19-H ) :   0.7603 B(  0-C , 21-H ) :   0.1554 B(  0-C , 22-H ) :   0.1379
B(  1-N ,  7-C ) :   0.9613 B(  1-N ,  9-N ) :   0.1711 B(  1-N , 12-H ) :   1.1841
B(  1-N , 18-H ) :   0.2334 B(  1-N , 19-H ) :   0.1244 B(  2-C ,  3-C ) :   1.1478
B(  2-C ,  4-H ) :   0.1148 B(  2-C ,  5-H ) :   0.1678 B(  2-C , 23-C ) :   1.2228
B(  2-C , 28-H ) :   0.7303 B(  2-C , 29-H ) :   0.5812 B(  3-C ,  4-H ) :   0.7683
B(  3-C ,  5-H ) :   0.7183 B(  3-C ,  6-C ) :   1.1101 B(  3-C , 23-C ) :   0.1385
B(  3-C , 28-H ) :   0.1758 B(  3-C , 29-H ) :   0.1266 B(  4-H ,  5-H ) :  -0.1073
B(  4-H ,  6-C ) :   0.3150 B(  5-H ,  6-C ) :   0.1784 B(  6-C , 15-O ) :   1.4208
B(  6-C , 16-O ) :   1.3936 B(  7-C ,  8-N ) :   1.0165 B(  7-C ,  9-N ) :   0.9191
B(  7-C , 12-H ) :  -0.1927 B(  7-C , 14-H ) :  -0.1290 B(  8-N ,  9-N ) :   0.1307
B(  8-N , 13-H ) :   0.8837 B(  8-N , 14-H ) :   1.2125 B(  9-N , 10-H ) :   0.9390
B(  9-N , 11-H ) :   1.0035 B( 11-H , 15-O ) :   0.1335 B( 13-H , 14-H ) :  -0.2387
B( 14-H , 16-O ) :   0.2272 B( 15-O , 16-O ) :   0.1122 B( 17-C , 18-H ) :   0.1181
B( 17-C , 19-H ) :   0.1365 B( 17-C , 20-C ) :   1.1888 B( 17-C , 21-H ) :   0.7656
B( 17-C , 22-H ) :   0.6599 B( 17-C , 24-H ) :   0.1027 B( 18-H , 19-H ) :  -0.1596
B( 20-C , 21-H ) :   0.1823 B( 20-C , 22-H ) :   0.2827 B( 20-C , 23-C ) :   1.2595
B( 20-C , 24-H ) :   0.8844 B( 20-C , 25-H ) :   0.7884 B( 20-C , 26-H ) :   0.1671
B( 20-C , 27-H ) :   0.2523 B( 21-H , 22-H ) :  -0.1204 B( 23-C , 24-H ) :   0.1659
B( 23-C , 25-H ) :   0.2090 B( 23-C , 26-H ) :   0.8605 B( 23-C , 27-H ) :   0.6955
B( 23-C , 28-H ) :   0.1868 B( 23-C , 29-H ) :   0.2900 B( 28-H , 29-H ) :  -0.1392

FINAL SINGLE POINT ENERGY      -629.113711599117

DIPOLE MOMENT
-------------
                                X             Y             Z
Electronic contribution:      0.60677      -2.84785     -10.18539
Nuclear contribution   :      1.76912       1.50070      12.36652
                        -----------------------------------------
Total Dipole Moment    :      2.37589      -1.34715       2.18114
                        -----------------------------------------
Magnitude (a.u.)       :      3.49529
Magnitude (Debye)      :      8.88432

Rotational constants in cm-1:     0.033272     0.023886     0.017112
Rotational constants in MHz :   997.469575   716.074432   513.001395

                             ****ORCA TERMINATED NORMALLY****
TOTAL RUN TIME: 0 days 0 hours 4 minutes 5 seconds 731 msec
