                         Program Version 5.0.0 -  RELEASE  -
|  1> !CAM-B3LYP RIJCOSX def2-SVPD def2/J TightSCF
|  2> *xyz 0 1
|  3> C         -1.10433        0.25137       -2.86006
|  4> C         -0.71189        0.84252       -4.21834
|  5> H          0.15463        1.49980       -4.13091
|  6> H         -1.53813        1.45922       -4.58267
|  7> C         -0.39762       -0.20587       -5.28802
|  8> F          0.61717       -0.00535       -5.99827
|  9> O         -1.13317       -1.22138       -5.34147
| 10> H         -1.95489       -0.38644       -2.98099
| 11> H         -1.34603        1.04362       -2.18269
| 12> H         -0.28606       -0.31581       -2.46809
| 13> *
| 14>
| 15> %MaxCore 64000
| 16>
| 17> %pal nprocs 4
| 18> end
| 19>
| 20> %scf
| 21>   MaxIter 150
| 22> end
| 23>
| 24>
| 25>                          ****END OF INPUT****

CARTESIAN COORDINATES (ANGSTROEM)
---------------------------------
  C     -1.104330    0.251370   -2.860060
  C     -0.711890    0.842520   -4.218340
  H      0.154630    1.499800   -4.130910
  H     -1.538130    1.459220   -4.582670
  C     -0.397620   -0.205870   -5.288020
  F      0.617170   -0.005350   -5.998270
  O     -1.133170   -1.221380   -5.341470
  H     -1.954890   -0.386440   -2.980990
  H     -1.346030    1.043620   -2.182690
  H     -0.286060   -0.315810   -2.468090

 Total Charge           Charge          ....    0
 Multiplicity           Mult            ....    1
 Number of Electrons    NEL             ....   40
 Basis Dimension        Dim             ....  146

ORBITAL ENERGIES
----------------

  NO   OCC          E(Eh)            E(eV)
   0   2.0000     -24.848765      -676.1693
   1   2.0000     -19.227387      -523.2038
   2   2.0000     -10.448267      -284.3118
   3   2.0000     -10.294693      -280.1328
   4   2.0000     -10.264066      -279.2994
   5   2.0000      -1.393084       -37.9077
   6   2.0000      -1.111300       -30.2400
   7   2.0000      -0.879187       -23.9239
   8   2.0000      -0.769024       -20.9262
   9   2.0000      -0.716444       -19.4954
  10   2.0000      -0.631322       -17.1791
  11   2.0000      -0.615590       -16.7510
  12   2.0000      -0.583416       -15.8756
  13   2.0000      -0.539468       -14.6797
  14   2.0000      -0.508327       -13.8323
  15   2.0000      -0.468026       -12.7356
  16   2.0000      -0.448427       -12.2023
  17   2.0000      -0.444674       -12.1002
  18   2.0000      -0.419258       -11.4086
  19   2.0000      -0.367764       -10.0074
  20   0.0000       0.013902         0.3783
  21   0.0000       0.042971         1.1693
  22   0.0000       0.072340         1.9685
  23   0.0000       0.084989         2.3127
  24   0.0000       0.103840         2.8256

MULLIKEN ATOMIC CHARGES
-----------------------
   0 C :    0.802710
   1 C :   -0.220831
   2 H :   -0.092595
   3 H :   -0.008705
   4 C :    0.660544
   5 F :   -0.347252
   6 O :   -0.459491
   7 H :   -0.089317
   8 H :   -0.127751
   9 H :   -0.117311
Sum of atomic charges:   -0.0000000

LOEWDIN ATOMIC CHARGES
----------------------
   0 C :    0.141775
   1 C :    0.004656
   2 H :    0.023072
   3 H :    0.040494
   4 C :   -0.014824
   5 F :   -0.032242
   6 O :   -0.130112
   7 H :   -0.010957
   8 H :   -0.013354
   9 H :   -0.008509

  Mayer bond orders larger than 0.100000
B(  0-C ,  1-C ) :   1.3115 B(  0-C ,  7-H ) :   0.7917 B(  0-C ,  8-H ) :   0.7843
B(  0-C ,  9-H ) :   0.8071 B(  1-C ,  2-H ) :   0.9330 B(  1-C ,  3-H ) :   0.8530
B(  1-C ,  4-C ) :   1.0847 B(  1-C ,  7-H ) :   0.2000 B(  1-C ,  8-H ) :   0.2014
B(  1-C ,  9-H ) :   0.1774 B(  2-H ,  4-C ) :   0.1204 B(  4-C ,  5-F ) :   0.7883
B(  4-C ,  6-O ) :   1.8667

FINAL SINGLE POINT ENERGY      -292.078893119689

DIPOLE MOMENT
-------------
                                X             Y             Z
Electronic contribution:      3.60168      -2.32841      -7.68882
Nuclear contribution   :     -3.36368       3.36392       8.24820
                        -----------------------------------------
Total Dipole Moment    :      0.23800       1.03550       0.55938
                        -----------------------------------------
Magnitude (a.u.)       :      1.20075
Magnitude (Debye)      :      3.05208

Rotational constants in cm-1:     0.315013     0.126712     0.098430
Rotational constants in MHz :  9443.861322  3798.734540  2950.846388

                             ****ORCA TERMINATED NORMALLY****
TOTAL RUN TIME: 0 days 0 hours 0 minutes 24 seconds 815 msec
