                         Program Version 5.0.0 -  RELEASE  -
|  1> !CAM-B3LYP RIJCOSX def2-SVPD def2/J TightSCF
|  2> *xyz 0 1
|  3> C          2.23447       -2.98975       -2.39762
|  4> C          2.75680       -2.94555       -3.76503
|  5> C          1.98721       -2.59045       -4.81898
|  6> N          0.74322       -3.01749       -4.91352
|  7> N          2.49964       -1.84860       -5.80324
|  8> H          3.30978       -1.29282       -5.55895
|  9> H          1.80103       -1.30430       -6.28913
| 10> H          3.71612       -2.62880       -3.82953
| 11> H          0.39583       -3.62775       -4.18502
| 12> H          0.03920       -2.45438       -5.37137
| 13> C          2.19120       -1.61950       -1.71549
| 14> H          2.87278       -3.66637       -1.82801
| 15> H          1.24619       -3.44744       -2.40784
| 16> H          1.56387       -0.96046       -2.27853
| 17> H          3.18033       -1.21449       -1.66568
| 18> H          1.79916       -1.72608       -0.72562
| 19> *
| 20>
| 21> %MaxCore 64000
| 22>
| 23> %pal nprocs 4
| 24> end
| 25>
| 26> %scf
| 27>   MaxIter 150
| 28> end
| 29>
| 30>
| 31>                          ****END OF INPUT****

CARTESIAN COORDINATES (ANGSTROEM)
---------------------------------
  C      2.234470   -2.989750   -2.397620
  C      2.756800   -2.945550   -3.765030
  C      1.987210   -2.590450   -4.818980
  N      0.743220   -3.017490   -4.913520
  N      2.499640   -1.848600   -5.803240
  H      3.309780   -1.292820   -5.558950
  H      1.801030   -1.304300   -6.289130
  H      3.716120   -2.628800   -3.829530
  H      0.395830   -3.627750   -4.185020
  H      0.039200   -2.454380   -5.371370
  C      2.191200   -1.619500   -1.715490
  H      2.872780   -3.666370   -1.828010
  H      1.246190   -3.447440   -2.407840
  H      1.563870   -0.960460   -2.278530
  H      3.180330   -1.214490   -1.665680
  H      1.799160   -1.726080   -0.725620

 Total Charge           Charge          ....    0
 Multiplicity           Mult            ....    1
 Number of Electrons    NEL             ....   48
 Basis Dimension        Dim             ....  200

ORBITAL ENERGIES
----------------

  NO   OCC          E(Eh)            E(eV)
   0   2.0000     -14.413152      -392.2018
   1   2.0000     -14.408594      -392.0778
   2   2.0000     -10.311069      -280.5784
   3   2.0000     -10.236514      -278.5497
   4   2.0000     -10.228662      -278.3360
   5   2.0000     -10.184695      -277.1396
   6   2.0000      -1.048930       -28.5428
   7   2.0000      -0.954433       -25.9714
   8   2.0000      -0.851871       -23.1806
   9   2.0000      -0.768229       -20.9046
  10   2.0000      -0.693390       -18.8681
  11   2.0000      -0.654470       -17.8090
  12   2.0000      -0.617430       -16.8011
  13   2.0000      -0.580394       -15.7933
  14   2.0000      -0.541012       -14.7217
  15   2.0000      -0.523807       -14.2535
  16   2.0000      -0.484482       -13.1834
  17   2.0000      -0.465246       -12.6600
  18   2.0000      -0.442661       -12.0454
  19   2.0000      -0.428485       -11.6597
  20   2.0000      -0.395018       -10.7490
  21   2.0000      -0.387013       -10.5311
  22   2.0000      -0.343668        -9.3517
  23   2.0000      -0.220188        -5.9916
  24   0.0000       0.040241         1.0950
  25   0.0000       0.072235         1.9656
  26   0.0000       0.075865         2.0644
  27   0.0000       0.083172         2.2632
  28   0.0000       0.104178         2.8348

MULLIKEN ATOMIC CHARGES
-----------------------
   0 C :   -0.076644
   1 C :   -0.064371
   2 C :    0.211962
   3 N :    0.126759
   4 N :    0.081853
   5 H :    0.020526
   6 H :   -0.041941
   7 H :   -0.235243
   8 H :   -0.039507
   9 H :   -0.146262
  10 C :    0.940472
  11 H :   -0.113718
  12 H :   -0.266944
  13 H :   -0.174842
  14 H :   -0.110763
  15 H :   -0.111338
Sum of atomic charges:   -0.0000000

LOEWDIN ATOMIC CHARGES
----------------------
   0 C :   -0.106595
   1 C :   -0.022954
   2 C :   -0.240269
   3 N :    0.200094
   4 N :    0.192050
   5 H :    0.002185
   6 H :   -0.012399
   7 H :   -0.058620
   8 H :   -0.004911
   9 H :   -0.002722
  10 C :    0.122869
  11 H :    0.010032
  12 H :   -0.008394
  13 H :   -0.024409
  14 H :   -0.020362
  15 H :   -0.025597

  Mayer bond orders larger than 0.100000
B(  0-C ,  1-C ) :   1.2449 B(  0-C ,  2-C ) :   0.1538 B(  0-C ,  7-H ) :   0.3468
B(  0-C , 10-C ) :   1.2284 B(  0-C , 11-H ) :   0.7815 B(  0-C , 12-H ) :   0.8297
B(  0-C , 13-H ) :   0.2445 B(  0-C , 14-H ) :   0.2472 B(  0-C , 15-H ) :   0.2398
B(  1-C ,  2-C ) :   1.7475 B(  1-C ,  3-N ) :   0.1474 B(  1-C ,  4-N ) :   0.2026
B(  1-C ,  7-H ) :   0.6010 B(  1-C , 11-H ) :   0.2160 B(  1-C , 12-H ) :   0.2319
B(  2-C ,  3-N ) :   1.1257 B(  2-C ,  4-N ) :   1.0624 B(  2-C ,  7-H ) :   0.3059
B(  3-N ,  4-N ) :   0.1128 B(  3-N ,  8-H ) :   1.0130 B(  3-N ,  9-H ) :   1.2144
B(  4-N ,  5-H ) :   0.9613 B(  4-N ,  6-H ) :   0.9190 B(  8-H ,  9-H ) :  -0.1464
B( 10-C , 13-H ) :   0.7861 B( 10-C , 14-H ) :   0.7512 B( 10-C , 15-H ) :   0.7453
B( 11-H , 12-H ) :   0.1091

FINAL SINGLE POINT ENERGY      -267.584878481644

DIPOLE MOMENT
-------------
                                X             Y             Z
Electronic contribution:     -0.32503      -1.37283      -4.97314
Nuclear contribution   :     -0.44240       2.20379       4.66256
                        -----------------------------------------
Total Dipole Moment    :     -0.76743       0.83096      -0.31058
                        -----------------------------------------
Magnitude (a.u.)       :      1.17299
Magnitude (Debye)      :      2.98150

Rotational constants in cm-1:     0.209447     0.075194     0.066975
Rotational constants in MHz :  6279.068019  2254.272519  2007.845458

                             ****ORCA TERMINATED NORMALLY****
TOTAL RUN TIME: 0 days 0 hours 0 minutes 45 seconds 188 msec
