                         Program Version 5.0.0 -  RELEASE  -
|  1> !CAM-B3LYP RIJCOSX def2-SVPD def2/J TightSCF
|  2> *xyz 0 1
|  3> C         -1.10433        0.25137       -2.86006
|  4> C         -0.71189        0.84252       -4.21834
|  5> H          0.15463        1.49980       -4.13091
|  6> H         -1.53813        1.45922       -4.58267
|  7> C         -0.39762       -0.20587       -5.28802
|  8> O          0.61717       -0.00535       -5.99827
|  9> F         -1.13317       -1.22138       -5.34147
| 10> H         -1.95489       -0.38644       -2.98099
| 11> H         -1.34603        1.04362       -2.18269
| 12> H         -0.28606       -0.31581       -2.46809
| 13> *
| 14>
| 15> %MaxCore 64000
| 16>
| 17> %pal nprocs 4
| 18> end
| 19>
| 20> %scf
| 21>   MaxIter 150
| 22> end
| 23>
| 24>
| 25>                          ****END OF INPUT****

CARTESIAN COORDINATES (ANGSTROEM)
---------------------------------
  C     -1.104330    0.251370   -2.860060
  C     -0.711890    0.842520   -4.218340
  H      0.154630    1.499800   -4.130910
  H     -1.538130    1.459220   -4.582670
  C     -0.397620   -0.205870   -5.288020
  O      0.617170   -0.005350   -5.998270
  F     -1.133170   -1.221380   -5.341470
  H     -1.954890   -0.386440   -2.980990
  H     -1.346030    1.043620   -2.182690
  H     -0.286060   -0.315810   -2.468090

 Total Charge           Charge          ....    0
 Multiplicity           Mult            ....    1
 Number of Electrons    NEL             ....   40
 Basis Dimension        Dim             ....  146

ORBITAL ENERGIES
----------------

  NO   OCC          E(Eh)            E(eV)
   0   2.0000     -24.849640      -676.1931
   1   2.0000     -19.226291      -523.1740
   2   2.0000     -10.447615      -284.2941
   3   2.0000     -10.293959      -280.1129
   4   2.0000     -10.270121      -279.4642
   5   2.0000      -1.393626       -37.9225
   6   2.0000      -1.110331       -30.2136
   7   2.0000      -0.883523       -24.0419
   8   2.0000      -0.763891       -20.7865
   9   2.0000      -0.723713       -19.6932
  10   2.0000      -0.633247       -17.2315
  11   2.0000      -0.623526       -16.9670
  12   2.0000      -0.573174       -15.5969
  13   2.0000      -0.540911       -14.7189
  14   2.0000      -0.507600       -13.8125
  15   2.0000      -0.474846       -12.9212
  16   2.0000      -0.457470       -12.4484
  17   2.0000      -0.448484       -12.2039
  18   2.0000      -0.419753       -11.4221
  19   2.0000      -0.362853        -9.8737
  20   0.0000       0.015995         0.4352
  21   0.0000       0.040221         1.0945
  22   0.0000       0.074606         2.0301
  23   0.0000       0.082448         2.2435
  24   0.0000       0.104362         2.8398

MULLIKEN ATOMIC CHARGES
-----------------------
   0 C :    0.805685
   1 C :   -0.202788
   2 H :   -0.106279
   3 H :   -0.020571
   4 C :    0.676439
   5 O :   -0.432460
   6 F :   -0.373693
   7 H :   -0.101571
   8 H :   -0.125332
   9 H :   -0.119432
Sum of atomic charges:   -0.0000000

LOEWDIN ATOMIC CHARGES
----------------------
   0 C :    0.134057
   1 C :    0.010967
   2 H :    0.034238
   3 H :    0.038606
   4 C :   -0.017570
   5 O :   -0.134286
   6 F :   -0.028221
   7 H :   -0.015661
   8 H :   -0.012933
   9 H :   -0.009197

  Mayer bond orders larger than 0.100000
B(  0-C ,  1-C ) :   1.2794 B(  0-C ,  7-H ) :   0.7849 B(  0-C ,  8-H ) :   0.7927
B(  0-C ,  9-H ) :   0.8145 B(  1-C ,  2-H ) :   0.9633 B(  1-C ,  3-H ) :   0.8525
B(  1-C ,  4-C ) :   1.0477 B(  1-C ,  7-H ) :   0.1889 B(  1-C ,  8-H ) :   0.2027
B(  1-C ,  9-H ) :   0.1710 B(  2-H ,  4-C ) :   0.1495 B(  4-C ,  5-O ) :   1.8612
B(  4-C ,  6-F ) :   0.7645 B(  5-O ,  6-F ) :   0.1073

FINAL SINGLE POINT ENERGY      -292.078066942133

DIPOLE MOMENT
-------------
                                X             Y             Z
Electronic contribution:      0.66242      -4.34981      -6.56160
Nuclear contribution   :     -1.45527       4.68977       7.53208
                        -----------------------------------------
Total Dipole Moment    :     -0.79285       0.33996       0.97048
                        -----------------------------------------
Magnitude (a.u.)       :      1.29846
Magnitude (Debye)      :      3.30043

Rotational constants in cm-1:     0.298240     0.132464     0.099915
Rotational constants in MHz :  8940.998095  3971.171647  2995.369122

                             ****ORCA TERMINATED NORMALLY****
TOTAL RUN TIME: 0 days 0 hours 0 minutes 24 seconds 141 msec
