                         Program Version 5.0.0 -  RELEASE  -
|  1> !CAM-B3LYP RIJCOSX def2-SVPD def2/J TightSCF
|  2> *xyz 0 1
|  3> C          2.23447       -2.98975       -2.39762
|  4> N          2.75680       -2.94555       -3.76503
|  5> C          1.98721       -2.59045       -4.81898
|  6> C          0.74322       -3.01749       -4.91352
|  7> N          2.49964       -1.84860       -5.80324
|  8> H          3.30978       -1.29282       -5.55895
|  9> H          1.80103       -1.30430       -6.28913
| 10> H          3.71612       -2.62880       -3.82953
| 11> H          0.39583       -3.62775       -4.18502
| 12> H          0.03920       -2.45438       -5.37137
| 13> C          2.19120       -1.61950       -1.71549
| 14> H          2.87278       -3.66637       -1.82801
| 15> H          1.24619       -3.44744       -2.40784
| 16> H          1.56387       -0.96046       -2.27853
| 17> H          3.18033       -1.21449       -1.66568
| 18> H          1.79916       -1.72608       -0.72562
| 19> *
| 20>
| 21> %MaxCore 64000
| 22>
| 23> %pal nprocs 4
| 24> end
| 25>
| 26> %scf
| 27>   MaxIter 150
| 28> end
| 29>
| 30>
| 31>                          ****END OF INPUT****

CARTESIAN COORDINATES (ANGSTROEM)
---------------------------------
  C      2.234470   -2.989750   -2.397620
  N      2.756800   -2.945550   -3.765030
  C      1.987210   -2.590450   -4.818980
  C      0.743220   -3.017490   -4.913520
  N      2.499640   -1.848600   -5.803240
  H      3.309780   -1.292820   -5.558950
  H      1.801030   -1.304300   -6.289130
  H      3.716120   -2.628800   -3.829530
  H      0.395830   -3.627750   -4.185020
  H      0.039200   -2.454380   -5.371370
  C      2.191200   -1.619500   -1.715490
  H      2.872780   -3.666370   -1.828010
  H      1.246190   -3.447440   -2.407840
  H      1.563870   -0.960460   -2.278530
  H      3.180330   -1.214490   -1.665680
  H      1.799160   -1.726080   -0.725620

 Total Charge           Charge          ....    0
 Multiplicity           Mult            ....    1
 Number of Electrons    NEL             ....   48
 Basis Dimension        Dim             ....  200

ORBITAL ENERGIES
----------------

  NO   OCC          E(Eh)            E(eV)
   0   2.0000     -14.407277      -392.0419
   1   2.0000     -14.406786      -392.0286
   2   2.0000     -10.308068      -280.4968
   3   2.0000     -10.292084      -280.0619
   4   2.0000     -10.249124      -278.8928
   5   2.0000     -10.177906      -276.9549
   6   2.0000      -1.045453       -28.4482
   7   2.0000      -0.963778       -26.2257
   8   2.0000      -0.832392       -22.6505
   9   2.0000      -0.791300       -21.5324
  10   2.0000      -0.715041       -19.4573
  11   2.0000      -0.635043       -17.2804
  12   2.0000      -0.618265       -16.8238
  13   2.0000      -0.584437       -15.9034
  14   2.0000      -0.533621       -14.5206
  15   2.0000      -0.517967       -14.0946
  16   2.0000      -0.487831       -13.2746
  17   2.0000      -0.468327       -12.7438
  18   2.0000      -0.462736       -12.5917
  19   2.0000      -0.438712       -11.9380
  20   2.0000      -0.427836       -11.6420
  21   2.0000      -0.415097       -11.2954
  22   2.0000      -0.319223        -8.6865
  23   2.0000      -0.236862        -6.4453
  24   0.0000       0.042399         1.1537
  25   0.0000       0.070062         1.9065
  26   0.0000       0.077960         2.1214
  27   0.0000       0.081803         2.2260
  28   0.0000       0.101334         2.7574

MULLIKEN ATOMIC CHARGES
-----------------------
   0 C :    0.415438
   1 N :   -0.234360
   2 C :    0.358874
   3 C :    0.468603
   4 N :    0.117579
   5 H :   -0.106999
   6 H :    0.010656
   7 H :   -0.317703
   8 H :   -0.197938
   9 H :   -0.466640
  10 C :    0.880311
  11 H :   -0.338636
  12 H :   -0.179815
  13 H :   -0.168710
  14 H :   -0.130954
  15 H :   -0.109708
Sum of atomic charges:    0.0000000

LOEWDIN ATOMIC CHARGES
----------------------
   0 C :    0.013165
   1 N :   -0.006873
   2 C :   -0.248485
   3 C :    0.160007
   4 N :    0.189418
   5 H :   -0.015422
   6 H :    0.000091
   7 H :    0.010960
   8 H :   -0.104524
   9 H :   -0.093233
  10 C :    0.135727
  11 H :    0.016535
  12 H :    0.006396
  13 H :   -0.020893
  14 H :   -0.023938
  15 H :   -0.018929

  Mayer bond orders larger than 0.100000
B(  0-C ,  1-N ) :   0.8943 B(  0-C , 10-C ) :   1.2297 B(  0-C , 11-H ) :   0.8315
B(  0-C , 12-H ) :   0.8382 B(  0-C , 13-H ) :   0.2573 B(  0-C , 14-H ) :   0.2227
B(  0-C , 15-H ) :   0.2150 B(  1-N ,  2-C ) :   1.0444 B(  1-N ,  3-C ) :   0.2532
B(  1-N ,  4-N ) :   0.1081 B(  1-N ,  7-H ) :   1.1295 B(  1-N , 11-H ) :   0.1889
B(  1-N , 12-H ) :   0.1250 B(  2-C ,  3-C ) :   1.7494 B(  2-C ,  4-N ) :   0.9863
B(  2-C ,  7-H ) :  -0.1435 B(  2-C ,  8-H ) :   0.3018 B(  2-C ,  9-H ) :   0.1352
B(  3-C ,  4-N ) :   0.2151 B(  3-C ,  8-H ) :   0.4888 B(  3-C ,  9-H ) :   0.8297
B(  4-N ,  5-H ) :   0.9596 B(  4-N ,  6-H ) :   0.9672 B(  8-H ,  9-H ) :   0.2098
B( 10-C , 13-H ) :   0.7762 B( 10-C , 14-H ) :   0.7754 B( 10-C , 15-H ) :   0.7706

FINAL SINGLE POINT ENERGY      -267.579678616725

DIPOLE MOMENT
-------------
                                X             Y             Z
Electronic contribution:      1.48807      -1.24985      -3.83338
Nuclear contribution   :     -0.86957       2.18853       4.41892
                        -----------------------------------------
Total Dipole Moment    :      0.61850       0.93868       0.58554
                        -----------------------------------------
Magnitude (a.u.)       :      1.26749
Magnitude (Debye)      :      3.22170

Rotational constants in cm-1:     0.214718     0.075736     0.068547
Rotational constants in MHz :  6437.075121  2270.519635  2054.974198

                             ****ORCA TERMINATED NORMALLY****
TOTAL RUN TIME: 0 days 0 hours 0 minutes 42 seconds 554 msec
