                         Program Version 5.0.0 -  RELEASE  -
|  1> !CAM-B3LYP RIJCOSX def2-SVPD def2/J TightSCF
|  2> *xyz 0 1
|  3> C          2.23447       -2.98975       -2.39762
|  4> N          2.75680       -2.94555       -3.76503
|  5> C          1.98721       -2.59045       -4.81898
|  6> N          0.74322       -3.01749       -4.91352
|  7> C          2.49964       -1.84860       -5.80324
|  8> H          3.30978       -1.29282       -5.55895
|  9> H          1.80103       -1.30430       -6.28913
| 10> H          3.71612       -2.62880       -3.82953
| 11> H          0.39583       -3.62775       -4.18502
| 12> H          0.03920       -2.45438       -5.37137
| 13> C          2.19120       -1.61950       -1.71549
| 14> H          2.87278       -3.66637       -1.82801
| 15> H          1.24619       -3.44744       -2.40784
| 16> H          1.56387       -0.96046       -2.27853
| 17> H          3.18033       -1.21449       -1.66568
| 18> H          1.79916       -1.72608       -0.72562
| 19> *
| 20>
| 21> %MaxCore 64000
| 22>
| 23> %pal nprocs 4
| 24> end
| 25>
| 26> %scf
| 27>   MaxIter 150
| 28> end
| 29>
| 30>
| 31>                          ****END OF INPUT****

CARTESIAN COORDINATES (ANGSTROEM)
---------------------------------
  C      2.234470   -2.989750   -2.397620
  N      2.756800   -2.945550   -3.765030
  C      1.987210   -2.590450   -4.818980
  N      0.743220   -3.017490   -4.913520
  C      2.499640   -1.848600   -5.803240
  H      3.309780   -1.292820   -5.558950
  H      1.801030   -1.304300   -6.289130
  H      3.716120   -2.628800   -3.829530
  H      0.395830   -3.627750   -4.185020
  H      0.039200   -2.454380   -5.371370
  C      2.191200   -1.619500   -1.715490
  H      2.872780   -3.666370   -1.828010
  H      1.246190   -3.447440   -2.407840
  H      1.563870   -0.960460   -2.278530
  H      3.180330   -1.214490   -1.665680
  H      1.799160   -1.726080   -0.725620

 Total Charge           Charge          ....    0
 Multiplicity           Mult            ....    1
 Number of Electrons    NEL             ....   48
 Basis Dimension        Dim             ....  200

ORBITAL ENERGIES
----------------

  NO   OCC          E(Eh)            E(eV)
   0   2.0000     -14.410042      -392.1172
   1   2.0000     -14.406178      -392.0120
   2   2.0000     -10.311725      -280.5963
   3   2.0000     -10.300778      -280.2984
   4   2.0000     -10.253199      -279.0037
   5   2.0000     -10.172368      -276.8042
   6   2.0000      -1.047551       -28.5053
   7   2.0000      -0.963660       -26.2225
   8   2.0000      -0.845238       -23.0001
   9   2.0000      -0.784116       -21.3369
  10   2.0000      -0.704426       -19.1684
  11   2.0000      -0.675576       -18.3834
  12   2.0000      -0.613727       -16.7004
  13   2.0000      -0.563601       -15.3364
  14   2.0000      -0.562113       -15.2959
  15   2.0000      -0.509281       -13.8582
  16   2.0000      -0.499022       -13.5791
  17   2.0000      -0.472690       -12.8625
  18   2.0000      -0.446203       -12.1418
  19   2.0000      -0.435436       -11.8488
  20   2.0000      -0.433353       -11.7921
  21   2.0000      -0.422719       -11.5028
  22   2.0000      -0.321667        -8.7530
  23   2.0000      -0.231792        -6.3074
  24   0.0000       0.040980         1.1151
  25   0.0000       0.067729         1.8430
  26   0.0000       0.075392         2.0515
  27   0.0000       0.080438         2.1888
  28   0.0000       0.100160         2.7255

MULLIKEN ATOMIC CHARGES
-----------------------
   0 C :    0.461685
   1 N :   -0.372248
   2 C :    0.269287
   3 N :    0.297848
   4 C :    0.617137
   5 H :   -0.228180
   6 H :   -0.488321
   7 H :   -0.196101
   8 H :   -0.150131
   9 H :   -0.115347
  10 C :    0.859751
  11 H :   -0.342486
  12 H :   -0.228172
  13 H :   -0.180396
  14 H :   -0.127718
  15 H :   -0.076609
Sum of atomic charges:    0.0000000

LOEWDIN ATOMIC CHARGES
----------------------
   0 C :    0.006505
   1 N :   -0.003992
   2 C :   -0.244158
   3 N :    0.200863
   4 C :    0.141219
   5 H :   -0.106259
   6 H :   -0.106891
   7 H :    0.024495
   8 H :   -0.019689
   9 H :    0.012609
  10 C :    0.136899
  11 H :    0.015672
  12 H :    0.000166
  13 H :   -0.019316
  14 H :   -0.018946
  15 H :   -0.019180

  Mayer bond orders larger than 0.100000
B(  0-C ,  1-N ) :   0.9127 B(  0-C ,  7-H ) :  -0.1016 B(  0-C , 10-C ) :   1.2380
B(  0-C , 11-H ) :   0.8259 B(  0-C , 12-H ) :   0.8287 B(  0-C , 13-H ) :   0.2407
B(  0-C , 14-H ) :   0.2279 B(  0-C , 15-H ) :   0.2036 B(  1-N ,  2-C ) :   1.0310
B(  1-N ,  4-C ) :   0.2037 B(  1-N ,  7-H ) :   1.1595 B(  1-N , 11-H ) :   0.2095
B(  1-N , 12-H ) :   0.1394 B(  2-C ,  3-N ) :   1.1019 B(  2-C ,  4-C ) :   1.9059
B(  2-C ,  5-H ) :   0.2463 B(  2-C ,  6-H ) :   0.2647 B(  2-C ,  7-H ) :  -0.1384
B(  3-N ,  4-C ) :   0.2129 B(  3-N ,  8-H ) :   0.9920 B(  3-N ,  9-H ) :   1.1439
B(  4-C ,  5-H ) :   0.6767 B(  4-C ,  6-H ) :   0.6423 B(  5-H ,  6-H ) :   0.2902
B(  8-H ,  9-H ) :  -0.1598 B( 10-C , 13-H ) :   0.7891 B( 10-C , 14-H ) :   0.7618
B( 10-C , 15-H ) :   0.7639

FINAL SINGLE POINT ENERGY      -267.574724149308

DIPOLE MOMENT
-------------
                                X             Y             Z
Electronic contribution:     -0.12335      -2.38754      -2.94905
Nuclear contribution   :     -0.49695       2.43650       4.23017
                        -----------------------------------------
Total Dipole Moment    :     -0.62030       0.04896       1.28112
                        -----------------------------------------
Magnitude (a.u.)       :      1.42423
Magnitude (Debye)      :      3.62010

Rotational constants in cm-1:     0.211102     0.077011     0.069221
Rotational constants in MHz :  6328.667765  2308.731604  2075.192956

                             ****ORCA TERMINATED NORMALLY****
TOTAL RUN TIME: 0 days 0 hours 0 minutes 44 seconds 155 msec
