                         Program Version 5.0.0 -  RELEASE  -
|  1> !CAM-B3LYP RIJCOSX def2-SVPD def2/J TightSCF xyzfile
|  2>
|  3> *xyzfile 0 1 D5.xyz
|  4>
|  5> %MaxCore 64000
|  6>
|  7> %pal nprocs 4
|  8> end
|  9>
| 10> %scf
| 11>   MaxIter 150
| 12> end
| 13>
| 14>
| 15>                          ****END OF INPUT****

CARTESIAN COORDINATES (ANGSTROEM)
---------------------------------
  C      2.234473   -2.989754   -2.397622
  N      2.756799   -2.945553   -3.765029
  C     -1.104325    0.251374   -2.860056
  C     -0.711893    0.842517   -4.218344
  H      0.154626    1.499800   -4.130909
  H     -1.538134    1.459222   -4.582671
  C     -0.397624   -0.205875   -5.288018
  C      1.987208   -2.590451   -4.818975
  C      0.743221   -3.017493   -4.913524
  N      2.499636   -1.848598   -5.803241
  H      3.309780   -1.292818   -5.558947
  H      1.801025   -1.304298   -6.289129
  H      3.716116   -2.628797   -3.829533
  H      0.395828   -3.627747   -4.185024
  H      0.039201   -2.454383   -5.371367
  O      0.617165   -0.005348   -5.998273
  F     -1.133173   -1.221380   -5.341465
  C      2.191199   -1.619503   -1.715492
  H      2.872783   -3.666368   -1.828014
  H      1.246188   -3.447444   -2.407842
  C      1.298729   -0.554314   -2.359773
  H      1.872917   -1.787955   -0.681310
  H      3.216809   -1.238432   -1.654428
  C     -0.196255   -0.863365   -2.325763
  H      1.612531   -0.371346   -3.393065
  H      1.480944    0.388638   -1.834444
  H     -0.404105   -1.761825   -2.909448
  H     -0.490439   -1.087880   -1.294131
  H     -1.143842    1.066711   -2.129680
  H     -2.114401   -0.156834   -2.930323

 Total Charge           Charge          ....    0
 Multiplicity           Mult            ....    1
 Number of Electrons    NEL             ....  102
 Basis Dimension        Dim             ....  402

ORBITAL ENERGIES
----------------

  NO   OCC          E(Eh)            E(eV)
   0   2.0000     -24.856160      -676.3705
   1   2.0000     -19.240807      -523.5690
   2   2.0000     -14.398469      -391.8023
   3   2.0000     -14.378707      -391.2645
   4   2.0000     -10.459862      -284.6273
   5   2.0000     -10.295766      -280.1620
   6   2.0000     -10.295254      -280.1481
   7   2.0000     -10.287551      -279.9385
   8   2.0000     -10.277331      -279.6604
   9   2.0000     -10.260179      -279.1937
  10   2.0000     -10.259901      -279.1861
  11   2.0000     -10.259732      -279.1815
  12   2.0000     -10.162449      -276.5343
  13   2.0000      -1.403996       -38.2047
  14   2.0000      -1.128552       -30.7095
  15   2.0000      -1.031849       -28.0781
  16   2.0000      -0.949668       -25.8418
  17   2.0000      -0.907741       -24.7009
  18   2.0000      -0.863930       -23.5087
  19   2.0000      -0.812281       -22.1033
  20   2.0000      -0.781989       -21.2790
  21   2.0000      -0.764801       -20.8113
  22   2.0000      -0.740539       -20.1511
  23   2.0000      -0.694895       -18.9091
  24   2.0000      -0.663696       -18.0601
  25   2.0000      -0.650145       -17.6913
  26   2.0000      -0.632743       -17.2178
  27   2.0000      -0.616970       -16.7886
  28   2.0000      -0.602290       -16.3892
  29   2.0000      -0.590742       -16.0749
  30   2.0000      -0.560588       -15.2544
  31   2.0000      -0.554855       -15.0984
  32   2.0000      -0.547223       -14.8907
  33   2.0000      -0.523160       -14.2359
  34   2.0000      -0.515285       -14.0216
  35   2.0000      -0.495444       -13.4817
  36   2.0000      -0.486259       -13.2318
  37   2.0000      -0.481215       -13.0945
  38   2.0000      -0.463944       -12.6245
  39   2.0000      -0.459346       -12.4994
  40   2.0000      -0.446454       -12.1486
  41   2.0000      -0.439899       -11.9703
  42   2.0000      -0.427149       -11.6233
  43   2.0000      -0.425804       -11.5867
  44   2.0000      -0.411238       -11.1903
  45   2.0000      -0.397187       -10.8080
  46   2.0000      -0.396100       -10.7784
  47   2.0000      -0.386768       -10.5245
  48   2.0000      -0.372379       -10.1330
  49   2.0000      -0.303823        -8.2674
  50   2.0000      -0.224992        -6.1223
  51   0.0000       0.003861         0.1051
  52   0.0000       0.039014         1.0616
  53   0.0000       0.051946         1.4135
  54   0.0000       0.060076         1.6348
  55   0.0000       0.069437         1.8895

MULLIKEN ATOMIC CHARGES
-----------------------
   0 C :    0.944707
   1 N :   -0.290132
   2 C :    0.709482
   3 C :    0.334465
   4 H :    0.105413
   5 H :   -0.328754
   6 C :    0.504059
   7 C :    0.344384
   8 C :    0.931130
   9 N :    0.228547
  10 H :    0.029573
  11 H :   -0.200370
  12 H :   -0.223721
  13 H :   -0.134567
  14 H :   -0.904223
  15 O :   -0.443483
  16 F :   -0.495654
  17 C :    0.517853
  18 H :   -0.454890
  19 H :   -0.074048
  20 C :    0.166335
  21 H :   -0.055455
  22 H :   -0.156257
  23 C :    0.099246
  24 H :   -0.287241
  25 H :   -0.229220
  26 H :   -0.256956
  27 H :   -0.188015
  28 H :   -0.168922
  29 H :   -0.023287
Sum of atomic charges:    0.0000000

LOEWDIN ATOMIC CHARGES
----------------------
   0 C :    0.055667
   1 N :    0.005212
   2 C :   -0.018054
   3 C :    0.062700
   4 H :    0.035540
   5 H :    0.040092
   6 C :    0.027318
   7 C :   -0.230463
   8 C :    0.175639
   9 N :    0.213394
  10 H :   -0.008070
  11 H :   -0.082491
  12 H :    0.012970
  13 H :   -0.090568
  14 H :   -0.140742
  15 O :   -0.127023
  16 F :   -0.034577
  17 C :   -0.016717
  18 H :    0.018090
  19 H :    0.004981
  20 C :   -0.023384
  21 H :    0.021437
  22 H :    0.018762
  23 C :   -0.023548
  24 H :    0.004003
  25 H :    0.025619
  26 H :   -0.005473
  27 H :    0.028489
  28 H :    0.026463
  29 H :    0.024733

  Mayer bond orders larger than 0.100000
B(  0-C ,  1-N ) :   0.9412 B(  0-C ,  8-C ) :   0.1004 B(  0-C , 17-C ) :   1.0669
B(  0-C , 18-H ) :   0.7200 B(  0-C , 19-H ) :   0.7337 B(  0-C , 21-H ) :   0.1746
B(  0-C , 22-H ) :   0.1329 B(  1-N ,  7-C ) :   1.0347 B(  1-N ,  8-C ) :   0.3099
B(  1-N ,  9-N ) :   0.1411 B(  1-N , 12-H ) :   1.0503 B(  1-N , 18-H ) :   0.2151
B(  1-N , 19-H ) :   0.1380 B(  2-C ,  3-C ) :   1.1251 B(  2-C ,  5-H ) :   0.1797
B(  2-C , 23-C ) :   1.2276 B(  2-C , 28-H ) :   0.7349 B(  2-C , 29-H ) :   0.5963
B(  3-C ,  4-H ) :   0.8196 B(  3-C ,  5-H ) :   0.6971 B(  3-C ,  6-C ) :   1.1846
B(  3-C , 23-C ) :   0.1095 B(  3-C , 28-H ) :   0.1651 B(  3-C , 29-H ) :   0.1040
B(  4-H ,  5-H ) :  -0.1083 B(  4-H ,  6-C ) :   0.2325 B(  5-H ,  6-C ) :   0.2298
B(  6-C , 14-H ) :   0.1469 B(  6-C , 15-O ) :   1.6971 B(  6-C , 16-F ) :   0.6648
B(  7-C ,  8-C ) :   1.8011 B(  7-C ,  9-N ) :   0.8463 B(  7-C , 13-H ) :   0.3776
B(  7-C , 14-H ) :   0.1798 B(  8-C ,  9-N ) :   0.2285 B(  8-C , 13-H ) :   0.2715
B(  9-N , 10-H ) :   0.8358 B(  9-N , 11-H ) :   0.9172 B( 11-H , 15-O ) :   0.1137
B( 13-H , 14-H ) :  -0.1031 B( 14-H , 16-F ) :   0.2393 B( 15-O , 16-F ) :   0.1054
B( 17-C , 18-H ) :   0.1168 B( 17-C , 19-H ) :   0.1465 B( 17-C , 20-C ) :   1.2020
B( 17-C , 21-H ) :   0.7517 B( 17-C , 22-H ) :   0.6672 B( 17-C , 24-H ) :   0.1246
B( 18-H , 19-H ) :  -0.1676 B( 20-C , 21-H ) :   0.1882 B( 20-C , 22-H ) :   0.2804
B( 20-C , 23-C ) :   1.2439 B( 20-C , 24-H ) :   0.8616 B( 20-C , 25-H ) :   0.7673
B( 20-C , 26-H ) :   0.1730 B( 20-C , 27-H ) :   0.2560 B( 21-H , 22-H ) :  -0.1278
B( 23-C , 24-H ) :   0.1811 B( 23-C , 25-H ) :   0.2300 B( 23-C , 26-H ) :   0.8794
B( 23-C , 27-H ) :   0.7015 B( 23-C , 28-H ) :   0.1874 B( 23-C , 29-H ) :   0.2853
B( 28-H , 29-H ) :  -0.1479

FINAL SINGLE POINT ENERGY      -636.975868758676

DIPOLE MOMENT
-------------
                                X             Y             Z
Electronic contribution:     -4.38814       0.22589     -12.37002
Nuclear contribution   :      4.07548       1.14852      13.79455
                        -----------------------------------------
Total Dipole Moment    :     -0.31266       1.37441       1.42452
                        -----------------------------------------
Magnitude (a.u.)       :      2.00401
Magnitude (Debye)      :      5.09378

Rotational constants in cm-1:     0.033274     0.023559     0.016968
Rotational constants in MHz :   997.539108   706.293545   508.690532

                             ****ORCA TERMINATED NORMALLY****
TOTAL RUN TIME: 0 days 0 hours 4 minutes 7 seconds 440 msec
