                         Program Version 5.0.0 -  RELEASE  -
|  1> !TPSS D3BJ RIJCOSX def2-SVPD def2/J TightSCF
|  2> *xyz -1 1
|  3> C         -1.10433        0.25137       -2.86006
|  4> C         -0.71189        0.84252       -4.21834
|  5> H          0.15463        1.49980       -4.13091
|  6> H         -1.53813        1.45922       -4.58267
|  7> C         -0.39762       -0.20587       -5.28802
|  8> O          0.61717       -0.00535       -5.99827
|  9> O         -1.13317       -1.22138       -5.34147
| 10> H         -1.95489       -0.38644       -2.98099
| 11> H         -1.34603        1.04362       -2.18269
| 12> H         -0.28606       -0.31581       -2.46809
| 13> *
| 14>
| 15> %MaxCore 64000
| 16>
| 17> %pal nprocs 4
| 18> end
| 19>
| 20> %scf
| 21>   MaxIter 150
| 22> end
| 23>
| 24>
| 25>                          ****END OF INPUT****

CARTESIAN COORDINATES (ANGSTROEM)
---------------------------------
  C     -1.104330    0.251370   -2.860060
  C     -0.711890    0.842520   -4.218340
  H      0.154630    1.499800   -4.130910
  H     -1.538130    1.459220   -4.582670
  C     -0.397620   -0.205870   -5.288020
  O      0.617170   -0.005350   -5.998270
  O     -1.133170   -1.221380   -5.341470
  H     -1.954890   -0.386440   -2.980990
  H     -1.346030    1.043620   -2.182690
  H     -0.286060   -0.315810   -2.468090

 Total Charge           Charge          ....   -1
 Multiplicity           Mult            ....    1
 Number of Electrons    NEL             ....   40
 Basis Dimension        Dim             ....  146

ORBITAL ENERGIES
----------------

  NO   OCC          E(Eh)            E(eV)
   0   2.0000     -18.638514      -507.1797
   1   2.0000     -18.637491      -507.1519
   2   2.0000      -9.875467      -268.7251
   3   2.0000      -9.838079      -267.7077
   4   2.0000      -9.825769      -267.3728
   5   2.0000      -0.740485       -20.1496
   6   2.0000      -0.651272       -17.7220
   7   2.0000      -0.540599       -14.7105
   8   2.0000      -0.417525       -11.3614
   9   2.0000      -0.270474        -7.3600
  10   2.0000      -0.250580        -6.8186
  11   2.0000      -0.212922        -5.7939
  12   2.0000      -0.185512        -5.0480
  13   2.0000      -0.174431        -4.7465
  14   2.0000      -0.162671        -4.4265
  15   2.0000      -0.134906        -3.6710
  16   2.0000      -0.122266        -3.3270
  17   2.0000      -0.013556        -0.3689
  18   2.0000      -0.000456        -0.0124
  19   2.0000       0.015271         0.4155
  20   0.0000       0.146055         3.9743
  21   0.0000       0.180576         4.9137
  22   0.0000       0.193221         5.2578
  23   0.0000       0.202226         5.5029
  24   0.0000       0.224349         6.1048

MULLIKEN ATOMIC CHARGES
-----------------------
   0 C :    0.520481
   1 C :   -0.366369
   2 H :   -0.037807
   3 H :    0.002250
   4 C :    0.460801
   5 O :   -0.701276
   6 O :   -0.728526
   7 H :   -0.019013
   8 H :   -0.073794
   9 H :   -0.056748
Sum of atomic charges:   -1.0000000

LOEWDIN ATOMIC CHARGES
----------------------
   0 C :    0.103545
   1 C :   -0.033600
   2 H :   -0.008144
   3 H :    0.002797
   4 C :   -0.304489
   5 O :   -0.328720
   6 O :   -0.316720
   7 H :   -0.035212
   8 H :   -0.050517
   9 H :   -0.028940

  Mayer bond orders larger than 0.100000
B(  0-C ,  1-C ) :   1.2676 B(  0-C ,  7-H ) :   0.8379 B(  0-C ,  8-H ) :   0.8427
B(  0-C ,  9-H ) :   0.8650 B(  1-C ,  2-H ) :   0.9780 B(  1-C ,  3-H ) :   0.9018
B(  1-C ,  4-C ) :   1.0614 B(  1-C ,  7-H ) :   0.2039 B(  1-C ,  8-H ) :   0.1849
B(  1-C ,  9-H ) :   0.1642 B(  2-H ,  4-C ) :   0.1872 B(  4-C ,  5-O ) :   1.4310
B(  4-C ,  6-O ) :   1.4569

Dispersion correction           -0.008035192
FINAL SINGLE POINT ENERGY      -267.703800381055

DIPOLE MOMENT
-------------
                                X             Y             Z
Electronic contribution:      1.55996      -2.40670      -5.26541
Nuclear contribution   :     -2.09607       3.44215       6.87744
                        -----------------------------------------
Total Dipole Moment    :     -0.53611       1.03545       1.61203
                        -----------------------------------------
Magnitude (a.u.)       :      1.98952
Magnitude (Debye)      :      5.05697

Rotational constants in cm-1:     0.324698     0.133739     0.103466
Rotational constants in MHz :  9734.203431  4009.406827  3101.846422

                             ****ORCA TERMINATED NORMALLY****
TOTAL RUN TIME: 0 days 0 hours 0 minutes 10 seconds 964 msec
