                         Program Version 5.0.0 -  RELEASE  -
|  1> !TPSS D3BJ RIJCOSX def2-SVPD def2/J TightSCF
|  2> *xyz 1 1
|  3> C          2.23447       -2.98975       -2.39762
|  4> N          2.75680       -2.94555       -3.76503
|  5> C          1.98721       -2.59045       -4.81898
|  6> N          0.74322       -3.01749       -4.91352
|  7> N          2.49964       -1.84860       -5.80324
|  8> H          3.30978       -1.29282       -5.55895
|  9> H          1.80103       -1.30430       -6.28913
| 10> H          3.71612       -2.62880       -3.82953
| 11> H          0.39583       -3.62775       -4.18502
| 12> H          0.03920       -2.45438       -5.37137
| 13> C          2.19120       -1.61950       -1.71549
| 14> H          2.87278       -3.66637       -1.82801
| 15> H          1.24619       -3.44744       -2.40784
| 16> H          1.56387       -0.96046       -2.27853
| 17> H          3.18033       -1.21449       -1.66568
| 18> H          1.79916       -1.72608       -0.72562
| 19> *
| 20>
| 21> %MaxCore 64000
| 22>
| 23> %pal nprocs 4
| 24> end
| 25>
| 26> %scf
| 27>   MaxIter 150
| 28> end
| 29>
| 30>
| 31>                          ****END OF INPUT****

CARTESIAN COORDINATES (ANGSTROEM)
---------------------------------
  C      2.234470   -2.989750   -2.397620
  N      2.756800   -2.945550   -3.765030
  C      1.987210   -2.590450   -4.818980
  N      0.743220   -3.017490   -4.913520
  N      2.499640   -1.848600   -5.803240
  H      3.309780   -1.292820   -5.558950
  H      1.801030   -1.304300   -6.289130
  H      3.716120   -2.628800   -3.829530
  H      0.395830   -3.627750   -4.185020
  H      0.039200   -2.454380   -5.371370
  C      2.191200   -1.619500   -1.715490
  H      2.872780   -3.666370   -1.828010
  H      1.246190   -3.447440   -2.407840
  H      1.563870   -0.960460   -2.278530
  H      3.180330   -1.214490   -1.665680
  H      1.799160   -1.726080   -0.725620

 Total Charge           Charge          ....    1
 Multiplicity           Mult            ....    1
 Number of Electrons    NEL             ....   48
 Basis Dimension        Dim             ....  200

ORBITAL ENERGIES
----------------

  NO   OCC          E(Eh)            E(eV)
   0   2.0000     -14.348525      -390.4432
   1   2.0000     -14.344455      -390.3325
   2   2.0000     -14.341136      -390.2421
   3   2.0000     -10.329109      -281.0694
   4   2.0000     -10.211960      -277.8815
   5   2.0000     -10.146070      -276.0886
   6   2.0000      -1.145355       -31.1667
   7   2.0000      -1.037933       -28.2436
   8   2.0000      -1.034264       -28.1437
   9   2.0000      -0.869276       -23.6542
  10   2.0000      -0.790846       -21.5200
  11   2.0000      -0.754417       -20.5287
  12   2.0000      -0.739032       -20.1101
  13   2.0000      -0.695715       -18.9314
  14   2.0000      -0.659075       -17.9344
  15   2.0000      -0.644165       -17.5286
  16   2.0000      -0.609018       -16.5722
  17   2.0000      -0.579833       -15.7780
  18   2.0000      -0.564562       -15.3625
  19   2.0000      -0.530615       -14.4388
  20   2.0000      -0.500669       -13.6239
  21   2.0000      -0.483624       -13.1601
  22   2.0000      -0.451368       -12.2824
  23   2.0000      -0.417440       -11.3591
  24   0.0000      -0.223142        -6.0720
  25   0.0000      -0.169727        -4.6185
  26   0.0000      -0.138842        -3.7781
  27   0.0000      -0.125466        -3.4141
  28   0.0000      -0.108061        -2.9405

MULLIKEN ATOMIC CHARGES
-----------------------
   0 C :    0.329676
   1 N :   -0.447171
   2 C :    1.088321
   3 N :    0.009661
   4 N :   -0.049048
   5 H :    0.009468
   6 H :    0.046558
   7 H :   -0.178633
   8 H :    0.007092
   9 H :   -0.022544
  10 C :    0.610030
  11 H :   -0.212017
  12 H :   -0.104944
  13 H :   -0.096355
  14 H :   -0.008863
  15 H :    0.018769
Sum of atomic charges:    1.0000000

LOEWDIN ATOMIC CHARGES
----------------------
   0 C :    0.049140
   1 N :    0.052825
   2 C :   -0.049028
   3 N :    0.286606
   4 N :    0.274299
   5 H :    0.034075
   6 H :    0.033992
   7 H :    0.049019
   8 H :    0.025116
   9 H :    0.046563
  10 C :    0.174415
  11 H :    0.036640
  12 H :    0.012427
  13 H :   -0.017939
  14 H :   -0.009698
  15 H :    0.001547

  Mayer bond orders larger than 0.100000
B(  0-C ,  1-N ) :   0.8730 B(  0-C , 10-C ) :   1.2761 B(  0-C , 11-H ) :   0.8918
B(  0-C , 12-H ) :   0.8745 B(  0-C , 13-H ) :   0.2127 B(  0-C , 14-H ) :   0.1767
B(  0-C , 15-H ) :   0.1775 B(  1-N ,  2-C ) :   1.0019 B(  1-N ,  3-N ) :   0.1327
B(  1-N ,  4-N ) :   0.1712 B(  1-N ,  7-H ) :   1.2298 B(  1-N , 11-H ) :   0.1922
B(  1-N , 12-H ) :   0.1211 B(  2-C ,  3-N ) :   0.9895 B(  2-C ,  4-N ) :   0.9849
B(  2-C ,  7-H ) :  -0.1908 B(  2-C ,  9-H ) :  -0.1068 B(  3-N ,  4-N ) :   0.1696
B(  3-N ,  8-H ) :   0.9768 B(  3-N ,  9-H ) :   1.2129 B(  4-N ,  5-H ) :   1.0097
B(  4-N ,  6-H ) :   0.9980 B(  8-H ,  9-H ) :  -0.1529 B( 10-C , 13-H ) :   0.8501
B( 10-C , 14-H ) :   0.8295 B( 10-C , 15-H ) :   0.8082

Dispersion correction           -0.015285904
FINAL SINGLE POINT ENERGY      -284.256186616206

DIPOLE MOMENT
-------------
                                X             Y             Z
Electronic contribution:      0.19615      -1.70288      -5.18857
Nuclear contribution   :     -0.59121       2.30298       4.63196
                        -----------------------------------------
Total Dipole Moment    :     -0.39506       0.60010      -0.55661
                        -----------------------------------------
Magnitude (a.u.)       :      0.90885
Magnitude (Debye)      :      2.31011

Rotational constants in cm-1:     0.205874     0.074757     0.066901
Rotational constants in MHz :  6171.937773  2241.151057  2005.629823

                             ****ORCA TERMINATED NORMALLY****
TOTAL RUN TIME: 0 days 0 hours 0 minutes 17 seconds 222 msec
