                         Program Version 5.0.0 -  RELEASE  -
|  1> !TPSS D3BJ RIJCOSX def2-SVPD def2/J TightSCF
|  2> *xyz 0 1
|  3> C         -1.10433        0.25137       -2.86006
|  4> C         -0.71189        0.84252       -4.21834
|  5> H          0.15463        1.49980       -4.13091
|  6> H         -1.53813        1.45922       -4.58267
|  7> C         -0.39762       -0.20587       -5.28802
|  8> F          0.61717       -0.00535       -5.99827
|  9> O         -1.13317       -1.22138       -5.34147
| 10> H         -1.95489       -0.38644       -2.98099
| 11> H         -1.34603        1.04362       -2.18269
| 12> H         -0.28606       -0.31581       -2.46809
| 13> *
| 14>
| 15> %MaxCore 64000
| 16>
| 17> %pal nprocs 4
| 18> end
| 19>
| 20> %scf
| 21>   MaxIter 150
| 22> end
| 23>
| 24>
| 25>                          ****END OF INPUT****

CARTESIAN COORDINATES (ANGSTROEM)
---------------------------------
  C     -1.104330    0.251370   -2.860060
  C     -0.711890    0.842520   -4.218340
  H      0.154630    1.499800   -4.130910
  H     -1.538130    1.459220   -4.582670
  C     -0.397620   -0.205870   -5.288020
  F      0.617170   -0.005350   -5.998270
  O     -1.133170   -1.221380   -5.341470
  H     -1.954890   -0.386440   -2.980990
  H     -1.346030    1.043620   -2.182690
  H     -0.286060   -0.315810   -2.468090

 Total Charge           Charge          ....    0
 Multiplicity           Mult            ....    1
 Number of Electrons    NEL             ....   40
 Basis Dimension        Dim             ....  146

ORBITAL ENERGIES
----------------

  NO   OCC          E(Eh)            E(eV)
   0   2.0000     -24.497254      -666.6042
   1   2.0000     -18.907237      -514.4921
   2   2.0000     -10.171334      -276.7761
   3   2.0000     -10.034478      -273.0520
   4   2.0000     -10.006997      -272.3042
   5   2.0000      -1.226422       -33.3726
   6   2.0000      -0.955625       -26.0039
   7   2.0000      -0.736425       -20.0392
   8   2.0000      -0.632231       -17.2039
   9   2.0000      -0.581906       -15.8345
  10   2.0000      -0.497092       -13.5266
  11   2.0000      -0.483291       -13.1510
  12   2.0000      -0.456077       -12.4105
  13   2.0000      -0.424346       -11.5470
  14   2.0000      -0.390341       -10.6217
  15   2.0000      -0.357638        -9.7318
  16   2.0000      -0.339986        -9.2515
  17   2.0000      -0.336914        -9.1679
  18   2.0000      -0.313564        -8.5325
  19   2.0000      -0.251184        -6.8351
  20   0.0000      -0.065213        -1.7745
  21   0.0000       0.003413         0.0929
  22   0.0000       0.034258         0.9322
  23   0.0000       0.047367         1.2889
  24   0.0000       0.060909         1.6574

MULLIKEN ATOMIC CHARGES
-----------------------
   0 C :    0.540756
   1 C :   -0.421445
   2 H :    0.001157
   3 H :    0.074356
   4 C :    0.782654
   5 F :   -0.369023
   6 O :   -0.530963
   7 H :   -0.005401
   8 H :   -0.038715
   9 H :   -0.033376
Sum of atomic charges:   -0.0000000

LOEWDIN ATOMIC CHARGES
----------------------
   0 C :    0.150115
   1 C :    0.010218
   2 H :    0.017003
   3 H :    0.036024
   4 C :   -0.012191
   5 F :   -0.030066
   6 O :   -0.127769
   7 H :   -0.014352
   8 H :   -0.016924
   9 H :   -0.012057

  Mayer bond orders larger than 0.100000
B(  0-C ,  1-C ) :   1.3296 B(  0-C ,  7-H ) :   0.8353 B(  0-C ,  8-H ) :   0.8360
B(  0-C ,  9-H ) :   0.8605 B(  1-C ,  2-H ) :   0.9575 B(  1-C ,  3-H ) :   0.8774
B(  1-C ,  4-C ) :   1.0901 B(  1-C ,  7-H ) :   0.1826 B(  1-C ,  8-H ) :   0.1717
B(  1-C ,  9-H ) :   0.1572 B(  2-H ,  4-C ) :   0.1077 B(  4-C ,  5-F ) :   0.7300
B(  4-C ,  6-O ) :   1.7560

Dispersion correction           -0.007629259
FINAL SINGLE POINT ENERGY      -292.239383477055

DIPOLE MOMENT
-------------
                                X             Y             Z
Electronic contribution:      3.59790      -2.38670      -7.72128
Nuclear contribution   :     -3.36368       3.36392       8.24820
                        -----------------------------------------
Total Dipole Moment    :      0.23422       0.97722       0.52692
                        -----------------------------------------
Magnitude (a.u.)       :      1.13466
Magnitude (Debye)      :      2.88409

Rotational constants in cm-1:     0.315013     0.126712     0.098430
Rotational constants in MHz :  9443.861322  3798.734540  2950.846388

                             ****ORCA TERMINATED NORMALLY****
TOTAL RUN TIME: 0 days 0 hours 0 minutes 10 seconds 427 msec
