                         Program Version 5.0.0 -  RELEASE  -
|  1> !TPSS D3BJ RIJCOSX def2-SVPD def2/J TightSCF
|  2> *xyz 0 1
|  3> C          2.23447       -2.98975       -2.39762
|  4> C          2.75680       -2.94555       -3.76503
|  5> C          1.98721       -2.59045       -4.81898
|  6> N          0.74322       -3.01749       -4.91352
|  7> N          2.49964       -1.84860       -5.80324
|  8> H          3.30978       -1.29282       -5.55895
|  9> H          1.80103       -1.30430       -6.28913
| 10> H          3.71612       -2.62880       -3.82953
| 11> H          0.39583       -3.62775       -4.18502
| 12> H          0.03920       -2.45438       -5.37137
| 13> C          2.19120       -1.61950       -1.71549
| 14> H          2.87278       -3.66637       -1.82801
| 15> H          1.24619       -3.44744       -2.40784
| 16> H          1.56387       -0.96046       -2.27853
| 17> H          3.18033       -1.21449       -1.66568
| 18> H          1.79916       -1.72608       -0.72562
| 19> *
| 20>
| 21> %MaxCore 64000
| 22>
| 23> %pal nprocs 4
| 24> end
| 25>
| 26> %scf
| 27>   MaxIter 150
| 28> end
| 29>
| 30>
| 31>                          ****END OF INPUT****

CARTESIAN COORDINATES (ANGSTROEM)
---------------------------------
  C      2.234470   -2.989750   -2.397620
  C      2.756800   -2.945550   -3.765030
  C      1.987210   -2.590450   -4.818980
  N      0.743220   -3.017490   -4.913520
  N      2.499640   -1.848600   -5.803240
  H      3.309780   -1.292820   -5.558950
  H      1.801030   -1.304300   -6.289130
  H      3.716120   -2.628800   -3.829530
  H      0.395830   -3.627750   -4.185020
  H      0.039200   -2.454380   -5.371370
  C      2.191200   -1.619500   -1.715490
  H      2.872780   -3.666370   -1.828010
  H      1.246190   -3.447440   -2.407840
  H      1.563870   -0.960460   -2.278530
  H      3.180330   -1.214490   -1.665680
  H      1.799160   -1.726080   -0.725620

 Total Charge           Charge          ....    0
 Multiplicity           Mult            ....    1
 Number of Electrons    NEL             ....   48
 Basis Dimension        Dim             ....  200

ORBITAL ENERGIES
----------------

  NO   OCC          E(Eh)            E(eV)
   0   2.0000     -14.126151      -384.3921
   1   2.0000     -14.121757      -384.2725
   2   2.0000     -10.041774      -273.2506
   3   2.0000      -9.979717      -271.5619
   4   2.0000      -9.972566      -271.3673
   5   2.0000      -9.926549      -270.1151
   6   2.0000      -0.898004       -24.4359
   7   2.0000      -0.812254       -22.1026
   8   2.0000      -0.709967       -19.3192
   9   2.0000      -0.633173       -17.2295
  10   2.0000      -0.566508       -15.4155
  11   2.0000      -0.530747       -14.4424
  12   2.0000      -0.498512       -13.5652
  13   2.0000      -0.463051       -12.6003
  14   2.0000      -0.429687       -11.6924
  15   2.0000      -0.408848       -11.1253
  16   2.0000      -0.373718       -10.1694
  17   2.0000      -0.353398        -9.6164
  18   2.0000      -0.333941        -9.0870
  19   2.0000      -0.321013        -8.7352
  20   2.0000      -0.292269        -7.9531
  21   2.0000      -0.287275        -7.8172
  22   2.0000      -0.236585        -6.4378
  23   2.0000      -0.132910        -3.6167
  24   0.0000      -0.005357        -0.1458
  25   0.0000       0.021356         0.5811
  26   0.0000       0.033872         0.9217
  27   0.0000       0.035467         0.9651
  28   0.0000       0.055179         1.5015

MULLIKEN ATOMIC CHARGES
-----------------------
   0 C :   -0.243640
   1 C :   -0.236083
   2 C :    0.377405
   3 N :   -0.021855
   4 N :   -0.025988
   5 H :    0.040998
   6 H :   -0.016223
   7 H :   -0.085197
   8 H :    0.004002
   9 H :   -0.114888
  10 C :    0.660204
  11 H :   -0.033834
  12 H :   -0.164309
  13 H :   -0.089395
  14 H :   -0.023948
  15 H :   -0.027249
Sum of atomic charges:   -0.0000000

LOEWDIN ATOMIC CHARGES
----------------------
   0 C :   -0.097589
   1 C :   -0.018161
   2 C :   -0.237114
   3 N :    0.199126
   4 N :    0.191527
   5 H :    0.001391
   6 H :   -0.013846
   7 H :   -0.059697
   8 H :   -0.004592
   9 H :   -0.005232
  10 C :    0.131961
  11 H :    0.005231
  12 H :   -0.012369
  13 H :   -0.027490
  14 H :   -0.023607
  15 H :   -0.029538

  Mayer bond orders larger than 0.100000
B(  0-C ,  1-C ) :   1.2780 B(  0-C ,  2-C ) :   0.1247 B(  0-C ,  7-H ) :   0.3057
B(  0-C , 10-C ) :   1.2503 B(  0-C , 11-H ) :   0.8362 B(  0-C , 12-H ) :   0.8895
B(  0-C , 13-H ) :   0.2217 B(  0-C , 14-H ) :   0.2139 B(  0-C , 15-H ) :   0.2120
B(  1-C ,  2-C ) :   1.6838 B(  1-C ,  3-N ) :   0.1528 B(  1-C ,  4-N ) :   0.2181
B(  1-C ,  7-H ) :   0.6534 B(  1-C , 11-H ) :   0.1940 B(  1-C , 12-H ) :   0.2117
B(  2-C ,  3-N ) :   1.0463 B(  2-C ,  4-N ) :   1.0168 B(  2-C ,  7-H ) :   0.2534
B(  3-N ,  4-N ) :   0.1431 B(  3-N ,  8-H ) :   0.9880 B(  3-N ,  9-H ) :   1.2318
B(  4-N ,  5-H ) :   0.9579 B(  4-N ,  6-H ) :   0.9351 B(  8-H ,  9-H ) :  -0.1330
B( 10-C , 13-H ) :   0.8511 B( 10-C , 14-H ) :   0.8157 B( 10-C , 15-H ) :   0.8006
B( 11-H , 12-H ) :   0.1161

Dispersion correction           -0.015914124
FINAL SINGLE POINT ENERGY      -267.784266166849

DIPOLE MOMENT
-------------
                                X             Y             Z
Electronic contribution:     -0.30051      -1.40490      -5.00749
Nuclear contribution   :     -0.44240       2.20379       4.66256
                        -----------------------------------------
Total Dipole Moment    :     -0.74291       0.79889      -0.34493
                        -----------------------------------------
Magnitude (a.u.)       :      1.14417
Magnitude (Debye)      :      2.90824

Rotational constants in cm-1:     0.209447     0.075194     0.066975
Rotational constants in MHz :  6279.068019  2254.272519  2007.845458

                             ****ORCA TERMINATED NORMALLY****
TOTAL RUN TIME: 0 days 0 hours 0 minutes 17 seconds 470 msec
