                         Program Version 5.0.0 -  RELEASE  -
|  1> !TPSS D3BJ RIJCOSX def2-SVPD def2/J TightSCF
|  2> *xyz 0 1
|  3> C         -1.10433        0.25137       -2.86006
|  4> C         -0.71189        0.84252       -4.21834
|  5> H          0.15463        1.49980       -4.13091
|  6> H         -1.53813        1.45922       -4.58267
|  7> C         -0.39762       -0.20587       -5.28802
|  8> O          0.61717       -0.00535       -5.99827
|  9> F         -1.13317       -1.22138       -5.34147
| 10> H         -1.95489       -0.38644       -2.98099
| 11> H         -1.34603        1.04362       -2.18269
| 12> H         -0.28606       -0.31581       -2.46809
| 13> *
| 14>
| 15> %MaxCore 64000
| 16>
| 17> %pal nprocs 4
| 18> end
| 19>
| 20> %scf
| 21>   MaxIter 150
| 22> end
| 23>
| 24>
| 25>                          ****END OF INPUT****

CARTESIAN COORDINATES (ANGSTROEM)
---------------------------------
  C     -1.104330    0.251370   -2.860060
  C     -0.711890    0.842520   -4.218340
  H      0.154630    1.499800   -4.130910
  H     -1.538130    1.459220   -4.582670
  C     -0.397620   -0.205870   -5.288020
  O      0.617170   -0.005350   -5.998270
  F     -1.133170   -1.221380   -5.341470
  H     -1.954890   -0.386440   -2.980990
  H     -1.346030    1.043620   -2.182690
  H     -0.286060   -0.315810   -2.468090

 Total Charge           Charge          ....    0
 Multiplicity           Mult            ....    1
 Number of Electrons    NEL             ....   40
 Basis Dimension        Dim             ....  146

ORBITAL ENERGIES
----------------

  NO   OCC          E(Eh)            E(eV)
   0   2.0000     -24.498027      -666.6252
   1   2.0000     -18.906087      -514.4608
   2   2.0000     -10.170793      -276.7613
   3   2.0000     -10.033841      -273.0347
   4   2.0000     -10.012476      -272.4533
   5   2.0000      -1.226933       -33.3865
   6   2.0000      -0.954681       -25.9782
   7   2.0000      -0.740448       -20.1486
   8   2.0000      -0.627762       -17.0823
   9   2.0000      -0.588775       -16.0214
  10   2.0000      -0.499076       -13.5805
  11   2.0000      -0.489236       -13.3128
  12   2.0000      -0.448111       -12.1937
  13   2.0000      -0.425043       -11.5660
  14   2.0000      -0.392317       -10.6755
  15   2.0000      -0.361374        -9.8335
  16   2.0000      -0.347001        -9.4424
  17   2.0000      -0.341260        -9.2861
  18   2.0000      -0.314162        -8.5488
  19   2.0000      -0.246815        -6.7162
  20   0.0000      -0.063541        -1.7290
  21   0.0000       0.000091         0.0025
  22   0.0000       0.037098         1.0095
  23   0.0000       0.044651         1.2150
  24   0.0000       0.062052         1.6885

MULLIKEN ATOMIC CHARGES
-----------------------
   0 C :    0.544445
   1 C :   -0.407705
   2 H :   -0.013241
   3 H :    0.065465
   4 C :    0.799657
   5 O :   -0.507456
   6 F :   -0.393491
   7 H :   -0.016499
   8 H :   -0.038187
   9 H :   -0.032989
Sum of atomic charges:   -0.0000000

LOEWDIN ATOMIC CHARGES
----------------------
   0 C :    0.141794
   1 C :    0.017104
   2 H :    0.029146
   3 H :    0.034064
   4 C :   -0.014593
   5 O :   -0.132384
   6 F :   -0.025888
   7 H :   -0.019392
   8 H :   -0.016927
   9 H :   -0.012924

  Mayer bond orders larger than 0.100000
B(  0-C ,  1-C ) :   1.2974 B(  0-C ,  7-H ) :   0.8327 B(  0-C ,  8-H ) :   0.8427
B(  0-C ,  9-H ) :   0.8677 B(  1-C ,  2-H ) :   0.9916 B(  1-C ,  3-H ) :   0.8754
B(  1-C ,  4-C ) :   1.0572 B(  1-C ,  7-H ) :   0.1719 B(  1-C ,  8-H ) :   0.1738
B(  1-C ,  9-H ) :   0.1489 B(  2-H ,  4-C ) :   0.1288 B(  4-C ,  5-O ) :   1.7464
B(  4-C ,  6-F ) :   0.7152 B(  5-O ,  6-F ) :   0.1018

Dispersion correction           -0.007569406
FINAL SINGLE POINT ENERGY      -292.238492069732

DIPOLE MOMENT
-------------
                                X             Y             Z
Electronic contribution:      0.69633      -4.38116      -6.61000
Nuclear contribution   :     -1.45527       4.68977       7.53208
                        -----------------------------------------
Total Dipole Moment    :     -0.75893       0.30861       0.92208
                        -----------------------------------------
Magnitude (a.u.)       :      1.23347
Magnitude (Debye)      :      3.13524

Rotational constants in cm-1:     0.298240     0.132464     0.099915
Rotational constants in MHz :  8940.998095  3971.171647  2995.369122

                             ****ORCA TERMINATED NORMALLY****
TOTAL RUN TIME: 0 days 0 hours 0 minutes 10 seconds 684 msec
