                         Program Version 5.0.0 -  RELEASE  -
|  1> !TPSS D3BJ RIJCOSX def2-SVPD def2/J TightSCF
|  2> *xyz 0 1
|  3> C          2.23447       -2.98975       -2.39762
|  4> N          2.75680       -2.94555       -3.76503
|  5> C          1.98721       -2.59045       -4.81898
|  6> C          0.74322       -3.01749       -4.91352
|  7> N          2.49964       -1.84860       -5.80324
|  8> H          3.30978       -1.29282       -5.55895
|  9> H          1.80103       -1.30430       -6.28913
| 10> H          3.71612       -2.62880       -3.82953
| 11> H          0.39583       -3.62775       -4.18502
| 12> H          0.03920       -2.45438       -5.37137
| 13> C          2.19120       -1.61950       -1.71549
| 14> H          2.87278       -3.66637       -1.82801
| 15> H          1.24619       -3.44744       -2.40784
| 16> H          1.56387       -0.96046       -2.27853
| 17> H          3.18033       -1.21449       -1.66568
| 18> H          1.79916       -1.72608       -0.72562
| 19> *
| 20>
| 21> %MaxCore 64000
| 22>
| 23> %pal nprocs 4
| 24> end
| 25>
| 26> %scf
| 27>   MaxIter 150
| 28> end
| 29>
| 30>
| 31>                          ****END OF INPUT****

CARTESIAN COORDINATES (ANGSTROEM)
---------------------------------
  C      2.234470   -2.989750   -2.397620
  N      2.756800   -2.945550   -3.765030
  C      1.987210   -2.590450   -4.818980
  C      0.743220   -3.017490   -4.913520
  N      2.499640   -1.848600   -5.803240
  H      3.309780   -1.292820   -5.558950
  H      1.801030   -1.304300   -6.289130
  H      3.716120   -2.628800   -3.829530
  H      0.395830   -3.627750   -4.185020
  H      0.039200   -2.454380   -5.371370
  C      2.191200   -1.619500   -1.715490
  H      2.872780   -3.666370   -1.828010
  H      1.246190   -3.447440   -2.407840
  H      1.563870   -0.960460   -2.278530
  H      3.180330   -1.214490   -1.665680
  H      1.799160   -1.726080   -0.725620

 Total Charge           Charge          ....    0
 Multiplicity           Mult            ....    1
 Number of Electrons    NEL             ....   48
 Basis Dimension        Dim             ....  200

ORBITAL ENERGIES
----------------

  NO   OCC          E(Eh)            E(eV)
   0   2.0000     -14.120144      -384.2286
   1   2.0000     -14.119494      -384.2110
   2   2.0000     -10.038852      -273.1710
   3   2.0000     -10.034454      -273.0514
   4   2.0000      -9.992836      -271.9189
   5   2.0000      -9.920267      -269.9442
   6   2.0000      -0.894269       -24.3343
   7   2.0000      -0.819619       -22.3030
   8   2.0000      -0.694694       -18.9036
   9   2.0000      -0.653806       -17.7910
  10   2.0000      -0.586903       -15.9704
  11   2.0000      -0.513862       -13.9829
  12   2.0000      -0.497783       -13.5454
  13   2.0000      -0.468656       -12.7528
  14   2.0000      -0.420126       -11.4322
  15   2.0000      -0.406629       -11.0649
  16   2.0000      -0.375202       -10.2098
  17   2.0000      -0.357549        -9.7294
  18   2.0000      -0.355616        -9.6768
  19   2.0000      -0.334454        -9.1009
  20   2.0000      -0.319579        -8.6962
  21   2.0000      -0.313153        -8.5213
  22   2.0000      -0.215272        -5.8579
  23   2.0000      -0.146816        -3.9951
  24   0.0000      -0.000963        -0.0262
  25   0.0000       0.024381         0.6635
  26   0.0000       0.028779         0.7831
  27   0.0000       0.039969         1.0876
  28   0.0000       0.049573         1.3490

MULLIKEN ATOMIC CHARGES
-----------------------
   0 C :    0.260877
   1 N :   -0.347100
   2 C :    0.522447
   3 C :    0.203871
   4 N :   -0.013136
   5 H :   -0.074302
   6 H :    0.036129
   7 H :   -0.296072
   8 H :   -0.040433
   9 H :   -0.375046
  10 C :    0.593082
  11 H :   -0.246130
  12 H :   -0.071169
  13 H :   -0.086131
  14 H :   -0.043908
  15 H :   -0.022979
Sum of atomic charges:    0.0000000

LOEWDIN ATOMIC CHARGES
----------------------
   0 C :    0.024664
   1 N :   -0.009249
   2 C :   -0.245777
   3 C :    0.163754
   4 N :    0.188324
   5 H :   -0.017967
   6 H :   -0.000928
   7 H :    0.008862
   8 H :   -0.104442
   9 H :   -0.094108
  10 C :    0.144771
  11 H :    0.012158
  12 H :    0.003953
  13 H :   -0.024049
  14 H :   -0.027289
  15 H :   -0.022677

  Mayer bond orders larger than 0.100000
B(  0-C ,  1-N ) :   0.8785 B(  0-C , 10-C ) :   1.2520 B(  0-C , 11-H ) :   0.9020
B(  0-C , 12-H ) :   0.8742 B(  0-C , 13-H ) :   0.2298 B(  0-C , 14-H ) :   0.1864
B(  0-C , 15-H ) :   0.1902 B(  1-N ,  2-C ) :   0.9753 B(  1-N ,  3-C ) :   0.2749
B(  1-N ,  4-N ) :   0.1363 B(  1-N ,  7-H ) :   1.1697 B(  1-N , 11-H ) :   0.1796
B(  1-N , 12-H ) :   0.1120 B(  2-C ,  3-C ) :   1.6459 B(  2-C ,  4-N ) :   0.9277
B(  2-C ,  7-H ) :  -0.1467 B(  2-C ,  8-H ) :   0.2652 B(  2-C ,  9-H ) :   0.1014
B(  3-C ,  4-N ) :   0.2462 B(  3-C ,  8-H ) :   0.5278 B(  3-C ,  9-H ) :   0.9812
B(  4-N ,  5-H ) :   0.9716 B(  4-N ,  6-H ) :   0.9654 B(  8-H ,  9-H ) :   0.1918
B( 10-C , 13-H ) :   0.8406 B( 10-C , 14-H ) :   0.8370 B( 10-C , 15-H ) :   0.8216

Dispersion correction           -0.015832287
FINAL SINGLE POINT ENERGY      -267.780047213306

DIPOLE MOMENT
-------------
                                X             Y             Z
Electronic contribution:      1.48751      -1.28929      -3.86059
Nuclear contribution   :     -0.86957       2.18853       4.41892
                        -----------------------------------------
Total Dipole Moment    :      0.61795       0.89924       0.55833
                        -----------------------------------------
Magnitude (a.u.)       :      1.22565
Magnitude (Debye)      :      3.11536

Rotational constants in cm-1:     0.214718     0.075736     0.068547
Rotational constants in MHz :  6437.075121  2270.519635  2054.974198

                             ****ORCA TERMINATED NORMALLY****
TOTAL RUN TIME: 0 days 0 hours 0 minutes 17 seconds 545 msec
