                         Program Version 5.0.0 -  RELEASE  -
|  1> !TPSS D3BJ RIJCOSX def2-SVPD def2/J TightSCF
|  2> *xyz 0 1
|  3> C          2.23447       -2.98975       -2.39762
|  4> N          2.75680       -2.94555       -3.76503
|  5> C          1.98721       -2.59045       -4.81898
|  6> N          0.74322       -3.01749       -4.91352
|  7> C          2.49964       -1.84860       -5.80324
|  8> H          3.30978       -1.29282       -5.55895
|  9> H          1.80103       -1.30430       -6.28913
| 10> H          3.71612       -2.62880       -3.82953
| 11> H          0.39583       -3.62775       -4.18502
| 12> H          0.03920       -2.45438       -5.37137
| 13> C          2.19120       -1.61950       -1.71549
| 14> H          2.87278       -3.66637       -1.82801
| 15> H          1.24619       -3.44744       -2.40784
| 16> H          1.56387       -0.96046       -2.27853
| 17> H          3.18033       -1.21449       -1.66568
| 18> H          1.79916       -1.72608       -0.72562
| 19> *
| 20>
| 21> %MaxCore 64000
| 22>
| 23> %pal nprocs 4
| 24> end
| 25>
| 26> %scf
| 27>   MaxIter 150
| 28> end
| 29>
| 30>
| 31>                          ****END OF INPUT****

CARTESIAN COORDINATES (ANGSTROEM)
---------------------------------
  C      2.234470   -2.989750   -2.397620
  N      2.756800   -2.945550   -3.765030
  C      1.987210   -2.590450   -4.818980
  N      0.743220   -3.017490   -4.913520
  C      2.499640   -1.848600   -5.803240
  H      3.309780   -1.292820   -5.558950
  H      1.801030   -1.304300   -6.289130
  H      3.716120   -2.628800   -3.829530
  H      0.395830   -3.627750   -4.185020
  H      0.039200   -2.454380   -5.371370
  C      2.191200   -1.619500   -1.715490
  H      2.872780   -3.666370   -1.828010
  H      1.246190   -3.447440   -2.407840
  H      1.563870   -0.960460   -2.278530
  H      3.180330   -1.214490   -1.665680
  H      1.799160   -1.726080   -0.725620

 Total Charge           Charge          ....    0
 Multiplicity           Mult            ....    1
 Number of Electrons    NEL             ....   48
 Basis Dimension        Dim             ....  200

ORBITAL ENERGIES
----------------

  NO   OCC          E(Eh)            E(eV)
   0   2.0000     -14.122876      -384.3030
   1   2.0000     -14.118823      -384.1927
   2   2.0000     -10.042384      -273.2672
   3   2.0000     -10.041513      -273.2435
   4   2.0000      -9.996574      -272.0206
   5   2.0000      -9.914950      -269.7995
   6   2.0000      -0.895951       -24.3801
   7   2.0000      -0.819719       -22.3057
   8   2.0000      -0.705951       -19.2099
   9   2.0000      -0.647455       -17.6182
  10   2.0000      -0.576808       -15.6957
  11   2.0000      -0.551644       -15.0110
  12   2.0000      -0.493655       -13.4330
  13   2.0000      -0.449335       -12.2270
  14   2.0000      -0.446712       -12.1557
  15   2.0000      -0.399838       -10.8802
  16   2.0000      -0.386716       -10.5231
  17   2.0000      -0.361654        -9.8411
  18   2.0000      -0.339637        -9.2420
  19   2.0000      -0.331010        -9.0073
  20   2.0000      -0.325530        -8.8581
  21   2.0000      -0.317805        -8.6479
  22   2.0000      -0.217343        -5.9142
  23   2.0000      -0.142032        -3.8649
  24   0.0000      -0.001496        -0.0407
  25   0.0000       0.021411         0.5826
  26   0.0000       0.024962         0.6792
  27   0.0000       0.037616         1.0236
  28   0.0000       0.047737         1.2990

MULLIKEN ATOMIC CHARGES
-----------------------
   0 C :    0.292452
   1 N :   -0.459832
   2 C :    0.434644
   3 N :    0.144192
   4 C :    0.371998
   5 H :   -0.105917
   6 H :   -0.384398
   7 H :   -0.173523
   8 H :   -0.102251
   9 H :   -0.086375
  10 C :    0.581560
  11 H :   -0.250249
  12 H :   -0.126134
  13 H :   -0.100320
  14 H :   -0.043422
  15 H :    0.007573
Sum of atomic charges:    0.0000000

LOEWDIN ATOMIC CHARGES
----------------------
   0 C :    0.016957
   1 N :   -0.006185
   2 C :   -0.242687
   3 N :    0.200297
   4 C :    0.144741
   5 H :   -0.106175
   6 H :   -0.106603
   7 H :    0.023532
   8 H :   -0.020464
   9 H :    0.011300
  10 C :    0.145868
  11 H :    0.010929
  12 H :   -0.003368
  13 H :   -0.022630
  14 H :   -0.022390
  15 H :   -0.023121

  Mayer bond orders larger than 0.100000
B(  0-C ,  1-N ) :   0.9058 B(  0-C , 10-C ) :   1.2538 B(  0-C , 11-H ) :   0.8969
B(  0-C , 12-H ) :   0.8754 B(  0-C , 13-H ) :   0.2193 B(  0-C , 14-H ) :   0.1927
B(  0-C , 15-H ) :   0.1804 B(  1-N ,  2-C ) :   0.9728 B(  1-N ,  4-C ) :   0.2020
B(  1-N ,  7-H ) :   1.1694 B(  1-N , 11-H ) :   0.2049 B(  1-N , 12-H ) :   0.1254
B(  2-C ,  3-N ) :   1.0322 B(  2-C ,  4-C ) :   1.7913 B(  2-C ,  5-H ) :   0.2203
B(  2-C ,  6-H ) :   0.2298 B(  2-C ,  7-H ) :  -0.1323 B(  3-N ,  4-C ) :   0.2461
B(  3-N ,  8-H ) :   0.9836 B(  3-N ,  9-H ) :   1.1571 B(  4-C ,  5-H ) :   0.7458
B(  4-C ,  6-H ) :   0.7708 B(  5-H ,  6-H ) :   0.2602 B(  8-H ,  9-H ) :  -0.1456
B( 10-C , 13-H ) :   0.8528 B( 10-C , 14-H ) :   0.8248 B( 10-C , 15-H ) :   0.8124

Dispersion correction           -0.015780591
FINAL SINGLE POINT ENERGY      -267.775178011297

DIPOLE MOMENT
-------------
                                X             Y             Z
Electronic contribution:     -0.10756      -2.40652      -2.99266
Nuclear contribution   :     -0.49695       2.43650       4.23017
                        -----------------------------------------
Total Dipole Moment    :     -0.60451       0.02998       1.23751
                        -----------------------------------------
Magnitude (a.u.)       :      1.37760
Magnitude (Debye)      :      3.50158

Rotational constants in cm-1:     0.211102     0.077011     0.069221
Rotational constants in MHz :  6328.667765  2308.731604  2075.192956

                             ****ORCA TERMINATED NORMALLY****
TOTAL RUN TIME: 0 days 0 hours 0 minutes 19 seconds 774 msec
