                         Program Version 5.0.0 -  RELEASE  -
|  1> !TPSS D3BJ RIJCOSX def2-SVPD def2/J TightSCF xyzfile
|  2>
|  3> *xyzfile 0 1 D2.xyz
|  4>
|  5> %MaxCore 64000
|  6>
|  7> %pal nprocs 4
|  8> end
|  9>
| 10> %scf
| 11>   MaxIter 150
| 12> end
| 13>
| 14>
| 15>                          ****END OF INPUT****

CARTESIAN COORDINATES (ANGSTROEM)
---------------------------------
  C      2.234473   -2.989754   -2.397622
  N      2.756799   -2.945553   -3.765029
  C     -1.104325    0.251374   -2.860056
  C     -0.711893    0.842517   -4.218344
  H      0.154626    1.499800   -4.130909
  H     -1.538134    1.459222   -4.582671
  C     -0.397624   -0.205875   -5.288018
  C      1.987208   -2.590451   -4.818975
  C      0.743221   -3.017493   -4.913524
  N      2.499636   -1.848598   -5.803241
  H      3.309780   -1.292818   -5.558947
  H      1.801025   -1.304298   -6.289129
  H      3.716116   -2.628797   -3.829533
  H      0.395828   -3.627747   -4.185024
  H      0.039201   -2.454383   -5.371367
  F      0.617165   -0.005348   -5.998273
  O     -1.133173   -1.221380   -5.341465
  C      2.191199   -1.619503   -1.715492
  H      2.872783   -3.666368   -1.828014
  H      1.246188   -3.447444   -2.407842
  C      1.298729   -0.554314   -2.359773
  H      1.872917   -1.787955   -0.681310
  H      3.216809   -1.238432   -1.654428
  C     -0.196255   -0.863365   -2.325763
  H      1.612531   -0.371346   -3.393065
  H      1.480944    0.388638   -1.834444
  H     -0.404105   -1.761825   -2.909448
  H     -0.490439   -1.087880   -1.294131
  H     -1.143842    1.066711   -2.129680
  H     -2.114401   -0.156834   -2.930323

 Total Charge           Charge          ....    0
 Multiplicity           Mult            ....    1
 Number of Electrons    NEL             ....  102
 Basis Dimension        Dim             ....  402

ORBITAL ENERGIES
----------------

  NO   OCC          E(Eh)            E(eV)
   0   2.0000     -24.514493      -667.0733
   1   2.0000     -18.913786      -514.6703
   2   2.0000     -14.112029      -384.0078
   3   2.0000     -14.105698      -383.8356
   4   2.0000     -10.178041      -276.9586
   5   2.0000     -10.035629      -273.0833
   6   2.0000     -10.029758      -272.9236
   7   2.0000     -10.026475      -272.8343
   8   2.0000     -10.014729      -272.5146
   9   2.0000     -10.003719      -272.2150
  10   2.0000     -10.002974      -272.1948
  11   2.0000      -9.997147      -272.0362
  12   2.0000      -9.900125      -269.3961
  13   2.0000      -1.244310       -33.8594
  14   2.0000      -0.966951       -26.3121
  15   2.0000      -0.885235       -24.0885
  16   2.0000      -0.812176       -22.1004
  17   2.0000      -0.758508       -20.6400
  18   2.0000      -0.722163       -19.6511
  19   2.0000      -0.674012       -18.3408
  20   2.0000      -0.647887       -17.6299
  21   2.0000      -0.632414       -17.2089
  22   2.0000      -0.605772       -16.4839
  23   2.0000      -0.566045       -15.4029
  24   2.0000      -0.535394       -14.5688
  25   2.0000      -0.515697       -14.0328
  26   2.0000      -0.498990       -13.5782
  27   2.0000      -0.490316       -13.3422
  28   2.0000      -0.486742       -13.2449
  29   2.0000      -0.474718       -12.9177
  30   2.0000      -0.450003       -12.2452
  31   2.0000      -0.438173       -11.9233
  32   2.0000      -0.428315       -11.6550
  33   2.0000      -0.408306       -11.1106
  34   2.0000      -0.402329       -10.9479
  35   2.0000      -0.385962       -10.5026
  36   2.0000      -0.374841       -10.2000
  37   2.0000      -0.367608       -10.0031
  38   2.0000      -0.355189        -9.6652
  39   2.0000      -0.346424        -9.4267
  40   2.0000      -0.338072        -9.1994
  41   2.0000      -0.330748        -9.0001
  42   2.0000      -0.320839        -8.7305
  43   2.0000      -0.319406        -8.6915
  44   2.0000      -0.306878        -8.3506
  45   2.0000      -0.298184        -8.1140
  46   2.0000      -0.287323        -7.8185
  47   2.0000      -0.286050        -7.7838
  48   2.0000      -0.245408        -6.6779
  49   2.0000      -0.206331        -5.6145
  50   2.0000      -0.134365        -3.6563
  51   0.0000      -0.074624        -2.0306
  52   0.0000      -0.004391        -0.1195
  53   0.0000       0.011125         0.3027
  54   0.0000       0.016962         0.4616
  55   0.0000       0.029128         0.7926

MULLIKEN ATOMIC CHARGES
-----------------------
   0 C :    0.771123
   1 N :   -0.427611
   2 C :    0.492143
   3 C :    0.080652
   4 H :    0.196536
   5 H :   -0.215114
   6 C :    0.656976
   7 C :    0.511980
   8 C :    0.620799
   9 N :    0.083552
  10 H :    0.040400
  11 H :   -0.129724
  12 H :   -0.213095
  13 H :    0.012745
  14 H :   -0.661889
  15 F :   -0.444522
  16 O :   -0.676696
  17 C :    0.273105
  18 H :   -0.345820
  19 H :    0.019505
  20 C :   -0.045525
  21 H :    0.046592
  22 H :   -0.049120
  23 C :   -0.156920
  24 H :   -0.174484
  25 H :   -0.112544
  26 H :   -0.096085
  27 H :   -0.105737
  28 H :   -0.064377
  29 H :    0.113154
Sum of atomic charges:   -0.0000000

LOEWDIN ATOMIC CHARGES
----------------------
   0 C :    0.066844
   1 N :    0.001244
   2 C :   -0.002757
   3 C :    0.061033
   4 H :    0.018393
   5 H :    0.035825
   6 C :    0.021665
   7 C :   -0.235310
   8 C :    0.188892
   9 N :    0.204706
  10 H :   -0.013890
  11 H :   -0.055561
  12 H :    0.008696
  13 H :   -0.086733
  14 H :   -0.160483
  15 F :   -0.029479
  16 O :   -0.113135
  17 C :   -0.009327
  18 H :    0.013411
  19 H :    0.003374
  20 C :   -0.018870
  21 H :    0.017515
  22 H :    0.013428
  23 C :   -0.011669
  24 H :   -0.003715
  25 H :    0.019922
  26 H :   -0.005194
  27 H :    0.024170
  28 H :    0.021849
  29 H :    0.025154

  Mayer bond orders larger than 0.100000
B(  0-C ,  1-N ) :   0.9205 B(  0-C ,  8-C ) :   0.1137 B(  0-C , 17-C ) :   1.0821
B(  0-C , 18-H ) :   0.8255 B(  0-C , 19-H ) :   0.7556 B(  0-C , 21-H ) :   0.1544
B(  0-C , 22-H ) :   0.1152 B(  1-N ,  7-C ) :   0.9624 B(  1-N ,  8-C ) :   0.3333
B(  1-N ,  9-N ) :   0.1857 B(  1-N , 12-H ) :   1.0990 B(  1-N , 18-H ) :   0.2157
B(  1-N , 19-H ) :   0.1170 B(  2-C ,  3-C ) :   1.1853 B(  2-C ,  5-H ) :   0.1765
B(  2-C , 23-C ) :   1.2676 B(  2-C , 28-H ) :   0.7880 B(  2-C , 29-H ) :   0.6393
B(  3-C ,  4-H ) :   0.8153 B(  3-C ,  5-H ) :   0.7918 B(  3-C ,  6-C ) :   1.1971
B(  3-C , 23-C ) :   0.1200 B(  3-C , 28-H ) :   0.1449 B(  4-H ,  6-C ) :   0.1451
B(  5-H ,  6-C ) :   0.1930 B(  6-C , 14-H ) :   0.1281 B(  6-C , 15-F ) :   0.5586
B(  6-C , 16-O ) :   1.6895 B(  7-C ,  8-C ) :   1.7009 B(  7-C ,  9-N ) :   0.7553
B(  7-C , 13-H ) :   0.3408 B(  7-C , 14-H ) :   0.1293 B(  8-C ,  9-N ) :   0.2685
B(  8-C , 13-H ) :   0.3840 B(  8-C , 14-H ) :   0.3955 B(  9-N , 10-H ) :   0.8658
B(  9-N , 11-H ) :   0.9102 B( 13-H , 14-H ) :  -0.1028 B( 14-H , 16-O ) :   0.2388
B( 15-F , 16-O ) :   0.1006 B( 17-C , 18-H ) :   0.1054 B( 17-C , 19-H ) :   0.1243
B( 17-C , 20-C ) :   1.2325 B( 17-C , 21-H ) :   0.7918 B( 17-C , 22-H ) :   0.7531
B( 17-C , 24-H ) :   0.1252 B( 18-H , 19-H ) :  -0.1271 B( 20-C , 21-H ) :   0.1712
B( 20-C , 22-H ) :   0.2264 B( 20-C , 23-C ) :   1.2905 B( 20-C , 24-H ) :   0.9338
B( 20-C , 25-H ) :   0.8274 B( 20-C , 26-H ) :   0.1467 B( 20-C , 27-H ) :   0.2211
B( 23-C , 24-H ) :   0.1604 B( 23-C , 25-H ) :   0.2065 B( 23-C , 26-H ) :   0.9657
B( 23-C , 27-H ) :   0.7735 B( 23-C , 28-H ) :   0.1654 B( 23-C , 29-H ) :   0.2353

Dispersion correction           -0.044017237
FINAL SINGLE POINT ENERGY      -637.399189395309

DIPOLE MOMENT
-------------
                                X             Y             Z
Electronic contribution:     -1.49165       2.09474     -13.57206
Nuclear contribution   :      2.00823      -0.28769      14.57028
                        -----------------------------------------
Total Dipole Moment    :      0.51658       1.80705       0.99822
                        -----------------------------------------
Magnitude (a.u.)       :      2.12808
Magnitude (Debye)      :      5.40915

Rotational constants in cm-1:     0.033070     0.023715     0.016943
Rotational constants in MHz :   991.423248   710.957140   507.940500

                             ****ORCA TERMINATED NORMALLY****
TOTAL RUN TIME: 0 days 0 hours 1 minutes 5 seconds 649 msec
