                         Program Version 5.0.0 -  RELEASE  -
|  1> !TPSS D3BJ RIJCOSX def2-SVPD def2/J TightSCF xyzfile
|  2>
|  3> *xyzfile 0 1 D3.xyz
|  4>
|  5> %MaxCore 64000
|  6>
|  7> %pal nprocs 4
|  8> end
|  9>
| 10> %scf
| 11>   MaxIter 150
| 12> end
| 13>
| 14>
| 15>                          ****END OF INPUT****

CARTESIAN COORDINATES (ANGSTROEM)
---------------------------------
  C      2.234473   -2.989754   -2.397622
  N      2.756799   -2.945553   -3.765029
  C     -1.104325    0.251374   -2.860056
  C     -0.711893    0.842517   -4.218344
  H      0.154626    1.499800   -4.130909
  H     -1.538134    1.459222   -4.582671
  C     -0.397624   -0.205875   -5.288018
  C      1.987208   -2.590451   -4.818975
  N      0.743221   -3.017493   -4.913524
  C      2.499636   -1.848598   -5.803241
  H      3.309780   -1.292818   -5.558947
  H      1.801025   -1.304298   -6.289129
  H      3.716116   -2.628797   -3.829533
  H      0.395828   -3.627747   -4.185024
  H      0.039201   -2.454383   -5.371367
  F      0.617165   -0.005348   -5.998273
  O     -1.133173   -1.221380   -5.341465
  C      2.191199   -1.619503   -1.715492
  H      2.872783   -3.666368   -1.828014
  H      1.246188   -3.447444   -2.407842
  C      1.298729   -0.554314   -2.359773
  H      1.872917   -1.787955   -0.681310
  H      3.216809   -1.238432   -1.654428
  C     -0.196255   -0.863365   -2.325763
  H      1.612531   -0.371346   -3.393065
  H      1.480944    0.388638   -1.834444
  H     -0.404105   -1.761825   -2.909448
  H     -0.490439   -1.087880   -1.294131
  H     -1.143842    1.066711   -2.129680
  H     -2.114401   -0.156834   -2.930323

 Total Charge           Charge          ....    0
 Multiplicity           Mult            ....    1
 Number of Electrons    NEL             ....  102
 Basis Dimension        Dim             ....  402

ORBITAL ENERGIES
----------------

  NO   OCC          E(Eh)            E(eV)
   0   2.0000     -24.508521      -666.9108
   1   2.0000     -18.927767      -515.0507
   2   2.0000     -14.111051      -383.9812
   3   2.0000     -14.096040      -383.5727
   4   2.0000     -10.188691      -277.2484
   5   2.0000     -10.040923      -273.2274
   6   2.0000     -10.036483      -273.1066
   7   2.0000     -10.030291      -272.9381
   8   2.0000     -10.021433      -272.6970
   9   2.0000     -10.006382      -272.2875
  10   2.0000     -10.006060      -272.2787
  11   2.0000     -10.005814      -272.2720
  12   2.0000      -9.902415      -269.4584
  13   2.0000      -1.239651       -33.7326
  14   2.0000      -0.980959       -26.6933
  15   2.0000      -0.884102       -24.0576
  16   2.0000      -0.807031       -21.9604
  17   2.0000      -0.765002       -20.8168
  18   2.0000      -0.727584       -19.7986
  19   2.0000      -0.683874       -18.6092
  20   2.0000      -0.649648       -17.6778
  21   2.0000      -0.629164       -17.1204
  22   2.0000      -0.596692       -16.2368
  23   2.0000      -0.565348       -15.3839
  24   2.0000      -0.544544       -14.8178
  25   2.0000      -0.530355       -14.4317
  26   2.0000      -0.507620       -13.8130
  27   2.0000      -0.488192       -13.2844
  28   2.0000      -0.481508       -13.1025
  29   2.0000      -0.479755       -13.0548
  30   2.0000      -0.449717       -12.2374
  31   2.0000      -0.438402       -11.9295
  32   2.0000      -0.432340       -11.7646
  33   2.0000      -0.420951       -11.4547
  34   2.0000      -0.406628       -11.0649
  35   2.0000      -0.395754       -10.7690
  36   2.0000      -0.373614       -10.1666
  37   2.0000      -0.370302       -10.0764
  38   2.0000      -0.353334        -9.6147
  39   2.0000      -0.343877        -9.3574
  40   2.0000      -0.340784        -9.2732
  41   2.0000      -0.334031        -9.0894
  42   2.0000      -0.325187        -8.8488
  43   2.0000      -0.318966        -8.6795
  44   2.0000      -0.309288        -8.4162
  45   2.0000      -0.302572        -8.2334
  46   2.0000      -0.295316        -8.0360
  47   2.0000      -0.292504        -7.9594
  48   2.0000      -0.269664        -7.3379
  49   2.0000      -0.203638        -5.5413
  50   2.0000      -0.131408        -3.5758
  51   0.0000      -0.083767        -2.2794
  52   0.0000      -0.002035        -0.0554
  53   0.0000       0.010771         0.2931
  54   0.0000       0.014742         0.4012
  55   0.0000       0.024009         0.6533

MULLIKEN ATOMIC CHARGES
-----------------------
   0 C :    0.808042
   1 N :   -0.518851
   2 C :    0.490255
   3 C :    0.060584
   4 H :    0.212339
   5 H :   -0.196989
   6 C :    0.754294
   7 C :    0.334322
   8 N :    0.333904
   9 C :    0.628802
  10 H :   -0.051889
  11 H :   -0.575360
  12 H :   -0.137829
  13 H :   -0.019017
  14 H :   -0.315962
  15 F :   -0.446393
  16 O :   -0.633684
  17 C :    0.253755
  18 H :   -0.353776
  19 H :    0.004397
  20 C :   -0.090873
  21 H :    0.048077
  22 H :   -0.077190
  23 C :   -0.104549
  24 H :   -0.031166
  25 H :   -0.185430
  26 H :   -0.109257
  27 H :   -0.122858
  28 H :   -0.064427
  29 H :    0.106729
Sum of atomic charges:   -0.0000000

LOEWDIN ATOMIC CHARGES
----------------------
   0 C :    0.059872
   1 N :    0.006376
   2 C :   -0.002837
   3 C :    0.064572
   4 H :    0.022794
   5 H :    0.037832
   6 C :    0.031624
   7 C :   -0.233233
   8 N :    0.235350
   9 C :    0.154101
  10 H :   -0.099992
  11 H :   -0.146251
  12 H :    0.023133
  13 H :   -0.011164
  14 H :   -0.088231
  15 F :   -0.024289
  16 O :   -0.114641
  17 C :   -0.008900
  18 H :    0.011957
  19 H :   -0.002833
  20 C :   -0.015063
  21 H :    0.016015
  22 H :    0.017148
  23 C :   -0.016628
  24 H :    0.001132
  25 H :    0.021026
  26 H :   -0.011187
  27 H :    0.023980
  28 H :    0.023647
  29 H :    0.024689

  Mayer bond orders larger than 0.100000
B(  0-C ,  1-N ) :   0.9251 B(  0-C , 12-H ) :  -0.1057 B(  0-C , 17-C ) :   1.0959
B(  0-C , 18-H ) :   0.8156 B(  0-C , 19-H ) :   0.7716 B(  0-C , 21-H ) :   0.1385
B(  0-C , 22-H ) :   0.1414 B(  1-N ,  7-C ) :   0.9931 B(  1-N ,  9-C ) :   0.2120
B(  1-N , 12-H ) :   1.1357 B(  1-N , 18-H ) :   0.2446 B(  1-N , 19-H ) :   0.1189
B(  2-C ,  3-C ) :   1.1946 B(  2-C ,  5-H ) :   0.1733 B(  2-C , 23-C ) :   1.2569
B(  2-C , 28-H ) :   0.8029 B(  2-C , 29-H ) :   0.6384 B(  3-C ,  4-H ) :   0.8112
B(  3-C ,  5-H ) :   0.7982 B(  3-C ,  6-C ) :   1.1886 B(  3-C , 23-C ) :   0.1150
B(  3-C , 28-H ) :   0.1396 B(  4-H ,  6-C ) :   0.1536 B(  5-H ,  6-C ) :   0.1789
B(  6-C , 15-F ) :   0.6251 B(  6-C , 16-O ) :   1.5659 B(  7-C ,  8-N ) :   0.9308
B(  7-C ,  9-C ) :   1.8503 B(  7-C , 10-H ) :   0.3077 B(  7-C , 11-H ) :   0.3454
B(  7-C , 12-H ) :  -0.1163 B(  8-N ,  9-C ) :   0.2498 B(  8-N , 13-H ) :   0.9124
B(  8-N , 14-H ) :   0.9969 B(  9-C , 10-H ) :   0.5259 B(  9-C , 11-H ) :   0.2395
B( 10-H , 11-H ) :   0.2844 B( 11-H , 15-F ) :   0.1782 B( 13-H , 14-H ) :  -0.2109
B( 14-H , 16-O ) :   0.1359 B( 17-C , 18-H ) :   0.1125 B( 17-C , 19-H ) :   0.1282
B( 17-C , 20-C ) :   1.2490 B( 17-C , 21-H ) :   0.8220 B( 17-C , 22-H ) :   0.7318
B( 17-C , 24-H ) :   0.1175 B( 18-H , 19-H ) :  -0.1301 B( 20-C , 21-H ) :   0.1563
B( 20-C , 22-H ) :   0.2326 B( 20-C , 23-C ) :   1.2901 B( 20-C , 24-H ) :   0.9241
B( 20-C , 25-H ) :   0.8524 B( 20-C , 26-H ) :   0.1496 B( 20-C , 27-H ) :   0.2015
B( 23-C , 24-H ) :   0.1366 B( 23-C , 25-H ) :   0.1787 B( 23-C , 26-H ) :   0.9493
B( 23-C , 27-H ) :   0.7869 B( 23-C , 28-H ) :   0.1674 B( 23-C , 29-H ) :   0.2345

Dispersion correction           -0.043861623
FINAL SINGLE POINT ENERGY      -637.404654101371

DIPOLE MOMENT
-------------
                                X             Y             Z
Electronic contribution:     -2.85746       1.29712     -12.78415
Nuclear contribution   :      2.27881      -0.10762      14.43322
                        -----------------------------------------
Total Dipole Moment    :     -0.57865       1.18950       1.64907
                        -----------------------------------------
Magnitude (a.u.)       :      2.11404
Magnitude (Debye)      :      5.37347

Rotational constants in cm-1:     0.033336     0.023673     0.017062
Rotational constants in MHz :   999.388459   709.685364   511.514310

                             ****ORCA TERMINATED NORMALLY****
TOTAL RUN TIME: 0 days 0 hours 1 minutes 5 seconds 35 msec
