                         Program Version 5.0.0 -  RELEASE  -
|  1> !PBE0 D3BJ RIJCOSX def2-TZVPD def2/J TightSCF
|  2> *xyz -1 1
|  3> C          0.84888        2.66797       -4.30235
|  4> C          2.09343        1.86104       -4.65684
|  5> H          2.44481        2.04157       -5.67499
|  6> H          2.90175        2.13786       -3.98034
|  7> S          1.87964        0.07859       -4.46297
|  8> O          3.20757       -0.46611       -4.42026
|  9> O          1.07506       -0.05616       -3.26876
| 10> O          1.13166       -0.31996       -5.67903
| 11> H          0.05064        2.40112       -4.96303
| 12> H          1.06043        3.71210       -4.40203
| 13> H          0.56237        2.45684       -3.29327
| 14> *
| 15>
| 16> %MaxCore 64000
| 17>
| 18> %pal nprocs 4
| 19> end
| 20>
| 21> %scf
| 22>   MaxIter 150
| 23> end
| 24>
| 25>
| 26>                          ****END OF INPUT****

CARTESIAN COORDINATES (ANGSTROEM)
---------------------------------
  C      0.848880    2.667970   -4.302350
  C      2.093430    1.861040   -4.656840
  H      2.444810    2.041570   -5.674990
  H      2.901750    2.137860   -3.980340
  S      1.879640    0.078590   -4.462970
  O      3.207570   -0.466110   -4.420260
  O      1.075060   -0.056160   -3.268760
  O      1.131660   -0.319960   -5.679030
  H      0.050640    2.401120   -4.963030
  H      1.060430    3.712100   -4.402030
  H      0.562370    2.456840   -3.293270

 Total Charge           Charge          ....   -1
 Multiplicity           Mult            ....    1
 Number of Electrons    NEL             ....   58
 Basis Dimension        Dim             ....  285

ORBITAL ENERGIES
----------------

  NO   OCC          E(Eh)            E(eV)
   0   2.0000     -88.998850     -2421.7818
   1   2.0000     -18.988514      -516.7037
   2   2.0000     -18.985218      -516.6141
   3   2.0000     -18.973055      -516.2831
   4   2.0000     -10.078442      -274.2484
   5   2.0000     -10.070272      -274.0260
   6   2.0000      -7.944801      -216.1890
   7   2.0000      -5.882180      -160.0623
   8   2.0000      -5.880863      -160.0264
   9   2.0000      -5.880617      -160.0197
  10   2.0000      -0.953240       -25.9390
  11   2.0000      -0.825156       -22.4536
  12   2.0000      -0.799371       -21.7520
  13   2.0000      -0.650985       -17.7142
  14   2.0000      -0.520450       -14.1622
  15   2.0000      -0.396946       -10.8014
  16   2.0000      -0.330197        -8.9851
  17   2.0000      -0.327531        -8.9126
  18   2.0000      -0.288305        -7.8452
  19   2.0000      -0.275772        -7.5041
  20   2.0000      -0.266596        -7.2545
  21   2.0000      -0.239169        -6.5081
  22   2.0000      -0.222763        -6.0617
  23   2.0000      -0.166719        -4.5367
  24   2.0000      -0.166237        -4.5235
  25   2.0000      -0.131671        -3.5829
  26   2.0000      -0.121432        -3.3043
  27   2.0000      -0.111066        -3.0222
  28   2.0000      -0.078620        -2.1394
  29   0.0000       0.130199         3.5429
  30   0.0000       0.150454         4.0941
  31   0.0000       0.154633         4.2078
  32   0.0000       0.162598         4.4245
  33   0.0000       0.181310         4.9337

MULLIKEN ATOMIC CHARGES
-----------------------
   0 C :   -0.808140
   1 C :   -0.166977
   2 H :    0.169646
   3 H :    0.164213
   4 S :    1.084791
   5 O :   -0.661837
   6 O :   -0.683585
   7 O :   -0.716509
   8 H :    0.211269
   9 H :    0.184408
  10 H :    0.222722
Sum of atomic charges:   -1.0000000

LOEWDIN ATOMIC CHARGES
----------------------
   0 C :   -0.154970
   1 C :   -0.327484
   2 H :    0.083899
   3 H :    0.078232
   4 S :    0.336467
   5 O :   -0.382264
   6 O :   -0.383644
   7 O :   -0.417255
   8 H :    0.062862
   9 H :    0.048259
  10 H :    0.055897

  Mayer bond orders larger than 0.100000
B(  0-C ,  1-C ) :   0.8899 B(  0-C ,  8-H ) :   0.9882 B(  0-C ,  9-H ) :   0.9737
B(  0-C , 10-H ) :   0.9877 B(  1-C ,  2-H ) :   0.9682 B(  1-C ,  3-H ) :   0.9753
B(  1-C ,  4-S ) :   0.8327 B(  1-C ,  5-O ) :   0.1300 B(  1-C ,  7-O ) :   0.1215
B(  4-S ,  5-O ) :   1.5631 B(  4-S ,  6-O ) :   1.5484 B(  4-S ,  7-O ) :   1.5070

Dispersion correction           -0.008291641
FINAL SINGLE POINT ENERGY      -702.847682069226

DIPOLE MOMENT
-------------
                                X             Y             Z
Electronic contribution:      1.61149      -7.71218       0.05948
Nuclear contribution   :     -1.55288       9.51857       0.00420
                        -----------------------------------------
Total Dipole Moment    :      0.05861       1.80639       0.06368
                        -----------------------------------------
Magnitude (a.u.)       :      1.80847
Magnitude (Debye)      :      4.59675

Rotational constants in cm-1:     0.163401     0.083833     0.082462
Rotational constants in MHz :  4898.624208  2513.264548  2472.149188

                             ****ORCA TERMINATED NORMALLY****
TOTAL RUN TIME: 0 days 0 hours 0 minutes 42 seconds 898 msec
