                         Program Version 5.0.0 -  RELEASE  -
|  1> !PBE0 D3BJ RIJCOSX def2-TZVPD def2/J TightSCF
|  2> *xyz 1 1
|  3> C         -0.46129        2.23469       -4.98962
|  4> C          0.84888        2.66797       -4.30235
|  5> C         -0.42384        2.39877       -6.47432
|  6> N         -0.95947        3.49265       -7.00740
|  7> N          0.14558        1.48689       -7.20399
|  8> H          0.56537        0.69681       -6.72386
|  9> H          0.22068        1.58177       -8.20752
| 10> H         -1.40624        4.18151       -6.40326
| 11> H         -0.93421        3.68160       -7.99947
| 12> H         -1.28888        2.82674       -4.59500
| 13> H         -0.65170        1.18634       -4.75655
| 14> H          1.66208        2.08894       -4.68750
| 15> H          0.76716        2.51042       -3.24717
| 16> H          1.02677        3.70527       -4.49537
| 17> *
| 18>
| 19> %MaxCore 64000
| 20>
| 21> %pal nprocs 4
| 22> end
| 23>
| 24> %scf
| 25>   MaxIter 150
| 26> end
| 27>
| 28>
| 29>                          ****END OF INPUT****

CARTESIAN COORDINATES (ANGSTROEM)
---------------------------------
  C     -0.461290    2.234690   -4.989620
  C      0.848880    2.667970   -4.302350
  C     -0.423840    2.398770   -6.474320
  N     -0.959470    3.492650   -7.007400
  N      0.145580    1.486890   -7.203990
  H      0.565370    0.696810   -6.723860
  H      0.220680    1.581770   -8.207520
  H     -1.406240    4.181510   -6.403260
  H     -0.934210    3.681600   -7.999470
  H     -1.288880    2.826740   -4.595000
  H     -0.651700    1.186340   -4.756550
  H      1.662080    2.088940   -4.687500
  H      0.767160    2.510420   -3.247170
  H      1.026770    3.705270   -4.495370

 Total Charge           Charge          ....    1
 Multiplicity           Mult            ....    1
 Number of Electrons    NEL             ....   40
 Basis Dimension        Dim             ....  266

ORBITAL ENERGIES
----------------

  NO   OCC          E(Eh)            E(eV)
   0   2.0000     -14.630918      -398.1275
   1   2.0000     -14.627283      -398.0286
   2   2.0000     -10.543434      -286.9014
   3   2.0000     -10.420520      -283.5568
   4   2.0000     -10.375138      -282.3218
   5   2.0000      -1.231994       -33.5243
   6   2.0000      -1.135256       -30.8919
   7   2.0000      -0.992238       -27.0002
   8   2.0000      -0.881616       -23.9900
   9   2.0000      -0.834076       -22.6964
  10   2.0000      -0.793835       -21.6014
  11   2.0000      -0.767479       -20.8842
  12   2.0000      -0.715480       -19.4692
  13   2.0000      -0.663465       -18.0538
  14   2.0000      -0.637363       -17.3435
  15   2.0000      -0.628271       -17.0961
  16   2.0000      -0.557919       -15.1818
  17   2.0000      -0.547716       -14.9041
  18   2.0000      -0.541065       -14.7231
  19   2.0000      -0.504969       -13.7409
  20   0.0000      -0.204834        -5.5738
  21   0.0000      -0.160551        -4.3688
  22   0.0000      -0.118386        -3.2215
  23   0.0000      -0.114263        -3.1093
  24   0.0000      -0.089626        -2.4388

MULLIKEN ATOMIC CHARGES
-----------------------
   0 C :   -0.247243
   1 C :   -0.767800
   2 C :    0.568662
   3 N :   -0.236211
   4 N :   -0.222564
   5 H :    0.230026
   6 H :    0.187257
   7 H :    0.221055
   8 H :    0.174530
   9 H :    0.177523
  10 H :    0.200536
  11 H :    0.249288
  12 H :    0.218729
  13 H :    0.246211
Sum of atomic charges:    1.0000000

LOEWDIN ATOMIC CHARGES
----------------------
   0 C :   -0.149022
   1 C :   -0.052117
   2 C :   -0.367189
   3 N :    0.225695
   4 N :    0.235914
   5 H :    0.155856
   6 H :    0.152018
   7 H :    0.151027
   8 H :    0.143085
   9 H :    0.127554
  10 H :    0.132177
  11 H :    0.076920
  12 H :    0.086297
  13 H :    0.081785

  Mayer bond orders larger than 0.100000
B(  0-C ,  1-C ) :   0.7846 B(  0-C ,  2-C ) :   0.8589 B(  0-C ,  9-H ) :   0.9783
B(  0-C , 10-H ) :   0.9475 B(  1-C ,  2-C ) :   0.1803 B(  1-C , 11-H ) :   0.9336
B(  1-C , 12-H ) :   0.9972 B(  1-C , 13-H ) :   0.9770 B(  2-C ,  3-N ) :   1.2090
B(  2-C ,  4-N ) :   1.3029 B(  3-N ,  7-H ) :   0.9434 B(  3-N ,  8-H ) :   1.0323
B(  4-N ,  5-H ) :   0.9295 B(  4-N ,  6-H ) :   1.0090

Dispersion correction           -0.008491359
FINAL SINGLE POINT ENERGY      -228.855181886691

DIPOLE MOMENT
-------------
                                X             Y             Z
Electronic contribution:     -1.55034      -0.26752      -3.86113
Nuclear contribution   :      1.33202       0.27544       2.83701
                        -----------------------------------------
Total Dipole Moment    :     -0.21832       0.00792      -1.02413
                        -----------------------------------------
Magnitude (a.u.)       :      1.04717
Magnitude (Debye)      :      2.66169

Rotational constants in cm-1:     0.258570     0.126296     0.098869
Rotational constants in MHz :  7751.748523  3786.267300  2964.011691

                             ****ORCA TERMINATED NORMALLY****
TOTAL RUN TIME: 0 days 0 hours 0 minutes 43 seconds 427 msec
