                         Program Version 5.0.0 -  RELEASE  -
|  1> !PBE0 D3BJ RIJCOSX def2-TZVPD def2/J TightSCF xyzfile
|  2>
|  3> *xyzfile 0 1 B.xyz
|  4>
|  5> %MaxCore 64000
|  6>
|  7> %pal nprocs 4
|  8> end
|  9>
| 10> %scf
| 11>   MaxIter 150
| 12> end
| 13>
| 14>
| 15>                          ****END OF INPUT****

CARTESIAN COORDINATES (ANGSTROEM)
---------------------------------
  C     -0.461293    2.234686   -4.989619
  C      0.848883    2.667967   -4.302351
  C      2.093434    1.861037   -4.656845
  H      2.444814    2.041567   -5.674990
  H      2.901748    2.137864   -3.980338
  S      1.879644    0.078594   -4.462965
  C     -0.423841    2.398772   -6.474317
  N     -0.959467    3.492647   -7.007401
  N      0.145585    1.486891   -7.203987
  H      0.565371    0.696807   -6.723858
  H      0.220682    1.581768   -8.207520
  H     -1.406243    4.181507   -6.403261
  H     -0.934215    3.681601   -7.999468
  O      3.207574   -0.466111   -4.420259
  O      1.075064   -0.056160   -3.268758
  O      1.131661   -0.319960   -5.679031
  H      0.668432    2.559427   -3.232850
  H      1.034074    3.729426   -4.497081
  H     -1.288884    2.826737   -4.594997
  H     -0.651696    1.186343   -4.756552

 Total Charge           Charge          ....    0
 Multiplicity           Mult            ....    1
 Number of Electrons    NEL             ....   88
 Basis Dimension        Dim             ....  478

ORBITAL ENERGIES
----------------

  NO   OCC          E(Eh)            E(eV)
   0   2.0000     -89.152260     -2425.9563
   1   2.0000     -19.145405      -520.9730
   2   2.0000     -19.131244      -520.5876
   3   2.0000     -19.129396      -520.5373
   4   2.0000     -14.492795      -394.3690
   5   2.0000     -14.460613      -393.4933
   6   2.0000     -10.395529      -282.8767
   7   2.0000     -10.273032      -279.5434
   8   2.0000     -10.252782      -278.9924
   9   2.0000     -10.228492      -278.3314
  10   2.0000      -8.098257      -220.3648
  11   2.0000      -6.035882      -164.2447
  12   2.0000      -6.034729      -164.2133
  13   2.0000      -6.033402      -164.1772
  14   2.0000      -1.106774       -30.1168
  15   2.0000      -1.084767       -29.5180
  16   2.0000      -0.990690       -26.9580
  17   2.0000      -0.968561       -26.3559
  18   2.0000      -0.966562       -26.3015
  19   2.0000      -0.858169       -23.3520
  20   2.0000      -0.777917       -21.1682
  21   2.0000      -0.713055       -19.4032
  22   2.0000      -0.667583       -18.1658
  23   2.0000      -0.648247       -17.6397
  24   2.0000      -0.621720       -16.9179
  25   2.0000      -0.578519       -15.7423
  26   2.0000      -0.538337       -14.6489
  27   2.0000      -0.528111       -14.3706
  28   2.0000      -0.498981       -13.5780
  29   2.0000      -0.486411       -13.2359
  30   2.0000      -0.460569       -12.5327
  31   2.0000      -0.450880       -12.2691
  32   2.0000      -0.429835       -11.6964
  33   2.0000      -0.422083       -11.4855
  34   2.0000      -0.403268       -10.9735
  35   2.0000      -0.388273       -10.5655
  36   2.0000      -0.371992       -10.1224
  37   2.0000      -0.358905        -9.7663
  38   2.0000      -0.320901        -8.7322
  39   2.0000      -0.315136        -8.5753
  40   2.0000      -0.285124        -7.7586
  41   2.0000      -0.274600        -7.4722
  42   2.0000      -0.265596        -7.2272
  43   2.0000      -0.234489        -6.3808
  44   0.0000      -0.061190        -1.6651
  45   0.0000      -0.044109        -1.2003
  46   0.0000      -0.006751        -0.1837
  47   0.0000       0.012228         0.3327
  48   0.0000       0.020639         0.5616

MULLIKEN ATOMIC CHARGES
-----------------------
   0 C :   -0.290037
   1 C :   -0.171967
   2 C :   -0.495383
   3 H :    0.248323
   4 H :    0.119017
   5 S :    1.148300
   6 C :    0.331564
   7 N :   -0.254563
   8 N :   -0.109164
   9 H :    0.246425
  10 H :    0.172204
  11 H :    0.214836
  12 H :    0.151537
  13 O :   -0.623410
  14 O :   -0.656852
  15 O :   -0.790386
  16 H :    0.207317
  17 H :    0.088924
  18 H :    0.150860
  19 H :    0.312454
Sum of atomic charges:   -0.0000000

LOEWDIN ATOMIC CHARGES
----------------------
   0 C :   -0.112177
   1 C :   -0.205332
   2 C :   -0.247955
   3 H :    0.095468
   4 H :    0.102170
   5 S :    0.415403
   6 C :   -0.361901
   7 N :    0.190337
   8 N :    0.233464
   9 H :    0.037271
  10 H :    0.144235
  11 H :    0.135510
  12 H :    0.128000
  13 O :   -0.322473
  14 O :   -0.330422
  15 O :   -0.379558
  16 H :    0.117354
  17 H :    0.113478
  18 H :    0.123729
  19 H :    0.123398

  Mayer bond orders larger than 0.100000
B(  0-C ,  1-C ) :   0.8507 B(  0-C ,  6-C ) :   0.8175 B(  0-C , 18-H ) :   0.9233
B(  0-C , 19-H ) :   0.9283 B(  1-C ,  2-C ) :   1.0652 B(  1-C ,  6-C ) :   0.2993
B(  1-C , 16-H ) :   0.8738 B(  1-C , 17-H ) :   0.9655 B(  2-C ,  3-H ) :   0.8886
B(  2-C ,  4-H ) :   1.0339 B(  2-C ,  5-S ) :   0.8137 B(  2-C ,  8-N ) :   0.1078
B(  2-C , 13-O ) :   0.1570 B(  2-C , 15-O ) :   0.1605 B(  5-S , 13-O ) :   1.5590
B(  5-S , 14-O ) :   1.5828 B(  5-S , 15-O ) :   1.3402 B(  6-C ,  7-N ) :   1.1529
B(  6-C ,  8-N ) :   1.3998 B(  7-N , 11-H ) :   0.9559 B(  7-N , 12-H ) :   1.0317
B(  8-N ,  9-H ) :   0.8104 B(  8-N , 10-H ) :   0.9779 B(  9-H , 15-O ) :   0.1317

Dispersion correction           -0.019880335
FINAL SINGLE POINT ENERGY      -891.378793241240

DIPOLE MOMENT
-------------
                                X             Y             Z
Electronic contribution:      3.11007      -7.68577       1.11378
Nuclear contribution   :     -5.91573      12.15027      -4.18945
                        -----------------------------------------
Total Dipole Moment    :     -2.80566       4.46451      -3.07567
                        -----------------------------------------
Magnitude (a.u.)       :      6.10437
Magnitude (Debye)      :     15.51607

Rotational constants in cm-1:     0.082044     0.024757     0.022371
Rotational constants in MHz :  2459.631375   742.181961   670.660570

                             ****ORCA TERMINATED NORMALLY****
TOTAL RUN TIME: 0 days 0 hours 2 minutes 24 seconds 290 msec
