                         Program Version 5.0.0 -  RELEASE  -
|  1> !PBE0 D3BJ RIJCOSX def2-TZVPD def2/J TightSCF
|  2> *xyz 0 1
|  3> C          0.84888        2.66797       -4.30235
|  4> C          2.09343        1.86104       -4.65684
|  5> H          2.44481        2.04157       -5.67499
|  6> H          2.90175        2.13786       -3.98034
|  7> S          1.87964        0.07859       -4.46297
|  8> F          3.20757       -0.46611       -4.42026
|  9> O          1.07506       -0.05616       -3.26876
| 10> O          1.13166       -0.31996       -5.67903
| 11> H          0.05064        2.40112       -4.96303
| 12> H          1.06043        3.71210       -4.40203
| 13> H          0.56237        2.45684       -3.29327
| 14> *
| 15>
| 16> %MaxCore 64000
| 17>
| 18> %pal nprocs 4
| 19> end
| 20>
| 21> %scf
| 22>   MaxIter 150
| 23> end
| 24>
| 25>
| 26>                          ****END OF INPUT****

CARTESIAN COORDINATES (ANGSTROEM)
---------------------------------
  C      0.848880    2.667970   -4.302350
  C      2.093430    1.861040   -4.656840
  H      2.444810    2.041570   -5.674990
  H      2.901750    2.137860   -3.980340
  S      1.879640    0.078590   -4.462970
  F      3.207570   -0.466110   -4.420260
  O      1.075060   -0.056160   -3.268760
  O      1.131660   -0.319960   -5.679030
  H      0.050640    2.401120   -4.963030
  H      1.060430    3.712100   -4.402030
  H      0.562370    2.456840   -3.293270

 Total Charge           Charge          ....    0
 Multiplicity           Mult            ....    1
 Number of Electrons    NEL             ....   58
 Basis Dimension        Dim             ....  285

ORBITAL ENERGIES
----------------

  NO   OCC          E(Eh)            E(eV)
   0   2.0000     -89.262717     -2428.9620
   1   2.0000     -24.898282      -677.5167
   2   2.0000     -19.220377      -523.0131
   3   2.0000     -19.208275      -522.6837
   4   2.0000     -10.280966      -279.7593
   5   2.0000     -10.234783      -278.5026
   6   2.0000      -8.209098      -223.3809
   7   2.0000      -6.149323      -167.3316
   8   2.0000      -6.143310      -167.1680
   9   2.0000      -6.142829      -167.1549
  10   2.0000      -1.423947       -38.7476
  11   2.0000      -1.133245       -30.8372
  12   2.0000      -1.033237       -28.1158
  13   2.0000      -0.842100       -22.9147
  14   2.0000      -0.761011       -20.7082
  15   2.0000      -0.694052       -18.8861
  16   2.0000      -0.610931       -16.6243
  17   2.0000      -0.609098       -16.5744
  18   2.0000      -0.574193       -15.6246
  19   2.0000      -0.506704       -13.7881
  20   2.0000      -0.499333       -13.5875
  21   2.0000      -0.459981       -12.5167
  22   2.0000      -0.442641       -12.0449
  23   2.0000      -0.419353       -11.4112
  24   2.0000      -0.400760       -10.9052
  25   2.0000      -0.396998       -10.8029
  26   2.0000      -0.349180        -9.5017
  27   2.0000      -0.334029        -9.0894
  28   2.0000      -0.320787        -8.7290
  29   0.0000      -0.004041        -0.1100
  30   0.0000       0.016462         0.4479
  31   0.0000       0.028553         0.7770
  32   0.0000       0.031225         0.8497
  33   0.0000       0.049975         1.3599

MULLIKEN ATOMIC CHARGES
-----------------------
   0 C :   -0.849603
   1 C :   -0.157489
   2 H :    0.225885
   3 H :    0.223673
   4 S :    1.032028
   5 F :   -0.086840
   6 O :   -0.536725
   7 O :   -0.558658
   8 H :    0.250193
   9 H :    0.195398
  10 H :    0.262138
Sum of atomic charges:    0.0000000

LOEWDIN ATOMIC CHARGES
----------------------
   0 C :   -0.108824
   1 C :   -0.284466
   2 H :    0.102631
   3 H :    0.095226
   4 S :    0.586425
   5 F :   -0.045304
   6 O :   -0.272330
   7 O :   -0.299273
   8 H :    0.078977
   9 H :    0.075397
  10 H :    0.071540

  Mayer bond orders larger than 0.100000
B(  0-C ,  1-C ) :   0.9468 B(  0-C ,  8-H ) :   0.9599 B(  0-C ,  9-H ) :   0.9721
B(  0-C , 10-H ) :   0.9554 B(  1-C ,  2-H ) :   0.9307 B(  1-C ,  3-H ) :   0.9088
B(  1-C ,  4-S ) :   0.8306 B(  4-S ,  5-F ) :   1.0673 B(  4-S ,  6-O ) :   1.7524
B(  4-S ,  7-O ) :   1.7072

Dispersion correction           -0.007928436
FINAL SINGLE POINT ENERGY      -727.349761210451

DIPOLE MOMENT
-------------
                                X             Y             Z
Electronic contribution:      4.15053      -9.33361       0.10562
Nuclear contribution   :     -3.08754      10.54185      -0.04092
                        -----------------------------------------
Total Dipole Moment    :      1.06298       1.20825       0.06470
                        -----------------------------------------
Magnitude (a.u.)       :      1.61059
Magnitude (Debye)      :      4.09378

Rotational constants in cm-1:     0.158925     0.081210     0.079022
Rotational constants in MHz :  4764.450166  2434.603461  2369.014434

                             ****ORCA TERMINATED NORMALLY****
TOTAL RUN TIME: 0 days 0 hours 0 minutes 41 seconds 218 msec
