                         Program Version 5.0.0 -  RELEASE  -
|  1> !PBE0 D3BJ RIJCOSX def2-TZVPD def2/J TightSCF
|  2> *xyz 0 1
|  3> C         -0.46129        2.23469       -4.98962
|  4> C          0.84888        2.66797       -4.30235
|  5> C         -0.42384        2.39877       -6.47432
|  6> C         -0.95947        3.49265       -7.00740
|  7> N          0.14558        1.48689       -7.20399
|  8> H          0.56537        0.69681       -6.72386
|  9> H          0.22068        1.58177       -8.20752
| 10> H         -1.40624        4.18151       -6.40326
| 11> H         -0.93421        3.68160       -7.99947
| 12> H         -1.28888        2.82674       -4.59500
| 13> H         -0.65170        1.18634       -4.75655
| 14> H          1.66208        2.08894       -4.68750
| 15> H          0.76716        2.51042       -3.24717
| 16> H          1.02677        3.70527       -4.49537
| 17> *
| 18>
| 19> %MaxCore 64000
| 20>
| 21> %pal nprocs 4
| 22> end
| 23>
| 24> %scf
| 25>   MaxIter 150
| 26> end
| 27>
| 28>
| 29>                          ****END OF INPUT****

CARTESIAN COORDINATES (ANGSTROEM)
---------------------------------
  C     -0.461290    2.234690   -4.989620
  C      0.848880    2.667970   -4.302350
  C     -0.423840    2.398770   -6.474320
  C     -0.959470    3.492650   -7.007400
  N      0.145580    1.486890   -7.203990
  H      0.565370    0.696810   -6.723860
  H      0.220680    1.581770   -8.207520
  H     -1.406240    4.181510   -6.403260
  H     -0.934210    3.681600   -7.999470
  H     -1.288880    2.826740   -4.595000
  H     -0.651700    1.186340   -4.756550
  H      1.662080    2.088940   -4.687500
  H      0.767160    2.510420   -3.247170
  H      1.026770    3.705270   -4.495370

 Total Charge           Charge          ....    0
 Multiplicity           Mult            ....    1
 Number of Electrons    NEL             ....   40
 Basis Dimension        Dim             ....  266

ORBITAL ENERGIES
----------------

  NO   OCC          E(Eh)            E(eV)
   0   2.0000     -14.386807      -391.4849
   1   2.0000     -10.240670      -278.6628
   2   2.0000     -10.220728      -278.1202
   3   2.0000     -10.204559      -277.6802
   4   2.0000     -10.150699      -276.2146
   5   2.0000      -0.963501       -26.2182
   6   2.0000      -0.801892       -21.8206
   7   2.0000      -0.735652       -20.0181
   8   2.0000      -0.655474       -17.8363
   9   2.0000      -0.587615       -15.9898
  10   2.0000      -0.546102       -14.8602
  11   2.0000      -0.495228       -13.4758
  12   2.0000      -0.451285       -12.2801
  13   2.0000      -0.433447       -11.7947
  14   2.0000      -0.405284       -11.0283
  15   2.0000      -0.394596       -10.7375
  16   2.0000      -0.364234        -9.9113
  17   2.0000      -0.346799        -9.4369
  18   2.0000      -0.344099        -9.3634
  19   2.0000      -0.197758        -5.3813
  20   0.0000       0.007921         0.2155
  21   0.0000       0.034474         0.9381
  22   0.0000       0.042581         1.1587
  23   0.0000       0.046405         1.2627
  24   0.0000       0.058416         1.5896

MULLIKEN ATOMIC CHARGES
-----------------------
   0 C :   -0.266516
   1 C :   -0.729527
   2 C :    0.806896
   3 C :   -1.160881
   4 N :   -0.330329
   5 H :    0.161267
   6 H :    0.150110
   7 H :    0.205944
   8 H :    0.209381
   9 H :    0.132899
  10 H :    0.188371
  11 H :    0.212352
  12 H :    0.191938
  13 H :    0.228095
Sum of atomic charges:   -0.0000000

LOEWDIN ATOMIC CHARGES
----------------------
   0 C :   -0.202700
   1 C :   -0.091116
   2 C :   -0.513209
   3 C :    0.019577
   4 N :    0.106186
   5 H :    0.113096
   6 H :    0.118119
   7 H :    0.022065
   8 H :    0.015120
   9 H :    0.110421
  10 H :    0.108150
  11 H :    0.062107
  12 H :    0.061914
  13 H :    0.070272

  Mayer bond orders larger than 0.100000
B(  0-C ,  1-C ) :   0.7743 B(  0-C ,  2-C ) :   0.8291 B(  0-C ,  4-N ) :   0.1176
B(  0-C ,  9-H ) :   0.9729 B(  0-C , 10-H ) :   0.9918 B(  1-C ,  2-C ) :   0.1407
B(  1-C , 11-H ) :   0.9603 B(  1-C , 12-H ) :   0.9899 B(  1-C , 13-H ) :   1.0047
B(  2-C ,  3-C ) :   1.2051 B(  2-C ,  4-N ) :   1.0831 B(  3-C ,  4-N ) :   0.1118
B(  3-C ,  7-H ) :   1.0054 B(  3-C ,  8-H ) :   1.0564 B(  4-N ,  5-H ) :   1.0080
B(  4-N ,  6-H ) :   1.0128

Dispersion correction           -0.008838256
FINAL SINGLE POINT ENERGY      -212.391954383361

DIPOLE MOMENT
-------------
                                X             Y             Z
Electronic contribution:     -0.72072      -1.16931      -2.58266
Nuclear contribution   :      1.14741       0.51394       2.60761
                        -----------------------------------------
Total Dipole Moment    :      0.42670      -0.65537       0.02495
                        -----------------------------------------
Magnitude (a.u.)       :      0.78243
Magnitude (Debye)      :      1.98878

Rotational constants in cm-1:     0.269157     0.129188     0.102123
Rotational constants in MHz :  8069.118715  3872.945231  3061.580645

                             ****ORCA TERMINATED NORMALLY****
TOTAL RUN TIME: 0 days 0 hours 0 minutes 41 seconds 774 msec
