                         Program Version 5.0.0 -  RELEASE  -
|  1> !PBE0 D3BJ RIJCOSX def2-TZVPD def2/J TightSCF
|  2> *xyz 0 1
|  3> C          0.84888        2.66797       -4.30235
|  4> C          2.09343        1.86104       -4.65684
|  5> H          2.44481        2.04157       -5.67499
|  6> H          2.90175        2.13786       -3.98034
|  7> S          1.87964        0.07859       -4.46297
|  8> O          3.20757       -0.46611       -4.42026
|  9> F          1.07506       -0.05616       -3.26876
| 10> O          1.13166       -0.31996       -5.67903
| 11> H          0.05064        2.40112       -4.96303
| 12> H          1.06043        3.71210       -4.40203
| 13> H          0.56237        2.45684       -3.29327
| 14> *
| 15>
| 16> %MaxCore 64000
| 17>
| 18> %pal nprocs 4
| 19> end
| 20>
| 21> %scf
| 22>   MaxIter 150
| 23> end
| 24>
| 25>
| 26>                          ****END OF INPUT****

CARTESIAN COORDINATES (ANGSTROEM)
---------------------------------
  C      0.848880    2.667970   -4.302350
  C      2.093430    1.861040   -4.656840
  H      2.444810    2.041570   -5.674990
  H      2.901750    2.137860   -3.980340
  S      1.879640    0.078590   -4.462970
  O      3.207570   -0.466110   -4.420260
  F      1.075060   -0.056160   -3.268760
  O      1.131660   -0.319960   -5.679030
  H      0.050640    2.401120   -4.963030
  H      1.060430    3.712100   -4.402030
  H      0.562370    2.456840   -3.293270

 Total Charge           Charge          ....    0
 Multiplicity           Mult            ....    1
 Number of Electrons    NEL             ....   58
 Basis Dimension        Dim             ....  285

ORBITAL ENERGIES
----------------

  NO   OCC          E(Eh)            E(eV)
   0   2.0000     -89.262091     -2428.9450
   1   2.0000     -24.892600      -677.3621
   2   2.0000     -19.223966      -523.1107
   3   2.0000     -19.208311      -522.6847
   4   2.0000     -10.280846      -279.7560
   5   2.0000     -10.241306      -278.6801
   6   2.0000      -8.208471      -223.3638
   7   2.0000      -6.148885      -167.3197
   8   2.0000      -6.142590      -167.1484
   9   2.0000      -6.142156      -167.1366
  10   2.0000      -1.415142       -38.5080
  11   2.0000      -1.137490       -30.9527
  12   2.0000      -1.036336       -28.2001
  13   2.0000      -0.847338       -23.0572
  14   2.0000      -0.754289       -20.5252
  15   2.0000      -0.696979       -18.9658
  16   2.0000      -0.616186       -16.7673
  17   2.0000      -0.604033       -16.4366
  18   2.0000      -0.565679       -15.3929
  19   2.0000      -0.508972       -13.8498
  20   2.0000      -0.492410       -13.3992
  21   2.0000      -0.467505       -12.7215
  22   2.0000      -0.453648       -12.3444
  23   2.0000      -0.425179       -11.5697
  24   2.0000      -0.409556       -11.1446
  25   2.0000      -0.397817       -10.8252
  26   2.0000      -0.350365        -9.5339
  27   2.0000      -0.334783        -9.1099
  28   2.0000      -0.323897        -8.8137
  29   0.0000      -0.007638        -0.2078
  30   0.0000       0.021860         0.5948
  31   0.0000       0.026294         0.7155
  32   0.0000       0.031227         0.8497
  33   0.0000       0.049123         1.3367

MULLIKEN ATOMIC CHARGES
-----------------------
   0 C :   -0.864112
   1 C :   -0.107671
   2 H :    0.209461
   3 H :    0.215191
   4 S :    1.023801
   5 O :   -0.514490
   6 F :   -0.114981
   7 O :   -0.561986
   8 H :    0.256371
   9 H :    0.190795
  10 H :    0.267621
Sum of atomic charges:    0.0000000

LOEWDIN ATOMIC CHARGES
----------------------
   0 C :   -0.119596
   1 C :   -0.274864
   2 H :    0.112568
   3 H :    0.098570
   4 S :    0.583011
   5 O :   -0.265561
   6 F :   -0.052680
   7 O :   -0.298661
   8 H :    0.075786
   9 H :    0.074283
  10 H :    0.067144

  Mayer bond orders larger than 0.100000
B(  0-C ,  1-C ) :   0.8789 B(  0-C ,  8-H ) :   0.9779 B(  0-C ,  9-H ) :   0.9867
B(  0-C , 10-H ) :   0.9333 B(  1-C ,  2-H ) :   0.9372 B(  1-C ,  3-H ) :   0.9500
B(  1-C ,  4-S ) :   0.8175 B(  4-S ,  5-O ) :   1.7690 B(  4-S ,  6-F ) :   1.0630
B(  4-S ,  7-O ) :   1.7112

Dispersion correction           -0.007876464
FINAL SINGLE POINT ENERGY      -727.354216602883

DIPOLE MOMENT
-------------
                                X             Y             Z
Electronic contribution:      0.56505      -8.61811       2.02638
Nuclear contribution   :     -0.86540      10.11467      -1.24082
                        -----------------------------------------
Total Dipole Moment    :     -0.30035       1.49657       0.78557
                        -----------------------------------------
Magnitude (a.u.)       :      1.71669
Magnitude (Debye)      :      4.36349

Rotational constants in cm-1:     0.154065     0.083345     0.080357
Rotational constants in MHz :  4618.752213  2498.631937  2409.037217

                             ****ORCA TERMINATED NORMALLY****
TOTAL RUN TIME: 0 days 0 hours 0 minutes 41 seconds 998 msec
