                         Program Version 5.0.0 -  RELEASE  -
|  1> !PBE0 D3BJ RIJCOSX def2-TZVPD def2/J TightSCF
|  2> *xyz 0 1
|  3> C         -0.46129        2.23469       -4.98962
|  4> C          0.84888        2.66797       -4.30235
|  5> C         -0.42384        2.39877       -6.47432
|  6> N         -0.95947        3.49265       -7.00740
|  7> C          0.14558        1.48689       -7.20399
|  8> H          0.56537        0.69681       -6.72386
|  9> H          0.22068        1.58177       -8.20752
| 10> H         -1.40624        4.18151       -6.40326
| 11> H         -0.93421        3.68160       -7.99947
| 12> H         -1.28888        2.82674       -4.59500
| 13> H         -0.65170        1.18634       -4.75655
| 14> H          1.66208        2.08894       -4.68750
| 15> H          0.76716        2.51042       -3.24717
| 16> H          1.02677        3.70527       -4.49537
| 17> *
| 18>
| 19> %MaxCore 64000
| 20>
| 21> %pal nprocs 4
| 22> end
| 23>
| 24> %scf
| 25>   MaxIter 150
| 26> end
| 27>
| 28>
| 29>                          ****END OF INPUT****

CARTESIAN COORDINATES (ANGSTROEM)
---------------------------------
  C     -0.461290    2.234690   -4.989620
  C      0.848880    2.667970   -4.302350
  C     -0.423840    2.398770   -6.474320
  N     -0.959470    3.492650   -7.007400
  C      0.145580    1.486890   -7.203990
  H      0.565370    0.696810   -6.723860
  H      0.220680    1.581770   -8.207520
  H     -1.406240    4.181510   -6.403260
  H     -0.934210    3.681600   -7.999470
  H     -1.288880    2.826740   -4.595000
  H     -0.651700    1.186340   -4.756550
  H      1.662080    2.088940   -4.687500
  H      0.767160    2.510420   -3.247170
  H      1.026770    3.705270   -4.495370

 Total Charge           Charge          ....    0
 Multiplicity           Mult            ....    1
 Number of Electrons    NEL             ....   40
 Basis Dimension        Dim             ....  266

ORBITAL ENERGIES
----------------

  NO   OCC          E(Eh)            E(eV)
   0   2.0000     -14.383819      -391.4036
   1   2.0000     -10.238469      -278.6029
   2   2.0000     -10.220442      -278.1124
   3   2.0000     -10.203139      -277.6415
   4   2.0000     -10.148975      -276.1677
   5   2.0000      -0.950852       -25.8740
   6   2.0000      -0.803608       -21.8673
   7   2.0000      -0.739636       -20.1265
   8   2.0000      -0.656384       -17.8611
   9   2.0000      -0.581969       -15.8362
  10   2.0000      -0.535990       -14.5850
  11   2.0000      -0.497603       -13.5405
  12   2.0000      -0.452791       -12.3211
  13   2.0000      -0.428448       -11.6587
  14   2.0000      -0.406134       -11.0515
  15   2.0000      -0.395315       -10.7571
  16   2.0000      -0.361749        -9.8437
  17   2.0000      -0.349214        -9.5026
  18   2.0000      -0.340516        -9.2659
  19   2.0000      -0.201882        -5.4935
  20   0.0000       0.009205         0.2505
  21   0.0000       0.034394         0.9359
  22   0.0000       0.042265         1.1501
  23   0.0000       0.047204         1.2845
  24   0.0000       0.059454         1.6178

MULLIKEN ATOMIC CHARGES
-----------------------
   0 C :   -0.242086
   1 C :   -0.748175
   2 C :    0.809175
   3 N :   -0.331336
   4 C :   -1.152700
   5 H :    0.221157
   6 H :    0.206978
   7 H :    0.158522
   8 H :    0.131381
   9 H :    0.155409
  10 H :    0.163023
  11 H :    0.233838
  12 H :    0.191786
  13 H :    0.203026
Sum of atomic charges:   -0.0000000

LOEWDIN ATOMIC CHARGES
----------------------
   0 C :   -0.201438
   1 C :   -0.090239
   2 C :   -0.503710
   3 N :    0.098452
   4 C :    0.013083
   5 H :    0.030981
   6 H :    0.024801
   7 H :    0.106378
   8 H :    0.108349
   9 H :    0.104660
  10 H :    0.112777
  11 H :    0.067056
  12 H :    0.061566
  13 H :    0.067285

  Mayer bond orders larger than 0.100000
B(  0-C ,  1-C ) :   0.7589 B(  0-C ,  2-C ) :   0.7775 B(  0-C ,  9-H ) :   1.0436
B(  0-C , 10-H ) :   0.9466 B(  1-C ,  2-C ) :   0.1650 B(  1-C , 11-H ) :   0.9761
B(  1-C , 12-H ) :   0.9850 B(  1-C , 13-H ) :   0.9881 B(  2-C ,  3-N ) :   0.9894
B(  2-C ,  4-C ) :   1.2863 B(  3-N ,  4-C ) :   0.1090 B(  3-N ,  7-H ) :   1.0179
B(  3-N ,  8-H ) :   1.0449 B(  4-C ,  5-H ) :   0.9819 B(  4-C ,  6-H ) :   1.0459

Dispersion correction           -0.008843506
FINAL SINGLE POINT ENERGY      -212.391953694117

DIPOLE MOMENT
-------------
                                X             Y             Z
Electronic contribution:     -1.69692       0.57650      -2.40942
Nuclear contribution   :      1.40335       0.04939       2.56207
                        -----------------------------------------
Total Dipole Moment    :     -0.29356       0.62589       0.15265
                        -----------------------------------------
Magnitude (a.u.)       :      0.70797
Magnitude (Debye)      :      1.79952

Rotational constants in cm-1:     0.271383     0.128194     0.101873
Rotational constants in MHz :  8135.853259  3843.152748  3054.074278

                             ****ORCA TERMINATED NORMALLY****
TOTAL RUN TIME: 0 days 0 hours 0 minutes 40 seconds 252 msec
