                         Program Version 5.0.0 -  RELEASE  -
|  1> !PBE0 D3BJ RIJCOSX def2-TZVPD def2/J TightSCF
|  2> *xyz 0 1
|  3> C          0.84888        2.66797       -4.30235
|  4> C          2.09343        1.86104       -4.65684
|  5> H          2.44481        2.04157       -5.67499
|  6> H          2.90175        2.13786       -3.98034
|  7> S          1.87964        0.07859       -4.46297
|  8> O          3.20757       -0.46611       -4.42026
|  9> O          1.07506       -0.05616       -3.26876
| 10> F          1.13166       -0.31996       -5.67903
| 11> H          0.05064        2.40112       -4.96303
| 12> H          1.06043        3.71210       -4.40203
| 13> H          0.56237        2.45684       -3.29327
| 14> *
| 15>
| 16> %MaxCore 64000
| 17>
| 18> %pal nprocs 4
| 19> end
| 20>
| 21> %scf
| 22>   MaxIter 150
| 23> end
| 24>
| 25>
| 26>                          ****END OF INPUT****

CARTESIAN COORDINATES (ANGSTROEM)
---------------------------------
  C      0.848880    2.667970   -4.302350
  C      2.093430    1.861040   -4.656840
  H      2.444810    2.041570   -5.674990
  H      2.901750    2.137860   -3.980340
  S      1.879640    0.078590   -4.462970
  O      3.207570   -0.466110   -4.420260
  O      1.075060   -0.056160   -3.268760
  F      1.131660   -0.319960   -5.679030
  H      0.050640    2.401120   -4.963030
  H      1.060430    3.712100   -4.402030
  H      0.562370    2.456840   -3.293270

 Total Charge           Charge          ....    0
 Multiplicity           Mult            ....    1
 Number of Electrons    NEL             ....   58
 Basis Dimension        Dim             ....  285

ORBITAL ENERGIES
----------------

  NO   OCC          E(Eh)            E(eV)
   0   2.0000     -89.260093     -2428.8906
   1   2.0000     -24.874099      -676.8587
   2   2.0000     -19.223611      -523.1011
   3   2.0000     -19.220186      -523.0078
   4   2.0000     -10.280017      -279.7335
   5   2.0000     -10.235744      -278.5288
   6   2.0000      -8.206539      -223.3113
   7   2.0000      -6.146921      -167.2662
   8   2.0000      -6.140882      -167.1019
   9   2.0000      -6.140136      -167.0816
  10   2.0000      -1.384801       -37.6824
  11   2.0000      -1.146109       -31.1872
  12   2.0000      -1.055403       -28.7190
  13   2.0000      -0.843263       -22.9464
  14   2.0000      -0.742939       -20.2164
  15   2.0000      -0.688715       -18.7409
  16   2.0000      -0.595923       -16.2159
  17   2.0000      -0.582610       -15.8536
  18   2.0000      -0.567288       -15.4367
  19   2.0000      -0.508785       -13.8448
  20   2.0000      -0.494110       -13.4454
  21   2.0000      -0.474462       -12.9108
  22   2.0000      -0.446267       -12.1436
  23   2.0000      -0.418437       -11.3863
  24   2.0000      -0.415346       -11.3021
  25   2.0000      -0.395067       -10.7503
  26   2.0000      -0.356980        -9.7139
  27   2.0000      -0.345507        -9.4017
  28   2.0000      -0.337648        -9.1879
  29   0.0000      -0.004609        -0.1254
  30   0.0000       0.022295         0.6067
  31   0.0000       0.028349         0.7714
  32   0.0000       0.029916         0.8141
  33   0.0000       0.048926         1.3313

MULLIKEN ATOMIC CHARGES
-----------------------
   0 C :   -0.823001
   1 C :   -0.155538
   2 H :    0.238412
   3 H :    0.203973
   4 S :    1.033580
   5 O :   -0.522184
   6 O :   -0.538321
   7 F :   -0.139974
   8 H :    0.249348
   9 H :    0.192806
  10 H :    0.260899
Sum of atomic charges:    0.0000000

LOEWDIN ATOMIC CHARGES
----------------------
   0 C :   -0.119035
   1 C :   -0.275829
   2 H :    0.101576
   3 H :    0.106850
   4 S :    0.586184
   5 O :   -0.266480
   6 O :   -0.270207
   7 F :   -0.080499
   8 H :    0.073209
   9 H :    0.073477
  10 H :    0.070754

  Mayer bond orders larger than 0.100000
B(  0-C ,  1-C ) :   0.9090 B(  0-C ,  8-H ) :   0.9403 B(  0-C ,  9-H ) :   0.9845
B(  0-C , 10-H ) :   0.9769 B(  1-C ,  2-H ) :   0.9165 B(  1-C ,  3-H ) :   0.9434
B(  1-C ,  4-S ) :   0.8288 B(  1-C ,  5-O ) :   0.1035 B(  4-S ,  5-O ) :   1.7627
B(  4-S ,  6-O ) :   1.7502 B(  4-S ,  7-F ) :   1.0126

Dispersion correction           -0.007896858
FINAL SINGLE POINT ENERGY      -727.369579747163

DIPOLE MOMENT
-------------
                                X             Y             Z
Electronic contribution:      0.64460      -9.09135      -2.03919
Nuclear contribution   :     -0.92438      10.38956       1.27076
                        -----------------------------------------
Total Dipole Moment    :     -0.27978       1.29821      -0.76843
                        -----------------------------------------
Magnitude (a.u.)       :      1.53431
Magnitude (Debye)      :      3.89991

Rotational constants in cm-1:     0.154243     0.082247     0.080562
Rotational constants in MHz :  4624.087322  2465.703680  2415.175852

                             ****ORCA TERMINATED NORMALLY****
TOTAL RUN TIME: 0 days 0 hours 0 minutes 40 seconds 532 msec
