                         Program Version 5.0.0 -  RELEASE  -
|  1> !PBE0 D3BJ RIJCOSX def2-TZVPD def2/J TightSCF xyzfile
|  2>
|  3> *xyzfile 0 1 D1.xyz
|  4>
|  5> %MaxCore 64000
|  6>
|  7> %pal nprocs 4
|  8> end
|  9>
| 10> %scf
| 11>   MaxIter 150
| 12> end
| 13>
| 14>
| 15>                          ****END OF INPUT****

CARTESIAN COORDINATES (ANGSTROEM)
---------------------------------
  C     -0.461293    2.234686   -4.989619
  C      0.848883    2.667967   -4.302351
  C      2.093434    1.861037   -4.656845
  H      2.444814    2.041567   -5.674990
  H      2.901748    2.137864   -3.980338
  S      1.879644    0.078594   -4.462965
  C     -0.423841    2.398772   -6.474317
  C     -0.959467    3.492647   -7.007401
  N      0.145585    1.486891   -7.203987
  H      0.565371    0.696807   -6.723858
  H      0.220682    1.581768   -8.207520
  H     -1.406243    4.181507   -6.403261
  H     -0.934215    3.681601   -7.999468
  F      3.207574   -0.466111   -4.420259
  O      1.075064   -0.056160   -3.268758
  O      1.131661   -0.319960   -5.679031
  H      0.668432    2.559427   -3.232850
  H      1.034074    3.729426   -4.497081
  H     -1.288884    2.826737   -4.594997
  H     -0.651696    1.186343   -4.756552

 Total Charge           Charge          ....    0
 Multiplicity           Mult            ....    1
 Number of Electrons    NEL             ....   88
 Basis Dimension        Dim             ....  478

ORBITAL ENERGIES
----------------

  NO   OCC          E(Eh)            E(eV)
   0   2.0000     -89.282484     -2429.4999
   1   2.0000     -24.913821      -677.9395
   2   2.0000     -19.237368      -523.4754
   3   2.0000     -19.234063      -523.3855
   4   2.0000     -14.358494      -390.7145
   5   2.0000     -10.287617      -279.9403
   6   2.0000     -10.250165      -278.9212
   7   2.0000     -10.233963      -278.4803
   8   2.0000     -10.222917      -278.1797
   9   2.0000     -10.143943      -276.0307
  10   2.0000      -8.229004      -223.9226
  11   2.0000      -6.169102      -167.8698
  12   2.0000      -6.163209      -167.7094
  13   2.0000      -6.162857      -167.6999
  14   2.0000      -1.439564       -39.1725
  15   2.0000      -1.155526       -31.4435
  16   2.0000      -1.060936       -28.8695
  17   2.0000      -0.947840       -25.7920
  18   2.0000      -0.858322       -23.3561
  19   2.0000      -0.793313       -21.5872
  20   2.0000      -0.760992       -20.7076
  21   2.0000      -0.715883       -19.4802
  22   2.0000      -0.665308       -18.1039
  23   2.0000      -0.629240       -17.1225
  24   2.0000      -0.618159       -16.8210
  25   2.0000      -0.598005       -16.2726
  26   2.0000      -0.575737       -15.6666
  27   2.0000      -0.542026       -14.7493
  28   2.0000      -0.517502       -14.0819
  29   2.0000      -0.507213       -13.8020
  30   2.0000      -0.488933       -13.3045
  31   2.0000      -0.472894       -12.8681
  32   2.0000      -0.462065       -12.5734
  33   2.0000      -0.428863       -11.6700
  34   2.0000      -0.412374       -11.2213
  35   2.0000      -0.406857       -11.0711
  36   2.0000      -0.394522       -10.7355
  37   2.0000      -0.377407       -10.2698
  38   2.0000      -0.365552        -9.9472
  39   2.0000      -0.358792        -9.7632
  40   2.0000      -0.345699        -9.4070
  41   2.0000      -0.340642        -9.2693
  42   2.0000      -0.332109        -9.0371
  43   2.0000      -0.188180        -5.1206
  44   0.0000      -0.011499        -0.3129
  45   0.0000       0.009981         0.2716
  46   0.0000       0.018061         0.4915
  47   0.0000       0.024876         0.6769
  48   0.0000       0.037797         1.0285

MULLIKEN ATOMIC CHARGES
-----------------------
   0 C :   -0.322310
   1 C :   -0.176481
   2 C :   -0.438398
   3 H :    0.302644
   4 H :    0.180159
   5 S :    1.056055
   6 C :    0.583059
   7 C :   -1.232896
   8 N :   -0.224379
   9 H :    0.199063
  10 H :    0.125174
  11 H :    0.222359
  12 H :    0.218304
  13 F :   -0.075181
  14 O :   -0.539843
  15 O :   -0.629878
  16 H :    0.171283
  17 H :    0.153243
  18 H :    0.124794
  19 H :    0.303229
Sum of atomic charges:    0.0000000

LOEWDIN ATOMIC CHARGES
----------------------
   0 C :   -0.145081
   1 C :   -0.195767
   2 C :   -0.219444
   3 H :    0.109870
   4 H :    0.102474
   5 S :    0.637757
   6 C :   -0.492157
   7 C :    0.016736
   8 N :    0.116715
   9 H :    0.023283
  10 H :    0.123130
  11 H :    0.018058
  12 H :    0.014091
  13 F :   -0.032446
  14 O :   -0.248922
  15 O :   -0.298225
  16 H :    0.111170
  17 H :    0.127894
  18 H :    0.122554
  19 H :    0.108311

  Mayer bond orders larger than 0.100000
B(  0-C ,  1-C ) :   0.8978 B(  0-C ,  6-C ) :   0.8628 B(  0-C , 18-H ) :   0.9606
B(  0-C , 19-H ) :   0.8939 B(  1-C ,  2-C ) :   1.1198 B(  1-C ,  6-C ) :   0.2369
B(  1-C , 16-H ) :   0.8794 B(  1-C , 17-H ) :   0.9304 B(  2-C ,  3-H ) :   0.8614
B(  2-C ,  4-H ) :   0.9361 B(  2-C ,  5-S ) :   0.8059 B(  2-C ,  8-N ) :   0.1560
B(  2-C , 15-O ) :   0.1131 B(  5-S , 13-F ) :   1.0389 B(  5-S , 14-O ) :   1.7754
B(  5-S , 15-O ) :   1.6250 B(  6-C ,  7-C ) :   1.2554 B(  6-C ,  8-N ) :   1.1219
B(  7-C ,  8-N ) :   0.1076 B(  7-C , 11-H ) :   1.0097 B(  7-C , 12-H ) :   1.0202
B(  8-N ,  9-H ) :   0.9024 B(  8-N , 10-H ) :   0.9973

Dispersion correction           -0.019871998
FINAL SINGLE POINT ENERGY      -899.268545600415

DIPOLE MOMENT
-------------
                                X             Y             Z
Electronic contribution:     10.14979     -13.94372       5.46662
Nuclear contribution   :     -8.53047      14.15581      -5.17613
                        -----------------------------------------
Total Dipole Moment    :      1.61932       0.21209       0.29048
                        -----------------------------------------
Magnitude (a.u.)       :      1.65879
Magnitude (Debye)      :      4.21630

Rotational constants in cm-1:     0.081196     0.024861     0.022477
Rotational constants in MHz :  2434.181666   745.320670   673.846846

                             ****ORCA TERMINATED NORMALLY****
TOTAL RUN TIME: 0 days 0 hours 2 minutes 26 seconds 173 msec
