                         Program Version 5.0.0 -  RELEASE  -
|  1> !PBE0 D3BJ RIJCOSX def2-TZVPD def2/J TightSCF xyzfile
|  2>
|  3> *xyzfile 0 1 D2.xyz
|  4>
|  5> %MaxCore 64000
|  6>
|  7> %pal nprocs 4
|  8> end
|  9>
| 10> %scf
| 11>   MaxIter 150
| 12> end
| 13>
| 14>
| 15>                          ****END OF INPUT****

CARTESIAN COORDINATES (ANGSTROEM)
---------------------------------
  C     -0.461293    2.234686   -4.989619
  C      0.848883    2.667967   -4.302351
  C      2.093434    1.861037   -4.656845
  H      2.444814    2.041567   -5.674990
  H      2.901748    2.137864   -3.980338
  S      1.879644    0.078594   -4.462965
  C     -0.423841    2.398772   -6.474317
  N     -0.959467    3.492647   -7.007401
  C      0.145585    1.486891   -7.203987
  H      0.565371    0.696807   -6.723858
  H      0.220682    1.581768   -8.207520
  H     -1.406243    4.181507   -6.403261
  H     -0.934215    3.681601   -7.999468
  F      3.207574   -0.466111   -4.420259
  O      1.075064   -0.056160   -3.268758
  O      1.131661   -0.319960   -5.679031
  H      0.668432    2.559427   -3.232850
  H      1.034074    3.729426   -4.497081
  H     -1.288884    2.826737   -4.594997
  H     -0.651696    1.186343   -4.756552

 Total Charge           Charge          ....    0
 Multiplicity           Mult            ....    1
 Number of Electrons    NEL             ....   88
 Basis Dimension        Dim             ....  478

ORBITAL ENERGIES
----------------

  NO   OCC          E(Eh)            E(eV)
   0   2.0000     -89.264557     -2429.0121
   1   2.0000     -24.898463      -677.5216
   2   2.0000     -19.222016      -523.0576
   3   2.0000     -19.211395      -522.7686
   4   2.0000     -14.378399      -391.2561
   5   2.0000     -10.276575      -279.6398
   6   2.0000     -10.247636      -278.8524
   7   2.0000     -10.230499      -278.3860
   8   2.0000     -10.223027      -278.1827
   9   2.0000     -10.127497      -275.5832
  10   2.0000      -8.211142      -223.4365
  11   2.0000      -6.151353      -167.3868
  12   2.0000      -6.145226      -167.2201
  13   2.0000      -6.145004      -167.2141
  14   2.0000      -1.424351       -38.7586
  15   2.0000      -1.137869       -30.9630
  16   2.0000      -1.041154       -28.3312
  17   2.0000      -0.946084       -25.7443
  18   2.0000      -0.851173       -23.1616
  19   2.0000      -0.790573       -21.5126
  20   2.0000      -0.747710       -20.3462
  21   2.0000      -0.721931       -19.6447
  22   2.0000      -0.657441       -17.8899
  23   2.0000      -0.614102       -16.7106
  24   2.0000      -0.607064       -16.5190
  25   2.0000      -0.580168       -15.7872
  26   2.0000      -0.578588       -15.7442
  27   2.0000      -0.529684       -14.4134
  28   2.0000      -0.510659       -13.8957
  29   2.0000      -0.501027       -13.6336
  30   2.0000      -0.487411       -13.2631
  31   2.0000      -0.472680       -12.8623
  32   2.0000      -0.454740       -12.3741
  33   2.0000      -0.419549       -11.4165
  34   2.0000      -0.413187       -11.2434
  35   2.0000      -0.401616       -10.9285
  36   2.0000      -0.387306       -10.5391
  37   2.0000      -0.373427       -10.1615
  38   2.0000      -0.351028        -9.5520
  39   2.0000      -0.349838        -9.5196
  40   2.0000      -0.334146        -9.0926
  41   2.0000      -0.329455        -8.9649
  42   2.0000      -0.308060        -8.3827
  43   2.0000      -0.194116        -5.2822
  44   0.0000      -0.002272        -0.0618
  45   0.0000       0.009513         0.2589
  46   0.0000       0.022417         0.6100
  47   0.0000       0.023760         0.6465
  48   0.0000       0.045111         1.2275

MULLIKEN ATOMIC CHARGES
-----------------------
   0 C :   -0.381877
   1 C :   -0.179634
   2 C :   -0.464280
   3 H :    0.368450
   4 H :    0.164313
   5 S :    1.005252
   6 C :    0.707801
   7 N :   -0.333889
   8 C :   -1.590169
   9 H :    0.711233
  10 H :    0.148936
  11 H :    0.163631
  12 H :    0.127536
  13 F :   -0.083017
  14 O :   -0.552183
  15 O :   -0.525876
  16 H :    0.169386
  17 H :    0.103401
  18 H :    0.164520
  19 H :    0.276467
Sum of atomic charges:   -0.0000000

LOEWDIN ATOMIC CHARGES
----------------------
   0 C :   -0.142517
   1 C :   -0.198115
   2 C :   -0.220096
   3 H :    0.108643
   4 H :    0.100939
   5 S :    0.629447
   6 C :   -0.475376
   7 N :    0.094868
   8 C :    0.026235
   9 H :   -0.035418
  10 H :    0.037122
  11 H :    0.103176
  12 H :    0.107350
  13 F :   -0.037879
  14 O :   -0.259155
  15 O :   -0.302477
  16 H :    0.110304
  17 H :    0.124367
  18 H :    0.116785
  19 H :    0.111796

  Mayer bond orders larger than 0.100000
B(  0-C ,  1-C ) :   0.9095 B(  0-C ,  6-C ) :   0.8071 B(  0-C ,  7-N ) :   0.1244
B(  0-C , 18-H ) :   0.9914 B(  0-C , 19-H ) :   0.9095 B(  1-C ,  2-C ) :   1.1296
B(  1-C ,  5-S ) :   0.1030 B(  1-C ,  6-C ) :   0.2216 B(  1-C , 16-H ) :   0.8798
B(  1-C , 17-H ) :   0.9341 B(  2-C ,  3-H ) :   0.8369 B(  2-C ,  4-H ) :   0.9414
B(  2-C ,  5-S ) :   0.7842 B(  2-C ,  8-C ) :   0.1558 B(  2-C , 15-O ) :   0.1284
B(  5-S , 13-F ) :   1.0322 B(  5-S , 14-O ) :   1.7587 B(  5-S , 15-O ) :   1.7058
B(  6-C ,  7-N ) :   0.9378 B(  6-C ,  8-C ) :   1.0792 B(  6-C , 10-H ) :  -0.1483
B(  7-N ,  8-C ) :   0.1048 B(  7-N , 11-H ) :   1.0219 B(  7-N , 12-H ) :   1.0479
B(  8-C ,  9-H ) :   0.5212 B(  8-C , 10-H ) :   1.1477 B(  9-H , 15-O ) :  -0.2157

Dispersion correction           -0.019997319
FINAL SINGLE POINT ENERGY      -899.249350478468

DIPOLE MOMENT
-------------
                                X             Y             Z
Electronic contribution:      9.24176     -12.46820       5.39827
Nuclear contribution   :     -8.42493      13.96425      -5.19491
                        -----------------------------------------
Total Dipole Moment    :      0.81683       1.49605       0.20336
                        -----------------------------------------
Magnitude (a.u.)       :      1.71661
Magnitude (Debye)      :      4.36327

Rotational constants in cm-1:     0.082815     0.024151     0.022015
Rotational constants in MHz :  2482.732265   724.035221   660.002136

                             ****ORCA TERMINATED NORMALLY****
TOTAL RUN TIME: 0 days 0 hours 2 minutes 37 seconds 588 msec
