                         Program Version 5.0.0 -  RELEASE  -
|  1> !PBE0 D3BJ RIJCOSX def2-TZVPD def2/J TightSCF xyzfile
|  2>
|  3> *xyzfile 0 1 D3.xyz
|  4>
|  5> %MaxCore 64000
|  6>
|  7> %pal nprocs 4
|  8> end
|  9>
| 10> %scf
| 11>   MaxIter 150
| 12> end
| 13>
| 14>
| 15>                          ****END OF INPUT****

CARTESIAN COORDINATES (ANGSTROEM)
---------------------------------
  C     -0.461293    2.234686   -4.989619
  C      0.848883    2.667967   -4.302351
  C      2.093434    1.861037   -4.656845
  H      2.444814    2.041567   -5.674990
  H      2.901748    2.137864   -3.980338
  S      1.879644    0.078594   -4.462965
  C     -0.423841    2.398772   -6.474317
  C     -0.959467    3.492647   -7.007401
  N      0.145585    1.486891   -7.203987
  H      0.565371    0.696807   -6.723858
  H      0.220682    1.581768   -8.207520
  H     -1.406243    4.181507   -6.403261
  H     -0.934215    3.681601   -7.999468
  O      3.207574   -0.466111   -4.420259
  F      1.075064   -0.056160   -3.268758
  O      1.131661   -0.319960   -5.679031
  H      0.668432    2.559427   -3.232850
  H      1.034074    3.729426   -4.497081
  H     -1.288884    2.826737   -4.594997
  H     -0.651696    1.186343   -4.756552

 Total Charge           Charge          ....    0
 Multiplicity           Mult            ....    1
 Number of Electrons    NEL             ....   88
 Basis Dimension        Dim             ....  478

ORBITAL ENERGIES
----------------

  NO   OCC          E(Eh)            E(eV)
   0   2.0000     -89.281602     -2429.4759
   1   2.0000     -24.907880      -677.7779
   2   2.0000     -19.240254      -523.5539
   3   2.0000     -19.232950      -523.3552
   4   2.0000     -14.361154      -390.7869
   5   2.0000     -10.287166      -279.9280
   6   2.0000     -10.255560      -279.0680
   7   2.0000     -10.239507      -278.6312
   8   2.0000     -10.233488      -278.4674
   9   2.0000     -10.148705      -276.1603
  10   2.0000      -8.228090      -223.8977
  11   2.0000      -6.168418      -167.8512
  12   2.0000      -6.162378      -167.6868
  13   2.0000      -6.161677      -167.6678
  14   2.0000      -1.430551       -38.9273
  15   2.0000      -1.158221       -31.5168
  16   2.0000      -1.064092       -28.9554
  17   2.0000      -0.951563       -25.8933
  18   2.0000      -0.864425       -23.5222
  19   2.0000      -0.792166       -21.5559
  20   2.0000      -0.760136       -20.6843
  21   2.0000      -0.720610       -19.6088
  22   2.0000      -0.666499       -18.1364
  23   2.0000      -0.626574       -17.0499
  24   2.0000      -0.623703       -16.9718
  25   2.0000      -0.593461       -16.1489
  26   2.0000      -0.581130       -15.8134
  27   2.0000      -0.536677       -14.6037
  28   2.0000      -0.516548       -14.0560
  29   2.0000      -0.510345       -13.8872
  30   2.0000      -0.491245       -13.3675
  31   2.0000      -0.476329       -12.9616
  32   2.0000      -0.468345       -12.7443
  33   2.0000      -0.436104       -11.8670
  34   2.0000      -0.419649       -11.4192
  35   2.0000      -0.412979       -11.2377
  36   2.0000      -0.397325       -10.8118
  37   2.0000      -0.392374       -10.6770
  38   2.0000      -0.363129        -9.8812
  39   2.0000      -0.359361        -9.7787
  40   2.0000      -0.353454        -9.6180
  41   2.0000      -0.342889        -9.3305
  42   2.0000      -0.335397        -9.1266
  43   2.0000      -0.192188        -5.2297
  44   0.0000      -0.012835        -0.3493
  45   0.0000       0.013778         0.3749
  46   0.0000       0.016467         0.4481
  47   0.0000       0.024747         0.6734
  48   0.0000       0.035645         0.9700

MULLIKEN ATOMIC CHARGES
-----------------------
   0 C :   -0.194151
   1 C :   -0.176140
   2 C :   -0.362914
   3 H :    0.276002
   4 H :    0.148594
   5 S :    1.053304
   6 C :    0.542682
   7 C :   -1.238317
   8 N :   -0.224565
   9 H :    0.213804
  10 H :    0.123043
  11 H :    0.221452
  12 H :    0.219957
  13 O :   -0.518133
  14 F :   -0.120743
  15 O :   -0.625347
  16 H :    0.153612
  17 H :    0.153856
  18 H :    0.110978
  19 H :    0.243026
Sum of atomic charges:    0.0000000

LOEWDIN ATOMIC CHARGES
----------------------
   0 C :   -0.151253
   1 C :   -0.206271
   2 C :   -0.209124
   3 H :    0.119665
   4 H :    0.105740
   5 S :    0.633568
   6 C :   -0.492118
   7 C :    0.018782
   8 N :    0.118367
   9 H :    0.024362
  10 H :    0.124396
  11 H :    0.018562
  12 H :    0.015622
  13 O :   -0.247500
  14 F :   -0.035381
  15 O :   -0.296785
  16 H :    0.107152
  17 H :    0.126484
  18 H :    0.121746
  19 H :    0.103987

  Mayer bond orders larger than 0.100000
B(  0-C ,  1-C ) :   0.8492 B(  0-C ,  6-C ) :   0.9121 B(  0-C , 18-H ) :   0.9881
B(  0-C , 19-H ) :   0.8637 B(  1-C ,  2-C ) :   1.0757 B(  1-C ,  6-C ) :   0.2292
B(  1-C , 16-H ) :   0.9197 B(  1-C , 17-H ) :   0.9199 B(  2-C ,  3-H ) :   0.8815
B(  2-C ,  4-H ) :   1.0203 B(  2-C ,  5-S ) :   0.7891 B(  2-C ,  8-N ) :   0.1538
B(  2-C , 13-O ) :   0.1039 B(  2-C , 15-O ) :   0.1057 B(  5-S , 13-O ) :   1.7215
B(  5-S , 14-F ) :   1.0698 B(  5-S , 15-O ) :   1.6275 B(  6-C ,  7-C ) :   1.2611
B(  6-C ,  8-N ) :   1.1365 B(  7-C ,  8-N ) :   0.1107 B(  7-C , 11-H ) :   1.0129
B(  7-C , 12-H ) :   1.0164 B(  8-N ,  9-H ) :   0.8914 B(  8-N , 10-H ) :   0.9939

Dispersion correction           -0.019757934
FINAL SINGLE POINT ENERGY      -899.272761570637

DIPOLE MOMENT
-------------
                                X             Y             Z
Electronic contribution:      6.46993     -13.17969       7.37247
Nuclear contribution   :     -6.19944      13.70770      -6.43483
                        -----------------------------------------
Total Dipole Moment    :      0.27049       0.52800       0.93764
                        -----------------------------------------
Magnitude (a.u.)       :      1.10956
Magnitude (Debye)      :      2.82027

Rotational constants in cm-1:     0.079903     0.025241     0.022805
Rotational constants in MHz :  2395.439281   756.708181   683.680583

                             ****ORCA TERMINATED NORMALLY****
TOTAL RUN TIME: 0 days 0 hours 2 minutes 28 seconds 698 msec
