                         Program Version 5.0.0 -  RELEASE  -
|  1> !PBE0 D3BJ RIJCOSX def2-TZVPD def2/J TightSCF xyzfile
|  2>
|  3> *xyzfile 0 1 D4.xyz
|  4>
|  5> %MaxCore 64000
|  6>
|  7> %pal nprocs 4
|  8> end
|  9>
| 10> %scf
| 11>   MaxIter 150
| 12> end
| 13>
| 14>
| 15>                          ****END OF INPUT****

CARTESIAN COORDINATES (ANGSTROEM)
---------------------------------
  C     -0.461293    2.234686   -4.989619
  C      0.848883    2.667967   -4.302351
  C      2.093434    1.861037   -4.656845
  H      2.444814    2.041567   -5.674990
  H      2.901748    2.137864   -3.980338
  S      1.879644    0.078594   -4.462965
  C     -0.423841    2.398772   -6.474317
  N     -0.959467    3.492647   -7.007401
  C      0.145585    1.486891   -7.203987
  H      0.565371    0.696807   -6.723858
  H      0.220682    1.581768   -8.207520
  H     -1.406243    4.181507   -6.403261
  H     -0.934215    3.681601   -7.999468
  O      3.207574   -0.466111   -4.420259
  F      1.075064   -0.056160   -3.268758
  O      1.131661   -0.319960   -5.679031
  H      0.668432    2.559427   -3.232850
  H      1.034074    3.729426   -4.497081
  H     -1.288884    2.826737   -4.594997
  H     -0.651696    1.186343   -4.756552

 Total Charge           Charge          ....    0
 Multiplicity           Mult            ....    1
 Number of Electrons    NEL             ....   88
 Basis Dimension        Dim             ....  478

ORBITAL ENERGIES
----------------

  NO   OCC          E(Eh)            E(eV)
   0   2.0000     -89.263484     -2428.9829
   1   2.0000     -24.893598      -677.3892
   2   2.0000     -19.224087      -523.1140
   3   2.0000     -19.210271      -522.7381
   4   2.0000     -14.382232      -391.3604
   5   2.0000     -10.276218      -279.6301
   6   2.0000     -10.253107      -279.0012
   7   2.0000     -10.235377      -278.5188
   8   2.0000     -10.233519      -278.4682
   9   2.0000     -10.131233      -275.6849
  10   2.0000      -8.210063      -223.4072
  11   2.0000      -6.150540      -167.3647
  12   2.0000      -6.144025      -167.1874
  13   2.0000      -6.143812      -167.1816
  14   2.0000      -1.416474       -38.5442
  15   2.0000      -1.140298       -31.0291
  16   2.0000      -1.043717       -28.4010
  17   2.0000      -0.950484       -25.8640
  18   2.0000      -0.857918       -23.3451
  19   2.0000      -0.790520       -21.5111
  20   2.0000      -0.746404       -20.3107
  21   2.0000      -0.726088       -19.7579
  22   2.0000      -0.659345       -17.9417
  23   2.0000      -0.616936       -16.7877
  24   2.0000      -0.608397       -16.5553
  25   2.0000      -0.584726       -15.9112
  26   2.0000      -0.572495       -15.5784
  27   2.0000      -0.532793       -14.4980
  28   2.0000      -0.511384       -13.9155
  29   2.0000      -0.495344       -13.4790
  30   2.0000      -0.492395       -13.3988
  31   2.0000      -0.478294       -13.0150
  32   2.0000      -0.458650       -12.4805
  33   2.0000      -0.426166       -11.5966
  34   2.0000      -0.416006       -11.3201
  35   2.0000      -0.408242       -11.1088
  36   2.0000      -0.392298       -10.6750
  37   2.0000      -0.386918       -10.5286
  38   2.0000      -0.356055        -9.6887
  39   2.0000      -0.346828        -9.4377
  40   2.0000      -0.339897        -9.2491
  41   2.0000      -0.335500        -9.1294
  42   2.0000      -0.305385        -8.3100
  43   2.0000      -0.198045        -5.3891
  44   0.0000      -0.006565        -0.1786
  45   0.0000       0.012043         0.3277
  46   0.0000       0.019912         0.5418
  47   0.0000       0.022912         0.6235
  48   0.0000       0.041512         1.1296

MULLIKEN ATOMIC CHARGES
-----------------------
   0 C :   -0.259055
   1 C :   -0.168563
   2 C :   -0.388448
   3 H :    0.334911
   4 H :    0.138883
   5 S :    1.002101
   6 C :    0.660854
   7 N :   -0.333924
   8 C :   -1.581672
   9 H :    0.709789
  10 H :    0.156795
  11 H :    0.161273
  12 H :    0.129060
  13 O :   -0.536536
  14 F :   -0.123122
  15 O :   -0.523344
  16 H :    0.150489
  17 H :    0.102905
  18 H :    0.149702
  19 H :    0.217902
Sum of atomic charges:    0.0000000

LOEWDIN ATOMIC CHARGES
----------------------
   0 C :   -0.148611
   1 C :   -0.208309
   2 C :   -0.209815
   3 H :    0.118399
   4 H :    0.104146
   5 S :    0.624701
   6 C :   -0.475772
   7 N :    0.095059
   8 C :    0.030151
   9 H :   -0.034256
  10 H :    0.038990
  11 H :    0.103237
  12 H :    0.108339
  13 O :   -0.255771
  14 F :   -0.042247
  15 O :   -0.301199
  16 H :    0.106364
  17 H :    0.123071
  18 H :    0.116031
  19 H :    0.107492

  Mayer bond orders larger than 0.100000
B(  0-C ,  1-C ) :   0.8580 B(  0-C ,  6-C ) :   0.8548 B(  0-C ,  7-N ) :   0.1251
B(  0-C , 18-H ) :   1.0223 B(  0-C , 19-H ) :   0.8771 B(  1-C ,  2-C ) :   1.0765
B(  1-C ,  6-C ) :   0.2141 B(  1-C , 16-H ) :   0.9135 B(  1-C , 17-H ) :   0.9263
B(  2-C ,  3-H ) :   0.8601 B(  2-C ,  4-H ) :   1.0218 B(  2-C ,  5-S ) :   0.7695
B(  2-C ,  8-C ) :   0.1627 B(  2-C , 13-O ) :   0.1094 B(  2-C , 15-O ) :   0.1174
B(  5-S , 13-O ) :   1.7105 B(  5-S , 14-F ) :   1.0601 B(  5-S , 15-O ) :   1.7085
B(  6-C ,  7-N ) :   0.9347 B(  6-C ,  8-C ) :   1.0960 B(  6-C , 10-H ) :  -0.1502
B(  7-N ,  8-C ) :   0.1076 B(  7-N , 11-H ) :   1.0235 B(  7-N , 12-H ) :   1.0459
B(  8-C ,  9-H ) :   0.5528 B(  8-C , 10-H ) :   1.1360 B(  9-H , 10-H ) :   0.1010
B(  9-H , 15-O ) :  -0.2311

Dispersion correction           -0.019882813
FINAL SINGLE POINT ENERGY      -899.252520204799

DIPOLE MOMENT
-------------
                                X             Y             Z
Electronic contribution:      5.55303     -11.71524       7.31199
Nuclear contribution   :     -6.09390      13.51614      -6.45360
                        -----------------------------------------
Total Dipole Moment    :     -0.54087       1.80089       0.85839
                        -----------------------------------------
Magnitude (a.u.)       :      2.06702
Magnitude (Debye)      :      5.25396

Rotational constants in cm-1:     0.081469     0.024519     0.022336
Rotational constants in MHz :  2442.393231   735.066768   669.628729

                             ****ORCA TERMINATED NORMALLY****
TOTAL RUN TIME: 0 days 0 hours 2 minutes 36 seconds 868 msec
