                         Program Version 5.0.0 -  RELEASE  -
|  1> !PBE0 D3BJ RIJCOSX def2-TZVPD def2/J TightSCF xyzfile
|  2>
|  3> *xyzfile 0 1 D5.xyz
|  4>
|  5> %MaxCore 64000
|  6>
|  7> %pal nprocs 4
|  8> end
|  9>
| 10> %scf
| 11>   MaxIter 150
| 12> end
| 13>
| 14>
| 15>                          ****END OF INPUT****

CARTESIAN COORDINATES (ANGSTROEM)
---------------------------------
  C     -0.461293    2.234686   -4.989619
  C      0.848883    2.667967   -4.302351
  C      2.093434    1.861037   -4.656845
  H      2.444814    2.041567   -5.674990
  H      2.901748    2.137864   -3.980338
  S      1.879644    0.078594   -4.462965
  C     -0.423841    2.398772   -6.474317
  C     -0.959467    3.492647   -7.007401
  N      0.145585    1.486891   -7.203987
  H      0.565371    0.696807   -6.723858
  H      0.220682    1.581768   -8.207520
  H     -1.406243    4.181507   -6.403261
  H     -0.934215    3.681601   -7.999468
  O      3.207574   -0.466111   -4.420259
  O      1.075064   -0.056160   -3.268758
  F      1.131661   -0.319960   -5.679031
  H      0.668432    2.559427   -3.232850
  H      1.034074    3.729426   -4.497081
  H     -1.288884    2.826737   -4.594997
  H     -0.651696    1.186343   -4.756552

 Total Charge           Charge          ....    0
 Multiplicity           Mult            ....    1
 Number of Electrons    NEL             ....   88
 Basis Dimension        Dim             ....  478

ORBITAL ENERGIES
----------------

  NO   OCC          E(Eh)            E(eV)
   0   2.0000     -89.272158     -2429.2189
   1   2.0000     -24.899302      -677.5445
   2   2.0000     -19.235148      -523.4150
   3   2.0000     -19.231404      -523.3131
   4   2.0000     -14.388802      -391.5392
   5   2.0000     -10.284169      -279.8465
   6   2.0000     -10.251198      -278.9493
   7   2.0000     -10.250662      -278.9347
   8   2.0000     -10.236785      -278.5571
   9   2.0000     -10.160841      -276.4905
  10   2.0000      -8.219085      -223.6527
  11   2.0000      -6.159807      -167.6169
  12   2.0000      -6.153074      -167.4337
  13   2.0000      -6.152462      -167.4170
  14   2.0000      -1.414424       -38.4884
  15   2.0000      -1.159042       -31.5391
  16   2.0000      -1.066742       -29.0275
  17   2.0000      -0.973814       -26.4988
  18   2.0000      -0.860670       -23.4200
  19   2.0000      -0.794701       -21.6249
  20   2.0000      -0.769564       -20.9409
  21   2.0000      -0.721853       -19.6426
  22   2.0000      -0.676397       -18.4057
  23   2.0000      -0.624797       -17.0016
  24   2.0000      -0.610508       -16.6128
  25   2.0000      -0.593203       -16.1419
  26   2.0000      -0.575069       -15.6484
  27   2.0000      -0.551958       -15.0195
  28   2.0000      -0.519400       -14.1336
  29   2.0000      -0.503280       -13.6950
  30   2.0000      -0.491649       -13.3784
  31   2.0000      -0.485984       -13.2243
  32   2.0000      -0.464431       -12.6378
  33   2.0000      -0.438492       -11.9320
  34   2.0000      -0.420287       -11.4366
  35   2.0000      -0.411235       -11.1903
  36   2.0000      -0.403330       -10.9752
  37   2.0000      -0.391753       -10.6602
  38   2.0000      -0.367737       -10.0066
  39   2.0000      -0.364818        -9.9272
  40   2.0000      -0.354944        -9.6585
  41   2.0000      -0.349539        -9.5114
  42   2.0000      -0.344500        -9.3743
  43   2.0000      -0.207520        -5.6469
  44   0.0000      -0.006709        -0.1826
  45   0.0000       0.014327         0.3899
  46   0.0000       0.015407         0.4193
  47   0.0000       0.020294         0.5522
  48   0.0000       0.035832         0.9750

MULLIKEN ATOMIC CHARGES
-----------------------
   0 C :   -0.333956
   1 C :   -0.107640
   2 C :   -0.417255
   3 H :    0.297135
   4 H :    0.146363
   5 S :    1.000391
   6 C :    0.661962
   7 C :   -1.229379
   8 N :   -0.263908
   9 H :    0.257503
  10 H :    0.120919
  11 H :    0.223258
  12 H :    0.216088
  13 O :   -0.529159
  14 O :   -0.535742
  15 F :   -0.213648
  16 H :    0.178368
  17 H :    0.165239
  18 H :    0.118727
  19 H :    0.244734
Sum of atomic charges:    0.0000000

LOEWDIN ATOMIC CHARGES
----------------------
   0 C :   -0.147420
   1 C :   -0.202802
   2 C :   -0.215743
   3 H :    0.108090
   4 H :    0.113386
   5 S :    0.607819
   6 C :   -0.490611
   7 C :    0.027596
   8 N :    0.118841
   9 H :    0.053795
  10 H :    0.127106
  11 H :    0.023575
  12 H :    0.017881
  13 O :   -0.252805
  14 O :   -0.252358
  15 F :   -0.103794
  16 H :    0.112087
  17 H :    0.125867
  18 H :    0.124255
  19 H :    0.105234

  Mayer bond orders larger than 0.100000
B(  0-C ,  1-C ) :   0.8671 B(  0-C ,  2-C ) :   0.1285 B(  0-C ,  6-C ) :   0.8533
B(  0-C , 18-H ) :   0.9592 B(  0-C , 19-H ) :   0.9210 B(  1-C ,  2-C ) :   1.0418
B(  1-C ,  6-C ) :   0.2171 B(  1-C , 16-H ) :   0.8937 B(  1-C , 17-H ) :   0.9407
B(  2-C ,  3-H ) :   0.8738 B(  2-C ,  4-H ) :   0.9733 B(  2-C ,  5-S ) :   0.7933
B(  2-C ,  8-N ) :   0.1579 B(  2-C , 13-O ) :   0.1072 B(  5-S , 13-O ) :   1.7096
B(  5-S , 14-O ) :   1.7677 B(  5-S , 15-F ) :   1.0046 B(  6-C ,  7-C ) :   1.2230
B(  6-C ,  8-N ) :   1.0725 B(  7-C ,  8-N ) :   0.1015 B(  7-C , 11-H ) :   1.0060
B(  7-C , 12-H ) :   1.0258 B(  8-N ,  9-H ) :   0.9228 B(  8-N , 10-H ) :   1.0075

Dispersion correction           -0.019667590
FINAL SINGLE POINT ENERGY      -899.275559963438

DIPOLE MOMENT
-------------
                                X             Y             Z
Electronic contribution:      6.41911     -13.43800       3.17136
Nuclear contribution   :     -6.26130      13.99605      -3.80018
                        -----------------------------------------
Total Dipole Moment    :      0.15780       0.55805      -0.62882
                        -----------------------------------------
Magnitude (a.u.)       :      0.85542
Magnitude (Debye)      :      2.17429

Rotational constants in cm-1:     0.079895     0.025630     0.022948
Rotational constants in MHz :  2395.188639   768.373696   687.955250

                             ****ORCA TERMINATED NORMALLY****
TOTAL RUN TIME: 0 days 0 hours 2 minutes 25 seconds 72 msec
