                         Program Version 5.0.0 -  RELEASE  -
|  1> !PBE0 D3BJ RIJCOSX def2-TZVPD def2/J TightSCF xyzfile
|  2>
|  3> *xyzfile 0 1 D6.xyz
|  4>
|  5> %MaxCore 64000
|  6>
|  7> %pal nprocs 4
|  8> end
|  9>
| 10> %scf
| 11>   MaxIter 150
| 12> end
| 13>
| 14>
| 15>                          ****END OF INPUT****

CARTESIAN COORDINATES (ANGSTROEM)
---------------------------------
  C     -0.461293    2.234686   -4.989619
  C      0.848883    2.667967   -4.302351
  C      2.093434    1.861037   -4.656845
  H      2.444814    2.041567   -5.674990
  H      2.901748    2.137864   -3.980338
  S      1.879644    0.078594   -4.462965
  C     -0.423841    2.398772   -6.474317
  N     -0.959467    3.492647   -7.007401
  C      0.145585    1.486891   -7.203987
  H      0.565371    0.696807   -6.723858
  H      0.220682    1.581768   -8.207520
  H     -1.406243    4.181507   -6.403261
  H     -0.934215    3.681601   -7.999468
  O      3.207574   -0.466111   -4.420259
  O      1.075064   -0.056160   -3.268758
  F      1.131661   -0.319960   -5.679031
  H      0.668432    2.559427   -3.232850
  H      1.034074    3.729426   -4.497081
  H     -1.288884    2.826737   -4.594997
  H     -0.651696    1.186343   -4.756552

 Total Charge           Charge          ....    0
 Multiplicity           Mult            ....    1
 Number of Electrons    NEL             ....   88
 Basis Dimension        Dim             ....  478

ORBITAL ENERGIES
----------------

  NO   OCC          E(Eh)            E(eV)
   0   2.0000     -89.259026     -2428.8616
   1   2.0000     -24.874058      -676.8575
   2   2.0000     -19.222156      -523.0615
   3   2.0000     -19.219352      -522.9852
   4   2.0000     -14.394490      -391.6940
   5   2.0000     -10.273902      -279.5671
   6   2.0000     -10.250676      -278.9351
   7   2.0000     -10.249134      -278.8931
   8   2.0000     -10.237183      -278.5679
   9   2.0000     -10.153349      -276.2867
  10   2.0000      -8.205664      -223.2875
  11   2.0000      -6.146123      -167.2445
  12   2.0000      -6.139916      -167.0756
  13   2.0000      -6.139208      -167.0563
  14   2.0000      -1.390498       -37.8374
  15   2.0000      -1.145876       -31.1809
  16   2.0000      -1.054636       -28.6981
  17   2.0000      -0.962627       -26.1944
  18   2.0000      -0.855955       -23.2917
  19   2.0000      -0.795075       -21.6351
  20   2.0000      -0.746764       -20.3205
  21   2.0000      -0.733246       -19.9526
  22   2.0000      -0.657943       -17.9035
  23   2.0000      -0.619729       -16.8637
  24   2.0000      -0.587876       -15.9969
  25   2.0000      -0.576274       -15.6812
  26   2.0000      -0.567419       -15.4403
  27   2.0000      -0.548616       -14.9286
  28   2.0000      -0.515382       -14.0242
  29   2.0000      -0.503281       -13.6950
  30   2.0000      -0.484835       -13.1930
  31   2.0000      -0.473751       -12.8914
  32   2.0000      -0.464406       -12.6371
  33   2.0000      -0.426095       -11.5946
  34   2.0000      -0.418017       -11.3748
  35   2.0000      -0.408502       -11.1159
  36   2.0000      -0.394272       -10.7287
  37   2.0000      -0.387646       -10.5484
  38   2.0000      -0.360775        -9.8172
  39   2.0000      -0.354428        -9.6445
  40   2.0000      -0.350887        -9.5481
  41   2.0000      -0.339997        -9.2518
  42   2.0000      -0.336413        -9.1543
  43   2.0000      -0.214086        -5.8256
  44   0.0000      -0.002127        -0.0579
  45   0.0000       0.014190         0.3861
  46   0.0000       0.018568         0.5052
  47   0.0000       0.022053         0.6001
  48   0.0000       0.041478         1.1287

MULLIKEN ATOMIC CHARGES
-----------------------
   0 C :   -0.370070
   1 C :   -0.107612
   2 C :   -0.445492
   3 H :    0.356602
   4 H :    0.132848
   5 S :    0.982641
   6 C :    0.766814
   7 N :   -0.323584
   8 C :   -1.675160
   9 H :    0.750497
  10 H :    0.160030
  11 H :    0.168204
  12 H :    0.130417
  13 O :   -0.544335
  14 O :   -0.543414
  15 F :   -0.111168
  16 H :    0.180015
  17 H :    0.112299
  18 H :    0.154338
  19 H :    0.226130
Sum of atomic charges:    0.0000000

LOEWDIN ATOMIC CHARGES
----------------------
   0 C :   -0.144367
   1 C :   -0.204444
   2 C :   -0.215660
   3 H :    0.107521
   4 H :    0.111914
   5 S :    0.606467
   6 C :   -0.472940
   7 N :    0.104560
   8 C :    0.026780
   9 H :   -0.010418
  10 H :    0.038981
  11 H :    0.107872
  12 H :    0.110606
  13 O :   -0.257729
  14 O :   -0.259191
  15 F :   -0.111430
  16 H :    0.111484
  17 H :    0.122433
  18 H :    0.118670
  19 H :    0.108891

  Mayer bond orders larger than 0.100000
B(  0-C ,  1-C ) :   0.8914 B(  0-C ,  6-C ) :   0.7732 B(  0-C ,  7-N ) :   0.1245
B(  0-C ,  8-C ) :   0.1006 B(  0-C , 18-H ) :   0.9982 B(  0-C , 19-H ) :   0.9216
B(  1-C ,  2-C ) :   1.0531 B(  1-C ,  6-C ) :   0.2067 B(  1-C , 16-H ) :   0.8910
B(  1-C , 17-H ) :   0.9429 B(  2-C ,  3-H ) :   0.8474 B(  2-C ,  4-H ) :   0.9816
B(  2-C ,  5-S ) :   0.7917 B(  2-C ,  8-C ) :   0.1803 B(  2-C , 13-O ) :   0.1119
B(  5-S , 13-O ) :   1.6954 B(  5-S , 14-O ) :   1.7547 B(  5-S , 15-F ) :   1.0597
B(  6-C ,  7-N ) :   0.9493 B(  6-C ,  8-C ) :   1.0716 B(  6-C , 10-H ) :  -0.1186
B(  7-N , 11-H ) :   1.0150 B(  7-N , 12-H ) :   1.0449 B(  8-C ,  9-H ) :   0.4465
B(  8-C , 10-H ) :   1.1198 B(  8-C , 15-F ) :   0.1192 B(  9-H , 15-F ) :  -0.2195

Dispersion correction           -0.019787813
FINAL SINGLE POINT ENERGY      -899.268171971843

DIPOLE MOMENT
-------------
                                X             Y             Z
Electronic contribution:      5.54086     -11.98854       3.18138
Nuclear contribution   :     -6.15577      13.80449      -3.81895
                        -----------------------------------------
Total Dipole Moment    :     -0.61490       1.81595      -0.63757
                        -----------------------------------------
Magnitude (a.u.)       :      2.02046
Magnitude (Debye)      :      5.13561

Rotational constants in cm-1:     0.081431     0.024887     0.022470
Rotational constants in MHz :  2441.231544   746.086417   673.646914

                             ****ORCA TERMINATED NORMALLY****
TOTAL RUN TIME: 0 days 0 hours 2 minutes 6 seconds 339 msec
