                         Program Version 5.0.0 -  RELEASE  -
|  1> !LC-BLYP RIJCOSX def2-SVP def2/J TightSCF
|  2> *xyz -1 1
|  3> C          0.61188        1.65763       -4.50029
|  4> C          1.69499        1.54179       -5.57045
|  5> H          2.69733        1.73466       -5.18400
|  6> H          1.50666        2.27224       -6.35808
|  7> S          1.78029       -0.03313       -6.42874
|  8> O          2.56929        0.21366       -7.60736
|  9> O          0.41688       -0.46297       -6.61859
| 10> O          2.50513       -0.93326       -5.48257
| 11> H         -0.34424        1.45871       -4.93752
| 12> H          0.61845        2.64655       -4.09174
| 13> H          0.80247        0.94882       -3.72173
| 14> *
| 15> %MaxCore 64000
| 16>
| 17> %pal nprocs 4
| 18> end
| 19>
| 20> %scf
| 21>   MaxIter 150
| 22> end
| 23>
| 24>
| 25>                          ****END OF INPUT****

CARTESIAN COORDINATES (ANGSTROEM)
---------------------------------
  C      0.611880    1.657630   -4.500290
  C      1.694990    1.541790   -5.570450
  H      2.697330    1.734660   -5.184000
  H      1.506660    2.272240   -6.358080
  S      1.780290   -0.033130   -6.428740
  O      2.569290    0.213660   -7.607360
  O      0.416880   -0.462970   -6.618590
  O      2.505130   -0.933260   -5.482570
  H     -0.344240    1.458710   -4.937520
  H      0.618450    2.646550   -4.091740
  H      0.802470    0.948820   -3.721730

 Total Charge           Charge          ....   -1
 Multiplicity           Mult            ....    1
 Number of Electrons    NEL             ....   58
 Basis Dimension        Dim             ....  113

ORBITAL ENERGIES
----------------

  NO   OCC          E(Eh)            E(eV)
   0   2.0000     -88.261298     -2401.7120
   1   2.0000     -18.697366      -508.7812
   2   2.0000     -18.695353      -508.7264
   3   2.0000     -18.673060      -508.1198
   4   2.0000      -9.935061      -270.3468
   5   2.0000      -9.928361      -270.1644
   6   2.0000      -7.817530      -212.7258
   7   2.0000      -5.851451      -159.2261
   8   2.0000      -5.851188      -159.2189
   9   2.0000      -5.851008      -159.2140
  10   2.0000      -0.995163       -27.0798
  11   2.0000      -0.852627       -23.2012
  12   2.0000      -0.816204       -22.2100
  13   2.0000      -0.725419       -19.7397
  14   2.0000      -0.599116       -16.3028
  15   2.0000      -0.462673       -12.5900
  16   2.0000      -0.412810       -11.2331
  17   2.0000      -0.396358       -10.7855
  18   2.0000      -0.361834        -9.8460
  19   2.0000      -0.337626        -9.1873
  20   2.0000      -0.333961        -9.0876
  21   2.0000      -0.312266        -8.4972
  22   2.0000      -0.297101        -8.0845
  23   2.0000      -0.216932        -5.9030
  24   2.0000      -0.214742        -5.8434
  25   2.0000      -0.183136        -4.9834
  26   2.0000      -0.175204        -4.7675
  27   2.0000      -0.156449        -4.2572
  28   2.0000      -0.122564        -3.3351
  29   0.0000       0.274059         7.4575
  30   0.0000       0.327994         8.9252
  31   0.0000       0.335853         9.1390
  32   0.0000       0.342307         9.3146
  33   0.0000       0.369769        10.0619

MULLIKEN ATOMIC CHARGES
-----------------------
   0 C :    0.038818
   1 C :   -0.091887
   2 H :   -0.002892
   3 H :   -0.015162
   4 S :    0.741174
   5 O :   -0.523699
   6 O :   -0.523531
   7 O :   -0.588103
   8 H :    0.003148
   9 H :   -0.038796
  10 H :    0.000930
Sum of atomic charges:   -1.0000000

LOEWDIN ATOMIC CHARGES
----------------------
   0 C :   -0.085787
   1 C :   -0.199054
   2 H :    0.012492
   3 H :    0.006070
   4 S :    1.069625
   5 O :   -0.594964
   6 O :   -0.594323
   7 O :   -0.658607
   8 H :    0.019481
   9 H :    0.005259
  10 H :    0.019808

  Mayer bond orders larger than 0.100000
B(  0-C ,  1-C ) :   1.0676 B(  0-C ,  8-H ) :   0.9620 B(  0-C ,  9-H ) :   0.9595
B(  0-C , 10-H ) :   0.9650 B(  1-C ,  2-H ) :   0.9430 B(  1-C ,  3-H ) :   0.9388
B(  1-C ,  4-S ) :   0.8961 B(  4-S ,  5-O ) :   1.6763 B(  4-S ,  6-O ) :   1.6668
B(  4-S ,  7-O ) :   1.6132

FINAL SINGLE POINT ENERGY      -701.868579855903

DIPOLE MOMENT
-------------
                                X             Y             Z
Electronic contribution:      2.26351      -5.74951      -5.09075
Nuclear contribution   :     -2.69163       7.29476       5.86550
                        -----------------------------------------
Total Dipole Moment    :     -0.42812       1.54524       0.77475
                        -----------------------------------------
Magnitude (a.u.)       :      1.78082
Magnitude (Debye)      :      4.52648

Rotational constants in cm-1:     0.163060     0.082831     0.081111
Rotational constants in MHz :  4888.419330  2483.225008  2431.646841

                             ****ORCA TERMINATED NORMALLY****
TOTAL RUN TIME: 0 days 0 hours 0 minutes 9 seconds 147 msec
