                         Program Version 5.0.0 -  RELEASE  -
|  1> !LC-BLYP RIJCOSX def2-SVP def2/J TightSCF
|  2> *xyz 1 1
|  3> C          1.96337       -1.74915       -1.89689
|  4> N          2.73849       -2.01517       -3.09711
|  5> C          4.04974       -2.15472       -3.15204
|  6> N          4.65821       -1.98629       -4.31866
|  7> N          4.76423       -2.45444       -2.05049
|  8> H          4.28736       -2.77626       -1.21750
|  9> H          5.75082       -2.65835       -2.12599
| 10> H          2.34518       -1.69027       -3.97145
| 11> H          4.10900       -1.59268       -5.07176
| 12> H          5.64910       -2.15646       -4.42724
| 13> C          2.08852       -0.30091       -1.41520
| 14> H          2.23127       -2.45162       -1.10264
| 15> H          0.93025       -1.97780       -2.15544
| 16> H          1.82118        0.36368       -2.21003
| 17> H          3.09792       -0.11068       -1.11551
| 18> H          1.43391       -0.14382       -0.58352
| 19> *
| 20> %MaxCore 64000
| 21>
| 22> %pal nprocs 4
| 23> end
| 24>
| 25> %scf
| 26>   MaxIter 150
| 27> end
| 28>
| 29>
| 30>                          ****END OF INPUT****

CARTESIAN COORDINATES (ANGSTROEM)
---------------------------------
  C      1.963370   -1.749150   -1.896890
  N      2.738490   -2.015170   -3.097110
  C      4.049740   -2.154720   -3.152040
  N      4.658210   -1.986290   -4.318660
  N      4.764230   -2.454440   -2.050490
  H      4.287360   -2.776260   -1.217500
  H      5.750820   -2.658350   -2.125990
  H      2.345180   -1.690270   -3.971450
  H      4.109000   -1.592680   -5.071760
  H      5.649100   -2.156460   -4.427240
  C      2.088520   -0.300910   -1.415200
  H      2.231270   -2.451620   -1.102640
  H      0.930250   -1.977800   -2.155440
  H      1.821180    0.363680   -2.210030
  H      3.097920   -0.110680   -1.115510
  H      1.433910   -0.143820   -0.583520

 Total Charge           Charge          ....    1
 Multiplicity           Mult            ....    1
 Number of Electrons    NEL             ....   48
 Basis Dimension        Dim             ....  134

ORBITAL ENERGIES
----------------

  NO   OCC          E(Eh)            E(eV)
   0   2.0000     -14.409896      -392.1132
   1   2.0000     -14.406903      -392.0317
   2   2.0000     -14.406789      -392.0287
   3   2.0000     -10.419860      -283.5388
   4   2.0000     -10.289409      -279.9891
   5   2.0000     -10.219439      -278.0851
   6   2.0000      -1.308517       -35.6065
   7   2.0000      -1.196394       -32.5555
   8   2.0000      -1.182349       -32.1734
   9   2.0000      -1.030460       -28.0402
  10   2.0000      -0.940076       -25.5808
  11   2.0000      -0.906251       -24.6603
  12   2.0000      -0.887217       -24.1424
  13   2.0000      -0.845043       -22.9948
  14   2.0000      -0.794719       -21.6254
  15   2.0000      -0.784527       -21.3481
  16   2.0000      -0.762269       -20.7424
  17   2.0000      -0.730491       -19.8777
  18   2.0000      -0.701015       -19.0756
  19   2.0000      -0.664035       -18.0693
  20   2.0000      -0.628007       -17.0889
  21   2.0000      -0.606917       -16.5151
  22   2.0000      -0.572588       -15.5809
  23   2.0000      -0.543284       -14.7835
  24   0.0000      -0.073768        -2.0073
  25   0.0000      -0.067443        -1.8352
  26   0.0000      -0.034567        -0.9406
  27   0.0000      -0.022793        -0.6202
  28   0.0000       0.003477         0.0946

MULLIKEN ATOMIC CHARGES
-----------------------
   0 C :   -0.021407
   1 N :   -0.029520
   2 C :   -0.101931
   3 N :    0.031120
   4 N :    0.003240
   5 H :    0.167843
   6 H :    0.168333
   7 H :    0.156118
   8 H :    0.169069
   9 H :    0.174319
  10 C :    0.014022
  11 H :    0.057478
  12 H :    0.073659
  13 H :    0.038578
  14 H :    0.030461
  15 H :    0.068617
Sum of atomic charges:    1.0000000

LOEWDIN ATOMIC CHARGES
----------------------
   0 C :    0.023780
   1 N :    0.040466
   2 C :    0.133442
   3 N :    0.051471
   4 N :    0.040013
   5 H :    0.110186
   6 H :    0.112718
   7 H :    0.105970
   8 H :    0.112338
   9 H :    0.115711
  10 C :   -0.062599
  11 H :    0.039132
  12 H :    0.054659
  13 H :    0.037033
  14 H :    0.031732
  15 H :    0.053947

  Mayer bond orders larger than 0.100000
B(  0-C ,  1-N ) :   0.9556 B(  0-C , 10-C ) :   1.0981 B(  0-C , 11-H ) :   0.9526
B(  0-C , 12-H ) :   0.9470 B(  1-N ,  2-C ) :   1.3923 B(  1-N ,  7-H ) :   0.9063
B(  2-C ,  3-N ) :   1.4141 B(  2-C ,  4-N ) :   1.3991 B(  3-N ,  8-H ) :   0.9210
B(  3-N ,  9-H ) :   0.9227 B(  4-N ,  5-H ) :   0.9215 B(  4-N ,  6-H ) :   0.9241
B( 10-C , 13-H ) :   0.9669 B( 10-C , 14-H ) :   0.9647 B( 10-C , 15-H ) :   0.9609

FINAL SINGLE POINT ENERGY      -283.454803476099

DIPOLE MOMENT
-------------
                                X             Y             Z
Electronic contribution:      3.09471      -2.74808      -3.15493
Nuclear contribution   :     -2.17768       2.37118       2.44574
                        -----------------------------------------
Total Dipole Moment    :      0.91703      -0.37690      -0.70919
                        -----------------------------------------
Magnitude (a.u.)       :      1.21900
Magnitude (Debye)      :      3.09844

Rotational constants in cm-1:     0.215650     0.075183     0.066454
Rotational constants in MHz :  6465.033740  2253.919004  1992.232519

                             ****ORCA TERMINATED NORMALLY****
TOTAL RUN TIME: 0 days 0 hours 0 minutes 13 seconds 432 msec
