                         Program Version 5.0.0 -  RELEASE  -
|  1> !LC-BLYP RIJCOSX def2-SVP def2/J TightSCF
|  2> *xyz 0 1
|  3> C          0.61188        1.65763       -4.50029
|  4> C          1.69499        1.54179       -5.57045
|  5> H          2.69733        1.73466       -5.18400
|  6> H          1.50666        2.27224       -6.35808
|  7> S          1.78029       -0.03313       -6.42874
|  8> F          2.56929        0.21366       -7.60736
|  9> O          0.41688       -0.46297       -6.61859
| 10> O          2.50513       -0.93326       -5.48257
| 11> H         -0.34424        1.45871       -4.93752
| 12> H          0.61845        2.64655       -4.09174
| 13> H          0.80247        0.94882       -3.72173
| 14> *
| 15> %MaxCore 64000
| 16>
| 17> %pal nprocs 4
| 18> end
| 19>
| 20> %scf
| 21>   MaxIter 150
| 22> end
| 23>
| 24>
| 25>                          ****END OF INPUT****

CARTESIAN COORDINATES (ANGSTROEM)
---------------------------------
  C      0.611880    1.657630   -4.500290
  C      1.694990    1.541790   -5.570450
  H      2.697330    1.734660   -5.184000
  H      1.506660    2.272240   -6.358080
  S      1.780290   -0.033130   -6.428740
  F      2.569290    0.213660   -7.607360
  O      0.416880   -0.462970   -6.618590
  O      2.505130   -0.933260   -5.482570
  H     -0.344240    1.458710   -4.937520
  H      0.618450    2.646550   -4.091740
  H      0.802470    0.948820   -3.721730

 Total Charge           Charge          ....    0
 Multiplicity           Mult            ....    1
 Number of Electrons    NEL             ....   58
 Basis Dimension        Dim             ....  113

ORBITAL ENERGIES
----------------

  NO   OCC          E(Eh)            E(eV)
   0   2.0000     -88.535732     -2409.1797
   1   2.0000     -24.574352      -668.7021
   2   2.0000     -18.949435      -515.6403
   3   2.0000     -18.927071      -515.0318
   4   2.0000     -10.141240      -275.9572
   5   2.0000     -10.103167      -274.9212
   6   2.0000      -8.094395      -220.2597
   7   2.0000      -6.132652      -166.8780
   8   2.0000      -6.125666      -166.6879
   9   2.0000      -6.124492      -166.6559
  10   2.0000      -1.448086       -39.4044
  11   2.0000      -1.186833       -32.2954
  12   2.0000      -1.073228       -29.2040
  13   2.0000      -0.924571       -25.1588
  14   2.0000      -0.831300       -22.6208
  15   2.0000      -0.774759       -21.0823
  16   2.0000      -0.684846       -18.6356
  17   2.0000      -0.680428       -18.5154
  18   2.0000      -0.645988       -17.5782
  19   2.0000      -0.596948       -16.2438
  20   2.0000      -0.574624       -15.6363
  21   2.0000      -0.529486       -14.4080
  22   2.0000      -0.523848       -14.2546
  23   2.0000      -0.505907       -13.7664
  24   2.0000      -0.483438       -13.1550
  25   2.0000      -0.471546       -12.8314
  26   2.0000      -0.418412       -11.3856
  27   2.0000      -0.398357       -10.8399
  28   2.0000      -0.382424       -10.4063
  29   0.0000       0.115594         3.1455
  30   0.0000       0.126244         3.4353
  31   0.0000       0.163921         4.4605
  32   0.0000       0.166969         4.5435
  33   0.0000       0.176400         4.8001

MULLIKEN ATOMIC CHARGES
-----------------------
   0 C :    0.022272
   1 C :   -0.133292
   2 H :    0.069794
   3 H :    0.049904
   4 S :    0.827079
   5 F :   -0.129638
   6 O :   -0.388062
   7 O :   -0.448741
   8 H :    0.046094
   9 H :    0.036036
  10 H :    0.048554
Sum of atomic charges:    0.0000000

LOEWDIN ATOMIC CHARGES
----------------------
   0 C :   -0.060508
   1 C :   -0.164296
   2 H :    0.042317
   3 H :    0.032271
   4 S :    1.125237
   5 F :   -0.100280
   6 O :   -0.466015
   7 O :   -0.527344
   8 H :    0.038135
   9 H :    0.040351
  10 H :    0.040133

  Mayer bond orders larger than 0.100000
B(  0-C ,  1-C ) :   1.0825 B(  0-C ,  8-H ) :   0.9652 B(  0-C ,  9-H ) :   0.9611
B(  0-C , 10-H ) :   0.9703 B(  1-C ,  2-H ) :   0.9325 B(  1-C ,  3-H ) :   0.9302
B(  1-C ,  4-S ) :   0.9236 B(  4-S ,  5-F ) :   1.0661 B(  4-S ,  6-O ) :   1.8160
B(  4-S ,  7-O ) :   1.7643

FINAL SINGLE POINT ENERGY      -726.360312135583

DIPOLE MOMENT
-------------
                                X             Y             Z
Electronic contribution:      3.89439      -5.69065      -7.61148
Nuclear contribution   :     -3.66946       7.33549       7.42434
                        -----------------------------------------
Total Dipole Moment    :      0.22493       1.64484      -0.18713
                        -----------------------------------------
Magnitude (a.u.)       :      1.67066
Magnitude (Debye)      :      4.24648

Rotational constants in cm-1:     0.158379     0.080294     0.077843
Rotational constants in MHz :  4748.076444  2407.152850  2333.668303

                             ****ORCA TERMINATED NORMALLY****
TOTAL RUN TIME: 0 days 0 hours 0 minutes 9 seconds 640 msec
