                         Program Version 5.0.0 -  RELEASE  -
|  1> !LC-BLYP RIJCOSX def2-SVP def2/J TightSCF
|  2> *xyz 0 1
|  3> C          1.96337       -1.74915       -1.89689
|  4> C          2.73849       -2.01517       -3.09711
|  5> C          4.04974       -2.15472       -3.15204
|  6> N          4.65821       -1.98629       -4.31866
|  7> N          4.76423       -2.45444       -2.05049
|  8> H          4.28736       -2.77626       -1.21750
|  9> H          5.75082       -2.65835       -2.12599
| 10> H          2.34518       -1.69027       -3.97145
| 11> H          4.10900       -1.59268       -5.07176
| 12> H          5.64910       -2.15646       -4.42724
| 13> C          2.08852       -0.30091       -1.41520
| 14> H          2.23127       -2.45162       -1.10264
| 15> H          0.93025       -1.97780       -2.15544
| 16> H          1.82118        0.36368       -2.21003
| 17> H          3.09792       -0.11068       -1.11551
| 18> H          1.43391       -0.14382       -0.58352
| 19> *
| 20> %MaxCore 64000
| 21>
| 22> %pal nprocs 4
| 23> end
| 24>
| 25> %scf
| 26>   MaxIter 150
| 27> end
| 28>
| 29>
| 30>                          ****END OF INPUT****

CARTESIAN COORDINATES (ANGSTROEM)
---------------------------------
  C      1.963370   -1.749150   -1.896890
  C      2.738490   -2.015170   -3.097110
  C      4.049740   -2.154720   -3.152040
  N      4.658210   -1.986290   -4.318660
  N      4.764230   -2.454440   -2.050490
  H      4.287360   -2.776260   -1.217500
  H      5.750820   -2.658350   -2.125990
  H      2.345180   -1.690270   -3.971450
  H      4.109000   -1.592680   -5.071760
  H      5.649100   -2.156460   -4.427240
  C      2.088520   -0.300910   -1.415200
  H      2.231270   -2.451620   -1.102640
  H      0.930250   -1.977800   -2.155440
  H      1.821180    0.363680   -2.210030
  H      3.097920   -0.110680   -1.115510
  H      1.433910   -0.143820   -0.583520

 Total Charge           Charge          ....    0
 Multiplicity           Mult            ....    1
 Number of Electrons    NEL             ....   48
 Basis Dimension        Dim             ....  134

ORBITAL ENERGIES
----------------

  NO   OCC          E(Eh)            E(eV)
   0   2.0000     -14.178727      -385.8228
   1   2.0000     -14.175637      -385.7387
   2   2.0000     -10.120479      -275.3922
   3   2.0000     -10.051708      -273.5209
   4   2.0000     -10.043866      -273.3075
   5   2.0000      -9.992388      -271.9067
   6   2.0000      -1.042304       -28.3625
   7   2.0000      -0.952185       -25.9103
   8   2.0000      -0.865946       -23.5636
   9   2.0000      -0.785159       -21.3653
  10   2.0000      -0.709986       -19.3197
  11   2.0000      -0.674212       -18.3462
  12   2.0000      -0.637772       -17.3547
  13   2.0000      -0.603009       -16.4087
  14   2.0000      -0.564260       -15.3543
  15   2.0000      -0.533914       -14.5285
  16   2.0000      -0.517189       -14.0734
  17   2.0000      -0.481383       -13.0991
  18   2.0000      -0.472191       -12.8490
  19   2.0000      -0.448897       -12.2151
  20   2.0000      -0.417079       -11.3493
  21   2.0000      -0.405721       -11.0402
  22   2.0000      -0.353680        -9.6241
  23   2.0000      -0.239371        -6.5136
  24   0.0000       0.116336         3.1657
  25   0.0000       0.149090         4.0569
  26   0.0000       0.160481         4.3669
  27   0.0000       0.183423         4.9912
  28   0.0000       0.186266         5.0686

MULLIKEN ATOMIC CHARGES
-----------------------
   0 C :    0.045446
   1 C :   -0.135345
   2 C :   -0.152944
   3 N :   -0.005531
   4 N :   -0.029676
   5 H :    0.113042
   6 H :    0.096006
   7 H :   -0.123622
   8 H :    0.117155
   9 H :    0.094422
  10 C :    0.058467
  11 H :   -0.033042
  12 H :   -0.017870
  13 H :   -0.008830
  14 H :   -0.007288
  15 H :   -0.010392
Sum of atomic charges:   -0.0000000

LOEWDIN ATOMIC CHARGES
----------------------
   0 C :   -0.047953
   1 C :   -0.233258
   2 C :    0.024105
   3 N :   -0.020219
   4 N :   -0.029327
   5 H :    0.080015
   6 H :    0.066155
   7 H :   -0.012105
   8 H :    0.084457
   9 H :    0.066283
  10 C :   -0.067269
  11 H :    0.010310
  12 H :    0.025760
  13 H :    0.020115
  14 H :    0.017726
  15 H :    0.015203

  Mayer bond orders larger than 0.100000
B(  0-C ,  1-C ) :   1.0783 B(  0-C , 10-C ) :   1.0958 B(  0-C , 11-H ) :   0.9333
B(  0-C , 12-H ) :   0.9192 B(  1-C ,  2-C ) :   1.7169 B(  1-C ,  7-H ) :   0.9099
B(  2-C ,  3-N ) :   1.2587 B(  2-C ,  4-N ) :   1.2596 B(  3-N ,  8-H ) :   0.9345
B(  3-N ,  9-H ) :   0.9480 B(  4-N ,  5-H ) :   0.9419 B(  4-N ,  6-H ) :   0.9473
B( 10-C , 13-H ) :   0.9650 B( 10-C , 14-H ) :   0.9694 B( 10-C , 15-H ) :   0.9629

FINAL SINGLE POINT ENERGY      -266.981453418884

DIPOLE MOMENT
-------------
                                X             Y             Z
Electronic contribution:      3.48457      -2.48828      -2.55160
Nuclear contribution   :     -2.31778       2.31977       2.35294
                        -----------------------------------------
Total Dipole Moment    :      1.16679      -0.16851      -0.19866
                        -----------------------------------------
Magnitude (a.u.)       :      1.19552
Magnitude (Debye)      :      3.03877

Rotational constants in cm-1:     0.219415     0.075373     0.066689
Rotational constants in MHz :  6577.897266  2259.621393  1999.290981

                             ****ORCA TERMINATED NORMALLY****
TOTAL RUN TIME: 0 days 0 hours 0 minutes 13 seconds 789 msec
