                         Program Version 5.0.0 -  RELEASE  -
|  1> !LC-BLYP RIJCOSX def2-SVP def2/J TightSCF
|  2> *xyz 0 1
|  3> C          0.61188        1.65763       -4.50029
|  4> C          1.69499        1.54179       -5.57045
|  5> H          2.69733        1.73466       -5.18400
|  6> H          1.50666        2.27224       -6.35808
|  7> S          1.78029       -0.03313       -6.42874
|  8> O          2.56929        0.21366       -7.60736
|  9> F          0.41688       -0.46297       -6.61859
| 10> O          2.50513       -0.93326       -5.48257
| 11> H         -0.34424        1.45871       -4.93752
| 12> H          0.61845        2.64655       -4.09174
| 13> H          0.80247        0.94882       -3.72173
| 14> *
| 15> %MaxCore 64000
| 16>
| 17> %pal nprocs 4
| 18> end
| 19>
| 20> %scf
| 21>   MaxIter 150
| 22> end
| 23>
| 24>
| 25>                          ****END OF INPUT****

CARTESIAN COORDINATES (ANGSTROEM)
---------------------------------
  C      0.611880    1.657630   -4.500290
  C      1.694990    1.541790   -5.570450
  H      2.697330    1.734660   -5.184000
  H      1.506660    2.272240   -6.358080
  S      1.780290   -0.033130   -6.428740
  O      2.569290    0.213660   -7.607360
  F      0.416880   -0.462970   -6.618590
  O      2.505130   -0.933260   -5.482570
  H     -0.344240    1.458710   -4.937520
  H      0.618450    2.646550   -4.091740
  H      0.802470    0.948820   -3.721730

 Total Charge           Charge          ....    0
 Multiplicity           Mult            ....    1
 Number of Electrons    NEL             ....   58
 Basis Dimension        Dim             ....  113

ORBITAL ENERGIES
----------------

  NO   OCC          E(Eh)            E(eV)
   0   2.0000     -88.535100     -2409.1626
   1   2.0000     -24.574157      -668.6968
   2   2.0000     -18.948338      -515.6105
   3   2.0000     -18.927202      -515.0354
   4   2.0000     -10.140770      -275.9444
   5   2.0000     -10.109482      -275.0930
   6   2.0000      -8.093803      -220.2436
   7   2.0000      -6.132211      -166.8659
   8   2.0000      -6.124987      -166.6694
   9   2.0000      -6.123858      -166.6386
  10   2.0000      -1.446404       -39.3587
  11   2.0000      -1.187551       -32.3149
  12   2.0000      -1.072853       -29.1938
  13   2.0000      -0.928777       -25.2733
  14   2.0000      -0.826365       -22.4865
  15   2.0000      -0.780926       -21.2501
  16   2.0000      -0.697057       -18.9679
  17   2.0000      -0.678605       -18.4658
  18   2.0000      -0.634696       -17.2709
  19   2.0000      -0.597357       -16.2549
  20   2.0000      -0.570717       -15.5300
  21   2.0000      -0.547127       -14.8881
  22   2.0000      -0.523297       -14.2396
  23   2.0000      -0.509667       -13.8687
  24   2.0000      -0.490236       -13.3400
  25   2.0000      -0.469650       -12.7798
  26   2.0000      -0.417389       -11.3577
  27   2.0000      -0.398293       -10.8381
  28   2.0000      -0.382449       -10.4070
  29   0.0000       0.101713         2.7677
  30   0.0000       0.138868         3.7788
  31   0.0000       0.165997         4.5170
  32   0.0000       0.167935         4.5697
  33   0.0000       0.175505         4.7757

MULLIKEN ATOMIC CHARGES
-----------------------
   0 C :    0.002906
   1 C :   -0.134868
   2 H :    0.094366
   3 H :    0.062124
   4 S :    0.825490
   5 O :   -0.382965
   6 F :   -0.132782
   7 O :   -0.448009
   8 H :    0.025433
   9 H :    0.041447
  10 H :    0.046856
Sum of atomic charges:    0.0000000

LOEWDIN ATOMIC CHARGES
----------------------
   0 C :   -0.075621
   1 C :   -0.160232
   2 H :    0.057736
   3 H :    0.037726
   4 S :    1.125564
   5 O :   -0.463545
   6 F :   -0.102185
   7 O :   -0.527012
   8 H :    0.028395
   9 H :    0.042187
  10 H :    0.036987

  Mayer bond orders larger than 0.100000
B(  0-C ,  1-C ) :   1.0592 B(  0-C ,  8-H ) :   0.9715 B(  0-C ,  9-H ) :   0.9604
B(  0-C , 10-H ) :   0.9692 B(  1-C ,  2-H ) :   0.9357 B(  1-C ,  3-H ) :   0.9350
B(  1-C ,  4-S ) :   0.9288 B(  4-S ,  5-O ) :   1.8224 B(  4-S ,  6-F ) :   1.0589
B(  4-S ,  7-O ) :   1.7638

FINAL SINGLE POINT ENERGY      -726.360095267640

DIPOLE MOMENT
-------------
                                X             Y             Z
Electronic contribution:      0.24708      -6.82731      -5.90472
Nuclear contribution   :     -1.42658       8.04056       6.39401
                        -----------------------------------------
Total Dipole Moment    :     -1.17951       1.21325       0.48930
                        -----------------------------------------
Magnitude (a.u.)       :      1.76142
Magnitude (Debye)      :      4.47719

Rotational constants in cm-1:     0.153659     0.082363     0.078978
Rotational constants in MHz :  4606.587369  2469.179541  2367.702074

                             ****ORCA TERMINATED NORMALLY****
TOTAL RUN TIME: 0 days 0 hours 0 minutes 9 seconds 886 msec
