                         Program Version 5.0.0 -  RELEASE  -
|  1> !LC-BLYP RIJCOSX def2-SVP def2/J TightSCF
|  2> *xyz 0 1
|  3> C          1.96337       -1.74915       -1.89689
|  4> N          2.73849       -2.01517       -3.09711
|  5> C          4.04974       -2.15472       -3.15204
|  6> C          4.65821       -1.98629       -4.31866
|  7> N          4.76423       -2.45444       -2.05049
|  8> H          4.28736       -2.77626       -1.21750
|  9> H          5.75082       -2.65835       -2.12599
| 10> H          2.34518       -1.69027       -3.97145
| 11> H          4.10900       -1.59268       -5.07176
| 12> H          5.64910       -2.15646       -4.42724
| 13> C          2.08852       -0.30091       -1.41520
| 14> H          2.23127       -2.45162       -1.10264
| 15> H          0.93025       -1.97780       -2.15544
| 16> H          1.82118        0.36368       -2.21003
| 17> H          3.09792       -0.11068       -1.11551
| 18> H          1.43391       -0.14382       -0.58352
| 19> *
| 20> %MaxCore 64000
| 21>
| 22> %pal nprocs 4
| 23> end
| 24>
| 25> %scf
| 26>   MaxIter 150
| 27> end
| 28>
| 29>
| 30>                          ****END OF INPUT****

CARTESIAN COORDINATES (ANGSTROEM)
---------------------------------
  C      1.963370   -1.749150   -1.896890
  N      2.738490   -2.015170   -3.097110
  C      4.049740   -2.154720   -3.152040
  C      4.658210   -1.986290   -4.318660
  N      4.764230   -2.454440   -2.050490
  H      4.287360   -2.776260   -1.217500
  H      5.750820   -2.658350   -2.125990
  H      2.345180   -1.690270   -3.971450
  H      4.109000   -1.592680   -5.071760
  H      5.649100   -2.156460   -4.427240
  C      2.088520   -0.300910   -1.415200
  H      2.231270   -2.451620   -1.102640
  H      0.930250   -1.977800   -2.155440
  H      1.821180    0.363680   -2.210030
  H      3.097920   -0.110680   -1.115510
  H      1.433910   -0.143820   -0.583520

 Total Charge           Charge          ....    0
 Multiplicity           Mult            ....    1
 Number of Electrons    NEL             ....   48
 Basis Dimension        Dim             ....  134

ORBITAL ENERGIES
----------------

  NO   OCC          E(Eh)            E(eV)
   0   2.0000     -14.177842      -385.7987
   1   2.0000     -14.176201      -385.7541
   2   2.0000     -10.122500      -275.4472
   3   2.0000     -10.120987      -275.4061
   4   2.0000     -10.072117      -274.0762
   5   2.0000      -9.989772      -271.8355
   6   2.0000      -1.053574       -28.6692
   7   2.0000      -0.967264       -26.3206
   8   2.0000      -0.867824       -23.6147
   9   2.0000      -0.794682       -21.6244
  10   2.0000      -0.726207       -19.7611
  11   2.0000      -0.694908       -18.9094
  12   2.0000      -0.632672       -17.2159
  13   2.0000      -0.593466       -16.1490
  14   2.0000      -0.574453       -15.6317
  15   2.0000      -0.535425       -14.5697
  16   2.0000      -0.531564       -14.4646
  17   2.0000      -0.497008       -13.5243
  18   2.0000      -0.476246       -12.9593
  19   2.0000      -0.467920       -12.7327
  20   2.0000      -0.454550       -12.3689
  21   2.0000      -0.450355       -12.2548
  22   2.0000      -0.342565        -9.3217
  23   2.0000      -0.246591        -6.7101
  24   0.0000       0.115082         3.1315
  25   0.0000       0.144423         3.9299
  26   0.0000       0.158926         4.3246
  27   0.0000       0.177190         4.8216
  28   0.0000       0.187209         5.0942

MULLIKEN ATOMIC CHARGES
-----------------------
   0 C :    0.019384
   1 N :   -0.048813
   2 C :   -0.120886
   3 C :   -0.049384
   4 N :   -0.044457
   5 H :    0.095569
   6 H :    0.116485
   7 H :    0.111991
   8 H :   -0.082817
   9 H :   -0.083021
  10 C :    0.033372
  11 H :    0.008010
  12 H :    0.011236
  13 H :    0.009259
  14 H :    0.016836
  15 H :    0.007236
Sum of atomic charges:   -0.0000000

LOEWDIN ATOMIC CHARGES
----------------------
   0 C :    0.013671
   1 N :   -0.018451
   2 C :    0.031637
   3 C :   -0.261706
   4 N :   -0.028204
   5 H :    0.064297
   6 H :    0.083938
   7 H :    0.084461
   8 H :   -0.009312
   9 H :   -0.008982
  10 C :   -0.077610
  11 H :    0.019684
  12 H :    0.027712
  13 H :    0.025658
  14 H :    0.027166
  15 H :    0.026039

  Mayer bond orders larger than 0.100000
B(  0-C ,  1-N ) :   1.0425 B(  0-C , 10-C ) :   1.0862 B(  0-C , 11-H ) :   0.9529
B(  0-C , 12-H ) :   0.9544 B(  1-N ,  2-C ) :   1.2209 B(  1-N ,  7-H ) :   0.9215
B(  2-C ,  3-C ) :   1.7717 B(  2-C ,  4-N ) :   1.2280 B(  3-C ,  8-H ) :   0.9133
B(  3-C ,  9-H ) :   0.9292 B(  4-N ,  5-H ) :   0.9495 B(  4-N ,  6-H ) :   0.9436
B( 10-C , 13-H ) :   0.9660 B( 10-C , 14-H ) :   0.9634 B( 10-C , 15-H ) :   0.9605

FINAL SINGLE POINT ENERGY      -266.978488248718

DIPOLE MOMENT
-------------
                                X             Y             Z
Electronic contribution:      1.42548      -2.38911      -1.15951
Nuclear contribution   :     -1.91052       2.32590       2.09379
                        -----------------------------------------
Total Dipole Moment    :     -0.48504      -0.06321       0.93428
                        -----------------------------------------
Magnitude (a.u.)       :      1.05458
Magnitude (Debye)      :      2.68054

Rotational constants in cm-1:     0.219448     0.077923     0.068804
Rotational constants in MHz :  6578.886179  2336.083179  2062.700476

                             ****ORCA TERMINATED NORMALLY****
TOTAL RUN TIME: 0 days 0 hours 0 minutes 13 seconds 97 msec
