                         Program Version 5.0.0 -  RELEASE  -
|  1> !LC-BLYP RIJCOSX def2-SVP def2/J TightSCF
|  2> *xyz 0 1
|  3> C          0.61188        1.65763       -4.50029
|  4> C          1.69499        1.54179       -5.57045
|  5> H          2.69733        1.73466       -5.18400
|  6> H          1.50666        2.27224       -6.35808
|  7> S          1.78029       -0.03313       -6.42874
|  8> O          2.56929        0.21366       -7.60736
|  9> O          0.41688       -0.46297       -6.61859
| 10> F          2.50513       -0.93326       -5.48257
| 11> H         -0.34424        1.45871       -4.93752
| 12> H          0.61845        2.64655       -4.09174
| 13> H          0.80247        0.94882       -3.72173
| 14> *
| 15> %MaxCore 64000
| 16>
| 17> %pal nprocs 4
| 18> end
| 19>
| 20> %scf
| 21>   MaxIter 150
| 22> end
| 23>
| 24>
| 25>                          ****END OF INPUT****

CARTESIAN COORDINATES (ANGSTROEM)
---------------------------------
  C      0.611880    1.657630   -4.500290
  C      1.694990    1.541790   -5.570450
  H      2.697330    1.734660   -5.184000
  H      1.506660    2.272240   -6.358080
  S      1.780290   -0.033130   -6.428740
  O      2.569290    0.213660   -7.607360
  O      0.416880   -0.462970   -6.618590
  F      2.505130   -0.933260   -5.482570
  H     -0.344240    1.458710   -4.937520
  H      0.618450    2.646550   -4.091740
  H      0.802470    0.948820   -3.721730

 Total Charge           Charge          ....    0
 Multiplicity           Mult            ....    1
 Number of Electrons    NEL             ....   58
 Basis Dimension        Dim             ....  113

ORBITAL ENERGIES
----------------

  NO   OCC          E(Eh)            E(eV)
   0   2.0000     -88.534383     -2409.1430
   1   2.0000     -24.545433      -667.9152
   2   2.0000     -18.950375      -515.6659
   3   2.0000     -18.948605      -515.6178
   4   2.0000     -10.139917      -275.9212
   5   2.0000     -10.104202      -274.9493
   6   2.0000      -8.092747      -220.2149
   7   2.0000      -6.130791      -166.8273
   8   2.0000      -6.124329      -166.6515
   9   2.0000      -6.123137      -166.6190
  10   2.0000      -1.402166       -38.1549
  11   2.0000      -1.199036       -32.6274
  12   2.0000      -1.102844       -30.0099
  13   2.0000      -0.925480       -25.1836
  14   2.0000      -0.814726       -22.1698
  15   2.0000      -0.765374       -20.8269
  16   2.0000      -0.673867       -18.3368
  17   2.0000      -0.647160       -17.6101
  18   2.0000      -0.636097       -17.3091
  19   2.0000      -0.593278       -16.1439
  20   2.0000      -0.573188       -15.5972
  21   2.0000      -0.547104       -14.8875
  22   2.0000      -0.525376       -14.2962
  23   2.0000      -0.501605       -13.6494
  24   2.0000      -0.496942       -13.5225
  25   2.0000      -0.472955       -12.8698
  26   2.0000      -0.425879       -11.5887
  27   2.0000      -0.418587       -11.3903
  28   2.0000      -0.405242       -11.0272
  29   0.0000       0.108511         2.9527
  30   0.0000       0.138081         3.7574
  31   0.0000       0.164645         4.4802
  32   0.0000       0.171069         4.6550
  33   0.0000       0.176097         4.7918

MULLIKEN ATOMIC CHARGES
-----------------------
   0 C :    0.014025
   1 C :   -0.145998
   2 H :    0.063619
   3 H :    0.085720
   4 S :    0.838472
   5 O :   -0.391031
   6 O :   -0.393310
   7 F :   -0.186095
   8 H :    0.050392
   9 H :    0.035194
  10 H :    0.029012
Sum of atomic charges:   -0.0000000

LOEWDIN ATOMIC CHARGES
----------------------
   0 C :   -0.071972
   1 C :   -0.165981
   2 H :    0.038775
   3 H :    0.053378
   4 S :    1.133316
   5 O :   -0.469949
   6 O :   -0.469723
   7 F :   -0.157372
   8 H :    0.038284
   9 H :    0.039629
  10 H :    0.031615

  Mayer bond orders larger than 0.100000
B(  0-C ,  1-C ) :   1.0618 B(  0-C ,  8-H ) :   0.9658 B(  0-C ,  9-H ) :   0.9595
B(  0-C , 10-H ) :   0.9727 B(  1-C ,  2-H ) :   0.9353 B(  1-C ,  3-H ) :   0.9363
B(  1-C ,  4-S ) :   0.9217 B(  4-S ,  5-O ) :   1.8289 B(  4-S ,  6-O ) :   1.8225
B(  4-S ,  7-F ) :   1.0053

FINAL SINGLE POINT ENERGY      -726.385979002495

DIPOLE MOMENT
-------------
                                X             Y             Z
Electronic contribution:      3.80334      -7.65718      -3.97455
Nuclear contribution   :     -3.60260       8.53062       5.21025
                        -----------------------------------------
Total Dipole Moment    :      0.20074       0.87343       1.23570
                        -----------------------------------------
Magnitude (a.u.)       :      1.52648
Magnitude (Debye)      :      3.87999

Rotational constants in cm-1:     0.154011     0.080858     0.079602
Rotational constants in MHz :  4617.134198  2424.070332  2386.404775

                             ****ORCA TERMINATED NORMALLY****
TOTAL RUN TIME: 0 days 0 hours 0 minutes 9 seconds 751 msec
