                         Program Version 5.0.0 -  RELEASE  -
|  1> !LC-BLYP RIJCOSX def2-SVP def2/J TightSCF
|  2> *xyz 0 1
|  3> C          1.96337       -1.74915       -1.89689
|  4> N          2.73849       -2.01517       -3.09711
|  5> C          4.04974       -2.15472       -3.15204
|  6> N          4.65821       -1.98629       -4.31866
|  7> C          4.76423       -2.45444       -2.05049
|  8> H          4.28736       -2.77626       -1.21750
|  9> H          5.75082       -2.65835       -2.12599
| 10> H          2.34518       -1.69027       -3.97145
| 11> H          4.10900       -1.59268       -5.07176
| 12> H          5.64910       -2.15646       -4.42724
| 13> C          2.08852       -0.30091       -1.41520
| 14> H          2.23127       -2.45162       -1.10264
| 15> H          0.93025       -1.97780       -2.15544
| 16> H          1.82118        0.36368       -2.21003
| 17> H          3.09792       -0.11068       -1.11551
| 18> H          1.43391       -0.14382       -0.58352
| 19> *
| 20> %MaxCore 64000
| 21>
| 22> %pal nprocs 4
| 23> end
| 24>
| 25> %scf
| 26>   MaxIter 150
| 27> end
| 28>
| 29>
| 30>                          ****END OF INPUT****

CARTESIAN COORDINATES (ANGSTROEM)
---------------------------------
  C      1.963370   -1.749150   -1.896890
  N      2.738490   -2.015170   -3.097110
  C      4.049740   -2.154720   -3.152040
  N      4.658210   -1.986290   -4.318660
  C      4.764230   -2.454440   -2.050490
  H      4.287360   -2.776260   -1.217500
  H      5.750820   -2.658350   -2.125990
  H      2.345180   -1.690270   -3.971450
  H      4.109000   -1.592680   -5.071760
  H      5.649100   -2.156460   -4.427240
  C      2.088520   -0.300910   -1.415200
  H      2.231270   -2.451620   -1.102640
  H      0.930250   -1.977800   -2.155440
  H      1.821180    0.363680   -2.210030
  H      3.097920   -0.110680   -1.115510
  H      1.433910   -0.143820   -0.583520

 Total Charge           Charge          ....    0
 Multiplicity           Mult            ....    1
 Number of Electrons    NEL             ....   48
 Basis Dimension        Dim             ....  134

ORBITAL ENERGIES
----------------

  NO   OCC          E(Eh)            E(eV)
   0   2.0000     -14.180531      -385.8719
   1   2.0000     -14.180033      -385.8583
   2   2.0000     -10.124652      -275.5058
   3   2.0000     -10.112983      -275.1883
   4   2.0000     -10.064354      -273.8650
   5   2.0000      -9.988222      -271.7934
   6   2.0000      -1.058959       -28.8157
   7   2.0000      -0.971867       -26.4459
   8   2.0000      -0.849682       -23.1210
   9   2.0000      -0.798627       -21.7318
  10   2.0000      -0.740288       -20.1443
  11   2.0000      -0.656323       -17.8595
  12   2.0000      -0.644346       -17.5335
  13   2.0000      -0.618543       -16.8314
  14   2.0000      -0.566085       -15.4039
  15   2.0000      -0.537859       -14.6359
  16   2.0000      -0.515926       -14.0391
  17   2.0000      -0.491859       -13.3842
  18   2.0000      -0.473133       -12.8746
  19   2.0000      -0.460123       -12.5206
  20   2.0000      -0.457158       -12.4399
  21   2.0000      -0.438606       -11.9351
  22   2.0000      -0.340199        -9.2573
  23   2.0000      -0.246627        -6.7111
  24   0.0000       0.114082         3.1043
  25   0.0000       0.146819         3.9952
  26   0.0000       0.163880         4.4594
  27   0.0000       0.176908         4.8139
  28   0.0000       0.191103         5.2002

MULLIKEN ATOMIC CHARGES
-----------------------
   0 C :    0.045789
   1 N :   -0.064292
   2 C :   -0.117703
   3 N :   -0.025654
   4 C :   -0.072480
   5 H :   -0.071899
   6 H :   -0.086848
   7 H :    0.087059
   8 H :    0.092998
   9 H :    0.121611
  10 C :    0.027748
  11 H :    0.031679
  12 H :    0.003495
  13 H :   -0.006326
  14 H :    0.027604
  15 H :    0.007219
Sum of atomic charges:    0.0000000

LOEWDIN ATOMIC CHARGES
----------------------
   0 C :    0.027167
   1 N :   -0.017064
   2 C :    0.029996
   3 N :   -0.017211
   4 C :   -0.276915
   5 H :   -0.007979
   6 H :   -0.010776
   7 H :    0.063425
   8 H :    0.064232
   9 H :    0.086518
  10 C :   -0.075821
  11 H :    0.032775
  12 H :    0.023775
  13 H :    0.018925
  14 H :    0.032322
  15 H :    0.026629

  Mayer bond orders larger than 0.100000
B(  0-C ,  1-N ) :   1.0280 B(  0-C , 10-C ) :   1.1057 B(  0-C , 11-H ) :   0.9466
B(  0-C , 12-H ) :   0.9561 B(  1-N ,  2-C ) :   1.2064 B(  1-N ,  7-H ) :   0.9326
B(  2-C ,  3-N ) :   1.2488 B(  2-C ,  4-C ) :   1.7670 B(  3-N ,  8-H ) :   0.9489
B(  3-N ,  9-H ) :   0.9418 B(  4-C ,  5-H ) :   0.9232 B(  4-C ,  6-H ) :   0.9255
B( 10-C , 13-H ) :   0.9651 B( 10-C , 14-H ) :   0.9614 B( 10-C , 15-H ) :   0.9621

FINAL SINGLE POINT ENERGY      -266.977069666924

DIPOLE MOMENT
-------------
                                X             Y             Z
Electronic contribution:      1.34169      -1.81560      -3.57181
Nuclear contribution   :     -1.88803       2.22658       2.57497
                        -----------------------------------------
Total Dipole Moment    :     -0.54634       0.41098      -0.99683
                        -----------------------------------------
Magnitude (a.u.)       :      1.20875
Magnitude (Debye)      :      3.07239

Rotational constants in cm-1:     0.226509     0.075782     0.067928
Rotational constants in MHz :  6790.555051  2271.890226  2036.439218

                             ****ORCA TERMINATED NORMALLY****
TOTAL RUN TIME: 0 days 0 hours 0 minutes 13 seconds 882 msec
