                         Program Version 5.0.0 -  RELEASE  -
|  1> !LC-BLYP RIJCOSX def2-TZVP def2/J TightSCF xyzfile
|  2>
|  3> *xyzfile 0 1 D2.xyz
|  4>
|  5> %MaxCore 64000
|  6>
|  7> %pal nprocs 18
|  8> end
|  9>
| 10> %scf
| 11>   MaxIter 150
| 12> end
| 13>
| 14>
| 15>                          ****END OF INPUT****

CARTESIAN COORDINATES (ANGSTROEM)
---------------------------------
  C      1.963365   -1.749150   -1.896887
  N      2.738490   -2.015170   -3.097113
  C      0.611877    1.657634   -4.500288
  C      1.694991    1.541794   -5.570447
  H      2.697326    1.734659   -5.183996
  H      1.506656    2.272239   -6.358076
  S      1.780287   -0.033128   -6.428739
  C      4.049736   -2.154717   -3.152044
  C      4.658206   -1.986293   -4.318655
  N      4.764231   -2.454435   -2.050491
  H      4.287363   -2.776259   -1.217496
  H      5.750825   -2.658351   -2.125988
  H      2.345176   -1.690274   -3.971447
  H      4.109004   -1.592677   -5.071760
  H      5.649095   -2.156462   -4.427237
  F      2.569287    0.213657   -7.607360
  O      0.416880   -0.462969   -6.618595
  C      2.088520   -0.300912   -1.415204
  H      2.231272   -2.451616   -1.102643
  H      0.930249   -1.977801   -2.155438
  C      0.680356    0.655418   -3.348038
  H     -0.356865    1.549231   -4.991128
  H      0.650228    2.675438   -4.096000
  C      1.968993    0.733582   -2.535654
  H      3.051356   -0.168602   -0.911868
  H      1.316501   -0.136231   -0.657252
  O      2.505129   -0.933263   -5.482570
  H      2.824195    0.624726   -3.208464
  H      2.058919    1.730331   -2.093112
  H      0.542252   -0.344731   -3.766662
  H     -0.174219    0.829692   -2.685182

 Total Charge           Charge          ....    0
 Multiplicity           Mult            ....    1
 Number of Electrons    NEL             ....  120
 Basis Dimension        Dim             ....  542

ORBITAL ENERGIES
----------------

  NO   OCC          E(Eh)            E(eV)
   0   2.0000     -88.531208     -2409.0566
   1   2.0000     -24.587178      -669.0511
   2   2.0000     -18.964050      -516.0380
   3   2.0000     -18.948415      -515.6126
   4   2.0000     -14.148111      -384.9897
   5   2.0000     -14.134407      -384.6168
   6   2.0000     -10.136053      -275.8160
   7   2.0000     -10.100399      -274.8458
   8   2.0000     -10.090081      -274.5651
   9   2.0000     -10.089692      -274.5545
  10   2.0000     -10.074792      -274.1490
  11   2.0000     -10.064840      -273.8782
  12   2.0000     -10.060013      -273.7469
  13   2.0000      -9.946867      -270.6680
  14   2.0000      -8.073995      -219.7046
  15   2.0000      -6.105460      -166.1380
  16   2.0000      -6.098963      -165.9612
  17   2.0000      -6.098633      -165.9522
  18   2.0000      -1.477921       -40.2163
  19   2.0000      -1.213204       -33.0129
  20   2.0000      -1.112401       -30.2700
  21   2.0000      -1.046301       -28.4713
  22   2.0000      -0.965494       -26.2724
  23   2.0000      -0.953131       -25.9360
  24   2.0000      -0.902616       -24.5614
  25   2.0000      -0.868349       -23.6290
  26   2.0000      -0.829281       -22.5659
  27   2.0000      -0.805132       -21.9088
  28   2.0000      -0.767092       -20.8736
  29   2.0000      -0.735626       -20.0174
  30   2.0000      -0.710969       -19.3464
  31   2.0000      -0.701233       -19.0815
  32   2.0000      -0.692658       -18.8482
  33   2.0000      -0.671485       -18.2720
  34   2.0000      -0.662146       -18.0179
  35   2.0000      -0.621676       -16.9167
  36   2.0000      -0.609744       -16.5920
  37   2.0000      -0.606349       -16.4996
  38   2.0000      -0.582346       -15.8464
  39   2.0000      -0.577894       -15.7253
  40   2.0000      -0.567519       -15.4430
  41   2.0000      -0.559647       -15.2288
  42   2.0000      -0.545627       -14.8473
  43   2.0000      -0.534390       -14.5415
  44   2.0000      -0.518313       -14.1040
  45   2.0000      -0.503662       -13.7053
  46   2.0000      -0.489318       -13.3150
  47   2.0000      -0.483918       -13.1681
  48   2.0000      -0.471761       -12.8373
  49   2.0000      -0.466068       -12.6824
  50   2.0000      -0.454177       -12.3588
  51   2.0000      -0.453510       -12.3406
  52   2.0000      -0.445959       -12.1352
  53   2.0000      -0.431866       -11.7517
  54   2.0000      -0.426914       -11.6169
  55   2.0000      -0.419850       -11.4247
  56   2.0000      -0.415531       -11.3072
  57   2.0000      -0.399660       -10.8753
  58   2.0000      -0.329286        -8.9603
  59   2.0000      -0.232292        -6.3210
  60   0.0000       0.080975         2.2035
  61   0.0000       0.090939         2.4746
  62   0.0000       0.100191         2.7263
  63   0.0000       0.112888         3.0718
  64   0.0000       0.120448         3.2776

MULLIKEN ATOMIC CHARGES
-----------------------
   0 C :   -0.366991
   1 N :   -0.200055
   2 C :   -0.260263
   3 C :   -0.351862
   4 H :    0.200153
   5 H :    0.179938
   6 S :    0.777679
   7 C :    0.315264
   8 C :   -0.566568
   9 N :   -0.466981
  10 H :    0.212026
  11 H :    0.230284
  12 H :    0.232457
  13 H :    0.108588
  14 H :    0.084292
  15 F :   -0.061693
  16 O :   -0.352364
  17 C :   -0.152061
  18 H :    0.136860
  19 H :    0.171541
  20 C :   -0.303073
  21 H :    0.170690
  22 H :    0.152577
  23 C :   -0.308255
  24 H :    0.132586
  25 H :    0.116148
  26 O :   -0.435424
  27 H :    0.173085
  28 H :    0.128589
  29 H :    0.167030
  30 H :    0.135804
Sum of atomic charges:    0.0000000

LOEWDIN ATOMIC CHARGES
----------------------
   0 C :   -0.313820
   1 N :    0.125606
   2 C :   -0.285768
   3 C :   -0.379339
   4 H :    0.149781
   5 H :    0.145005
   6 S :    0.532414
   7 C :   -0.471124
   8 C :   -0.367205
   9 N :   -0.026025
  10 H :    0.158332
  11 H :    0.172692
  12 H :    0.175614
  13 H :    0.096111
  14 H :    0.091496
  15 F :    0.123564
  16 O :   -0.240807
  17 C :   -0.280073
  18 H :    0.130280
  19 H :    0.137777
  20 C :   -0.278340
  21 H :    0.152036
  22 H :    0.153063
  23 C :   -0.280636
  24 H :    0.142245
  25 H :    0.138380
  26 O :   -0.277783
  27 H :    0.147254
  28 H :    0.140333
  29 H :    0.143392
  30 H :    0.145546

  Mayer bond orders larger than 0.100000
B(  0-C ,  1-N ) :   0.9588 B(  0-C , 17-C ) :   0.8523 B(  0-C , 18-H ) :   1.0047
B(  0-C , 19-H ) :   0.9957 B(  1-N ,  7-C ) :   1.2200 B(  1-N , 12-H ) :   0.9014
B(  2-C ,  3-C ) :   0.9106 B(  2-C , 20-C ) :   0.9353 B(  2-C , 21-H ) :   0.9795
B(  2-C , 22-H ) :   0.9647 B(  3-C ,  4-H ) :   0.9366 B(  3-C ,  5-H ) :   0.9474
B(  3-C ,  6-S ) :   0.9276 B(  6-S , 15-F ) :   1.2094 B(  6-S , 16-O ) :   1.9758
B(  6-S , 26-O ) :   1.7528 B(  7-C ,  8-C ) :   1.6245 B(  7-C ,  9-N ) :   1.1003
B(  8-C , 13-H ) :   0.9954 B(  8-C , 14-H ) :   1.0043 B(  9-N , 10-H ) :   0.9289
B(  9-N , 11-H ) :   0.9351 B( 17-C , 23-C ) :   0.9376 B( 17-C , 24-H ) :   0.9791
B( 17-C , 25-H ) :   0.9809 B( 20-C , 23-C ) :   0.8616 B( 20-C , 29-H ) :   0.9773
B( 20-C , 30-H ) :   0.9810 B( 23-C , 27-H ) :   0.9706 B( 23-C , 28-H ) :   0.9802

FINAL SINGLE POINT ENERGY     -1071.507007994245

DIPOLE MOMENT
-------------
                                X             Y             Z
Electronic contribution:     -0.87783      -0.80104     -22.50372
Nuclear contribution   :      0.43347       2.59110      22.83150
                        -----------------------------------------
Total Dipole Moment    :     -0.44436       1.79006       0.32778
                        -----------------------------------------
Magnitude (a.u.)       :      1.87328
Magnitude (Debye)      :      4.76151

Rotational constants in cm-1:     0.029257     0.014415     0.010996
Rotational constants in MHz :   877.098782   432.159206   329.643335

                             ****ORCA TERMINATED NORMALLY****
TOTAL RUN TIME: 0 days 0 hours 1 minutes 34 seconds 440 msec
