                         Program Version 5.0.0 -  RELEASE  -
|  1> !LC-BLYP RIJCOSX def2-TZVP def2/J TightSCF xyzfile
|  2>
|  3> *xyzfile 0 1 D4.xyz
|  4>
|  5> %MaxCore 64000
|  6>
|  7> %pal nprocs 18
|  8> end
|  9>
| 10> %scf
| 11>   MaxIter 150
| 12> end
| 13>
| 14>
| 15>                          ****END OF INPUT****

CARTESIAN COORDINATES (ANGSTROEM)
---------------------------------
  C      1.963365   -1.749150   -1.896887
  C      2.738490   -2.015170   -3.097113
  C      0.611877    1.657634   -4.500288
  C      1.694991    1.541794   -5.570447
  H      2.697326    1.734659   -5.183996
  H      1.506656    2.272239   -6.358076
  S      1.780287   -0.033128   -6.428739
  C      4.049736   -2.154717   -3.152044
  N      4.658206   -1.986293   -4.318655
  N      4.764231   -2.454435   -2.050491
  H      4.287363   -2.776259   -1.217496
  H      5.750825   -2.658351   -2.125988
  H      2.345176   -1.690274   -3.971447
  H      4.109004   -1.592677   -5.071760
  H      5.649095   -2.156462   -4.427237
  O      2.569287    0.213657   -7.607360
  F      0.416880   -0.462969   -6.618595
  C      2.088520   -0.300912   -1.415204
  H      2.231272   -2.451616   -1.102643
  H      0.930249   -1.977801   -2.155438
  C      0.680356    0.655418   -3.348038
  H     -0.356865    1.549231   -4.991128
  H      0.650228    2.675438   -4.096000
  C      1.968993    0.733582   -2.535654
  H      3.051356   -0.168602   -0.911868
  H      1.316501   -0.136231   -0.657252
  O      2.505129   -0.933263   -5.482570
  H      2.824195    0.624726   -3.208464
  H      2.058919    1.730331   -2.093112
  H      0.542252   -0.344731   -3.766662
  H     -0.174219    0.829692   -2.685182

 Total Charge           Charge          ....    0
 Multiplicity           Mult            ....    1
 Number of Electrons    NEL             ....  120
 Basis Dimension        Dim             ....  542

ORBITAL ENERGIES
----------------

  NO   OCC          E(Eh)            E(eV)
   0   2.0000     -88.528588     -2408.9854
   1   2.0000     -24.585113      -668.9949
   2   2.0000     -18.961215      -515.9609
   3   2.0000     -18.946414      -515.5581
   4   2.0000     -14.150397      -385.0519
   5   2.0000     -14.133440      -384.5905
   6   2.0000     -10.132169      -275.7103
   7   2.0000     -10.097200      -274.7588
   8   2.0000     -10.088787      -274.5299
   9   2.0000     -10.068880      -273.9881
  10   2.0000     -10.053247      -273.5627
  11   2.0000     -10.041362      -273.2393
  12   2.0000     -10.028685      -272.8944
  13   2.0000      -9.952193      -270.8129
  14   2.0000      -8.071471      -219.6359
  15   2.0000      -6.103195      -166.0764
  16   2.0000      -6.096511      -165.8945
  17   2.0000      -6.095767      -165.8743
  18   2.0000      -1.474788       -40.1310
  19   2.0000      -1.211920       -32.9780
  20   2.0000      -1.110312       -30.2131
  21   2.0000      -1.037166       -28.2227
  22   2.0000      -0.952852       -25.9284
  23   2.0000      -0.947124       -25.7726
  24   2.0000      -0.902464       -24.5573
  25   2.0000      -0.860687       -23.4205
  26   2.0000      -0.832027       -22.6406
  27   2.0000      -0.802153       -21.8277
  28   2.0000      -0.761146       -20.7118
  29   2.0000      -0.730484       -19.8775
  30   2.0000      -0.707563       -19.2538
  31   2.0000      -0.705022       -19.1846
  32   2.0000      -0.688145       -18.7254
  33   2.0000      -0.659799       -17.9540
  34   2.0000      -0.648329       -17.6419
  35   2.0000      -0.626170       -17.0389
  36   2.0000      -0.602977       -16.4078
  37   2.0000      -0.601538       -16.3687
  38   2.0000      -0.580576       -15.7983
  39   2.0000      -0.576685       -15.6924
  40   2.0000      -0.568676       -15.4745
  41   2.0000      -0.545781       -14.8515
  42   2.0000      -0.541574       -14.7370
  43   2.0000      -0.535254       -14.5650
  44   2.0000      -0.521531       -14.1916
  45   2.0000      -0.497442       -13.5361
  46   2.0000      -0.487799       -13.2737
  47   2.0000      -0.479413       -13.0455
  48   2.0000      -0.473656       -12.8888
  49   2.0000      -0.468136       -12.7386
  50   2.0000      -0.452130       -12.3031
  51   2.0000      -0.438296       -11.9267
  52   2.0000      -0.434638       -11.8271
  53   2.0000      -0.427027       -11.6200
  54   2.0000      -0.415257       -11.2997
  55   2.0000      -0.410102       -11.1594
  56   2.0000      -0.396238       -10.7822
  57   2.0000      -0.373619       -10.1667
  58   2.0000      -0.341627        -9.2962
  59   2.0000      -0.228606        -6.2207
  60   0.0000       0.073730         2.0063
  61   0.0000       0.099082         2.6962
  62   0.0000       0.102625         2.7926
  63   0.0000       0.115215         3.1352
  64   0.0000       0.120131         3.2689

MULLIKEN ATOMIC CHARGES
-----------------------
   0 C :   -0.419943
   1 C :   -0.297869
   2 C :   -0.289625
   3 C :   -0.341257
   4 H :    0.204667
   5 H :    0.189598
   6 S :    0.774597
   7 C :    0.257992
   8 N :   -0.427896
   9 N :   -0.442707
  10 H :    0.231566
  11 H :    0.207116
  12 H :    0.138747
  13 H :    0.244206
  14 H :    0.199563
  15 O :   -0.356029
  16 F :   -0.062949
  17 C :   -0.173444
  18 H :    0.108055
  19 H :    0.133146
  20 C :   -0.295846
  21 H :    0.161106
  22 H :    0.151087
  23 C :   -0.239286
  24 H :    0.118469
  25 H :    0.108580
  26 O :   -0.440227
  27 H :    0.151009
  28 H :    0.123348
  29 H :    0.148676
  30 H :    0.135551
Sum of atomic charges:    0.0000000

LOEWDIN ATOMIC CHARGES
----------------------
   0 C :   -0.304885
   1 C :   -0.300938
   2 C :   -0.299702
   3 C :   -0.372194
   4 H :    0.157116
   5 H :    0.149054
   6 S :    0.532052
   7 C :   -0.466062
   8 N :   -0.018407
   9 N :   -0.027661
  10 H :    0.172254
  11 H :    0.158206
  12 H :    0.117421
  13 H :    0.165311
  14 H :    0.156104
  15 O :   -0.244643
  16 F :    0.123117
  17 C :   -0.270151
  18 H :    0.130990
  19 H :    0.141710
  20 C :   -0.277836
  21 H :    0.143305
  22 H :    0.152081
  23 C :   -0.277372
  24 H :    0.139304
  25 H :    0.132478
  26 O :   -0.280463
  27 H :    0.144924
  28 H :    0.137371
  29 H :    0.142492
  30 H :    0.145023

  Mayer bond orders larger than 0.100000
B(  0-C ,  1-C ) :   0.9271 B(  0-C , 17-C ) :   0.8767 B(  0-C , 18-H ) :   1.0066
B(  0-C , 19-H ) :   1.0144 B(  1-C ,  7-C ) :   1.6201 B(  1-C , 12-H ) :   1.0342
B(  2-C ,  3-C ) :   0.8986 B(  2-C , 20-C ) :   0.9047 B(  2-C , 21-H ) :   0.9922
B(  2-C , 22-H ) :   0.9640 B(  3-C ,  4-H ) :   0.9383 B(  3-C ,  5-H ) :   0.9532
B(  3-C ,  6-S ) :   0.9233 B(  6-S , 15-O ) :   2.0270 B(  6-S , 16-F ) :   1.1859
B(  6-S , 26-O ) :   1.7506 B(  7-C ,  8-N ) :   1.1945 B(  7-C ,  9-N ) :   1.1430
B(  8-N , 13-H ) :   0.8856 B(  8-N , 14-H ) :   0.9392 B(  9-N , 10-H ) :   0.9251
B(  9-N , 11-H ) :   0.9354 B( 17-C , 23-C ) :   0.9505 B( 17-C , 24-H ) :   0.9834
B( 17-C , 25-H ) :   0.9918 B( 20-C , 23-C ) :   0.8508 B( 20-C , 29-H ) :   0.9913
B( 20-C , 30-H ) :   0.9808 B( 23-C , 27-H ) :   0.9808 B( 23-C , 28-H ) :   0.9834

FINAL SINGLE POINT ENERGY     -1071.509166407917

DIPOLE MOMENT
-------------
                                X             Y             Z
Electronic contribution:     -2.94002      -2.16248     -21.77214
Nuclear contribution   :      2.64598       3.36033      21.85869
                        -----------------------------------------
Total Dipole Moment    :     -0.29404       1.19785       0.08655
                        -----------------------------------------
Magnitude (a.u.)       :      1.23644
Magnitude (Debye)      :      3.14279

Rotational constants in cm-1:     0.028973     0.014435     0.011026
Rotational constants in MHz :   868.588266   432.748309   330.548534

                             ****ORCA TERMINATED NORMALLY****
TOTAL RUN TIME: 0 days 0 hours 1 minutes 13 seconds 699 msec
