                         Program Version 5.0.0 -  RELEASE  -
|  1> !LC-BLYP RIJCOSX def2-TZVP def2/J TightSCF xyzfile
|  2>
|  3> *xyzfile 0 1 D5.xyz
|  4>
|  5> %MaxCore 64000
|  6>
|  7> %pal nprocs 18
|  8> end
|  9>
| 10> %scf
| 11>   MaxIter 150
| 12> end
| 13>
| 14>
| 15>                          ****END OF INPUT****

CARTESIAN COORDINATES (ANGSTROEM)
---------------------------------
  C      1.963365   -1.749150   -1.896887
  N      2.738490   -2.015170   -3.097113
  C      0.611877    1.657634   -4.500288
  C      1.694991    1.541794   -5.570447
  H      2.697326    1.734659   -5.183996
  H      1.506656    2.272239   -6.358076
  S      1.780287   -0.033128   -6.428739
  C      4.049736   -2.154717   -3.152044
  C      4.658206   -1.986293   -4.318655
  N      4.764231   -2.454435   -2.050491
  H      4.287363   -2.776259   -1.217496
  H      5.750825   -2.658351   -2.125988
  H      2.345176   -1.690274   -3.971447
  H      4.109004   -1.592677   -5.071760
  H      5.649095   -2.156462   -4.427237
  O      2.569287    0.213657   -7.607360
  F      0.416880   -0.462969   -6.618595
  C      2.088520   -0.300912   -1.415204
  H      2.231272   -2.451616   -1.102643
  H      0.930249   -1.977801   -2.155438
  C      0.680356    0.655418   -3.348038
  H     -0.356865    1.549231   -4.991128
  H      0.650228    2.675438   -4.096000
  C      1.968993    0.733582   -2.535654
  H      3.051356   -0.168602   -0.911868
  H      1.316501   -0.136231   -0.657252
  O      2.505129   -0.933263   -5.482570
  H      2.824195    0.624726   -3.208464
  H      2.058919    1.730331   -2.093112
  H      0.542252   -0.344731   -3.766662
  H     -0.174219    0.829692   -2.685182

 Total Charge           Charge          ....    0
 Multiplicity           Mult            ....    1
 Number of Electrons    NEL             ....  120
 Basis Dimension        Dim             ....  542

ORBITAL ENERGIES
----------------

  NO   OCC          E(Eh)            E(eV)
   0   2.0000     -88.529896     -2409.0209
   1   2.0000     -24.586638      -669.0364
   2   2.0000     -18.962645      -515.9998
   3   2.0000     -18.949283      -515.6362
   4   2.0000     -14.148055      -384.9881
   5   2.0000     -14.134597      -384.6219
   6   2.0000     -10.135286      -275.7951
   7   2.0000     -10.105199      -274.9765
   8   2.0000     -10.092892      -274.6415
   9   2.0000     -10.089152      -274.5398
  10   2.0000     -10.083175      -274.3771
  11   2.0000     -10.069261      -273.9985
  12   2.0000     -10.063137      -273.8319
  13   2.0000      -9.946657      -270.6623
  14   2.0000      -8.072787      -219.6717
  15   2.0000      -6.104637      -166.1156
  16   2.0000      -6.097712      -165.9272
  17   2.0000      -6.097101      -165.9105
  18   2.0000      -1.476635       -40.1813
  19   2.0000      -1.213024       -33.0081
  20   2.0000      -1.112160       -30.2634
  21   2.0000      -1.046763       -28.4839
  22   2.0000      -0.966708       -26.3055
  23   2.0000      -0.957873       -26.0651
  24   2.0000      -0.904587       -24.6151
  25   2.0000      -0.866991       -23.5920
  26   2.0000      -0.830849       -22.6085
  27   2.0000      -0.808932       -22.0122
  28   2.0000      -0.768482       -20.9114
  29   2.0000      -0.738325       -20.0909
  30   2.0000      -0.712213       -19.3803
  31   2.0000      -0.709364       -19.3028
  32   2.0000      -0.695310       -18.9204
  33   2.0000      -0.677488       -18.4354
  34   2.0000      -0.652090       -17.7443
  35   2.0000      -0.623077       -16.9548
  36   2.0000      -0.611306       -16.6345
  37   2.0000      -0.601228       -16.3602
  38   2.0000      -0.583757       -15.8848
  39   2.0000      -0.579581       -15.7712
  40   2.0000      -0.570403       -15.5214
  41   2.0000      -0.561242       -15.2722
  42   2.0000      -0.549204       -14.9446
  43   2.0000      -0.534733       -14.5508
  44   2.0000      -0.527107       -14.3433
  45   2.0000      -0.501423       -13.6444
  46   2.0000      -0.498617       -13.5681
  47   2.0000      -0.487796       -13.2736
  48   2.0000      -0.478031       -13.0079
  49   2.0000      -0.467802       -12.7295
  50   2.0000      -0.460190       -12.5224
  51   2.0000      -0.450236       -12.2515
  52   2.0000      -0.439166       -11.9503
  53   2.0000      -0.431645       -11.7456
  54   2.0000      -0.428400       -11.6574
  55   2.0000      -0.422821       -11.5055
  56   2.0000      -0.416211       -11.3257
  57   2.0000      -0.406741       -11.0680
  58   2.0000      -0.329999        -8.9797
  59   2.0000      -0.231968        -6.3122
  60   0.0000       0.071002         1.9320
  61   0.0000       0.095011         2.5854
  62   0.0000       0.101056         2.7499
  63   0.0000       0.106820         2.9067
  64   0.0000       0.119368         3.2482

MULLIKEN ATOMIC CHARGES
-----------------------
   0 C :   -0.362506
   1 N :   -0.200357
   2 C :   -0.290007
   3 C :   -0.346205
   4 H :    0.211961
   5 H :    0.191393
   6 S :    0.775875
   7 C :    0.316540
   8 C :   -0.580158
   9 N :   -0.467955
  10 H :    0.210947
  11 H :    0.231059
  12 H :    0.224584
  13 H :    0.133494
  14 H :    0.085549
  15 O :   -0.346476
  16 F :   -0.066545
  17 C :   -0.154860
  18 H :    0.137952
  19 H :    0.165583
  20 C :   -0.293349
  21 H :    0.163851
  22 H :    0.154839
  23 C :   -0.299811
  24 H :    0.135005
  25 H :    0.116038
  26 O :   -0.434601
  27 H :    0.176542
  28 H :    0.132000
  29 H :    0.140453
  30 H :    0.139163
Sum of atomic charges:    0.0000000

LOEWDIN ATOMIC CHARGES
----------------------
   0 C :   -0.315593
   1 N :    0.121859
   2 C :   -0.298369
   3 C :   -0.371856
   4 H :    0.159145
   5 H :    0.149820
   6 S :    0.531089
   7 C :   -0.472881
   8 C :   -0.358321
   9 N :   -0.026706
  10 H :    0.157833
  11 H :    0.172983
  12 H :    0.170719
  13 H :    0.100592
  14 H :    0.092667
  15 O :   -0.234822
  16 F :    0.119378
  17 C :   -0.279758
  18 H :    0.130590
  19 H :    0.135695
  20 C :   -0.282304
  21 H :    0.144359
  22 H :    0.153194
  23 C :   -0.278815
  24 H :    0.143236
  25 H :    0.138189
  26 O :   -0.274624
  27 H :    0.149109
  28 H :    0.141663
  29 H :    0.136260
  30 H :    0.145670

  Mayer bond orders larger than 0.100000
B(  0-C ,  1-N ) :   0.9616 B(  0-C , 17-C ) :   0.8509 B(  0-C , 18-H ) :   1.0044
B(  0-C , 19-H ) :   0.9985 B(  1-N ,  7-C ) :   1.2142 B(  1-N , 12-H ) :   0.9029
B(  2-C ,  3-C ) :   0.8970 B(  2-C , 20-C ) :   0.9084 B(  2-C , 21-H ) :   0.9915
B(  2-C , 22-H ) :   0.9647 B(  3-C ,  4-H ) :   0.9373 B(  3-C ,  5-H ) :   0.9540
B(  3-C ,  6-S ) :   0.9216 B(  6-S , 15-O ) :   2.0369 B(  6-S , 16-F ) :   1.1791
B(  6-S , 26-O ) :   1.7428 B(  7-C ,  8-C ) :   1.6197 B(  7-C ,  9-N ) :   1.0970
B(  8-C , 13-H ) :   0.9945 B(  8-C , 14-H ) :   1.0088 B(  9-N , 10-H ) :   0.9294
B(  9-N , 11-H ) :   0.9349 B( 17-C , 23-C ) :   0.9358 B( 17-C , 24-H ) :   0.9780
B( 17-C , 25-H ) :   0.9813 B( 20-C , 23-C ) :   0.8549 B( 20-C , 29-H ) :   0.9894
B( 20-C , 30-H ) :   0.9796 B( 23-C , 27-H ) :   0.9704 B( 23-C , 28-H ) :   0.9793

FINAL SINGLE POINT ENERGY     -1071.506296395790

DIPOLE MOMENT
-------------
                                X             Y             Z
Electronic contribution:     -4.62730      -1.97592     -20.71189
Nuclear contribution   :      2.89225       3.36404      21.70199
                        -----------------------------------------
Total Dipole Moment    :     -1.73505       1.38812       0.99011
                        -----------------------------------------
Magnitude (a.u.)       :      2.43261
Magnitude (Debye)      :      6.18319

Rotational constants in cm-1:     0.029431     0.014408     0.011084
Rotational constants in MHz :   882.306106   431.946714   332.288152

                             ****ORCA TERMINATED NORMALLY****
TOTAL RUN TIME: 0 days 0 hours 1 minutes 10 seconds 214 msec
