                         Program Version 5.0.0 -  RELEASE  -
|  1> !LC-BLYP RIJCOSX def2-TZVP def2/J TightSCF xyzfile
|  2>
|  3> *xyzfile 0 1 D6.xyz
|  4>
|  5> %MaxCore 64000
|  6>
|  7> %pal nprocs 18
|  8> end
|  9>
| 10> %scf
| 11>   MaxIter 150
| 12> end
| 13>
| 14>
| 15>                          ****END OF INPUT****

CARTESIAN COORDINATES (ANGSTROEM)
---------------------------------
  C      1.963365   -1.749150   -1.896887
  N      2.738490   -2.015170   -3.097113
  C      0.611877    1.657634   -4.500288
  C      1.694991    1.541794   -5.570447
  H      2.697326    1.734659   -5.183996
  H      1.506656    2.272239   -6.358076
  S      1.780287   -0.033128   -6.428739
  C      4.049736   -2.154717   -3.152044
  N      4.658206   -1.986293   -4.318655
  C      4.764231   -2.454435   -2.050491
  H      4.287363   -2.776259   -1.217496
  H      5.750825   -2.658351   -2.125988
  H      2.345176   -1.690274   -3.971447
  H      4.109004   -1.592677   -5.071760
  H      5.649095   -2.156462   -4.427237
  O      2.569287    0.213657   -7.607360
  F      0.416880   -0.462969   -6.618595
  C      2.088520   -0.300912   -1.415204
  H      2.231272   -2.451616   -1.102643
  H      0.930249   -1.977801   -2.155438
  C      0.680356    0.655418   -3.348038
  H     -0.356865    1.549231   -4.991128
  H      0.650228    2.675438   -4.096000
  C      1.968993    0.733582   -2.535654
  H      3.051356   -0.168602   -0.911868
  H      1.316501   -0.136231   -0.657252
  O      2.505129   -0.933263   -5.482570
  H      2.824195    0.624726   -3.208464
  H      2.058919    1.730331   -2.093112
  H      0.542252   -0.344731   -3.766662
  H     -0.174219    0.829692   -2.685182

 Total Charge           Charge          ....    0
 Multiplicity           Mult            ....    1
 Number of Electrons    NEL             ....  120
 Basis Dimension        Dim             ....  542

ORBITAL ENERGIES
----------------

  NO   OCC          E(Eh)            E(eV)
   0   2.0000     -88.547884     -2409.5104
   1   2.0000     -24.601638      -669.4446
   2   2.0000     -18.978501      -516.4313
   3   2.0000     -18.970595      -516.2161
   4   2.0000     -14.136698      -384.6791
   5   2.0000     -14.133809      -384.6005
   6   2.0000     -10.146916      -276.1116
   7   2.0000     -10.111701      -275.1534
   8   2.0000     -10.091828      -274.6126
   9   2.0000     -10.086524      -274.4683
  10   2.0000     -10.086104      -274.4568
  11   2.0000     -10.070244      -274.0253
  12   2.0000     -10.057577      -273.6806
  13   2.0000      -9.955676      -270.9077
  14   2.0000      -8.090615      -220.1568
  15   2.0000      -6.122352      -166.5977
  16   2.0000      -6.115835      -166.4203
  17   2.0000      -6.114785      -166.3918
  18   2.0000      -1.491441       -40.5842
  19   2.0000      -1.230677       -33.4884
  20   2.0000      -1.131561       -30.7913
  21   2.0000      -1.047656       -28.5082
  22   2.0000      -0.970272       -26.4024
  23   2.0000      -0.960795       -26.1446
  24   2.0000      -0.907629       -24.6978
  25   2.0000      -0.866526       -23.5794
  26   2.0000      -0.836667       -22.7669
  27   2.0000      -0.798071       -21.7166
  28   2.0000      -0.788777       -21.4637
  29   2.0000      -0.750925       -20.4337
  30   2.0000      -0.724172       -19.7057
  31   2.0000      -0.719596       -19.5812
  32   2.0000      -0.693919       -18.8825
  33   2.0000      -0.680382       -18.5141
  34   2.0000      -0.641406       -17.4536
  35   2.0000      -0.630409       -17.1543
  36   2.0000      -0.618525       -16.8309
  37   2.0000      -0.612527       -16.6677
  38   2.0000      -0.603713       -16.4279
  39   2.0000      -0.589940       -16.0531
  40   2.0000      -0.570496       -15.5240
  41   2.0000      -0.562350       -15.3023
  42   2.0000      -0.546649       -14.8751
  43   2.0000      -0.536645       -14.6029
  44   2.0000      -0.528518       -14.3817
  45   2.0000      -0.513580       -13.9752
  46   2.0000      -0.497451       -13.5363
  47   2.0000      -0.493067       -13.4170
  48   2.0000      -0.477803       -13.0017
  49   2.0000      -0.470242       -12.7959
  50   2.0000      -0.461867       -12.5680
  51   2.0000      -0.460042       -12.5184
  52   2.0000      -0.447028       -12.1643
  53   2.0000      -0.439875       -11.9696
  54   2.0000      -0.434663       -11.8278
  55   2.0000      -0.429194       -11.6790
  56   2.0000      -0.425892       -11.5891
  57   2.0000      -0.413426       -11.2499
  58   2.0000      -0.321487        -8.7481
  59   2.0000      -0.235053        -6.3961
  60   0.0000       0.060483         1.6458
  61   0.0000       0.089588         2.4378
  62   0.0000       0.101581         2.7642
  63   0.0000       0.108146         2.9428
  64   0.0000       0.113435         3.0867

MULLIKEN ATOMIC CHARGES
-----------------------
   0 C :   -0.321386
   1 N :   -0.210813
   2 C :   -0.291427
   3 C :   -0.346910
   4 H :    0.212795
   5 H :    0.196676
   6 S :    0.792433
   7 C :    0.284653
   8 N :   -0.436865
   9 C :   -0.565926
  10 H :    0.085781
  11 H :    0.081296
  12 H :    0.212348
  13 H :    0.235692
  14 H :    0.226063
  15 O :   -0.344852
  16 F :   -0.060098
  17 C :   -0.161760
  18 H :    0.156239
  19 H :    0.158829
  20 C :   -0.292863
  21 H :    0.166093
  22 H :    0.158312
  23 C :   -0.304111
  24 H :    0.151907
  25 H :    0.119241
  26 O :   -0.472154
  27 H :    0.154439
  28 H :    0.133485
  29 H :    0.139551
  30 H :    0.143333
Sum of atomic charges:   -0.0000000

LOEWDIN ATOMIC CHARGES
----------------------
   0 C :   -0.297036
   1 N :    0.121402
   2 C :   -0.297907
   3 C :   -0.369956
   4 H :    0.159160
   5 H :    0.151626
   6 S :    0.539224
   7 C :   -0.473140
   8 N :   -0.014201
   9 C :   -0.379758
  10 H :    0.095733
  11 H :    0.092626
  12 H :    0.159138
  13 H :    0.153278
  14 H :    0.171849
  15 O :   -0.232969
  16 F :    0.125995
  17 C :   -0.276164
  18 H :    0.141299
  19 H :    0.132875
  20 C :   -0.282204
  21 H :    0.144750
  22 H :    0.154640
  23 C :   -0.279851
  24 H :    0.149640
  25 H :    0.138885
  26 O :   -0.297837
  27 H :    0.144065
  28 H :    0.141924
  29 H :    0.135646
  30 H :    0.147265

  Mayer bond orders larger than 0.100000
B(  0-C ,  1-N ) :   0.9451 B(  0-C , 17-C ) :   0.8780 B(  0-C , 18-H ) :   0.9897
B(  0-C , 19-H ) :   0.9971 B(  1-N ,  7-C ) :   1.2066 B(  1-N , 12-H ) :   0.9105
B(  2-C ,  3-C ) :   0.8948 B(  2-C , 20-C ) :   0.9055 B(  2-C , 21-H ) :   0.9915
B(  2-C , 22-H ) :   0.9627 B(  3-C ,  4-H ) :   0.9352 B(  3-C ,  5-H ) :   0.9524
B(  3-C ,  6-S ) :   0.9237 B(  6-S , 15-O ) :   2.0381 B(  6-S , 16-F ) :   1.1916
B(  6-S , 26-O ) :   1.7072 B(  7-C ,  8-N ) :   1.1594 B(  7-C ,  9-C ) :   1.6146
B(  8-N , 13-H ) :   0.8961 B(  8-N , 14-H ) :   0.9340 B(  9-C , 10-H ) :   1.0031
B(  9-C , 11-H ) :   1.0029 B( 17-C , 23-C ) :   0.9392 B( 17-C , 24-H ) :   0.9716
B( 17-C , 25-H ) :   0.9867 B( 20-C , 23-C ) :   0.8503 B( 20-C , 29-H ) :   0.9925
B( 20-C , 30-H ) :   0.9800 B( 23-C , 27-H ) :   0.9752 B( 23-C , 28-H ) :   0.9790

FINAL SINGLE POINT ENERGY     -1071.518548042825

DIPOLE MOMENT
-------------
                                X             Y             Z
Electronic contribution:     -4.87402      -1.36019     -22.80795
Nuclear contribution   :      2.90585       3.30398      21.99296
                        -----------------------------------------
Total Dipole Moment    :     -1.96817       1.94380      -0.81499
                        -----------------------------------------
Magnitude (a.u.)       :      2.88379
Magnitude (Debye)      :      7.33001

Rotational constants in cm-1:     0.029065     0.014689     0.011200
Rotational constants in MHz :   871.338526   440.374927   335.770911

                             ****ORCA TERMINATED NORMALLY****
TOTAL RUN TIME: 0 days 0 hours 1 minutes 10 seconds 842 msec
