                         Program Version 5.0.0 -  RELEASE  -
|  1> !LC-BLYP RIJCOSX def2-TZVP def2/J TightSCF xyzfile
|  2>
|  3> *xyzfile 0 1 D7.xyz
|  4>
|  5> %MaxCore 64000
|  6>
|  7> %pal nprocs 18
|  8> end
|  9>
| 10> %scf
| 11>   MaxIter 150
| 12> end
| 13>
| 14>
| 15>                          ****END OF INPUT****

CARTESIAN COORDINATES (ANGSTROEM)
---------------------------------
  C      1.963365   -1.749150   -1.896887
  C      2.738490   -2.015170   -3.097113
  C      0.611877    1.657634   -4.500288
  C      1.694991    1.541794   -5.570447
  H      2.697326    1.734659   -5.183996
  H      1.506656    2.272239   -6.358076
  S      1.780287   -0.033128   -6.428739
  C      4.049736   -2.154717   -3.152044
  N      4.658206   -1.986293   -4.318655
  N      4.764231   -2.454435   -2.050491
  H      4.287363   -2.776259   -1.217496
  H      5.750825   -2.658351   -2.125988
  H      2.345176   -1.690274   -3.971447
  H      4.109004   -1.592677   -5.071760
  H      5.649095   -2.156462   -4.427237
  O      2.569287    0.213657   -7.607360
  O      0.416880   -0.462969   -6.618595
  C      2.088520   -0.300912   -1.415204
  H      2.231272   -2.451616   -1.102643
  H      0.930249   -1.977801   -2.155438
  C      0.680356    0.655418   -3.348038
  H     -0.356865    1.549231   -4.991128
  H      0.650228    2.675438   -4.096000
  C      1.968993    0.733582   -2.535654
  H      3.051356   -0.168602   -0.911868
  H      1.316501   -0.136231   -0.657252
  F      2.505129   -0.933263   -5.482570
  H      2.824195    0.624726   -3.208464
  H      2.058919    1.730331   -2.093112
  H      0.542252   -0.344731   -3.766662
  H     -0.174219    0.829692   -2.685182

 Total Charge           Charge          ....    0
 Multiplicity           Mult            ....    1
 Number of Electrons    NEL             ....  120
 Basis Dimension        Dim             ....  542

ORBITAL ENERGIES
----------------

  NO   OCC          E(Eh)            E(eV)
   0   2.0000     -88.517864     -2408.6935
   1   2.0000     -24.559518      -668.2985
   2   2.0000     -18.955273      -515.7992
   3   2.0000     -18.954946      -515.7903
   4   2.0000     -14.170280      -385.5929
   5   2.0000     -14.164862      -385.4455
   6   2.0000     -10.126620      -275.5593
   7   2.0000     -10.113778      -275.2099
   8   2.0000     -10.089862      -274.5591
   9   2.0000     -10.070100      -274.0213
  10   2.0000     -10.061648      -273.7914
  11   2.0000     -10.052054      -273.5303
  12   2.0000     -10.043837      -273.3067
  13   2.0000      -9.981864      -271.6203
  14   2.0000      -8.060917      -219.3487
  15   2.0000      -6.093042      -165.8001
  16   2.0000      -6.085679      -165.5997
  17   2.0000      -6.085164      -165.5857
  18   2.0000      -1.438984       -39.1568
  19   2.0000      -1.215445       -33.0739
  20   2.0000      -1.122540       -30.5459
  21   2.0000      -1.062419       -28.9099
  22   2.0000      -0.973343       -26.4860
  23   2.0000      -0.947941       -25.7948
  24   2.0000      -0.910129       -24.7659
  25   2.0000      -0.863430       -23.4951
  26   2.0000      -0.840120       -22.8608
  27   2.0000      -0.803247       -21.8575
  28   2.0000      -0.774735       -21.0816
  29   2.0000      -0.734977       -19.9997
  30   2.0000      -0.697167       -18.9709
  31   2.0000      -0.685932       -18.6652
  32   2.0000      -0.681872       -18.5547
  33   2.0000      -0.670062       -18.2333
  34   2.0000      -0.648859       -17.6563
  35   2.0000      -0.646105       -17.5814
  36   2.0000      -0.611001       -16.6262
  37   2.0000      -0.598672       -16.2907
  38   2.0000      -0.596265       -16.2252
  39   2.0000      -0.573735       -15.6121
  40   2.0000      -0.570948       -15.5363
  41   2.0000      -0.557321       -15.1655
  42   2.0000      -0.550970       -14.9927
  43   2.0000      -0.534641       -14.5483
  44   2.0000      -0.524424       -14.2703
  45   2.0000      -0.502904       -13.6847
  46   2.0000      -0.500062       -13.6074
  47   2.0000      -0.493070       -13.4171
  48   2.0000      -0.487213       -13.2577
  49   2.0000      -0.467413       -12.7190
  50   2.0000      -0.456004       -12.4085
  51   2.0000      -0.442710       -12.0468
  52   2.0000      -0.439845       -11.9688
  53   2.0000      -0.430947       -11.7267
  54   2.0000      -0.425913       -11.5897
  55   2.0000      -0.418972       -11.4008
  56   2.0000      -0.408714       -11.1217
  57   2.0000      -0.403597       -10.9824
  58   2.0000      -0.365850        -9.9553
  59   2.0000      -0.253336        -6.8936
  60   0.0000       0.078059         2.1241
  61   0.0000       0.089961         2.4480
  62   0.0000       0.103277         2.8103
  63   0.0000       0.109956         2.9920
  64   0.0000       0.120191         3.2706

MULLIKEN ATOMIC CHARGES
-----------------------
   0 C :   -0.425973
   1 C :   -0.322080
   2 C :   -0.236443
   3 C :   -0.367130
   4 H :    0.189581
   5 H :    0.198410
   6 S :    0.755919
   7 C :    0.296324
   8 N :   -0.433872
   9 N :   -0.436988
  10 H :    0.237784
  11 H :    0.213025
  12 H :    0.116247
  13 H :    0.227582
  14 H :    0.214421
  15 O :   -0.371627
  16 O :   -0.359303
  17 C :   -0.170911
  18 H :    0.115796
  19 H :    0.147634
  20 C :   -0.337545
  21 H :    0.171071
  22 H :    0.144335
  23 C :   -0.246689
  24 H :    0.120726
  25 H :    0.117434
  26 F :   -0.127404
  27 H :    0.134838
  28 H :    0.129585
  29 H :    0.166544
  30 H :    0.138711
Sum of atomic charges:    0.0000000

LOEWDIN ATOMIC CHARGES
----------------------
   0 C :   -0.299157
   1 C :   -0.301061
   2 C :   -0.294176
   3 C :   -0.377432
   4 H :    0.144226
   5 H :    0.157557
   6 S :    0.527760
   7 C :   -0.463062
   8 N :   -0.017336
   9 N :   -0.019506
  10 H :    0.175511
  11 H :    0.161533
  12 H :    0.115317
  13 H :    0.163943
  14 H :    0.162777
  15 O :   -0.253745
  16 O :   -0.243965
  17 C :   -0.269059
  18 H :    0.133749
  19 H :    0.146341
  20 C :   -0.278649
  21 H :    0.151400
  22 H :    0.149832
  23 C :   -0.279875
  24 H :    0.139369
  25 H :    0.135630
  26 F :    0.063842
  27 H :    0.138255
  28 H :    0.139718
  29 H :    0.143489
  30 H :    0.146773

  Mayer bond orders larger than 0.100000
B(  0-C ,  1-C ) :   0.9287 B(  0-C , 17-C ) :   0.8790 B(  0-C , 18-H ) :   1.0049
B(  0-C , 19-H ) :   1.0081 B(  1-C ,  7-C ) :   1.6060 B(  1-C , 12-H ) :   1.0458
B(  2-C ,  3-C ) :   0.8942 B(  2-C , 20-C ) :   0.9214 B(  2-C , 21-H ) :   0.9804
B(  2-C , 22-H ) :   0.9627 B(  3-C ,  4-H ) :   0.9438 B(  3-C ,  5-H ) :   0.9494
B(  3-C ,  6-S ) :   0.9181 B(  6-S , 15-O ) :   2.0164 B(  6-S , 16-O ) :   1.9669
B(  6-S , 26-F ) :   1.0446 B(  7-C ,  8-N ) :   1.1745 B(  7-C ,  9-N ) :   1.1630
B(  8-N , 13-H ) :   0.9124 B(  8-N , 14-H ) :   0.9340 B(  9-N , 10-H ) :   0.9220
B(  9-N , 11-H ) :   0.9329 B( 17-C , 23-C ) :   0.9464 B( 17-C , 24-H ) :   0.9854
B( 17-C , 25-H ) :   0.9914 B( 20-C , 23-C ) :   0.8461 B( 20-C , 29-H ) :   0.9901
B( 20-C , 30-H ) :   0.9811 B( 23-C , 27-H ) :   0.9838 B( 23-C , 28-H ) :   0.9848

FINAL SINGLE POINT ENERGY     -1071.527551630242

DIPOLE MOMENT
-------------
                                X             Y             Z
Electronic contribution:      0.86037      -3.13675     -19.41165
Nuclear contribution   :      0.26049       3.89757      20.56096
                        -----------------------------------------
Total Dipole Moment    :      1.12086       0.76082       1.14931
                        -----------------------------------------
Magnitude (a.u.)       :      1.77654
Magnitude (Debye)      :      4.51560

Rotational constants in cm-1:     0.029090     0.014735     0.011139
Rotational constants in MHz :   872.086433   441.731892   333.928051

                             ****ORCA TERMINATED NORMALLY****
TOTAL RUN TIME: 0 days 0 hours 1 minutes 19 seconds 701 msec
