                         Program Version 5.0.0 -  RELEASE  -
|  1> !CAM-B3LYP RIJCOSX def2-SVPD def2/J TightSCF
|  2> *xyz -1 1
|  3> C         -7.33044       -2.67899       -3.20681
|  4> S         -6.01966       -2.92697       -4.41913
|  5> O         -5.64583       -1.58838       -4.91931
|  6> O         -4.88196       -3.50370       -3.66724
|  7> O         -6.54927       -3.80515       -5.42507
|  8> H         -8.18867       -2.26077       -3.68996
|  9> H         -6.98921       -2.01038       -2.44430
| 10> H         -7.59151       -3.61862       -2.76655
| 11> *
| 12> %MaxCore 64000
| 13>
| 14> %pal nprocs 8
| 15> end
| 16>
| 17> %scf
| 18>   MaxIter 150
| 19> end
| 20>
| 21>
| 22>                          ****END OF INPUT****

CARTESIAN COORDINATES (ANGSTROEM)
---------------------------------
  C     -7.330440   -2.678990   -3.206810
  S     -6.019660   -2.926970   -4.419130
  O     -5.645830   -1.588380   -4.919310
  O     -4.881960   -3.503700   -3.667240
  O     -6.549270   -3.805150   -5.425070
  H     -8.188670   -2.260770   -3.689960
  H     -6.989210   -2.010380   -2.444300
  H     -7.591510   -3.618620   -2.766550

 Total Charge           Charge          ....   -1
 Multiplicity           Mult            ....    1
 Number of Electrons    NEL             ....   50
 Basis Dimension        Dim             ....  140

ORBITAL ENERGIES
----------------

  NO   OCC          E(Eh)            E(eV)
   0   2.0000     -88.964929     -2420.8588
   1   2.0000     -18.998495      -516.9753
   2   2.0000     -18.986994      -516.6624
   3   2.0000     -18.984484      -516.5941
   4   2.0000     -10.119361      -275.3618
   5   2.0000      -8.017676      -218.1720
   6   2.0000      -5.987589      -162.9306
   7   2.0000      -5.987437      -162.9264
   8   2.0000      -5.987247      -162.9213
   9   2.0000      -1.012848       -27.5610
  10   2.0000      -0.868546       -23.6343
  11   2.0000      -0.845119       -22.9969
  12   2.0000      -0.667218       -18.1559
  13   2.0000      -0.466240       -12.6870
  14   2.0000      -0.375615       -10.2210
  15   2.0000      -0.365154        -9.9364
  16   2.0000      -0.363955        -9.9037
  17   2.0000      -0.319745        -8.7007
  18   2.0000      -0.318041        -8.6543
  19   2.0000      -0.219555        -5.9744
  20   2.0000      -0.219033        -5.9602
  21   2.0000      -0.182886        -4.9766
  22   2.0000      -0.175792        -4.7835
  23   2.0000      -0.167591        -4.5604
  24   2.0000      -0.129273        -3.5177
  25   0.0000       0.175192         4.7672
  26   0.0000       0.206154         5.6097
  27   0.0000       0.206449         5.6178
  28   0.0000       0.211933         5.7670
  29   0.0000       0.237452         6.4614

MULLIKEN ATOMIC CHARGES
-----------------------
   0 C :    0.688127
   1 S :    1.080258
   2 O :   -0.789210
   3 O :   -0.794169
   4 O :   -0.745484
   5 H :   -0.148889
   6 H :   -0.145431
   7 H :   -0.145202
Sum of atomic charges:   -1.0000000

LOEWDIN ATOMIC CHARGES
----------------------
   0 C :    0.061110
   1 S :    0.838995
   2 O :   -0.601832
   3 O :   -0.605433
   4 O :   -0.582027
   5 H :   -0.037854
   6 H :   -0.035942
   7 H :   -0.037017

  Mayer bond orders larger than 0.100000
B(  0-C ,  1-S ) :   0.9296 B(  0-C ,  5-H ) :   0.8827 B(  0-C ,  6-H ) :   0.8858
B(  0-C ,  7-H ) :   0.8827 B(  1-S ,  2-O ) :   1.3081 B(  1-S ,  3-O ) :   1.3056
B(  1-S ,  4-O ) :   1.3476 B(  1-S ,  5-H ) :   0.1239 B(  1-S ,  6-H ) :   0.1334
B(  1-S ,  7-H ) :   0.1253

FINAL SINGLE POINT ENERGY      -663.408187396212

DIPOLE MOMENT
-------------
                                X             Y             Z
Electronic contribution:      2.95060      -0.63920      -2.88694
Nuclear contribution   :     -4.26236       0.77434       3.87117
                        -----------------------------------------
Total Dipole Moment    :     -1.31176       0.13514       0.98423
                        -----------------------------------------
Magnitude (a.u.)       :      1.64550
Magnitude (Debye)      :      4.18254

Rotational constants in cm-1:     0.172427     0.155038     0.152780
Rotational constants in MHz :  5169.225473  4647.928623  4580.233540

                             ****ORCA TERMINATED NORMALLY****
TOTAL RUN TIME: 0 days 0 hours 0 minutes 10 seconds 42 msec
