                         Program Version 5.0.0 -  RELEASE  -
|  1> !CAM-B3LYP RIJCOSX def2-SVPD def2/J TightSCF
|  2> *xyz 1 1
|  3> C         -2.16038       -1.36949       -3.46710
|  4> N         -3.03011       -1.91086       -4.54107
|  5> H         -3.47744       -2.79151       -4.25710
|  6> H         -2.53801       -2.01786       -5.43808
|  7> H         -3.89159       -1.37604       -4.71437
|  8> H         -1.71294       -0.45536       -3.79734
|  9> H         -1.39344       -2.07939       -3.23742
| 10> H         -2.74775       -1.18344       -2.59230
| 11> *
| 12> %MaxCore 64000
| 13>
| 14> %pal nprocs 8
| 15> end
| 16>
| 17> %scf
| 18>   MaxIter 150
| 19> end
| 20>
| 21>
| 22>                          ****END OF INPUT****

CARTESIAN COORDINATES (ANGSTROEM)
---------------------------------
  C     -2.160380   -1.369490   -3.467100
  N     -3.030110   -1.910860   -4.541070
  H     -3.477440   -2.791510   -4.257100
  H     -2.538010   -2.017860   -5.438080
  H     -3.891590   -1.376040   -4.714370
  H     -1.712940   -0.455360   -3.797340
  H     -1.393440   -2.079390   -3.237420
  H     -2.747750   -1.183440   -2.592300

 Total Charge           Charge          ....    1
 Multiplicity           Mult            ....    1
 Number of Electrons    NEL             ....   18
 Basis Dimension        Dim             ....   88

ORBITAL ENERGIES
----------------

  NO   OCC          E(Eh)            E(eV)
   0   2.0000     -14.755484      -401.5171
   1   2.0000     -10.518690      -286.2281
   2   2.0000      -1.302140       -35.4330
   3   2.0000      -1.018370       -27.7113
   4   2.0000      -0.892390       -24.2832
   5   2.0000      -0.864117       -23.5138
   6   2.0000      -0.789711       -21.4891
   7   2.0000      -0.697081       -18.9685
   8   2.0000      -0.692720       -18.8499
   9   0.0000      -0.169468        -4.6115
  10   0.0000      -0.101200        -2.7538
  11   0.0000      -0.096798        -2.6340
  12   0.0000      -0.096472        -2.6251
  13   0.0000      -0.049086        -1.3357

MULLIKEN ATOMIC CHARGES
-----------------------
   0 C :    1.141086
   1 N :   -0.778306
   2 H :    0.336434
   3 H :    0.347911
   4 H :    0.320895
   5 H :   -0.130249
   6 H :   -0.112856
   7 H :   -0.124914
Sum of atomic charges:    1.0000000

LOEWDIN ATOMIC CHARGES
----------------------
   0 C :    0.285047
   1 N :    0.306643
   2 H :    0.108244
   3 H :    0.114134
   4 H :    0.109493
   5 H :    0.024862
   6 H :    0.026021
   7 H :    0.025555

  Mayer bond orders larger than 0.100000
B(  0-C ,  1-N ) :   0.7587 B(  0-C ,  5-H ) :   0.8665 B(  0-C ,  6-H ) :   0.8549
B(  0-C ,  7-H ) :   0.8603 B(  1-N ,  2-H ) :   0.8242 B(  1-N ,  3-H ) :   0.7936
B(  1-N ,  4-H ) :   0.8415 B(  1-N ,  5-H ) :   0.1032 B(  1-N ,  6-H ) :   0.1086
B(  1-N ,  7-H ) :   0.1080

FINAL SINGLE POINT ENERGY       -96.090437068080

DIPOLE MOMENT
-------------
                                X             Y             Z
Electronic contribution:     -0.58039      -0.37844      -0.79078
Nuclear contribution   :      0.00575       0.04584       0.17617
                        -----------------------------------------
Total Dipole Moment    :     -0.57464      -0.33259      -0.61461
                        -----------------------------------------
Magnitude (a.u.)       :      0.90475
Magnitude (Debye)      :      2.29969

Rotational constants in cm-1:     2.917716     0.684997     0.676552
Rotational constants in MHz : 87470.913131 20535.702929 20282.512120

                             ****ORCA TERMINATED NORMALLY****
TOTAL RUN TIME: 0 days 0 hours 0 minutes 4 seconds 225 msec
