                         Program Version 5.0.0 -  RELEASE  -
|  1> !CAM-B3LYP RIJCOSX def2-SVPD def2/J TightSCF
|  2> *xyz 0 1
|  3> C         -7.33044       -2.67899       -3.20681
|  4> S         -6.01966       -2.92697       -4.41913
|  5> F         -5.64583       -1.58838       -4.91931
|  6> O         -4.88196       -3.50370       -3.66724
|  7> O         -6.54927       -3.80515       -5.42507
|  8> H         -8.18867       -2.26077       -3.68996
|  9> H         -6.98921       -2.01038       -2.44430
| 10> H         -7.59151       -3.61862       -2.76655
| 11> *
| 12> %MaxCore 64000
| 13>
| 14> %pal nprocs 8
| 15> end
| 16>
| 17> %scf
| 18>   MaxIter 150
| 19> end
| 20>
| 21>
| 22>                          ****END OF INPUT****

CARTESIAN COORDINATES (ANGSTROEM)
---------------------------------
  C     -7.330440   -2.678990   -3.206810
  S     -6.019660   -2.926970   -4.419130
  F     -5.645830   -1.588380   -4.919310
  O     -4.881960   -3.503700   -3.667240
  O     -6.549270   -3.805150   -5.425070
  H     -8.188670   -2.260770   -3.689960
  H     -6.989210   -2.010380   -2.444300
  H     -7.591510   -3.618620   -2.766550

 Total Charge           Charge          ....    0
 Multiplicity           Mult            ....    1
 Number of Electrons    NEL             ....   50
 Basis Dimension        Dim             ....  140

ORBITAL ENERGIES
----------------

  NO   OCC          E(Eh)            E(eV)
   0   2.0000     -89.229179     -2428.0494
   1   2.0000     -24.885386      -677.1658
   2   2.0000     -19.237689      -523.4841
   3   2.0000     -19.223083      -523.0867
   4   2.0000     -10.328793      -281.0608
   5   2.0000      -8.282531      -225.3791
   6   2.0000      -6.256514      -170.2484
   7   2.0000      -6.250126      -170.0746
   8   2.0000      -6.249243      -170.0506
   9   2.0000      -1.440378       -39.1947
  10   2.0000      -1.201856       -32.7042
  11   2.0000      -1.095454       -29.8088
  12   2.0000      -0.888352       -24.1733
  13   2.0000      -0.790191       -21.5022
  14   2.0000      -0.676487       -18.4081
  15   2.0000      -0.653806       -17.7910
  16   2.0000      -0.633552       -17.2398
  17   2.0000      -0.557343       -15.1661
  18   2.0000      -0.554615       -15.0918
  19   2.0000      -0.544699       -14.8220
  20   2.0000      -0.515836       -14.0366
  21   2.0000      -0.463923       -12.6240
  22   2.0000      -0.416310       -11.3284
  23   2.0000      -0.402048       -10.9403
  24   2.0000      -0.384654       -10.4670
  25   0.0000       0.019318         0.5257
  26   0.0000       0.059704         1.6246
  27   0.0000       0.064298         1.7496
  28   0.0000       0.066951         1.8218
  29   0.0000       0.069962         1.9038

MULLIKEN ATOMIC CHARGES
-----------------------
   0 C :    0.650997
   1 S :    1.237291
   2 F :   -0.385040
   3 O :   -0.653203
   4 O :   -0.607628
   5 H :   -0.079819
   6 H :   -0.079626
   7 H :   -0.082973
Sum of atomic charges:    0.0000000

LOEWDIN ATOMIC CHARGES
----------------------
   0 C :    0.130339
   1 S :    1.109329
   2 F :   -0.270383
   3 O :   -0.486007
   4 O :   -0.464170
   5 H :   -0.011424
   6 H :   -0.010286
   7 H :    0.002601

  Mayer bond orders larger than 0.100000
B(  0-C ,  1-S ) :   0.9830 B(  0-C ,  5-H ) :   0.8853 B(  0-C ,  6-H ) :   0.8875
B(  0-C ,  7-H ) :   0.8827 B(  1-S ,  2-F ) :   0.6793 B(  1-S ,  3-O ) :   1.5154
B(  1-S ,  4-O ) :   1.5574 B(  1-S ,  6-H ) :   0.1062 B(  1-S ,  7-H ) :   0.1262

FINAL SINGLE POINT ENERGY      -687.903957302946

DIPOLE MOMENT
-------------
                                X             Y             Z
Electronic contribution:      3.50904       1.61122      -3.70537
Nuclear contribution   :     -4.68608      -0.54182       4.44322
                        -----------------------------------------
Total Dipole Moment    :     -1.17704       1.06940       0.73785
                        -----------------------------------------
Magnitude (a.u.)       :      1.75313
Magnitude (Debye)      :      4.45610

Rotational constants in cm-1:     0.164393     0.151201     0.145518
Rotational constants in MHz :  4928.381777  4532.884356  4362.527209

                             ****ORCA TERMINATED NORMALLY****
TOTAL RUN TIME: 0 days 0 hours 0 minutes 9 seconds 973 msec
