                         Program Version 5.0.0 -  RELEASE  -
|  1> !CAM-B3LYP RIJCOSX def2-SVPD def2/J TightSCF
|  2> *xyz 0 1
|  3> C         -2.16038       -1.36949       -3.46710
|  4> C         -3.03011       -1.91086       -4.54107
|  5> H         -3.47744       -2.79151       -4.25710
|  6> H         -2.53801       -2.01786       -5.43808
|  7> H         -3.89159       -1.37604       -4.71437
|  8> H         -1.71294       -0.45536       -3.79734
|  9> H         -1.39344       -2.07939       -3.23742
| 10> H         -2.74775       -1.18344       -2.59230
| 11> *
| 12> %MaxCore 64000
| 13>
| 14> %pal nprocs 8
| 15> end
| 16>
| 17> %scf
| 18>   MaxIter 150
| 19> end
| 20>
| 21>
| 22>                          ****END OF INPUT****

CARTESIAN COORDINATES (ANGSTROEM)
---------------------------------
  C     -2.160380   -1.369490   -3.467100
  C     -3.030110   -1.910860   -4.541070
  H     -3.477440   -2.791510   -4.257100
  H     -2.538010   -2.017860   -5.438080
  H     -3.891590   -1.376040   -4.714370
  H     -1.712940   -0.455360   -3.797340
  H     -1.393440   -2.079390   -3.237420
  H     -2.747750   -1.183440   -2.592300

 Total Charge           Charge          ....    0
 Multiplicity           Mult            ....    1
 Number of Electrons    NEL             ....   18
 Basis Dimension        Dim             ....   88

ORBITAL ENERGIES
----------------

  NO   OCC          E(Eh)            E(eV)
   0   2.0000     -10.237229      -278.5692
   1   2.0000     -10.223206      -278.1876
   2   2.0000      -0.845551       -23.0086
   3   2.0000      -0.698729       -19.0134
   4   2.0000      -0.524828       -14.2813
   5   2.0000      -0.509006       -13.8508
   6   2.0000      -0.442467       -12.0401
   7   2.0000      -0.417560       -11.3624
   8   2.0000      -0.400676       -10.9030
   9   0.0000       0.057091         1.5535
  10   0.0000       0.086701         2.3593
  11   0.0000       0.134175         3.6511
  12   0.0000       0.138227         3.7613
  13   0.0000       0.157326         4.2811

MULLIKEN ATOMIC CHARGES
-----------------------
   0 C :    0.485572
   1 C :    0.716004
   2 H :   -0.271642
   3 H :   -0.263516
   4 H :   -0.286211
   5 H :   -0.135646
   6 H :   -0.127079
   7 H :   -0.117481
Sum of atomic charges:   -0.0000000

LOEWDIN ATOMIC CHARGES
----------------------
   0 C :    0.082968
   1 C :    0.075147
   2 H :   -0.037752
   3 H :   -0.031424
   4 H :   -0.038111
   5 H :   -0.017982
   6 H :   -0.016514
   7 H :   -0.016331

  Mayer bond orders larger than 0.100000
B(  0-C ,  1-C ) :   1.4051 B(  0-C ,  2-H ) :   0.1709 B(  0-C ,  3-H ) :   0.1694
B(  0-C ,  4-H ) :   0.1477 B(  0-C ,  5-H ) :   0.8286 B(  0-C ,  6-H ) :   0.8063
B(  0-C ,  7-H ) :   0.8291 B(  1-C ,  2-H ) :   0.6824 B(  1-C ,  3-H ) :   0.7393
B(  1-C ,  4-H ) :   0.6846 B(  1-C ,  5-H ) :   0.1665 B(  1-C ,  6-H ) :   0.1725
B(  1-C ,  7-H ) :   0.1734 B(  2-H ,  4-H ) :   0.2534

FINAL SINGLE POINT ENERGY       -79.700919051131

DIPOLE MOMENT
-------------
                                X             Y             Z
Electronic contribution:      0.10246       0.03353      -0.00106
Nuclear contribution   :     -0.14218      -0.04688      -0.00907
                        -----------------------------------------
Total Dipole Moment    :     -0.03971      -0.01335      -0.01013
                        -----------------------------------------
Magnitude (a.u.)       :      0.04311
Magnitude (Debye)      :      0.10956

Rotational constants in cm-1:     2.917838     0.714537     0.705359
Rotational constants in MHz : 87474.579540 21421.280941 21146.123231

                             ****ORCA TERMINATED NORMALLY****
TOTAL RUN TIME: 0 days 0 hours 0 minutes 4 seconds 147 msec
