                         Program Version 5.0.0 -  RELEASE  -
|  1> !CAM-B3LYP RIJCOSX def2-SVPD def2/J TightSCF
|  2> *xyz 0 1
|  3> C         -7.33044       -2.67899       -3.20681
|  4> S         -6.01966       -2.92697       -4.41913
|  5> O         -5.64583       -1.58838       -4.91931
|  6> F         -4.88196       -3.50370       -3.66724
|  7> O         -6.54927       -3.80515       -5.42507
|  8> H         -8.18867       -2.26077       -3.68996
|  9> H         -6.98921       -2.01038       -2.44430
| 10> H         -7.59151       -3.61862       -2.76655
| 11> *
| 12> %MaxCore 64000
| 13>
| 14> %pal nprocs 8
| 15> end
| 16>
| 17> %scf
| 18>   MaxIter 150
| 19> end
| 20>
| 21>
| 22>                          ****END OF INPUT****

CARTESIAN COORDINATES (ANGSTROEM)
---------------------------------
  C     -7.330440   -2.678990   -3.206810
  S     -6.019660   -2.926970   -4.419130
  O     -5.645830   -1.588380   -4.919310
  F     -4.881960   -3.503700   -3.667240
  O     -6.549270   -3.805150   -5.425070
  H     -8.188670   -2.260770   -3.689960
  H     -6.989210   -2.010380   -2.444300
  H     -7.591510   -3.618620   -2.766550

 Total Charge           Charge          ....    0
 Multiplicity           Mult            ....    1
 Number of Electrons    NEL             ....   50
 Basis Dimension        Dim             ....  140

ORBITAL ENERGIES
----------------

  NO   OCC          E(Eh)            E(eV)
   0   2.0000     -89.229097     -2428.0472
   1   2.0000     -24.882627      -677.0907
   2   2.0000     -19.237517      -523.4795
   3   2.0000     -19.225548      -523.1537
   4   2.0000     -10.328679      -281.0576
   5   2.0000      -8.282403      -225.3757
   6   2.0000      -6.256381      -170.2448
   7   2.0000      -6.250035      -170.0721
   8   2.0000      -6.249125      -170.0473
   9   2.0000      -1.436838       -39.0984
  10   2.0000      -1.202400       -32.7190
  11   2.0000      -1.098050       -29.8795
  12   2.0000      -0.888628       -24.1808
  13   2.0000      -0.787982       -21.4421
  14   2.0000      -0.674895       -18.3648
  15   2.0000      -0.651319       -17.7233
  16   2.0000      -0.633115       -17.2279
  17   2.0000      -0.557237       -15.1632
  18   2.0000      -0.555134       -15.1060
  19   2.0000      -0.543884       -14.7998
  20   2.0000      -0.516709       -14.0604
  21   2.0000      -0.464464       -12.6387
  22   2.0000      -0.416621       -11.3368
  23   2.0000      -0.404729       -11.0132
  24   2.0000      -0.386693       -10.5225
  25   0.0000       0.020192         0.5495
  26   0.0000       0.060019         1.6332
  27   0.0000       0.065736         1.7888
  28   0.0000       0.067163         1.8276
  29   0.0000       0.070223         1.9109

MULLIKEN ATOMIC CHARGES
-----------------------
   0 C :    0.650162
   1 S :    1.238253
   2 O :   -0.650181
   3 F :   -0.386039
   4 O :   -0.609285
   5 H :   -0.087015
   6 H :   -0.078640
   7 H :   -0.077254
Sum of atomic charges:   -0.0000000

LOEWDIN ATOMIC CHARGES
----------------------
   0 C :    0.130327
   1 S :    1.108754
   2 O :   -0.482521
   3 F :   -0.273028
   4 O :   -0.464485
   5 H :    0.001986
   6 H :   -0.010033
   7 H :   -0.011001

  Mayer bond orders larger than 0.100000
B(  0-C ,  1-S ) :   0.9827 B(  0-C ,  5-H ) :   0.8828 B(  0-C ,  6-H ) :   0.8887
B(  0-C ,  7-H ) :   0.8844 B(  1-S ,  2-O ) :   1.5176 B(  1-S ,  3-F ) :   0.6763
B(  1-S ,  4-O ) :   1.5575 B(  1-S ,  5-H ) :   0.1257 B(  1-S ,  6-H ) :   0.1070

FINAL SINGLE POINT ENERGY      -687.906621458809

DIPOLE MOMENT
-------------
                                X             Y             Z
Electronic contribution:      4.80079      -1.61738      -1.59363
Nuclear contribution   :     -5.44924       1.37171       3.19232
                        -----------------------------------------
Total Dipole Moment    :     -0.64844      -0.24568       1.59869
                        -----------------------------------------
Magnitude (a.u.)       :      1.74260
Magnitude (Debye)      :      4.42933

Rotational constants in cm-1:     0.163884     0.151426     0.145804
Rotational constants in MHz :  4913.124213  4539.628058  4371.086672

                             ****ORCA TERMINATED NORMALLY****
TOTAL RUN TIME: 0 days 0 hours 0 minutes 9 seconds 924 msec
