                         Program Version 5.0.0 -  RELEASE  -
|  1> !CAM-B3LYP RIJCOSX def2-SVPD def2/J TightSCF
|  2> *xyz 0 1
|  3> C         -7.33044       -2.67899       -3.20681
|  4> S         -6.01966       -2.92697       -4.41913
|  5> O         -5.64583       -1.58838       -4.91931
|  6> O         -4.88196       -3.50370       -3.66724
|  7> F         -6.54927       -3.80515       -5.42507
|  8> H         -8.18867       -2.26077       -3.68996
|  9> H         -6.98921       -2.01038       -2.44430
| 10> H         -7.59151       -3.61862       -2.76655
| 11> *
| 12> %MaxCore 64000
| 13>
| 14> %pal nprocs 8
| 15> end
| 16>
| 17> %scf
| 18>   MaxIter 150
| 19> end
| 20>
| 21>
| 22>                          ****END OF INPUT****

CARTESIAN COORDINATES (ANGSTROEM)
---------------------------------
  C     -7.330440   -2.678990   -3.206810
  S     -6.019660   -2.926970   -4.419130
  O     -5.645830   -1.588380   -4.919310
  O     -4.881960   -3.503700   -3.667240
  F     -6.549270   -3.805150   -5.425070
  H     -8.188670   -2.260770   -3.689960
  H     -6.989210   -2.010380   -2.444300
  H     -7.591510   -3.618620   -2.766550

 Total Charge           Charge          ....    0
 Multiplicity           Mult            ....    1
 Number of Electrons    NEL             ....   50
 Basis Dimension        Dim             ....  140

ORBITAL ENERGIES
----------------

  NO   OCC          E(Eh)            E(eV)
   0   2.0000     -89.231162     -2428.1034
   1   2.0000     -24.904237      -677.6787
   2   2.0000     -19.226093      -523.1686
   3   2.0000     -19.223483      -523.0976
   4   2.0000     -10.329567      -281.0818
   5   2.0000      -8.284589      -225.4351
   6   2.0000      -6.258816      -170.3110
   7   2.0000      -6.251948      -170.1242
   8   2.0000      -6.251090      -170.1008
   9   2.0000      -1.474346       -40.1190
  10   2.0000      -1.186744       -32.2929
  11   2.0000      -1.080744       -29.4085
  12   2.0000      -0.891266       -24.2526
  13   2.0000      -0.806471       -21.9452
  14   2.0000      -0.692704       -18.8494
  15   2.0000      -0.677524       -18.4364
  16   2.0000      -0.637507       -17.3474
  17   2.0000      -0.557007       -15.1569
  18   2.0000      -0.551460       -15.0060
  19   2.0000      -0.544854       -14.8262
  20   2.0000      -0.509108       -13.8535
  21   2.0000      -0.455953       -12.4071
  22   2.0000      -0.405473       -11.0335
  23   2.0000      -0.398972       -10.8566
  24   2.0000      -0.373396       -10.1606
  25   0.0000       0.018168         0.4944
  26   0.0000       0.058055         1.5798
  27   0.0000       0.065765         1.7896
  28   0.0000       0.066302         1.8042
  29   0.0000       0.072295         1.9672

MULLIKEN ATOMIC CHARGES
-----------------------
   0 C :    0.650935
   1 S :    1.232143
   2 O :   -0.637686
   3 O :   -0.642874
   4 F :   -0.362102
   5 H :   -0.080511
   6 H :   -0.084211
   7 H :   -0.075695
Sum of atomic charges:   -0.0000000

LOEWDIN ATOMIC CHARGES
----------------------
   0 C :    0.129778
   1 S :    1.111152
   2 O :   -0.481922
   3 O :   -0.485588
   4 F :   -0.254439
   5 H :   -0.011720
   6 H :    0.003362
   7 H :   -0.010623

  Mayer bond orders larger than 0.100000
B(  0-C ,  1-S ) :   0.9825 B(  0-C ,  5-H ) :   0.8837 B(  0-C ,  6-H ) :   0.8872
B(  0-C ,  7-H ) :   0.8845 B(  1-S ,  2-O ) :   1.5210 B(  1-S ,  3-O ) :   1.5186
B(  1-S ,  4-F ) :   0.7269 B(  1-S ,  6-H ) :   0.1327

FINAL SINGLE POINT ENERGY      -687.888041004425

DIPOLE MOMENT
-------------
                                X             Y             Z
Electronic contribution:      2.00455      -2.10699      -4.54425
Nuclear contribution   :     -3.78348       1.67287       4.94851
                        -----------------------------------------
Total Dipole Moment    :     -1.77894      -0.43412       0.40426
                        -----------------------------------------
Magnitude (a.u.)       :      1.87523
Magnitude (Debye)      :      4.76646

Rotational constants in cm-1:     0.163108     0.153882     0.144407
Rotational constants in MHz :  4889.859464  4613.257659  4329.207840

                             ****ORCA TERMINATED NORMALLY****
TOTAL RUN TIME: 0 days 0 hours 0 minutes 9 seconds 888 msec
