                         Program Version 5.0.0 -  RELEASE  -
|  1> !TPSS D3BJ RIJCOSX def2-SVPD def2/J TightSCF
|  2> *xyz -1 1
|  3> C          1.36401        0.46874       -2.81376
|  4> C          0.96805        1.63064       -3.71575
|  5> C         -0.50835        1.72268       -4.12430
|  6> S         -1.32861        0.14674       -4.43578
|  7> H         -0.59151        2.29496       -5.04722
|  8> H         -1.11411        2.23561       -3.37436
|  9> O         -2.57135        0.47573       -5.06834
| 10> O         -1.51496       -0.40051       -3.06342
| 11> H          1.57869        1.52065       -4.61273
| 12> H          1.26665        2.57599       -3.25045
| 13> O         -0.37793       -0.62756       -5.20114
| 14> H          1.07115       -0.45339       -3.27071
| 15> H          0.87480        0.56905       -1.86745
| 16> H          2.42423        0.47442       -2.66954
| 17> *
| 18> %MaxCore 64000
| 19>
| 20> %pal nprocs 4
| 21> end
| 22>
| 23> %scf
| 24>   MaxIter 150
| 25> end
| 26>
| 27>
| 28>                          ****END OF INPUT****

CARTESIAN COORDINATES (ANGSTROEM)
---------------------------------
  C      1.364010    0.468740   -2.813760
  C      0.968050    1.630640   -3.715750
  C     -0.508350    1.722680   -4.124300
  S     -1.328610    0.146740   -4.435780
  H     -0.591510    2.294960   -5.047220
  H     -1.114110    2.235610   -3.374360
  O     -2.571350    0.475730   -5.068340
  O     -1.514960   -0.400510   -3.063420
  H      1.578690    1.520650   -4.612730
  H      1.266650    2.575990   -3.250450
  O     -0.377930   -0.627560   -5.201140
  H      1.071150   -0.453390   -3.270710
  H      0.874800    0.569050   -1.867450
  H      2.424230    0.474420   -2.669540

 Total Charge           Charge          ....   -1
 Multiplicity           Mult            ....    1
 Number of Electrons    NEL             ....   66
 Basis Dimension        Dim             ....  212

ORBITAL ENERGIES
----------------

  NO   OCC          E(Eh)            E(eV)
   0   2.0000     -88.368886     -2404.6396
   1   2.0000     -18.686075      -508.4739
   2   2.0000     -18.684071      -508.4194
   3   2.0000     -18.668204      -507.9877
   4   2.0000      -9.867824      -268.5171
   5   2.0000      -9.859061      -268.2787
   6   2.0000      -9.843432      -267.8534
   7   2.0000      -7.728678      -210.3080
   8   2.0000      -5.714779      -155.5071
   9   2.0000      -5.714517      -155.4999
  10   2.0000      -5.713717      -155.4781
  11   2.0000      -0.858963       -23.3736
  12   2.0000      -0.730493       -19.8777
  13   2.0000      -0.700511       -19.0619
  14   2.0000      -0.586933       -15.9712
  15   2.0000      -0.502182       -13.6651
  16   2.0000      -0.412368       -11.2211
  17   2.0000      -0.327660        -8.9161
  18   2.0000      -0.286495        -7.7959
  19   2.0000      -0.273104        -7.4315
  20   2.0000      -0.250034        -6.8038
  21   2.0000      -0.236222        -6.4279
  22   2.0000      -0.215189        -5.8556
  23   2.0000      -0.203580        -5.5397
  24   2.0000      -0.183231        -4.9860
  25   2.0000      -0.176124        -4.7926
  26   2.0000      -0.159453        -4.3389
  27   2.0000      -0.110644        -3.0108
  28   2.0000      -0.107363        -2.9215
  29   2.0000      -0.079773        -2.1707
  30   2.0000      -0.070704        -1.9240
  31   2.0000      -0.057117        -1.5542
  32   2.0000      -0.026359        -0.7173
  33   0.0000       0.128399         3.4939
  34   0.0000       0.154174         4.1953
  35   0.0000       0.160849         4.3769
  36   0.0000       0.164174         4.4674
  37   0.0000       0.186757         5.0819

MULLIKEN ATOMIC CHARGES
-----------------------
   0 C :    0.657916
   1 C :   -0.318740
   2 C :    0.094757
   3 S :    1.201272
   4 H :   -0.034031
   5 H :    0.050937
   6 O :   -0.808396
   7 O :   -0.800548
   8 H :    0.049581
   9 H :   -0.139481
  10 O :   -0.777677
  11 H :   -0.026952
  12 H :   -0.015726
  13 H :   -0.132911
Sum of atomic charges:   -1.0000000

LOEWDIN ATOMIC CHARGES
----------------------
   0 C :    0.115662
   1 C :   -0.084858
   2 C :   -0.083944
   3 S :    0.842135
   4 H :   -0.008986
   5 H :   -0.000501
   6 O :   -0.555251
   7 O :   -0.575619
   8 H :    0.008225
   9 H :   -0.000082
  10 O :   -0.553245
  11 H :   -0.042941
  12 H :   -0.022614
  13 H :   -0.037981

  Mayer bond orders larger than 0.100000
B(  0-C ,  1-C ) :   1.3353 B(  0-C ,  9-H ) :   0.1070 B(  0-C , 11-H ) :   0.8292
B(  0-C , 12-H ) :   0.7781 B(  0-C , 13-H ) :   0.7642 B(  1-C ,  2-C ) :   1.2730
B(  1-C ,  4-H ) :   0.1456 B(  1-C ,  5-H ) :   0.1325 B(  1-C ,  8-H ) :   0.8772
B(  1-C ,  9-H ) :   0.8938 B(  1-C , 11-H ) :   0.1968 B(  1-C , 12-H ) :   0.1946
B(  1-C , 13-H ) :   0.2286 B(  2-C ,  3-S ) :   0.8714 B(  2-C ,  4-H ) :   0.9152
B(  2-C ,  5-H ) :   0.9151 B(  2-C ,  8-H ) :   0.1106 B(  2-C ,  9-H ) :   0.1173
B(  3-S ,  6-O ) :   1.3912 B(  3-S ,  7-O ) :   1.2895 B(  3-S , 10-O ) :   1.3092

Dispersion correction           -0.017057920
FINAL SINGLE POINT ENERGY      -742.145335722401

DIPOLE MOMENT
-------------
                                X             Y             Z
Electronic contribution:     -8.36314      -4.49274      -4.08158
Nuclear contribution   :      9.76868       5.90538       4.47074
                        -----------------------------------------
Total Dipole Moment    :      1.40554       1.41264       0.38916
                        -----------------------------------------
Magnitude (a.u.)       :      2.03040
Magnitude (Debye)      :      5.16088

Rotational constants in cm-1:     0.135183     0.058485     0.054837
Rotational constants in MHz :  4052.676901  1753.343161  1643.972690

                             ****ORCA TERMINATED NORMALLY****
TOTAL RUN TIME: 0 days 0 hours 0 minutes 12 seconds 60 msec
