                         Program Version 5.0.0 -  RELEASE  -
|  1> !TPSS D3BJ RIJCOSX def2-SVPD def2/J TightSCF
|  2> *xyz 1 1
|  3> C          1.36401        0.46874       -2.81376
|  4> N          0.42884        0.32140       -1.65531
|  5> C          0.96805        1.63064       -3.71575
|  6> C         -0.50835        1.72268       -4.12430
|  7> H          0.74858       -0.40054       -1.00134
|  8> H         -0.46105        0.02333       -2.07773
|  9> H          0.31026        1.20137       -1.13495
| 10> H          1.29485       -0.46874       -3.36468
| 11> H          2.37622        0.59740       -2.43149
| 12> H          1.57869        1.52065       -4.61273
| 13> H          1.26665        2.57599       -3.25045
| 14> H         -0.65192        2.57663       -4.75283
| 15> H         -1.11549        1.81835       -3.24844
| 16> H         -0.78702        0.83723       -4.65648
| 17> *
| 18> %MaxCore 64000
| 19>
| 20> %pal nprocs 4
| 21> end
| 22>
| 23> %scf
| 24>   MaxIter 150
| 25> end
| 26>
| 27>
| 28>                          ****END OF INPUT****

CARTESIAN COORDINATES (ANGSTROEM)
---------------------------------
  C      1.364010    0.468740   -2.813760
  N      0.428840    0.321400   -1.655310
  C      0.968050    1.630640   -3.715750
  C     -0.508350    1.722680   -4.124300
  H      0.748580   -0.400540   -1.001340
  H     -0.461050    0.023330   -2.077730
  H      0.310260    1.201370   -1.134950
  H      1.294850   -0.468740   -3.364680
  H      2.376220    0.597400   -2.431490
  H      1.578690    1.520650   -4.612730
  H      1.266650    2.575990   -3.250450
  H     -0.651920    2.576630   -4.752830
  H     -1.115490    1.818350   -3.248440
  H     -0.787020    0.837230   -4.656480

 Total Charge           Charge          ....    1
 Multiplicity           Mult            ....    1
 Number of Electrons    NEL             ....   34
 Basis Dimension        Dim             ....  160

ORBITAL ENERGIES
----------------

  NO   OCC          E(Eh)            E(eV)
   0   2.0000     -14.446367      -393.1056
   1   2.0000     -10.249215      -278.8953
   2   2.0000     -10.180552      -277.0269
   3   2.0000     -10.154801      -276.3262
   4   2.0000      -1.140063       -31.0227
   5   2.0000      -0.910792       -24.7839
   6   2.0000      -0.828578       -22.5468
   7   2.0000      -0.757954       -20.6250
   8   2.0000      -0.747342       -20.3362
   9   2.0000      -0.722835       -19.6693
  10   2.0000      -0.642977       -17.4963
  11   2.0000      -0.598632       -16.2896
  12   2.0000      -0.569413       -15.4945
  13   2.0000      -0.549424       -14.9506
  14   2.0000      -0.496684       -13.5155
  15   2.0000      -0.488997       -13.3063
  16   2.0000      -0.478115       -13.0102
  17   0.0000      -0.202879        -5.5206
  18   0.0000      -0.145140        -3.9494
  19   0.0000      -0.143126        -3.8946
  20   0.0000      -0.131467        -3.5774
  21   0.0000      -0.101901        -2.7729

MULLIKEN ATOMIC CHARGES
-----------------------
   0 C :    0.542070
   1 N :   -0.675158
   2 C :   -0.367280
   3 C :    0.670255
   4 H :    0.294010
   5 H :    0.403823
   6 H :    0.385577
   7 H :   -0.003012
   8 H :   -0.094068
   9 H :    0.011199
  10 H :   -0.023329
  11 H :   -0.093574
  12 H :   -0.058056
  13 H :    0.007541
Sum of atomic charges:    1.0000000

LOEWDIN ATOMIC CHARGES
----------------------
   0 C :    0.098676
   1 N :    0.337228
   2 C :   -0.035424
   3 C :    0.158496
   4 H :    0.102977
   5 H :    0.087985
   6 H :    0.108481
   7 H :    0.050885
   8 H :    0.048945
   9 H :    0.040732
  10 H :    0.032707
  11 H :    0.004114
  12 H :   -0.030259
  13 H :   -0.005543

  Mayer bond orders larger than 0.100000
B(  0-C ,  1-N ) :   0.8152 B(  0-C ,  2-C ) :   1.2031 B(  0-C ,  7-H ) :   0.8466
B(  0-C ,  8-H ) :   0.9287 B(  0-C ,  9-H ) :   0.1434 B(  1-N ,  4-H ) :   0.8195
B(  1-N ,  5-H ) :   0.7319 B(  1-N ,  6-H ) :   0.7599 B(  1-N ,  7-H ) :   0.1160
B(  2-C ,  3-C ) :   1.3189 B(  2-C ,  7-H ) :   0.1107 B(  2-C ,  9-H ) :   0.8902
B(  2-C , 10-H ) :   0.9473 B(  2-C , 11-H ) :   0.2074 B(  2-C , 12-H ) :   0.1660
B(  2-C , 13-H ) :   0.1780 B(  3-C , 11-H ) :   0.8234 B(  3-C , 12-H ) :   0.8404
B(  3-C , 13-H ) :   0.8178

Dispersion correction           -0.011508914
FINAL SINGLE POINT ENERGY      -174.772172262919

DIPOLE MOMENT
-------------
                                X             Y             Z
Electronic contribution:      0.76580      -1.07098       1.93534
Nuclear contribution   :     -0.79558       0.15863      -0.24664
                        -----------------------------------------
Total Dipole Moment    :     -0.02977      -0.91235       1.68869
                        -----------------------------------------
Magnitude (a.u.)       :      1.91962
Magnitude (Debye)      :      4.87930

Rotational constants in cm-1:     0.425244     0.165801     0.135024
Rotational constants in MHz : 12748.492920  4970.589839  4047.903558

                             ****ORCA TERMINATED NORMALLY****
TOTAL RUN TIME: 0 days 0 hours 0 minutes 7 seconds 625 msec
