                         Program Version 5.0.0 -  RELEASE  -
|  1> !TPSS D3BJ RIJCOSX def2-SVPD def2/J TightSCF
|  2> *xyz 0 1
|  3> C          1.36401        0.46874       -2.81376
|  4> C          0.96805        1.63064       -3.71575
|  5> C         -0.50835        1.72268       -4.12430
|  6> S         -1.32861        0.14674       -4.43578
|  7> H         -0.59151        2.29496       -5.04722
|  8> H         -1.11411        2.23561       -3.37436
|  9> F         -2.57135        0.47573       -5.06834
| 10> O         -1.51496       -0.40051       -3.06342
| 11> H          1.57869        1.52065       -4.61273
| 12> H          1.26665        2.57599       -3.25045
| 13> O         -0.37793       -0.62756       -5.20114
| 14> H          1.07115       -0.45339       -3.27071
| 15> H          0.87480        0.56905       -1.86745
| 16> H          2.42423        0.47442       -2.66954
| 17> *
| 18> %MaxCore 64000
| 19>
| 20> %pal nprocs 4
| 21> end
| 22>
| 23> %scf
| 24>   MaxIter 150
| 25> end
| 26>
| 27>
| 28>                          ****END OF INPUT****

CARTESIAN COORDINATES (ANGSTROEM)
---------------------------------
  C      1.364010    0.468740   -2.813760
  C      0.968050    1.630640   -3.715750
  C     -0.508350    1.722680   -4.124300
  S     -1.328610    0.146740   -4.435780
  H     -0.591510    2.294960   -5.047220
  H     -1.114110    2.235610   -3.374360
  F     -2.571350    0.475730   -5.068340
  O     -1.514960   -0.400510   -3.063420
  H      1.578690    1.520650   -4.612730
  H      1.266650    2.575990   -3.250450
  O     -0.377930   -0.627560   -5.201140
  H      1.071150   -0.453390   -3.270710
  H      0.874800    0.569050   -1.867450
  H      2.424230    0.474420   -2.669540

 Total Charge           Charge          ....    0
 Multiplicity           Mult            ....    1
 Number of Electrons    NEL             ....   66
 Basis Dimension        Dim             ....  212

ORBITAL ENERGIES
----------------

  NO   OCC          E(Eh)            E(eV)
   0   2.0000     -88.622460     -2411.5397
   1   2.0000     -24.546381      -667.9410
   2   2.0000     -18.914113      -514.6792
   3   2.0000     -18.898691      -514.2595
   4   2.0000     -10.058145      -273.6961
   5   2.0000     -10.027027      -272.8493
   6   2.0000      -9.988093      -271.7898
   7   2.0000      -7.983457      -217.2409
   8   2.0000      -5.973737      -162.5536
   9   2.0000      -5.967211      -162.3761
  10   2.0000      -5.965347      -162.3254
  11   2.0000      -1.300943       -35.4005
  12   2.0000      -1.032754       -28.1027
  13   2.0000      -0.931761       -25.3545
  14   2.0000      -0.762520       -20.7492
  15   2.0000      -0.696418       -18.9505
  16   2.0000      -0.650895       -17.7117
  17   2.0000      -0.582096       -15.8396
  18   2.0000      -0.534606       -14.5474
  19   2.0000      -0.526052       -14.3146
  20   2.0000      -0.503556       -13.7025
  21   2.0000      -0.451339       -12.2815
  22   2.0000      -0.438099       -11.9213
  23   2.0000      -0.412530       -11.2255
  24   2.0000      -0.405085       -11.0229
  25   2.0000      -0.380751       -10.3608
  26   2.0000      -0.347367        -9.4523
  27   2.0000      -0.337349        -9.1797
  28   2.0000      -0.327394        -8.9088
  29   2.0000      -0.313796        -8.5388
  30   2.0000      -0.292312        -7.9542
  31   2.0000      -0.276398        -7.5212
  32   2.0000      -0.263185        -7.1616
  33   0.0000      -0.021353        -0.5811
  34   0.0000      -0.000590        -0.0160
  35   0.0000       0.019563         0.5323
  36   0.0000       0.026495         0.7210
  37   0.0000       0.031312         0.8520

MULLIKEN ATOMIC CHARGES
-----------------------
   0 C :    0.676180
   1 C :   -0.318190
   2 C :    0.069894
   3 S :    1.409464
   4 H :    0.020167
   5 H :    0.103331
   6 F :   -0.436766
   7 O :   -0.669104
   8 H :    0.072717
   9 H :   -0.109090
  10 O :   -0.650210
  11 H :   -0.048594
  12 H :   -0.001538
  13 H :   -0.118261
Sum of atomic charges:   -0.0000000

LOEWDIN ATOMIC CHARGES
----------------------
   0 C :    0.139056
   1 C :   -0.052631
   2 C :   -0.048520
   3 S :    1.104813
   4 H :    0.008845
   5 H :    0.018691
   6 F :   -0.245723
   7 O :   -0.466923
   8 H :    0.024414
   9 H :    0.028094
  10 O :   -0.447197
  11 H :   -0.037092
  12 H :   -0.010805
  13 H :   -0.015023

  Mayer bond orders larger than 0.100000
B(  0-C ,  1-C ) :   1.3561 B(  0-C ,  9-H ) :   0.1026 B(  0-C , 11-H ) :   0.8348
B(  0-C , 12-H ) :   0.7780 B(  0-C , 13-H ) :   0.7652 B(  1-C ,  2-C ) :   1.3309
B(  1-C ,  4-H ) :   0.1559 B(  1-C ,  5-H ) :   0.1260 B(  1-C ,  8-H ) :   0.8706
B(  1-C ,  9-H ) :   0.8908 B(  1-C , 11-H ) :   0.1820 B(  1-C , 12-H ) :   0.1882
B(  1-C , 13-H ) :   0.2173 B(  2-C ,  3-S ) :   0.9105 B(  2-C ,  4-H ) :   0.8712
B(  2-C ,  5-H ) :   0.8997 B(  2-C ,  8-H ) :   0.1116 B(  2-C ,  9-H ) :   0.1073
B(  3-S ,  6-F ) :   0.6977 B(  3-S ,  7-O ) :   1.4775 B(  3-S , 10-O ) :   1.4931

Dispersion correction           -0.016510988
FINAL SINGLE POINT ENERGY      -766.629947197121

DIPOLE MOMENT
-------------
                                X             Y             Z
Electronic contribution:    -11.74879      -4.35822      -5.79098
Nuclear contribution   :     11.77809       5.83971       5.48704
                        -----------------------------------------
Total Dipole Moment    :      0.02929       1.48150      -0.30394
                        -----------------------------------------
Magnitude (a.u.)       :      1.51264
Magnitude (Debye)      :      3.84482

Rotational constants in cm-1:     0.133968     0.056186     0.052650
Rotational constants in MHz :  4016.256208  1684.422248  1578.415210

                             ****ORCA TERMINATED NORMALLY****
TOTAL RUN TIME: 0 days 0 hours 0 minutes 12 seconds 969 msec
