                         Program Version 5.0.0 -  RELEASE  -
|  1> !TPSS D3BJ RIJCOSX def2-SVPD def2/J TightSCF
|  2> *xyz 0 1
|  3> C          1.36401        0.46874       -2.81376
|  4> C          0.42884        0.32140       -1.65531
|  5> C          0.96805        1.63064       -3.71575
|  6> C         -0.50835        1.72268       -4.12430
|  7> H          0.74858       -0.40054       -1.00134
|  8> H         -0.46105        0.02333       -2.07773
|  9> H          0.31026        1.20137       -1.13495
| 10> H          1.29485       -0.46874       -3.36468
| 11> H          2.37622        0.59740       -2.43149
| 12> H          1.57869        1.52065       -4.61273
| 13> H          1.26665        2.57599       -3.25045
| 14> H         -0.65192        2.57663       -4.75283
| 15> H         -1.11549        1.81835       -3.24844
| 16> H         -0.78702        0.83723       -4.65648
| 17> *
| 18> %MaxCore 64000
| 19>
| 20> %pal nprocs 4
| 21> end
| 22>
| 23> %scf
| 24>   MaxIter 150
| 25> end
| 26>
| 27>
| 28>                          ****END OF INPUT****

CARTESIAN COORDINATES (ANGSTROEM)
---------------------------------
  C      1.364010    0.468740   -2.813760
  C      0.428840    0.321400   -1.655310
  C      0.968050    1.630640   -3.715750
  C     -0.508350    1.722680   -4.124300
  H      0.748580   -0.400540   -1.001340
  H     -0.461050    0.023330   -2.077730
  H      0.310260    1.201370   -1.134950
  H      1.294850   -0.468740   -3.364680
  H      2.376220    0.597400   -2.431490
  H      1.578690    1.520650   -4.612730
  H      1.266650    2.575990   -3.250450
  H     -0.651920    2.576630   -4.752830
  H     -1.115490    1.818350   -3.248440
  H     -0.787020    0.837230   -4.656480

 Total Charge           Charge          ....    0
 Multiplicity           Mult            ....    1
 Number of Electrons    NEL             ....   34
 Basis Dimension        Dim             ....  160

ORBITAL ENERGIES
----------------

  NO   OCC          E(Eh)            E(eV)
   0   2.0000      -9.990087      -271.8441
   1   2.0000      -9.986617      -271.7497
   2   2.0000      -9.983473      -271.6641
   3   2.0000      -9.963756      -271.1276
   4   2.0000      -0.736868       -20.0512
   5   2.0000      -0.666699       -18.1418
   6   2.0000      -0.591397       -16.0927
   7   2.0000      -0.511197       -13.9104
   8   2.0000      -0.427535       -11.6338
   9   2.0000      -0.419017       -11.4020
  10   2.0000      -0.385220       -10.4824
  11   2.0000      -0.350479        -9.5370
  12   2.0000      -0.343744        -9.3537
  13   2.0000      -0.328651        -8.9431
  14   2.0000      -0.290806        -7.9132
  15   2.0000      -0.285679        -7.7737
  16   2.0000      -0.279721        -7.6116
  17   0.0000       0.014432         0.3927
  18   0.0000       0.041862         1.1391
  19   0.0000       0.044418         1.2087
  20   0.0000       0.054111         1.4724
  21   0.0000       0.083583         2.2744

MULLIKEN ATOMIC CHARGES
-----------------------
   0 C :   -0.311262
   1 C :    0.899703
   2 C :   -0.350496
   3 C :    0.589562
   4 H :   -0.330267
   5 H :   -0.050530
   6 H :   -0.137648
   7 H :    0.006265
   8 H :   -0.111215
   9 H :   -0.074703
  10 H :    0.008550
  11 H :   -0.125320
  12 H :   -0.010473
  13 H :   -0.002165
Sum of atomic charges:    0.0000000

LOEWDIN ATOMIC CHARGES
----------------------
   0 C :   -0.070083
   1 C :    0.128467
   2 C :   -0.071756
   3 C :    0.132948
   4 H :   -0.038318
   5 H :   -0.041880
   6 H :   -0.027620
   7 H :    0.019876
   8 H :    0.016438
   9 H :    0.007894
  10 H :    0.017137
  11 H :   -0.023645
  12 H :   -0.031023
  13 H :   -0.018437

  Mayer bond orders larger than 0.100000
B(  0-C ,  1-C ) :   1.2953 B(  0-C ,  2-C ) :   1.1979 B(  0-C ,  4-H ) :   0.2293
B(  0-C ,  5-H ) :   0.2516 B(  0-C ,  6-H ) :   0.2237 B(  0-C ,  7-H ) :   0.8645
B(  0-C ,  8-H ) :   0.9489 B(  0-C ,  9-H ) :   0.1404 B(  0-C , 10-H ) :   0.1222
B(  1-C ,  4-H ) :   0.7402 B(  1-C ,  5-H ) :   0.7537 B(  1-C ,  6-H ) :   0.7434
B(  1-C ,  7-H ) :   0.1225 B(  2-C ,  3-C ) :   1.3166 B(  2-C ,  7-H ) :   0.1272
B(  2-C ,  9-H ) :   0.9283 B(  2-C , 10-H ) :   0.9133 B(  2-C , 11-H ) :   0.2174
B(  2-C , 12-H ) :   0.1744 B(  2-C , 13-H ) :   0.1809 B(  3-C , 11-H ) :   0.8041
B(  3-C , 12-H ) :   0.8516 B(  3-C , 13-H ) :   0.8220

Dispersion correction           -0.011553353
FINAL SINGLE POINT ENERGY      -158.369564145393

DIPOLE MOMENT
-------------
                                X             Y             Z
Electronic contribution:      0.84225       0.05476      -0.18652
Nuclear contribution   :     -0.83100      -0.05970       0.18742
                        -----------------------------------------
Total Dipole Moment    :      0.01125      -0.00493       0.00090
                        -----------------------------------------
Magnitude (a.u.)       :      0.01232
Magnitude (Debye)      :      0.03131

Rotational constants in cm-1:     0.433656     0.172838     0.140497
Rotational constants in MHz : 13000.688694  5181.547473  4211.992439

                             ****ORCA TERMINATED NORMALLY****
TOTAL RUN TIME: 0 days 0 hours 0 minutes 7 seconds 570 msec
