                         Program Version 5.0.0 -  RELEASE  -
|  1> !TPSS D3BJ RIJCOSX def2-SVPD def2/J TightSCF
|  2> *xyz 0 1
|  3> C          1.36401        0.46874       -2.81376
|  4> C          0.96805        1.63064       -3.71575
|  5> C         -0.50835        1.72268       -4.12430
|  6> S         -1.32861        0.14674       -4.43578
|  7> H         -0.59151        2.29496       -5.04722
|  8> H         -1.11411        2.23561       -3.37436
|  9> O         -2.57135        0.47573       -5.06834
| 10> F         -1.51496       -0.40051       -3.06342
| 11> H          1.57869        1.52065       -4.61273
| 12> H          1.26665        2.57599       -3.25045
| 13> O         -0.37793       -0.62756       -5.20114
| 14> H          1.07115       -0.45339       -3.27071
| 15> H          0.87480        0.56905       -1.86745
| 16> H          2.42423        0.47442       -2.66954
| 17> *
| 18> %MaxCore 64000
| 19>
| 20> %pal nprocs 4
| 21> end
| 22>
| 23> %scf
| 24>   MaxIter 150
| 25> end
| 26>
| 27>
| 28>                          ****END OF INPUT****

CARTESIAN COORDINATES (ANGSTROEM)
---------------------------------
  C      1.364010    0.468740   -2.813760
  C      0.968050    1.630640   -3.715750
  C     -0.508350    1.722680   -4.124300
  S     -1.328610    0.146740   -4.435780
  H     -0.591510    2.294960   -5.047220
  H     -1.114110    2.235610   -3.374360
  O     -2.571350    0.475730   -5.068340
  F     -1.514960   -0.400510   -3.063420
  H      1.578690    1.520650   -4.612730
  H      1.266650    2.575990   -3.250450
  O     -0.377930   -0.627560   -5.201140
  H      1.071150   -0.453390   -3.270710
  H      0.874800    0.569050   -1.867450
  H      2.424230    0.474420   -2.669540

 Total Charge           Charge          ....    0
 Multiplicity           Mult            ....    1
 Number of Electrons    NEL             ....   66
 Basis Dimension        Dim             ....  212

ORBITAL ENERGIES
----------------

  NO   OCC          E(Eh)            E(eV)
   0   2.0000     -88.619539     -2411.4603
   1   2.0000     -24.518960      -667.1948
   2   2.0000     -18.916223      -514.7366
   3   2.0000     -18.912856      -514.6450
   4   2.0000     -10.057213      -273.6707
   5   2.0000     -10.028164      -272.8802
   6   2.0000     -10.001360      -272.1509
   7   2.0000      -7.980499      -217.1604
   8   2.0000      -5.970548      -162.4669
   9   2.0000      -5.964530      -162.3031
  10   2.0000      -5.962582      -162.2501
  11   2.0000      -1.254813       -34.1452
  12   2.0000      -1.046170       -28.4677
  13   2.0000      -0.956980       -26.0407
  14   2.0000      -0.766521       -20.8581
  15   2.0000      -0.690436       -18.7877
  16   2.0000      -0.639762       -17.4088
  17   2.0000      -0.581378       -15.8201
  18   2.0000      -0.513732       -13.9794
  19   2.0000      -0.504093       -13.7171
  20   2.0000      -0.497760       -13.5447
  21   2.0000      -0.455495       -12.3946
  22   2.0000      -0.432730       -11.7752
  23   2.0000      -0.416136       -11.3236
  24   2.0000      -0.407423       -11.0866
  25   2.0000      -0.395326       -10.7574
  26   2.0000      -0.355077        -9.6621
  27   2.0000      -0.345092        -9.3904
  28   2.0000      -0.340344        -9.2612
  29   2.0000      -0.320389        -8.7182
  30   2.0000      -0.301376        -8.2009
  31   2.0000      -0.289800        -7.8859
  32   2.0000      -0.279957        -7.6180
  33   0.0000      -0.019360        -0.5268
  34   0.0000       0.004546         0.1237
  35   0.0000       0.016728         0.4552
  36   0.0000       0.023569         0.6414
  37   0.0000       0.031120         0.8468

MULLIKEN ATOMIC CHARGES
-----------------------
   0 C :    0.661981
   1 C :   -0.271789
   2 C :    0.076808
   3 S :    1.369061
   4 H :    0.017279
   5 H :    0.098367
   6 O :   -0.678068
   7 F :   -0.389047
   8 H :    0.076324
   9 H :   -0.106585
  10 O :   -0.657964
  11 H :   -0.069344
  12 H :   -0.016457
  13 H :   -0.110568
Sum of atomic charges:   -0.0000000

LOEWDIN ATOMIC CHARGES
----------------------
   0 C :    0.134312
   1 C :   -0.062636
   2 C :   -0.037103
   3 S :    1.095129
   4 H :    0.024431
   5 H :    0.017959
   6 O :   -0.441954
   7 F :   -0.267047
   8 H :    0.025129
   9 H :    0.024874
  10 O :   -0.444392
  11 H :   -0.041350
  12 H :   -0.014642
  13 H :   -0.012711

  Mayer bond orders larger than 0.100000
B(  0-C ,  1-C ) :   1.3526 B(  0-C , 11-H ) :   0.8446 B(  0-C , 12-H ) :   0.7807
B(  0-C , 13-H ) :   0.7764 B(  1-C ,  2-C ) :   1.3155 B(  1-C ,  4-H ) :   0.1368
B(  1-C ,  5-H ) :   0.1268 B(  1-C ,  8-H ) :   0.8755 B(  1-C ,  9-H ) :   0.8890
B(  1-C , 11-H ) :   0.1788 B(  1-C , 12-H ) :   0.1863 B(  1-C , 13-H ) :   0.2152
B(  2-C ,  3-S ) :   0.9333 B(  2-C ,  4-H ) :   0.8953 B(  2-C ,  5-H ) :   0.9058
B(  2-C ,  8-H ) :   0.1145 B(  2-C ,  9-H ) :   0.1005 B(  3-S ,  6-O ) :   1.5857
B(  3-S ,  7-F ) :   0.6229 B(  3-S , 10-O ) :   1.5270

Dispersion correction           -0.016364268
FINAL SINGLE POINT ENERGY      -766.653529687250

DIPOLE MOMENT
-------------
                                X             Y             Z
Electronic contribution:     -9.92289      -5.82257      -2.39538
Nuclear contribution   :     10.64200       6.78206       3.33086
                        -----------------------------------------
Total Dipole Moment    :      0.71911       0.95949       0.93548
                        -----------------------------------------
Magnitude (a.u.)       :      1.52081
Magnitude (Debye)      :      3.86560

Rotational constants in cm-1:     0.128573     0.057881     0.053975
Rotational constants in MHz :  3854.523324  1735.233387  1618.120420

                             ****ORCA TERMINATED NORMALLY****
TOTAL RUN TIME: 0 days 0 hours 0 minutes 12 seconds 833 msec
