                         Program Version 5.0.0 -  RELEASE  -
|  1> !TPSS D3BJ RIJCOSX def2-SVPD def2/J TightSCF
|  2> *xyz 0 1
|  3> C          1.36401        0.46874       -2.81376
|  4> C          0.96805        1.63064       -3.71575
|  5> C         -0.50835        1.72268       -4.12430
|  6> S         -1.32861        0.14674       -4.43578
|  7> H         -0.59151        2.29496       -5.04722
|  8> H         -1.11411        2.23561       -3.37436
|  9> O         -2.57135        0.47573       -5.06834
| 10> O         -1.51496       -0.40051       -3.06342
| 11> H          1.57869        1.52065       -4.61273
| 12> H          1.26665        2.57599       -3.25045
| 13> F         -0.37793       -0.62756       -5.20114
| 14> H          1.07115       -0.45339       -3.27071
| 15> H          0.87480        0.56905       -1.86745
| 16> H          2.42423        0.47442       -2.66954
| 17> *
| 18> %MaxCore 64000
| 19>
| 20> %pal nprocs 4
| 21> end
| 22>
| 23> %scf
| 24>   MaxIter 150
| 25> end
| 26>
| 27>
| 28>                          ****END OF INPUT****

CARTESIAN COORDINATES (ANGSTROEM)
---------------------------------
  C      1.364010    0.468740   -2.813760
  C      0.968050    1.630640   -3.715750
  C     -0.508350    1.722680   -4.124300
  S     -1.328610    0.146740   -4.435780
  H     -0.591510    2.294960   -5.047220
  H     -1.114110    2.235610   -3.374360
  O     -2.571350    0.475730   -5.068340
  O     -1.514960   -0.400510   -3.063420
  H      1.578690    1.520650   -4.612730
  H      1.266650    2.575990   -3.250450
  F     -0.377930   -0.627560   -5.201140
  H      1.071150   -0.453390   -3.270710
  H      0.874800    0.569050   -1.867450
  H      2.424230    0.474420   -2.669540

 Total Charge           Charge          ....    0
 Multiplicity           Mult            ....    1
 Number of Electrons    NEL             ....   66
 Basis Dimension        Dim             ....  212

ORBITAL ENERGIES
----------------

  NO   OCC          E(Eh)            E(eV)
   0   2.0000     -88.621307     -2411.5084
   1   2.0000     -24.541252      -667.8014
   2   2.0000     -18.916279      -514.7381
   3   2.0000     -18.897201      -514.2190
   4   2.0000     -10.057788      -273.6863
   5   2.0000     -10.030977      -272.9568
   6   2.0000     -10.000302      -272.1221
   7   2.0000      -7.982282      -217.2089
   8   2.0000      -5.972724      -162.5261
   9   2.0000      -5.965959      -162.3420
  10   2.0000      -5.964132      -162.2923
  11   2.0000      -1.291280       -35.1375
  12   2.0000      -1.036956       -28.2170
  13   2.0000      -0.933513       -25.4022
  14   2.0000      -0.767877       -20.8950
  15   2.0000      -0.693623       -18.8744
  16   2.0000      -0.653681       -17.7876
  17   2.0000      -0.585033       -15.9196
  18   2.0000      -0.534698       -14.5499
  19   2.0000      -0.528768       -14.3885
  20   2.0000      -0.494247       -13.4491
  21   2.0000      -0.453180       -12.3317
  22   2.0000      -0.436059       -11.8658
  23   2.0000      -0.419842       -11.4245
  24   2.0000      -0.402634       -10.9562
  25   2.0000      -0.391146       -10.6436
  26   2.0000      -0.348784        -9.4909
  27   2.0000      -0.346562        -9.4304
  28   2.0000      -0.340840        -9.2747
  29   2.0000      -0.320505        -8.7214
  30   2.0000      -0.293744        -7.9932
  31   2.0000      -0.276750        -7.5307
  32   2.0000      -0.262663        -7.1474
  33   0.0000      -0.025478        -0.6933
  34   0.0000       0.006639         0.1807
  35   0.0000       0.017946         0.4883
  36   0.0000       0.024688         0.6718
  37   0.0000       0.028646         0.7795

MULLIKEN ATOMIC CHARGES
-----------------------
   0 C :    0.702360
   1 C :   -0.299409
   2 C :    0.089720
   3 S :    1.354863
   4 H :    0.009258
   5 H :    0.105199
   6 O :   -0.667632
   7 O :   -0.668398
   8 H :    0.050138
   9 H :   -0.112174
  10 F :   -0.379554
  11 H :   -0.064304
  12 H :   -0.004944
  13 H :   -0.115123
Sum of atomic charges:   -0.0000000

LOEWDIN ATOMIC CHARGES
----------------------
   0 C :    0.134256
   1 C :   -0.067319
   2 C :   -0.035569
   3 S :    1.097707
   4 H :    0.012440
   5 H :    0.032250
   6 O :   -0.441672
   7 O :   -0.465044
   8 H :    0.018676
   9 H :    0.026122
  10 F :   -0.248682
  11 H :   -0.041002
  12 H :   -0.007651
  13 H :   -0.014512

  Mayer bond orders larger than 0.100000
B(  0-C ,  1-C ) :   1.3509 B(  0-C ,  9-H ) :   0.1007 B(  0-C , 11-H ) :   0.8346
B(  0-C , 12-H ) :   0.7831 B(  0-C , 13-H ) :   0.7640 B(  1-C ,  2-C ) :   1.2893
B(  1-C ,  4-H ) :   0.1423 B(  1-C ,  5-H ) :   0.1305 B(  1-C ,  8-H ) :   0.8835
B(  1-C ,  9-H ) :   0.8939 B(  1-C , 11-H ) :   0.1823 B(  1-C , 12-H ) :   0.1948
B(  1-C , 13-H ) :   0.2182 B(  2-C ,  3-S ) :   0.9405 B(  2-C ,  4-H ) :   0.9080
B(  2-C ,  5-H ) :   0.8980 B(  2-C ,  8-H ) :   0.1059 B(  2-C ,  9-H ) :   0.1106
B(  3-S ,  6-O ) :   1.5874 B(  3-S ,  7-O ) :   1.5064 B(  3-S , 10-F ) :   0.6687

Dispersion correction           -0.016360382
FINAL SINGLE POINT ENERGY      -766.633566261716

DIPOLE MOMENT
-------------
                                X             Y             Z
Electronic contribution:     -8.02225      -6.18413      -5.96348
Nuclear contribution   :      9.41919       7.02624       5.62986
                        -----------------------------------------
Total Dipole Moment    :      1.39694       0.84211      -0.33362
                        -----------------------------------------
Magnitude (a.u.)       :      1.66490
Magnitude (Debye)      :      4.23185

Rotational constants in cm-1:     0.128702     0.057313     0.054552
Rotational constants in MHz :  3858.395793  1718.208003  1635.420361

                             ****ORCA TERMINATED NORMALLY****
TOTAL RUN TIME: 0 days 0 hours 0 minutes 13 seconds 118 msec
