                         Program Version 5.0.0 -  RELEASE  -
|  1> !TPSS D3BJ RIJCOSX def2-SVPD def2/J TightSCF xyzfile
|  2>
|  3> *xyzfile 0 1 D2.xyz
|  4>
|  5> %MaxCore 64000
|  6>
|  7> %pal nprocs 4
|  8> end
|  9>
| 10> %scf
| 11>   MaxIter 150
| 12> end
| 13>
| 14>
| 15>                          ****END OF INPUT****

CARTESIAN COORDINATES (ANGSTROEM)
---------------------------------
  C      1.364014    0.468742   -2.813764
  C      0.428844    0.321402   -1.655312
  C      0.968045    1.630639   -3.715749
  C     -0.508347    1.722679   -4.124300
  S     -1.328608    0.146737   -4.435781
  H     -0.591511    2.294958   -5.047219
  H     -1.114114    2.235610   -3.374362
  H      0.748578   -0.400542   -1.001345
  H     -0.461053    0.023332   -2.077731
  H      0.310258    1.201375   -1.134948
  O     -2.571347    0.475733   -5.068341
  F     -1.514963   -0.400512   -3.063420
  H      1.294847   -0.468742   -3.364684
  H      2.376216    0.597400   -2.431495
  H      1.578688    1.520652   -4.612733
  H      1.266653    2.575988   -3.250448
  O     -0.377928   -0.627558   -5.201141

 Total Charge           Charge          ....    0
 Multiplicity           Mult            ....    1
 Number of Electrons    NEL             ....   74
 Basis Dimension        Dim             ....  248

ORBITAL ENERGIES
----------------

  NO   OCC          E(Eh)            E(eV)
   0   2.0000     -88.623442     -2411.5665
   1   2.0000     -24.526175      -667.3912
   2   2.0000     -18.919210      -514.8179
   3   2.0000     -18.915984      -514.7301
   4   2.0000     -10.059059      -273.7209
   5   2.0000     -10.024677      -272.7853
   6   2.0000     -10.001661      -272.1590
   7   2.0000      -9.962933      -271.1052
   8   2.0000      -7.984254      -217.2626
   9   2.0000      -5.974483      -162.5739
  10   2.0000      -5.968226      -162.4037
  11   2.0000      -5.966214      -162.3489
  12   2.0000      -1.268205       -34.5096
  13   2.0000      -1.050393       -28.5826
  14   2.0000      -0.959876       -26.1196
  15   2.0000      -0.774210       -21.0673
  16   2.0000      -0.718688       -19.5565
  17   2.0000      -0.656594       -17.8668
  18   2.0000      -0.638870       -17.3845
  19   2.0000      -0.549782       -14.9603
  20   2.0000      -0.533373       -14.5138
  21   2.0000      -0.513674       -13.9778
  22   2.0000      -0.500175       -13.6105
  23   2.0000      -0.456163       -12.4128
  24   2.0000      -0.438945       -11.9443
  25   2.0000      -0.434144       -11.8137
  26   2.0000      -0.414849       -11.2886
  27   2.0000      -0.392067       -10.6687
  28   2.0000      -0.375566       -10.2197
  29   2.0000      -0.364829        -9.9275
  30   2.0000      -0.353233        -9.6120
  31   2.0000      -0.319417        -8.6918
  32   2.0000      -0.310813        -8.4576
  33   2.0000      -0.305151        -8.3036
  34   2.0000      -0.296378        -8.0649
  35   2.0000      -0.288993        -7.8639
  36   2.0000      -0.279144        -7.5959
  37   0.0000      -0.019856        -0.5403
  38   0.0000       0.003417         0.0930
  39   0.0000       0.014480         0.3940
  40   0.0000       0.019874         0.5408
  41   0.0000       0.030180         0.8212

MULLIKEN ATOMIC CHARGES
-----------------------
   0 C :   -0.427791
   1 C :    2.044463
   2 C :    0.269885
   3 C :    0.068851
   4 S :    1.442134
   5 H :   -0.182620
   6 H :    0.244218
   7 H :   -0.082587
   8 H :   -1.197772
   9 H :   -0.085619
  10 O :   -0.698422
  11 F :   -0.599867
  12 H :    0.103682
  13 H :   -0.294928
  14 H :    0.053793
  15 H :    0.014204
  16 O :   -0.671625
Sum of atomic charges:    0.0000000

LOEWDIN ATOMIC CHARGES
----------------------
   0 C :   -0.042927
   1 C :    0.158948
   2 C :   -0.019694
   3 C :   -0.024417
   4 S :    1.119299
   5 H :    0.023918
   6 H :    0.021870
   7 H :   -0.023481
   8 H :   -0.135178
   9 H :   -0.020269
  10 O :   -0.436202
  11 F :   -0.272800
  12 H :    0.011282
  13 H :    0.021726
  14 H :    0.023919
  15 H :    0.029479
  16 O :   -0.435472

  Mayer bond orders larger than 0.100000
B(  0-C ,  1-C ) :   0.9812 B(  0-C ,  2-C ) :   1.2167 B(  0-C ,  7-H ) :   0.2403
B(  0-C ,  8-H ) :   0.5575 B(  0-C ,  9-H ) :   0.2758 B(  0-C , 12-H ) :   0.8343
B(  0-C , 13-H ) :   1.0019 B(  0-C , 14-H ) :   0.1437 B(  0-C , 15-H ) :   0.1612
B(  1-C ,  7-H ) :   0.4595 B(  1-C ,  8-H ) :  -0.7233 B(  1-C ,  9-H ) :   0.2566
B(  1-C , 11-F ) :  -0.2109 B(  1-C , 12-H ) :   0.1306 B(  2-C ,  3-C ) :   1.2689
B(  2-C ,  5-H ) :   0.1825 B(  2-C , 12-H ) :   0.1346 B(  2-C , 14-H ) :   0.8311
B(  2-C , 15-H ) :   0.7849 B(  3-C ,  4-S ) :   0.9562 B(  3-C ,  5-H ) :   0.9139
B(  3-C ,  6-H ) :   0.8460 B(  3-C ,  8-H ) :   0.1209 B(  3-C , 11-F ) :   0.1369
B(  3-C , 14-H ) :   0.1350 B(  4-S ,  8-H ) :  -0.1324 B(  4-S , 10-O ) :   1.5513
B(  4-S , 11-F ) :   0.6372 B(  4-S , 16-O ) :   1.5286 B(  7-H ,  8-H ) :   0.2916
B(  7-H ,  9-H ) :  -0.1870 B(  8-H ,  9-H ) :   0.5396 B(  8-H , 11-F ) :   0.3366
B( 10-O , 16-O ) :   0.1025

Dispersion correction           -0.022055427
FINAL SINGLE POINT ENERGY      -805.908132712929

DIPOLE MOMENT
-------------
                                X             Y             Z
Electronic contribution:    -10.50348      -5.57140      -6.18663
Nuclear contribution   :     11.08796       6.45140       7.05645
                        -----------------------------------------
Total Dipole Moment    :      0.58448       0.88000       0.86982
                        -----------------------------------------
Magnitude (a.u.)       :      1.36843
Magnitude (Debye)      :      3.47827

Rotational constants in cm-1:     0.100113     0.046890     0.041843
Rotational constants in MHz :  3001.313402  1405.711946  1254.411771

                             ****ORCA TERMINATED NORMALLY****
TOTAL RUN TIME: 0 days 0 hours 0 minutes 21 seconds 409 msec
