                         Program Version 5.0.0 -  RELEASE  -
|  1> !TPSS D3BJ RIJCOSX def2-SVPD def2/J TightSCF xyzfile
|  2>
|  3> *xyzfile 0 1 D3.xyz
|  4>
|  5> %MaxCore 64000
|  6>
|  7> %pal nprocs 4
|  8> end
|  9>
| 10> %scf
| 11>   MaxIter 150
| 12> end
| 13>
| 14>
| 15>                          ****END OF INPUT****

CARTESIAN COORDINATES (ANGSTROEM)
---------------------------------
  C      1.364014    0.468742   -2.813764
  C      0.428844    0.321402   -1.655312
  C      0.968045    1.630639   -3.715749
  C     -0.508347    1.722679   -4.124300
  S     -1.328608    0.146737   -4.435781
  H     -0.591511    2.294958   -5.047219
  H     -1.114114    2.235610   -3.374362
  H      0.748578   -0.400542   -1.001345
  H     -0.461053    0.023332   -2.077731
  H      0.310258    1.201375   -1.134948
  O     -2.571347    0.475733   -5.068341
  O     -1.514963   -0.400512   -3.063420
  H      1.294847   -0.468742   -3.364684
  H      2.376216    0.597400   -2.431495
  H      1.578688    1.520652   -4.612733
  H      1.266653    2.575988   -3.250448
  F     -0.377928   -0.627558   -5.201141

 Total Charge           Charge          ....    0
 Multiplicity           Mult            ....    1
 Number of Electrons    NEL             ....   74
 Basis Dimension        Dim             ....  248

ORBITAL ENERGIES
----------------

  NO   OCC          E(Eh)            E(eV)
   0   2.0000     -88.628372     -2411.7006
   1   2.0000     -24.545538      -667.9181
   2   2.0000     -18.920854      -514.8626
   3   2.0000     -18.904720      -514.4236
   4   2.0000     -10.060942      -273.7722
   5   2.0000     -10.027276      -272.8561
   6   2.0000      -9.999611      -272.1032
   7   2.0000      -9.937599      -270.4158
   8   2.0000      -7.989005      -217.3919
   9   2.0000      -5.979435      -162.7087
  10   2.0000      -5.973026      -162.5343
  11   2.0000      -5.970638      -162.4693
  12   2.0000      -1.295560       -35.2540
  13   2.0000      -1.044415       -28.4200
  14   2.0000      -0.947124       -25.7725
  15   2.0000      -0.773329       -21.0434
  16   2.0000      -0.713124       -19.4051
  17   2.0000      -0.664691       -18.0872
  18   2.0000      -0.625049       -17.0085
  19   2.0000      -0.561480       -15.2787
  20   2.0000      -0.535918       -14.5831
  21   2.0000      -0.529454       -14.4072
  22   2.0000      -0.496747       -13.5172
  23   2.0000      -0.457316       -12.4442
  24   2.0000      -0.453978       -12.3534
  25   2.0000      -0.427731       -11.6391
  26   2.0000      -0.415049       -11.2941
  27   2.0000      -0.389692       -10.6041
  28   2.0000      -0.372662       -10.1406
  29   2.0000      -0.360918        -9.8211
  30   2.0000      -0.349499        -9.5104
  31   2.0000      -0.327513        -8.9121
  32   2.0000      -0.309382        -8.4187
  33   2.0000      -0.298908        -8.1337
  34   2.0000      -0.291938        -7.9440
  35   2.0000      -0.283066        -7.7026
  36   2.0000      -0.235745        -6.4149
  37   0.0000      -0.027428        -0.7463
  38   0.0000       0.004192         0.1141
  39   0.0000       0.014961         0.4071
  40   0.0000       0.024384         0.6635
  41   0.0000       0.027147         0.7387

MULLIKEN ATOMIC CHARGES
-----------------------
   0 C :   -0.395043
   1 C :    1.970688
   2 C :    0.241915
   3 C :    0.042322
   4 S :    1.481880
   5 H :   -0.181222
   6 H :    0.253336
   7 H :   -0.102794
   8 H :   -1.112774
   9 H :   -0.110974
  10 O :   -0.685168
  11 O :   -0.830627
  12 H :    0.080870
  13 H :   -0.307410
  14 H :    0.029921
  15 H :    0.013158
  16 F :   -0.388078
Sum of atomic charges:   -0.0000000

LOEWDIN ATOMIC CHARGES
----------------------
   0 C :   -0.046633
   1 C :    0.149534
   2 C :   -0.025552
   3 C :   -0.018340
   4 S :    1.147478
   5 H :    0.012532
   6 H :    0.036405
   7 H :   -0.025817
   8 H :   -0.176876
   9 H :   -0.023336
  10 O :   -0.434392
  11 O :   -0.432315
  12 H :    0.010820
  13 H :    0.019703
  14 H :    0.017266
  15 H :    0.031101
  16 F :   -0.241578

  Mayer bond orders larger than 0.100000
B(  0-C ,  1-C ) :   1.0000 B(  0-C ,  2-C ) :   1.2027 B(  0-C ,  7-H ) :   0.2315
B(  0-C ,  8-H ) :   0.5698 B(  0-C ,  9-H ) :   0.2823 B(  0-C , 12-H ) :   0.8186
B(  0-C , 13-H ) :   1.0026 B(  0-C , 14-H ) :   0.1448 B(  0-C , 15-H ) :   0.1604
B(  1-C ,  7-H ) :   0.4570 B(  1-C ,  8-H ) :  -0.5406 B(  1-C ,  9-H ) :   0.2769
B(  1-C , 11-O ) :  -0.1689 B(  1-C , 12-H ) :   0.1379 B(  2-C ,  3-C ) :   1.2767
B(  2-C ,  5-H ) :   0.1922 B(  2-C , 12-H ) :   0.1388 B(  2-C , 14-H ) :   0.8391
B(  2-C , 15-H ) :   0.7854 B(  3-C ,  4-S ) :   0.9463 B(  3-C ,  5-H ) :   0.9281
B(  3-C ,  6-H ) :   0.8372 B(  3-C ,  8-H ) :   0.1387 B(  3-C , 11-O ) :   0.1567
B(  3-C , 14-H ) :   0.1253 B(  4-S ,  8-H ) :  -0.1479 B(  4-S , 10-O ) :   1.5718
B(  4-S , 11-O ) :   1.4116 B(  4-S , 16-F ) :   0.6627 B(  7-H ,  8-H ) :   0.3304
B(  7-H ,  9-H ) :  -0.1771 B(  8-H ,  9-H ) :   0.5093 B(  8-H , 11-O ) :   0.2431
B( 12-H , 13-H ) :  -0.1085

Dispersion correction           -0.022129072
FINAL SINGLE POINT ENERGY      -805.890439904513

DIPOLE MOMENT
-------------
                                X             Y             Z
Electronic contribution:     -8.68164      -5.96375      -9.86299
Nuclear contribution   :      9.83476       6.70164       9.41257
                        -----------------------------------------
Total Dipole Moment    :      1.15313       0.73789      -0.45042
                        -----------------------------------------
Magnitude (a.u.)       :      1.44120
Magnitude (Debye)      :      3.66325

Rotational constants in cm-1:     0.099832     0.045916     0.042219
Rotational constants in MHz :  2992.874960  1376.530174  1265.693813

                             ****ORCA TERMINATED NORMALLY****
TOTAL RUN TIME: 0 days 0 hours 0 minutes 22 seconds 556 msec
