                         Program Version 5.0.0 -  RELEASE  -
|  1> !PBE0 D3BJ RIJCOSX def2-SVP def2/J TightSCF
|  2> *xyz -1 1
|  3> C          0.84888        2.66797       -4.30235
|  4> C          2.09343        1.86104       -4.65684
|  5> H          2.44481        2.04157       -5.67499
|  6> H          2.90175        2.13786       -3.98034
|  7> S          1.87964        0.07859       -4.46297
|  8> O          3.20757       -0.46611       -4.42026
|  9> O          1.07506       -0.05616       -3.26876
| 10> O          1.13166       -0.31996       -5.67903
| 11> H          0.05064        2.40112       -4.96303
| 12> H          1.06043        3.71210       -4.40203
| 13> H          0.56237        2.45684       -3.29327
| 14> *
| 15>
| 16> %MaxCore 64000
| 17>
| 18> %pal nprocs 4
| 19> end
| 20>
| 21> %scf
| 22>   MaxIter 150
| 23> end
| 24>
| 25>
| 26>                          ****END OF INPUT****

CARTESIAN COORDINATES (ANGSTROEM)
---------------------------------
  C      0.848880    2.667970   -4.302350
  C      2.093430    1.861040   -4.656840
  H      2.444810    2.041570   -5.674990
  H      2.901750    2.137860   -3.980340
  S      1.879640    0.078590   -4.462970
  O      3.207570   -0.466110   -4.420260
  O      1.075060   -0.056160   -3.268760
  O      1.131660   -0.319960   -5.679030
  H      0.050640    2.401120   -4.963030
  H      1.060430    3.712100   -4.402030
  H      0.562370    2.456840   -3.293270

 Total Charge           Charge          ....   -1
 Multiplicity           Mult            ....    1
 Number of Electrons    NEL             ....   58
 Basis Dimension        Dim             ....  113

ORBITAL ENERGIES
----------------

  NO   OCC          E(Eh)            E(eV)
   0   2.0000     -88.998344     -2421.7681
   1   2.0000     -18.964879      -516.0606
   2   2.0000     -18.962327      -515.9912
   3   2.0000     -18.946691      -515.5657
   4   2.0000     -10.078045      -274.2375
   5   2.0000     -10.074919      -274.1525
   6   2.0000      -7.965141      -216.7425
   7   2.0000      -5.906844      -160.7334
   8   2.0000      -5.906595      -160.7266
   9   2.0000      -5.906458      -160.7229
  10   2.0000      -0.933357       -25.3979
  11   2.0000      -0.794404       -21.6168
  12   2.0000      -0.765932       -20.8421
  13   2.0000      -0.636117       -17.3096
  14   2.0000      -0.506134       -13.7726
  15   2.0000      -0.377121       -10.2620
  16   2.0000      -0.318958        -8.6793
  17   2.0000      -0.313491        -8.5305
  18   2.0000      -0.273626        -7.4457
  19   2.0000      -0.255993        -6.9659
  20   2.0000      -0.251003        -6.8301
  21   2.0000      -0.228707        -6.2234
  22   2.0000      -0.212328        -5.7777
  23   2.0000      -0.138051        -3.7566
  24   2.0000      -0.137663        -3.7460
  25   2.0000      -0.104976        -2.8565
  26   2.0000      -0.095577        -2.6008
  27   2.0000      -0.083316        -2.2672
  28   2.0000      -0.049997        -1.3605
  29   0.0000       0.216204         5.8832
  30   0.0000       0.267122         7.2688
  31   0.0000       0.272212         7.4073
  32   0.0000       0.280240         7.6257
  33   0.0000       0.308060         8.3827

MULLIKEN ATOMIC CHARGES
-----------------------
   0 C :   -0.029876
   1 C :   -0.155164
   2 H :    0.023916
   3 H :    0.014517
   4 S :    0.887928
   5 O :   -0.573516
   6 O :   -0.584189
   7 O :   -0.626554
   8 H :    0.025736
   9 H :   -0.014846
  10 H :    0.032049
Sum of atomic charges:   -1.0000000

LOEWDIN ATOMIC CHARGES
----------------------
   0 C :   -0.083558
   1 C :   -0.198635
   2 H :    0.010958
   3 H :    0.006074
   4 S :    1.086881
   5 O :   -0.600501
   6 O :   -0.608495
   7 O :   -0.655001
   8 H :    0.019174
   9 H :    0.003044
  10 H :    0.020060

  Mayer bond orders larger than 0.100000
B(  0-C ,  1-C ) :   1.0564 B(  0-C ,  8-H ) :   0.9687 B(  0-C ,  9-H ) :   0.9627
B(  0-C , 10-H ) :   0.9654 B(  1-C ,  2-H ) :   0.9454 B(  1-C ,  3-H ) :   0.9417
B(  1-C ,  4-S ) :   0.8903 B(  4-S ,  5-O ) :   1.6420 B(  4-S ,  6-O ) :   1.6135
B(  4-S ,  7-O ) :   1.5807

Dispersion correction           -0.008291641
FINAL SINGLE POINT ENERGY      -702.264010369209

DIPOLE MOMENT
-------------
                                X             Y             Z
Electronic contribution:      1.62637      -7.85320       0.06706
Nuclear contribution   :     -1.55288       9.51857       0.00420
                        -----------------------------------------
Total Dipole Moment    :      0.07349       1.66537       0.07126
                        -----------------------------------------
Magnitude (a.u.)       :      1.66852
Magnitude (Debye)      :      4.24104

Rotational constants in cm-1:     0.163401     0.083833     0.082462
Rotational constants in MHz :  4898.624208  2513.264548  2472.149188

                             ****ORCA TERMINATED NORMALLY****
TOTAL RUN TIME: 0 days 0 hours 0 minutes 13 seconds 765 msec
