                         Program Version 5.0.0 -  RELEASE  -
|  1> !PBE0 D3BJ RIJCOSX def2-SVP def2/J TightSCF
|  2> *xyz 1 1
|  3> C         -0.46129        2.23469       -4.98962
|  4> C          0.84888        2.66797       -4.30235
|  5> C         -0.42384        2.39877       -6.47432
|  6> N         -0.95947        3.49265       -7.00740
|  7> N          0.14558        1.48689       -7.20399
|  8> H          0.56537        0.69681       -6.72386
|  9> H          0.22068        1.58177       -8.20752
| 10> H         -1.40624        4.18151       -6.40326
| 11> H         -0.93421        3.68160       -7.99947
| 12> H         -1.28888        2.82674       -4.59500
| 13> H         -0.65170        1.18634       -4.75655
| 14> H          1.66208        2.08894       -4.68750
| 15> H          0.76716        2.51042       -3.24717
| 16> H          1.02677        3.70527       -4.49537
| 17> *
| 18>
| 19> %MaxCore 64000
| 20>
| 21> %pal nprocs 4
| 22> end
| 23>
| 24> %scf
| 25>   MaxIter 150
| 26> end
| 27>
| 28>
| 29>                          ****END OF INPUT****

CARTESIAN COORDINATES (ANGSTROEM)
---------------------------------
  C     -0.461290    2.234690   -4.989620
  C      0.848880    2.667970   -4.302350
  C     -0.423840    2.398770   -6.474320
  N     -0.959470    3.492650   -7.007400
  N      0.145580    1.486890   -7.203990
  H      0.565370    0.696810   -6.723860
  H      0.220680    1.581770   -8.207520
  H     -1.406240    4.181510   -6.403260
  H     -0.934210    3.681600   -7.999470
  H     -1.288880    2.826740   -4.595000
  H     -0.651700    1.186340   -4.756550
  H      1.662080    2.088940   -4.687500
  H      0.767160    2.510420   -3.247170
  H      1.026770    3.705270   -4.495370

 Total Charge           Charge          ....    1
 Multiplicity           Mult            ....    1
 Number of Electrons    NEL             ....   40
 Basis Dimension        Dim             ....  115

ORBITAL ENERGIES
----------------

  NO   OCC          E(Eh)            E(eV)
   0   2.0000     -14.643460      -398.4688
   1   2.0000     -14.639320      -398.3562
   2   2.0000     -10.553448      -287.1739
   3   2.0000     -10.430632      -283.8319
   4   2.0000     -10.388451      -282.6841
   5   2.0000      -1.224123       -33.3101
   6   2.0000      -1.126244       -30.6466
   7   2.0000      -0.986217       -26.8363
   8   2.0000      -0.876235       -23.8436
   9   2.0000      -0.831815       -22.6348
  10   2.0000      -0.795318       -21.6417
  11   2.0000      -0.765288       -20.8245
  12   2.0000      -0.717040       -19.5117
  13   2.0000      -0.664426       -18.0799
  14   2.0000      -0.637136       -17.3374
  15   2.0000      -0.629051       -17.1174
  16   2.0000      -0.558107       -15.1869
  17   2.0000      -0.547354       -14.8943
  18   2.0000      -0.540042       -14.6953
  19   2.0000      -0.504786       -13.7359
  20   0.0000      -0.198074        -5.3899
  21   0.0000      -0.133892        -3.6434
  22   0.0000      -0.088005        -2.3947
  23   0.0000      -0.086527        -2.3545
  24   0.0000      -0.062281        -1.6947

MULLIKEN ATOMIC CHARGES
-----------------------
   0 C :   -0.087758
   1 C :   -0.035864
   2 C :   -0.011293
   3 N :   -0.049198
   4 N :   -0.002162
   5 H :    0.196491
   6 H :    0.185888
   7 H :    0.198174
   8 H :    0.181799
   9 H :    0.089051
  10 H :    0.102675
  11 H :    0.060984
  12 H :    0.102750
  13 H :    0.068462
Sum of atomic charges:    1.0000000

LOEWDIN ATOMIC CHARGES
----------------------
   0 C :   -0.042462
   1 C :   -0.028430
   2 C :    0.147880
   3 N :    0.084967
   4 N :    0.106986
   5 H :    0.125802
   6 H :    0.116549
   7 H :    0.125165
   8 H :    0.111879
   9 H :    0.058214
  10 H :    0.062419
  11 H :    0.035057
  12 H :    0.056319
  13 H :    0.039656

  Mayer bond orders larger than 0.100000
B(  0-C ,  1-C ) :   1.0617 B(  0-C ,  2-C ) :   1.0234 B(  0-C ,  9-H ) :   0.9259
B(  0-C , 10-H ) :   0.9249 B(  1-C , 11-H ) :   0.9717 B(  1-C , 12-H ) :   0.9630
B(  1-C , 13-H ) :   0.9692 B(  2-C ,  3-N ) :   1.4908 B(  2-C ,  4-N ) :   1.5260
B(  3-N ,  7-H ) :   0.9184 B(  3-N ,  8-H ) :   0.9299 B(  4-N ,  5-H ) :   0.9154
B(  4-N ,  6-H ) :   0.9260

Dispersion correction           -0.008491359
FINAL SINGLE POINT ENERGY      -228.605811577226

DIPOLE MOMENT
-------------
                                X             Y             Z
Electronic contribution:     -1.55652      -0.26173      -3.92467
Nuclear contribution   :      1.33202       0.27544       2.83701
                        -----------------------------------------
Total Dipole Moment    :     -0.22450       0.01371      -1.08766
                        -----------------------------------------
Magnitude (a.u.)       :      1.11068
Magnitude (Debye)      :      2.82311

Rotational constants in cm-1:     0.258570     0.126296     0.098869
Rotational constants in MHz :  7751.748523  3786.267300  2964.011691

                             ****ORCA TERMINATED NORMALLY****
TOTAL RUN TIME: 0 days 0 hours 0 minutes 13 seconds 766 msec
