                         Program Version 5.0.0 -  RELEASE  -
|  1> !PBE0 D3BJ RIJCOSX def2-SVP def2/J TightSCF
|  2> *xyz 0 1
|  3> C          0.84888        2.66797       -4.30235
|  4> C          2.09343        1.86104       -4.65684
|  5> H          2.44481        2.04157       -5.67499
|  6> H          2.90175        2.13786       -3.98034
|  7> S          1.87964        0.07859       -4.46297
|  8> F          3.20757       -0.46611       -4.42026
|  9> O          1.07506       -0.05616       -3.26876
| 10> O          1.13166       -0.31996       -5.67903
| 11> H          0.05064        2.40112       -4.96303
| 12> H          1.06043        3.71210       -4.40203
| 13> H          0.56237        2.45684       -3.29327
| 14> *
| 15>
| 16> %MaxCore 64000
| 17>
| 18> %pal nprocs 4
| 19> end
| 20>
| 21> %scf
| 22>   MaxIter 150
| 23> end
| 24>
| 25>
| 26>                          ****END OF INPUT****

CARTESIAN COORDINATES (ANGSTROEM)
---------------------------------
  C      0.848880    2.667970   -4.302350
  C      2.093430    1.861040   -4.656840
  H      2.444810    2.041570   -5.674990
  H      2.901750    2.137860   -3.980340
  S      1.879640    0.078590   -4.462970
  F      3.207570   -0.466110   -4.420260
  O      1.075060   -0.056160   -3.268760
  O      1.131660   -0.319960   -5.679030
  H      0.050640    2.401120   -4.963030
  H      1.060430    3.712100   -4.402030
  H      0.562370    2.456840   -3.293270

 Total Charge           Charge          ....    0
 Multiplicity           Mult            ....    1
 Number of Electrons    NEL             ....   58
 Basis Dimension        Dim             ....  113

ORBITAL ENERGIES
----------------

  NO   OCC          E(Eh)            E(eV)
   0   2.0000     -89.273307     -2429.2502
   1   2.0000     -24.892752      -677.3662
   2   2.0000     -19.213961      -522.8385
   3   2.0000     -19.199895      -522.4557
   4   2.0000     -10.287775      -279.9446
   5   2.0000     -10.247603      -278.8514
   6   2.0000      -8.242510      -224.2901
   7   2.0000      -6.188141      -168.3879
   8   2.0000      -6.181661      -168.2116
   9   2.0000      -6.180475      -168.1793
  10   2.0000      -1.408889       -38.3378
  11   2.0000      -1.125984       -30.6396
  12   2.0000      -1.018733       -27.7211
  13   2.0000      -0.835905       -22.7461
  14   2.0000      -0.753319       -20.4988
  15   2.0000      -0.689572       -18.7642
  16   2.0000      -0.605558       -16.4781
  17   2.0000      -0.604691       -16.4545
  18   2.0000      -0.565977       -15.4010
  19   2.0000      -0.504842       -13.7374
  20   2.0000      -0.493778       -13.4364
  21   2.0000      -0.449468       -12.2307
  22   2.0000      -0.440791       -11.9945
  23   2.0000      -0.417794       -11.3688
  24   2.0000      -0.396657       -10.7936
  25   2.0000      -0.390040       -10.6135
  26   2.0000      -0.338321        -9.2062
  27   2.0000      -0.322673        -8.7804
  28   2.0000      -0.308025        -8.3818
  29   0.0000       0.044908         1.2220
  30   0.0000       0.057985         1.5779
  31   0.0000       0.082854         2.2546
  32   0.0000       0.095697         2.6041
  33   0.0000       0.108519         2.9530

MULLIKEN ATOMIC CHARGES
-----------------------
   0 C :   -0.042800
   1 C :   -0.189323
   2 H :    0.093979
   3 H :    0.076660
   4 S :    0.964223
   5 F :   -0.170025
   6 O :   -0.447873
   7 O :   -0.485826
   8 H :    0.070717
   9 H :    0.058297
  10 H :    0.071971
Sum of atomic charges:    0.0000000

LOEWDIN ATOMIC CHARGES
----------------------
   0 C :   -0.057330
   1 C :   -0.161471
   2 H :    0.040799
   3 H :    0.031739
   4 S :    1.145898
   5 F :   -0.109938
   6 O :   -0.481188
   7 O :   -0.523841
   8 H :    0.038779
   9 H :    0.038842
  10 H :    0.037712

  Mayer bond orders larger than 0.100000
B(  0-C ,  1-C ) :   1.0662 B(  0-C ,  8-H ) :   0.9716 B(  0-C ,  9-H ) :   0.9630
B(  0-C , 10-H ) :   0.9662 B(  1-C ,  2-H ) :   0.9324 B(  1-C ,  3-H ) :   0.9297
B(  1-C ,  4-S ) :   0.9215 B(  4-S ,  5-F ) :   1.0262 B(  4-S ,  6-O ) :   1.7654
B(  4-S ,  7-O ) :   1.7337

Dispersion correction           -0.007928436
FINAL SINGLE POINT ENERGY      -726.747763174833

DIPOLE MOMENT
-------------
                                X             Y             Z
Electronic contribution:      4.18256      -9.38758       0.11267
Nuclear contribution   :     -3.08754      10.54185      -0.04092
                        -----------------------------------------
Total Dipole Moment    :      1.09501       1.15428       0.07176
                        -----------------------------------------
Magnitude (a.u.)       :      1.59266
Magnitude (Debye)      :      4.04821

Rotational constants in cm-1:     0.158925     0.081210     0.079022
Rotational constants in MHz :  4764.450166  2434.603461  2369.014434

                             ****ORCA TERMINATED NORMALLY****
TOTAL RUN TIME: 0 days 0 hours 0 minutes 11 seconds 88 msec
