                         Program Version 5.0.0 -  RELEASE  -
|  1> !PBE0 D3BJ RIJCOSX def2-SVP def2/J TightSCF
|  2> *xyz 0 1
|  3> C         -0.46129        2.23469       -4.98962
|  4> C          0.84888        2.66797       -4.30235
|  5> C         -0.42384        2.39877       -6.47432
|  6> C         -0.95947        3.49265       -7.00740
|  7> N          0.14558        1.48689       -7.20399
|  8> H          0.56537        0.69681       -6.72386
|  9> H          0.22068        1.58177       -8.20752
| 10> H         -1.40624        4.18151       -6.40326
| 11> H         -0.93421        3.68160       -7.99947
| 12> H         -1.28888        2.82674       -4.59500
| 13> H         -0.65170        1.18634       -4.75655
| 14> H          1.66208        2.08894       -4.68750
| 15> H          0.76716        2.51042       -3.24717
| 16> H          1.02677        3.70527       -4.49537
| 17> *
| 18>
| 19> %MaxCore 64000
| 20>
| 21> %pal nprocs 4
| 22> end
| 23>
| 24> %scf
| 25>   MaxIter 150
| 26> end
| 27>
| 28>
| 29>                          ****END OF INPUT****

CARTESIAN COORDINATES (ANGSTROEM)
---------------------------------
  C     -0.461290    2.234690   -4.989620
  C      0.848880    2.667970   -4.302350
  C     -0.423840    2.398770   -6.474320
  C     -0.959470    3.492650   -7.007400
  N      0.145580    1.486890   -7.203990
  H      0.565370    0.696810   -6.723860
  H      0.220680    1.581770   -8.207520
  H     -1.406240    4.181510   -6.403260
  H     -0.934210    3.681600   -7.999470
  H     -1.288880    2.826740   -4.595000
  H     -0.651700    1.186340   -4.756550
  H      1.662080    2.088940   -4.687500
  H      0.767160    2.510420   -3.247170
  H      1.026770    3.705270   -4.495370

 Total Charge           Charge          ....    0
 Multiplicity           Mult            ....    1
 Number of Electrons    NEL             ....   40
 Basis Dimension        Dim             ....  115

ORBITAL ENERGIES
----------------

  NO   OCC          E(Eh)            E(eV)
   0   2.0000     -14.391591      -391.6151
   1   2.0000     -10.245404      -278.7916
   2   2.0000     -10.228734      -278.3380
   3   2.0000     -10.216991      -278.0184
   4   2.0000     -10.158556      -276.4284
   5   2.0000      -0.947886       -25.7933
   6   2.0000      -0.791470       -21.5370
   7   2.0000      -0.723582       -19.6897
   8   2.0000      -0.646366       -17.5885
   9   2.0000      -0.580087       -15.7850
  10   2.0000      -0.540068       -14.6960
  11   2.0000      -0.489979       -13.3330
  12   2.0000      -0.448571       -12.2062
  13   2.0000      -0.429529       -11.6881
  14   2.0000      -0.400797       -10.9062
  15   2.0000      -0.390013       -10.6128
  16   2.0000      -0.361611        -9.8399
  17   2.0000      -0.343473        -9.3464
  18   2.0000      -0.339617        -9.2415
  19   2.0000      -0.189712        -5.1623
  20   0.0000       0.055413         1.5079
  21   0.0000       0.073089         1.9889
  22   0.0000       0.105711         2.8766
  23   0.0000       0.113800         3.0966
  24   0.0000       0.128649         3.5007

MULLIKEN ATOMIC CHARGES
-----------------------
   0 C :   -0.030057
   1 C :   -0.021207
   2 C :   -0.144156
   3 C :   -0.072196
   4 N :   -0.090215
   5 H :    0.121038
   6 H :    0.128330
   7 H :   -0.017528
   8 H :   -0.032689
   9 H :    0.040260
  10 H :    0.021954
  11 H :    0.021634
  12 H :    0.036799
  13 H :    0.038034
Sum of atomic charges:   -0.0000000

LOEWDIN ATOMIC CHARGES
----------------------
   0 C :   -0.036962
   1 C :   -0.053635
   2 C :   -0.006062
   3 C :   -0.188265
   4 N :    0.002143
   5 H :    0.074042
   6 H :    0.081507
   7 H :    0.002750
   8 H :   -0.006912
   9 H :    0.038449
  10 H :    0.021357
  11 H :    0.019095
  12 H :    0.024642
  13 H :    0.027852

  Mayer bond orders larger than 0.100000
B(  0-C ,  1-C ) :   1.0822 B(  0-C ,  2-C ) :   1.0252 B(  0-C ,  9-H ) :   0.9373
B(  0-C , 10-H ) :   0.9351 B(  1-C , 11-H ) :   0.9714 B(  1-C , 12-H ) :   0.9704
B(  1-C , 13-H ) :   0.9710 B(  2-C ,  3-C ) :   1.8389 B(  2-C ,  4-N ) :   1.2813
B(  3-C ,  7-H ) :   0.9424 B(  3-C ,  8-H ) :   0.9574 B(  4-N ,  5-H ) :   0.9473
B(  4-N ,  6-H ) :   0.9455

Dispersion correction           -0.008838256
FINAL SINGLE POINT ENERGY      -212.155742271266

DIPOLE MOMENT
-------------
                                X             Y             Z
Electronic contribution:     -0.68236      -1.22847      -2.61253
Nuclear contribution   :      1.14741       0.51394       2.60761
                        -----------------------------------------
Total Dipole Moment    :      0.46505      -0.71453      -0.00492
                        -----------------------------------------
Magnitude (a.u.)       :      0.85255
Magnitude (Debye)      :      2.16702

Rotational constants in cm-1:     0.269157     0.129188     0.102123
Rotational constants in MHz :  8069.118715  3872.945231  3061.580645

                             ****ORCA TERMINATED NORMALLY****
TOTAL RUN TIME: 0 days 0 hours 0 minutes 12 seconds 85 msec
