                         Program Version 5.0.0 -  RELEASE  -
|  1> !PBE0 D3BJ RIJCOSX def2-SVP def2/J TightSCF
|  2> *xyz 0 1
|  3> C          0.84888        2.66797       -4.30235
|  4> C          2.09343        1.86104       -4.65684
|  5> H          2.44481        2.04157       -5.67499
|  6> H          2.90175        2.13786       -3.98034
|  7> S          1.87964        0.07859       -4.46297
|  8> O          3.20757       -0.46611       -4.42026
|  9> F          1.07506       -0.05616       -3.26876
| 10> O          1.13166       -0.31996       -5.67903
| 11> H          0.05064        2.40112       -4.96303
| 12> H          1.06043        3.71210       -4.40203
| 13> H          0.56237        2.45684       -3.29327
| 14> *
| 15>
| 16> %MaxCore 64000
| 17>
| 18> %pal nprocs 4
| 19> end
| 20>
| 21> %scf
| 22>   MaxIter 150
| 23> end
| 24>
| 25>
| 26>                          ****END OF INPUT****

CARTESIAN COORDINATES (ANGSTROEM)
---------------------------------
  C      0.848880    2.667970   -4.302350
  C      2.093430    1.861040   -4.656840
  H      2.444810    2.041570   -5.674990
  H      2.901750    2.137860   -3.980340
  S      1.879640    0.078590   -4.462970
  O      3.207570   -0.466110   -4.420260
  F      1.075060   -0.056160   -3.268760
  O      1.131660   -0.319960   -5.679030
  H      0.050640    2.401120   -4.963030
  H      1.060430    3.712100   -4.402030
  H      0.562370    2.456840   -3.293270

 Total Charge           Charge          ....    0
 Multiplicity           Mult            ....    1
 Number of Electrons    NEL             ....   58
 Basis Dimension        Dim             ....  113

ORBITAL ENERGIES
----------------

  NO   OCC          E(Eh)            E(eV)
   0   2.0000     -89.272684     -2429.2332
   1   2.0000     -24.887618      -677.2265
   2   2.0000     -19.217388      -522.9317
   3   2.0000     -19.200167      -522.4631
   4   2.0000     -10.287543      -279.9383
   5   2.0000     -10.254698      -279.0445
   6   2.0000      -8.241873      -224.2728
   7   2.0000      -6.187583      -168.3727
   8   2.0000      -6.181015      -168.1940
   9   2.0000      -6.179832      -168.1618
  10   2.0000      -1.400018       -38.0964
  11   2.0000      -1.130213       -30.7546
  12   2.0000      -1.022089       -27.8124
  13   2.0000      -0.841534       -22.8993
  14   2.0000      -0.746598       -20.3160
  15   2.0000      -0.692476       -18.8432
  16   2.0000      -0.612979       -16.6800
  17   2.0000      -0.598613       -16.2891
  18   2.0000      -0.556345       -15.1389
  19   2.0000      -0.506937       -13.7945
  20   2.0000      -0.488637       -13.2965
  21   2.0000      -0.461789       -12.5659
  22   2.0000      -0.447201       -12.1690
  23   2.0000      -0.423339       -11.5196
  24   2.0000      -0.405951       -11.0465
  25   2.0000      -0.390947       -10.6382
  26   2.0000      -0.340133        -9.2555
  27   2.0000      -0.323546        -8.8041
  28   2.0000      -0.311247        -8.4695
  29   0.0000       0.034864         0.9487
  30   0.0000       0.070317         1.9134
  31   0.0000       0.079185         2.1547
  32   0.0000       0.101116         2.7515
  33   0.0000       0.109406         2.9771

MULLIKEN ATOMIC CHARGES
-----------------------
   0 C :   -0.064748
   1 C :   -0.189072
   2 H :    0.116812
   3 H :    0.087647
   4 S :    0.965357
   5 O :   -0.431700
   6 F :   -0.182695
   7 O :   -0.486469
   8 H :    0.069328
   9 H :    0.063534
  10 H :    0.052005
Sum of atomic charges:    0.0000000

LOEWDIN ATOMIC CHARGES
----------------------
   0 C :   -0.073200
   1 C :   -0.157280
   2 H :    0.056080
   3 H :    0.036869
   4 S :    1.148439
   5 O :   -0.470256
   6 F :   -0.119597
   7 O :   -0.524876
   8 H :    0.035579
   9 H :    0.040414
  10 H :    0.027827

  Mayer bond orders larger than 0.100000
B(  0-C ,  1-C ) :   1.0430 B(  0-C ,  8-H ) :   0.9705 B(  0-C ,  9-H ) :   0.9631
B(  0-C , 10-H ) :   0.9726 B(  1-C ,  2-H ) :   0.9359 B(  1-C ,  3-H ) :   0.9340
B(  1-C ,  4-S ) :   0.9258 B(  4-S ,  5-O ) :   1.7908 B(  4-S ,  6-F ) :   1.0054
B(  4-S ,  7-O ) :   1.7342

Dispersion correction           -0.007876464
FINAL SINGLE POINT ENERGY      -726.752518216134

DIPOLE MOMENT
-------------
                                X             Y             Z
Electronic contribution:      0.57332      -8.67138       2.04221
Nuclear contribution   :     -0.86540      10.11467      -1.24082
                        -----------------------------------------
Total Dipole Moment    :     -0.29208       1.44330       0.80139
                        -----------------------------------------
Magnitude (a.u.)       :      1.67650
Magnitude (Debye)      :      4.26132

Rotational constants in cm-1:     0.154065     0.083345     0.080357
Rotational constants in MHz :  4618.752213  2498.631937  2409.037217

                             ****ORCA TERMINATED NORMALLY****
TOTAL RUN TIME: 0 days 0 hours 0 minutes 13 seconds 893 msec
