                         Program Version 5.0.0 -  RELEASE  -
|  1> !PBE0 D3BJ RIJCOSX def2-SVP def2/J TightSCF
|  2> *xyz 0 1
|  3> C         -0.46129        2.23469       -4.98962
|  4> C          0.84888        2.66797       -4.30235
|  5> C         -0.42384        2.39877       -6.47432
|  6> N         -0.95947        3.49265       -7.00740
|  7> C          0.14558        1.48689       -7.20399
|  8> H          0.56537        0.69681       -6.72386
|  9> H          0.22068        1.58177       -8.20752
| 10> H         -1.40624        4.18151       -6.40326
| 11> H         -0.93421        3.68160       -7.99947
| 12> H         -1.28888        2.82674       -4.59500
| 13> H         -0.65170        1.18634       -4.75655
| 14> H          1.66208        2.08894       -4.68750
| 15> H          0.76716        2.51042       -3.24717
| 16> H          1.02677        3.70527       -4.49537
| 17> *
| 18>
| 19> %MaxCore 64000
| 20>
| 21> %pal nprocs 4
| 22> end
| 23>
| 24> %scf
| 25>   MaxIter 150
| 26> end
| 27>
| 28>
| 29>                          ****END OF INPUT****

CARTESIAN COORDINATES (ANGSTROEM)
---------------------------------
  C     -0.461290    2.234690   -4.989620
  C      0.848880    2.667970   -4.302350
  C     -0.423840    2.398770   -6.474320
  N     -0.959470    3.492650   -7.007400
  C      0.145580    1.486890   -7.203990
  H      0.565370    0.696810   -6.723860
  H      0.220680    1.581770   -8.207520
  H     -1.406240    4.181510   -6.403260
  H     -0.934210    3.681600   -7.999470
  H     -1.288880    2.826740   -4.595000
  H     -0.651700    1.186340   -4.756550
  H      1.662080    2.088940   -4.687500
  H      0.767160    2.510420   -3.247170
  H      1.026770    3.705270   -4.495370

 Total Charge           Charge          ....    0
 Multiplicity           Mult            ....    1
 Number of Electrons    NEL             ....   40
 Basis Dimension        Dim             ....  115

ORBITAL ENERGIES
----------------

  NO   OCC          E(Eh)            E(eV)
   0   2.0000     -14.387695      -391.5091
   1   2.0000     -10.243319      -278.7349
   2   2.0000     -10.228502      -278.3317
   3   2.0000     -10.215465      -277.9769
   4   2.0000     -10.157315      -276.3946
   5   2.0000      -0.934879       -25.4394
   6   2.0000      -0.792857       -21.5747
   7   2.0000      -0.727569       -19.7982
   8   2.0000      -0.647316       -17.6144
   9   2.0000      -0.574203       -15.6249
  10   2.0000      -0.529858       -14.4182
  11   2.0000      -0.492108       -13.3909
  12   2.0000      -0.449873       -12.2417
  13   2.0000      -0.424523       -11.5518
  14   2.0000      -0.401455       -10.9241
  15   2.0000      -0.391431       -10.6514
  16   2.0000      -0.359081        -9.7711
  17   2.0000      -0.346075        -9.4172
  18   2.0000      -0.335359        -9.1256
  19   2.0000      -0.193695        -5.2707
  20   0.0000       0.057478         1.5641
  21   0.0000       0.074468         2.0264
  22   0.0000       0.106242         2.8910
  23   0.0000       0.111864         3.0440
  24   0.0000       0.131867         3.5883

MULLIKEN ATOMIC CHARGES
-----------------------
   0 C :   -0.028313
   1 C :   -0.022808
   2 C :   -0.113900
   3 N :   -0.135728
   4 C :   -0.053828
   5 H :   -0.019581
   6 H :   -0.031749
   7 H :    0.120926
   8 H :    0.123613
   9 H :    0.014091
  10 H :    0.046344
  11 H :    0.037627
  12 H :    0.034604
  13 H :    0.028703
Sum of atomic charges:   -0.0000000

LOEWDIN ATOMIC CHARGES
----------------------
   0 C :   -0.036946
   1 C :   -0.051295
   2 C :    0.000207
   3 N :   -0.018527
   4 C :   -0.174580
   5 H :    0.004113
   6 H :   -0.003320
   7 H :    0.072541
   8 H :    0.076511
   9 H :    0.020275
  10 H :    0.038161
  11 H :    0.026598
  12 H :    0.023374
  13 H :    0.022889

  Mayer bond orders larger than 0.100000
B(  0-C ,  1-C ) :   1.0875 B(  0-C ,  2-C ) :   1.0126 B(  0-C ,  9-H ) :   0.9373
B(  0-C , 10-H ) :   0.9394 B(  1-C , 11-H ) :   0.9735 B(  1-C , 12-H ) :   0.9702
B(  1-C , 13-H ) :   0.9701 B(  2-C ,  3-N ) :   1.2444 B(  2-C ,  4-C ) :   1.8738
B(  3-N ,  7-H ) :   0.9497 B(  3-N ,  8-H ) :   0.9503 B(  4-C ,  5-H ) :   0.9349
B(  4-C ,  6-H ) :   0.9555

Dispersion correction           -0.008843506
FINAL SINGLE POINT ENERGY      -212.155234914012

DIPOLE MOMENT
-------------
                                X             Y             Z
Electronic contribution:     -1.73465       0.64828      -2.42109
Nuclear contribution   :      1.40335       0.04939       2.56207
                        -----------------------------------------
Total Dipole Moment    :     -0.33130       0.69767       0.14098
                        -----------------------------------------
Magnitude (a.u.)       :      0.78509
Magnitude (Debye)      :      1.99555

Rotational constants in cm-1:     0.271383     0.128194     0.101873
Rotational constants in MHz :  8135.853259  3843.152748  3054.074278

                             ****ORCA TERMINATED NORMALLY****
TOTAL RUN TIME: 0 days 0 hours 0 minutes 14 seconds 620 msec
