                         Program Version 5.0.0 -  RELEASE  -
|  1> !PBE0 D3BJ RIJCOSX def2-SVP def2/J TightSCF
|  2> *xyz 0 1
|  3> C          0.84888        2.66797       -4.30235
|  4> C          2.09343        1.86104       -4.65684
|  5> H          2.44481        2.04157       -5.67499
|  6> H          2.90175        2.13786       -3.98034
|  7> S          1.87964        0.07859       -4.46297
|  8> O          3.20757       -0.46611       -4.42026
|  9> O          1.07506       -0.05616       -3.26876
| 10> F          1.13166       -0.31996       -5.67903
| 11> H          0.05064        2.40112       -4.96303
| 12> H          1.06043        3.71210       -4.40203
| 13> H          0.56237        2.45684       -3.29327
| 14> *
| 15>
| 16> %MaxCore 64000
| 17>
| 18> %pal nprocs 4
| 19> end
| 20>
| 21> %scf
| 22>   MaxIter 150
| 23> end
| 24>
| 25>
| 26>                          ****END OF INPUT****

CARTESIAN COORDINATES (ANGSTROEM)
---------------------------------
  C      0.848880    2.667970   -4.302350
  C      2.093430    1.861040   -4.656840
  H      2.444810    2.041570   -5.674990
  H      2.901750    2.137860   -3.980340
  S      1.879640    0.078590   -4.462970
  O      3.207570   -0.466110   -4.420260
  O      1.075060   -0.056160   -3.268760
  F      1.131660   -0.319960   -5.679030
  H      0.050640    2.401120   -4.963030
  H      1.060430    3.712100   -4.402030
  H      0.562370    2.456840   -3.293270

 Total Charge           Charge          ....    0
 Multiplicity           Mult            ....    1
 Number of Electrons    NEL             ....   58
 Basis Dimension        Dim             ....  113

ORBITAL ENERGIES
----------------

  NO   OCC          E(Eh)            E(eV)
   0   2.0000     -89.271895     -2429.2118
   1   2.0000     -24.868247      -676.6994
   2   2.0000     -19.217624      -522.9381
   3   2.0000     -19.214936      -522.8650
   4   2.0000     -10.286789      -279.9178
   5   2.0000     -10.248969      -278.8886
   6   2.0000      -8.240962      -224.2480
   7   2.0000      -6.186361      -168.3394
   8   2.0000      -6.180416      -168.1777
   9   2.0000      -6.179146      -168.1431
  10   2.0000      -1.368190       -37.2303
  11   2.0000      -1.139497       -31.0073
  12   2.0000      -1.043247       -28.3882
  13   2.0000      -0.837390       -22.7865
  14   2.0000      -0.735175       -20.0051
  15   2.0000      -0.683597       -18.6016
  16   2.0000      -0.593028       -16.1371
  17   2.0000      -0.576250       -15.6806
  18   2.0000      -0.558500       -15.1975
  19   2.0000      -0.505637       -13.7591
  20   2.0000      -0.491011       -13.3611
  21   2.0000      -0.466187       -12.6856
  22   2.0000      -0.442882       -12.0514
  23   2.0000      -0.415374       -11.3029
  24   2.0000      -0.411075       -11.1859
  25   2.0000      -0.390871       -10.6361
  26   2.0000      -0.347217        -9.4483
  27   2.0000      -0.336464        -9.1556
  28   2.0000      -0.326635        -8.8882
  29   0.0000       0.040304         1.0967
  30   0.0000       0.066926         1.8212
  31   0.0000       0.082830         2.2539
  32   0.0000       0.098851         2.6899
  33   0.0000       0.108602         2.9552

MULLIKEN ATOMIC CHARGES
-----------------------
   0 C :   -0.053491
   1 C :   -0.199441
   2 H :    0.088056
   3 H :    0.109818
   4 S :    0.976693
   5 O :   -0.437410
   6 O :   -0.452440
   7 F :   -0.217929
   8 H :    0.052057
   9 H :    0.057087
  10 H :    0.077002
Sum of atomic charges:    0.0000000

LOEWDIN ATOMIC CHARGES
----------------------
   0 C :   -0.069318
   1 C :   -0.162490
   2 H :    0.037065
   3 H :    0.052572
   4 S :    1.153449
   5 O :   -0.474186
   6 O :   -0.483938
   7 F :   -0.159137
   8 H :    0.030200
   9 H :    0.037734
  10 H :    0.038048

  Mayer bond orders larger than 0.100000
B(  0-C ,  1-C ) :   1.0479 B(  0-C ,  8-H ) :   0.9744 B(  0-C ,  9-H ) :   0.9617
B(  0-C , 10-H ) :   0.9663 B(  1-C ,  2-H ) :   0.9346 B(  1-C ,  3-H ) :   0.9362
B(  1-C ,  4-S ) :   0.9180 B(  4-S ,  5-O ) :   1.7951 B(  4-S ,  6-O ) :   1.7711
B(  4-S ,  7-F ) :   0.9690

Dispersion correction           -0.007896858
FINAL SINGLE POINT ENERGY      -726.769699704244

DIPOLE MOMENT
-------------
                                X             Y             Z
Electronic contribution:      0.66280      -9.14617      -2.04022
Nuclear contribution   :     -0.92438      10.38956       1.27076
                        -----------------------------------------
Total Dipole Moment    :     -0.26158       1.24339      -0.76946
                        -----------------------------------------
Magnitude (a.u.)       :      1.48543
Magnitude (Debye)      :      3.77567

Rotational constants in cm-1:     0.154243     0.082247     0.080562
Rotational constants in MHz :  4624.087322  2465.703680  2415.175852

                             ****ORCA TERMINATED NORMALLY****
TOTAL RUN TIME: 0 days 0 hours 0 minutes 12 seconds 827 msec
