                         Program Version 5.0.0 -  RELEASE  -
|  1> !PBE0 D3BJ RIJCOSX def2-TZVP def2/J TightSCF xyzfile
|  2>
|  3> *xyzfile 0 1 D2.xyz
|  4>
|  5> %MaxCore 64000
|  6>
|  7> %pal nprocs 18
|  8> end
|  9>
| 10> %scf
| 11>   MaxIter 150
| 12> end
| 13>
| 14>
| 15>                          ****END OF INPUT****

CARTESIAN COORDINATES (ANGSTROEM)
---------------------------------
  C     -0.461293    2.234686   -4.989619
  C      0.848883    2.667967   -4.302351
  C      2.093434    1.861037   -4.656845
  H      2.444814    2.041567   -5.674990
  H      2.901748    2.137864   -3.980338
  S      1.879644    0.078594   -4.462965
  C     -0.423841    2.398772   -6.474317
  N     -0.959467    3.492647   -7.007401
  C      0.145585    1.486891   -7.203987
  H      0.565371    0.696807   -6.723858
  H      0.220682    1.581768   -8.207520
  H     -1.406243    4.181507   -6.403261
  H     -0.934215    3.681601   -7.999468
  F      3.207574   -0.466111   -4.420259
  O      1.075064   -0.056160   -3.268758
  O      1.131661   -0.319960   -5.679031
  H      0.668432    2.559427   -3.232850
  H      1.034074    3.729426   -4.497081
  H     -1.288884    2.826737   -4.594997
  H     -0.651696    1.186343   -4.756552

 Total Charge           Charge          ....    0
 Multiplicity           Mult            ....    1
 Number of Electrons    NEL             ....   88
 Basis Dimension        Dim             ....  376

ORBITAL ENERGIES
----------------

  NO   OCC          E(Eh)            E(eV)
   0   2.0000     -89.262665     -2428.9606
   1   2.0000     -24.896828      -677.4771
   2   2.0000     -19.219230      -522.9818
   3   2.0000     -19.208721      -522.6959
   4   2.0000     -14.375011      -391.1639
   5   2.0000     -10.275066      -279.5988
   6   2.0000     -10.246267      -278.8151
   7   2.0000     -10.228457      -278.3305
   8   2.0000     -10.221569      -278.1430
   9   2.0000     -10.124875      -275.5119
  10   2.0000      -8.209062      -223.3799
  11   2.0000      -6.149263      -167.3299
  12   2.0000      -6.143135      -167.1632
  13   2.0000      -6.142905      -167.1570
  14   2.0000      -1.422982       -38.7213
  15   2.0000      -1.135861       -30.9084
  16   2.0000      -1.039050       -28.2740
  17   2.0000      -0.944028       -25.6883
  18   2.0000      -0.849874       -23.1263
  19   2.0000      -0.789092       -21.4723
  20   2.0000      -0.746162       -20.3041
  21   2.0000      -0.720349       -19.6017
  22   2.0000      -0.656052       -17.8521
  23   2.0000      -0.612689       -16.6721
  24   2.0000      -0.605677       -16.4813
  25   2.0000      -0.578479       -15.7412
  26   2.0000      -0.576931       -15.6991
  27   2.0000      -0.528086       -14.3699
  28   2.0000      -0.509196       -13.8559
  29   2.0000      -0.499528       -13.5929
  30   2.0000      -0.485841       -13.2204
  31   2.0000      -0.470855       -12.8126
  32   2.0000      -0.453159       -12.3311
  33   2.0000      -0.417907       -11.3718
  34   2.0000      -0.411758       -11.2045
  35   2.0000      -0.399973       -10.8838
  36   2.0000      -0.385415       -10.4877
  37   2.0000      -0.372149       -10.1267
  38   2.0000      -0.349143        -9.5007
  39   2.0000      -0.348192        -9.4748
  40   2.0000      -0.332324        -9.0430
  41   2.0000      -0.327416        -8.9095
  42   2.0000      -0.305989        -8.3264
  43   2.0000      -0.191750        -5.2178
  44   0.0000       0.028686         0.7806
  45   0.0000       0.032601         0.8871
  46   0.0000       0.055376         1.5069
  47   0.0000       0.056475         1.5368
  48   0.0000       0.070667         1.9230

MULLIKEN ATOMIC CHARGES
-----------------------
   0 C :   -0.293310
   1 C :   -0.155512
   2 C :   -0.326190
   3 H :    0.175305
   4 H :    0.146396
   5 S :    0.827230
   6 C :    0.191925
   7 N :   -0.474659
   8 C :   -0.467981
   9 H :    0.191492
  10 H :    0.081017
  11 H :    0.225238
  12 H :    0.231858
  13 F :   -0.084684
  14 O :   -0.396442
  15 O :   -0.407371
  16 H :    0.130053
  17 H :    0.118646
  18 H :    0.103414
  19 H :    0.183575
Sum of atomic charges:    0.0000000

LOEWDIN ATOMIC CHARGES
----------------------
   0 C :   -0.218374
   1 C :   -0.269116
   2 C :   -0.371293
   3 H :    0.146559
   4 H :    0.137712
   5 S :    0.529649
   6 C :   -0.383068
   7 N :   -0.015684
   8 C :   -0.262589
   9 H :    0.092134
  10 H :    0.096252
  11 H :    0.165975
  12 H :    0.168155
  13 F :    0.108848
  14 O :   -0.255551
  15 O :   -0.263074
  16 H :    0.147654
  17 H :    0.147194
  18 H :    0.140037
  19 H :    0.158579

  Mayer bond orders larger than 0.100000
B(  0-C ,  1-C ) :   0.9813 B(  0-C ,  6-C ) :   0.9484 B(  0-C , 18-H ) :   0.9591
B(  0-C , 19-H ) :   0.9822 B(  1-C ,  2-C ) :   1.0198 B(  1-C , 16-H ) :   0.9504
B(  1-C , 17-H ) :   0.9334 B(  2-C ,  3-H ) :   0.9246 B(  2-C ,  4-H ) :   0.9328
B(  2-C ,  5-S ) :   0.9338 B(  5-S , 13-F ) :   1.1613 B(  5-S , 14-O ) :   1.9160
B(  5-S , 15-O ) :   1.8183 B(  6-C ,  7-N ) :   1.1409 B(  6-C ,  8-C ) :   1.7791
B(  7-N , 11-H ) :   0.9174 B(  7-N , 12-H ) :   0.9141 B(  8-C ,  9-H ) :   0.9438
B(  8-C , 10-H ) :   0.9809

Dispersion correction           -0.019997319
FINAL SINGLE POINT ENERGY      -899.245532400428

DIPOLE MOMENT
-------------
                                X             Y             Z
Electronic contribution:      9.24059     -12.45026       5.39790
Nuclear contribution   :     -8.42493      13.96425      -5.19491
                        -----------------------------------------
Total Dipole Moment    :      0.81566       1.51400       0.20299
                        -----------------------------------------
Magnitude (a.u.)       :      1.73167
Magnitude (Debye)      :      4.40156

Rotational constants in cm-1:     0.082815     0.024151     0.022015
Rotational constants in MHz :  2482.732265   724.035221   660.002136

                             ****ORCA TERMINATED NORMALLY****
TOTAL RUN TIME: 0 days 0 hours 0 minutes 28 seconds 108 msec
