                         Program Version 5.0.0 -  RELEASE  -
|  1> !PBE0 D3BJ RIJCOSX def2-TZVP def2/J TightSCF xyzfile
|  2>
|  3> *xyzfile 0 1 D3.xyz
|  4>
|  5> %MaxCore 64000
|  6>
|  7> %pal nprocs 18
|  8> end
|  9>
| 10> %scf
| 11>   MaxIter 150
| 12> end
| 13>
| 14>
| 15>                          ****END OF INPUT****

CARTESIAN COORDINATES (ANGSTROEM)
---------------------------------
  C     -0.461293    2.234686   -4.989619
  C      0.848883    2.667967   -4.302351
  C      2.093434    1.861037   -4.656845
  H      2.444814    2.041567   -5.674990
  H      2.901748    2.137864   -3.980338
  S      1.879644    0.078594   -4.462965
  C     -0.423841    2.398772   -6.474317
  C     -0.959467    3.492647   -7.007401
  N      0.145585    1.486891   -7.203987
  H      0.565371    0.696807   -6.723858
  H      0.220682    1.581768   -8.207520
  H     -1.406243    4.181507   -6.403261
  H     -0.934215    3.681601   -7.999468
  O      3.207574   -0.466111   -4.420259
  F      1.075064   -0.056160   -3.268758
  O      1.131661   -0.319960   -5.679031
  H      0.668432    2.559427   -3.232850
  H      1.034074    3.729426   -4.497081
  H     -1.288884    2.826737   -4.594997
  H     -0.651696    1.186343   -4.756552

 Total Charge           Charge          ....    0
 Multiplicity           Mult            ....    1
 Number of Electrons    NEL             ....   88
 Basis Dimension        Dim             ....  376

ORBITAL ENERGIES
----------------

  NO   OCC          E(Eh)            E(eV)
   0   2.0000     -89.280249     -2429.4391
   1   2.0000     -24.906670      -677.7449
   2   2.0000     -19.238025      -523.4933
   3   2.0000     -19.231119      -523.3054
   4   2.0000     -14.358719      -390.7206
   5   2.0000     -10.286131      -279.8999
   6   2.0000     -10.254560      -279.0408
   7   2.0000     -10.237835      -278.5857
   8   2.0000     -10.232360      -278.4367
   9   2.0000     -10.146560      -276.1019
  10   2.0000      -8.226559      -223.8560
  11   2.0000      -6.166886      -167.8095
  12   2.0000      -6.160825      -167.6446
  13   2.0000      -6.160126      -167.6256
  14   2.0000      -1.429579       -38.9008
  15   2.0000      -1.156780       -31.4776
  16   2.0000      -1.062633       -28.9157
  17   2.0000      -0.950012       -25.8511
  18   2.0000      -0.863562       -23.4987
  19   2.0000      -0.791129       -21.5277
  20   2.0000      -0.759020       -20.6540
  21   2.0000      -0.719387       -19.5755
  22   2.0000      -0.665503       -18.1093
  23   2.0000      -0.625626       -17.0241
  24   2.0000      -0.622706       -16.9447
  25   2.0000      -0.592236       -16.1156
  26   2.0000      -0.579944       -15.7811
  27   2.0000      -0.535553       -14.5731
  28   2.0000      -0.515624       -14.0309
  29   2.0000      -0.509253       -13.8575
  30   2.0000      -0.490042       -13.3347
  31   2.0000      -0.475080       -12.9276
  32   2.0000      -0.467242       -12.7143
  33   2.0000      -0.434946       -11.8355
  34   2.0000      -0.418456       -11.3868
  35   2.0000      -0.411926       -11.2091
  36   2.0000      -0.396022       -10.7763
  37   2.0000      -0.391435       -10.6515
  38   2.0000      -0.361743        -9.8435
  39   2.0000      -0.358080        -9.7438
  40   2.0000      -0.352166        -9.5829
  41   2.0000      -0.341500        -9.2927
  42   2.0000      -0.334071        -9.0905
  43   2.0000      -0.190438        -5.1821
  44   0.0000       0.008903         0.2423
  45   0.0000       0.039373         1.0714
  46   0.0000       0.048567         1.3216
  47   0.0000       0.050674         1.3789
  48   0.0000       0.065511         1.7827

MULLIKEN ATOMIC CHARGES
-----------------------
   0 C :   -0.296141
   1 C :   -0.193767
   2 C :   -0.315815
   3 H :    0.182086
   4 H :    0.162208
   5 S :    0.858646
   6 C :    0.196863
   7 C :   -0.450238
   8 N :   -0.448326
   9 H :    0.272229
  10 H :    0.220669
  11 H :    0.100450
  12 H :    0.094626
  13 O :   -0.384238
  14 F :   -0.082520
  15 O :   -0.446603
  16 H :    0.122793
  17 H :    0.130036
  18 H :    0.134194
  19 H :    0.142848
Sum of atomic charges:    0.0000000

LOEWDIN ATOMIC CHARGES
----------------------
   0 C :   -0.223145
   1 C :   -0.280644
   2 C :   -0.363068
   3 H :    0.154842
   4 H :    0.144659
   5 S :    0.544221
   6 C :   -0.384367
   7 C :   -0.292244
   8 N :    0.018224
   9 H :    0.138361
  10 H :    0.170431
  11 H :    0.103962
  12 H :    0.095428
  13 O :   -0.239010
  14 F :    0.108440
  15 O :   -0.282354
  16 H :    0.140349
  17 H :    0.151487
  18 H :    0.155242
  19 H :    0.139184

  Mayer bond orders larger than 0.100000
B(  0-C ,  1-C ) :   0.9618 B(  0-C ,  6-C ) :   0.9356 B(  0-C , 18-H ) :   0.9614
B(  0-C , 19-H ) :   0.9876 B(  1-C ,  2-C ) :   1.0098 B(  1-C , 16-H ) :   0.9594
B(  1-C , 17-H ) :   0.9315 B(  2-C ,  3-H ) :   0.9240 B(  2-C ,  4-H ) :   0.9381
B(  2-C ,  5-S ) :   0.9328 B(  5-S , 13-O ) :   1.9929 B(  5-S , 14-F ) :   1.1472
B(  5-S , 15-O ) :   1.7490 B(  6-C ,  7-C ) :   1.7495 B(  6-C ,  8-N ) :   1.2586
B(  7-C , 11-H ) :   0.9796 B(  7-C , 12-H ) :   0.9842 B(  8-N ,  9-H ) :   0.8385
B(  8-N , 10-H ) :   0.9148 B(  9-H , 15-O ) :   0.1080

Dispersion correction           -0.019757934
FINAL SINGLE POINT ENERGY      -899.269423864446

DIPOLE MOMENT
-------------
                                X             Y             Z
Electronic contribution:      6.48917     -13.20471       7.37120
Nuclear contribution   :     -6.19944      13.70770      -6.43483
                        -----------------------------------------
Total Dipole Moment    :      0.28974       0.50298       0.93637
                        -----------------------------------------
Magnitude (a.u.)       :      1.10169
Magnitude (Debye)      :      2.80028

Rotational constants in cm-1:     0.079903     0.025241     0.022805
Rotational constants in MHz :  2395.439281   756.708181   683.680583

                             ****ORCA TERMINATED NORMALLY****
TOTAL RUN TIME: 0 days 0 hours 0 minutes 31 seconds 819 msec
