                         Program Version 5.0.0 -  RELEASE  -
|  1> !PBE0 D3BJ RIJCOSX def2-TZVP def2/J TightSCF xyzfile
|  2>
|  3> *xyzfile 0 1 D5.xyz
|  4>
|  5> %MaxCore 64000
|  6>
|  7> %pal nprocs 18
|  8> end
|  9>
| 10> %scf
| 11>   MaxIter 150
| 12> end
| 13>
| 14>
| 15>                          ****END OF INPUT****

CARTESIAN COORDINATES (ANGSTROEM)
---------------------------------
  C     -0.461293    2.234686   -4.989619
  C      0.848883    2.667967   -4.302351
  C      2.093434    1.861037   -4.656845
  H      2.444814    2.041567   -5.674990
  H      2.901748    2.137864   -3.980338
  S      1.879644    0.078594   -4.462965
  C     -0.423841    2.398772   -6.474317
  C     -0.959467    3.492647   -7.007401
  N      0.145585    1.486891   -7.203987
  H      0.565371    0.696807   -6.723858
  H      0.220682    1.581768   -8.207520
  H     -1.406243    4.181507   -6.403261
  H     -0.934215    3.681601   -7.999468
  O      3.207574   -0.466111   -4.420259
  O      1.075064   -0.056160   -3.268758
  F      1.131661   -0.319960   -5.679031
  H      0.668432    2.559427   -3.232850
  H      1.034074    3.729426   -4.497081
  H     -1.288884    2.826737   -4.594997
  H     -0.651696    1.186343   -4.756552

 Total Charge           Charge          ....    0
 Multiplicity           Mult            ....    1
 Number of Electrons    NEL             ....   88
 Basis Dimension        Dim             ....  376

ORBITAL ENERGIES
----------------

  NO   OCC          E(Eh)            E(eV)
   0   2.0000     -89.270763     -2429.1810
   1   2.0000     -24.898452      -677.5213
   2   2.0000     -19.232868      -523.3529
   3   2.0000     -19.229265      -523.2549
   4   2.0000     -14.386565      -391.4783
   5   2.0000     -10.283142      -279.8185
   6   2.0000     -10.249613      -278.9062
   7   2.0000     -10.249600      -278.9058
   8   2.0000     -10.235680      -278.5270
   9   2.0000     -10.158762      -276.4340
  10   2.0000      -8.217525      -223.6102
  11   2.0000      -6.158245      -167.5744
  12   2.0000      -6.151492      -167.3906
  13   2.0000      -6.150881      -167.3740
  14   2.0000      -1.413677       -38.4681
  15   2.0000      -1.157576       -31.4992
  16   2.0000      -1.065193       -28.9854
  17   2.0000      -0.972471       -26.4623
  18   2.0000      -0.859799       -23.3963
  19   2.0000      -0.793679       -21.5971
  20   2.0000      -0.768635       -20.9156
  21   2.0000      -0.720720       -19.6118
  22   2.0000      -0.675496       -18.3812
  23   2.0000      -0.623861       -16.9761
  24   2.0000      -0.609728       -16.5915
  25   2.0000      -0.592168       -16.1137
  26   2.0000      -0.573940       -15.6177
  27   2.0000      -0.550853       -14.9895
  28   2.0000      -0.518343       -14.1048
  29   2.0000      -0.502436       -13.6720
  30   2.0000      -0.490409       -13.3447
  31   2.0000      -0.484749       -13.1907
  32   2.0000      -0.463298       -12.6070
  33   2.0000      -0.437309       -11.8998
  34   2.0000      -0.419177       -11.4064
  35   2.0000      -0.410074       -11.1587
  36   2.0000      -0.402092       -10.9415
  37   2.0000      -0.390794       -10.6340
  38   2.0000      -0.366327        -9.9683
  39   2.0000      -0.363544        -9.8925
  40   2.0000      -0.353803        -9.6275
  41   2.0000      -0.348099        -9.4723
  42   2.0000      -0.343166        -9.3380
  43   2.0000      -0.205837        -5.6011
  44   0.0000       0.013876         0.3776
  45   0.0000       0.040659         1.1064
  46   0.0000       0.042051         1.1443
  47   0.0000       0.050225         1.3667
  48   0.0000       0.060287         1.6405

MULLIKEN ATOMIC CHARGES
-----------------------
   0 C :   -0.322053
   1 C :   -0.137635
   2 C :   -0.348446
   3 H :    0.168006
   4 H :    0.172885
   5 S :    0.838032
   6 C :    0.195992
   7 C :   -0.435076
   8 N :   -0.451523
   9 H :    0.242767
  10 H :    0.232100
  11 H :    0.107017
  12 H :    0.097118
  13 O :   -0.394861
  14 O :   -0.393752
  15 F :   -0.122556
  16 H :    0.133606
  17 H :    0.124879
  18 H :    0.137577
  19 H :    0.155922
Sum of atomic charges:    0.0000000

LOEWDIN ATOMIC CHARGES
----------------------
   0 C :   -0.220980
   1 C :   -0.274115
   2 C :   -0.368527
   3 H :    0.141749
   4 H :    0.153533
   5 S :    0.533233
   6 C :   -0.385350
   7 C :   -0.277594
   8 N :    0.009819
   9 H :    0.142213
  10 H :    0.175013
  11 H :    0.107032
  12 H :    0.096235
  13 O :   -0.245760
  14 O :   -0.249924
  15 F :    0.066205
  16 H :    0.148973
  17 H :    0.149414
  18 H :    0.157632
  19 H :    0.141200

  Mayer bond orders larger than 0.100000
B(  0-C ,  1-C ) :   0.9703 B(  0-C ,  6-C ) :   0.9398 B(  0-C , 18-H ) :   0.9609
B(  0-C , 19-H ) :   0.9832 B(  1-C ,  2-C ) :   1.0031 B(  1-C , 16-H ) :   0.9481
B(  1-C , 17-H ) :   0.9295 B(  2-C ,  3-H ) :   0.9302 B(  2-C ,  4-H ) :   0.9352
B(  2-C ,  5-S ) :   0.9226 B(  5-S , 13-O ) :   1.9833 B(  5-S , 14-O ) :   1.9184
B(  5-S , 15-F ) :   1.0337 B(  6-C ,  7-C ) :   1.7677 B(  6-C ,  8-N ) :   1.2144
B(  7-C , 11-H ) :   0.9801 B(  7-C , 12-H ) :   0.9812 B(  8-N ,  9-H ) :   0.8858
B(  8-N , 10-H ) :   0.9099

Dispersion correction           -0.019667590
FINAL SINGLE POINT ENERGY      -899.272069901023

DIPOLE MOMENT
-------------
                                X             Y             Z
Electronic contribution:      6.44057     -13.47224       3.15586
Nuclear contribution   :     -6.26130      13.99605      -3.80018
                        -----------------------------------------
Total Dipole Moment    :      0.17926       0.52381      -0.64432
                        -----------------------------------------
Magnitude (a.u.)       :      0.84951
Magnitude (Debye)      :      2.15927

Rotational constants in cm-1:     0.079895     0.025630     0.022948
Rotational constants in MHz :  2395.188639   768.373696   687.955250

                             ****ORCA TERMINATED NORMALLY****
TOTAL RUN TIME: 0 days 0 hours 0 minutes 27 seconds 577 msec
