                         Program Version 5.0.0 -  RELEASE  -
|  1> !CAM-B3LYP RIJCOSX def2-SVPD def2/J TightSCF
|  2> *xyz -1 1
|  3> C          4.08422        1.74208       -2.11472
|  4> C          4.26524        2.50052       -0.79589
|  5> H          4.86853        3.39267       -0.98113
|  6> H          3.30764        2.82457       -0.38781
|  7> C          4.98224        1.65026        0.24742
|  8> O          4.36806        1.38927        1.31371
|  9> O          6.12892        1.23351       -0.04562
| 10> H          3.57911        2.36849       -2.81997
| 11> H          3.50424        0.85965       -1.94198
| 12> H          5.04288        1.46841       -2.50327
| 13> *
| 14> %MaxCore 64000
| 15> %pal nprocs 8
| 16> end
| 17> %scf
| 18>   MaxIter 150
| 19> end
| 20>
| 21>
| 22>                          ****END OF INPUT****

CARTESIAN COORDINATES (ANGSTROEM)
---------------------------------
  C      4.084220    1.742080   -2.114720
  C      4.265240    2.500520   -0.795890
  H      4.868530    3.392670   -0.981130
  H      3.307640    2.824570   -0.387810
  C      4.982240    1.650260    0.247420
  O      4.368060    1.389270    1.313710
  O      6.128920    1.233510   -0.045620
  H      3.579110    2.368490   -2.819970
  H      3.504240    0.859650   -1.941980
  H      5.042880    1.468410   -2.503270

 Total Charge           Charge          ....   -1
 Multiplicity           Mult            ....    1
 Number of Electrons    NEL             ....   40
 Basis Dimension        Dim             ....  146

ORBITAL ENERGIES
----------------

  NO   OCC          E(Eh)            E(eV)
   0   2.0000     -18.952052      -515.7115
   1   2.0000     -18.952012      -515.7105
   2   2.0000     -10.147631      -276.1311
   3   2.0000     -10.098547      -274.7954
   4   2.0000     -10.085921      -274.4519
   5   2.0000      -0.895220       -24.3602
   6   2.0000      -0.799169       -21.7465
   7   2.0000      -0.684270       -18.6199
   8   2.0000      -0.549467       -14.9518
   9   2.0000      -0.393796       -10.7157
  10   2.0000      -0.365045        -9.9334
  11   2.0000      -0.329683        -8.9711
  12   2.0000      -0.302594        -8.2340
  13   2.0000      -0.284721        -7.7477
  14   2.0000      -0.279389        -7.6026
  15   2.0000      -0.247729        -6.7410
  16   2.0000      -0.232368        -6.3230
  17   2.0000      -0.114823        -3.1245
  18   2.0000      -0.110393        -3.0039
  19   2.0000      -0.097187        -2.6446
  20   0.0000       0.183170         4.9843
  21   0.0000       0.216147         5.8817
  22   0.0000       0.230582         6.2745
  23   0.0000       0.250184         6.8078
  24   0.0000       0.276166         7.5149

MULLIKEN ATOMIC CHARGES
-----------------------
   0 C :    0.727682
   1 C :   -0.112825
   2 H :   -0.070149
   3 H :   -0.131822
   4 C :    0.364572
   5 O :   -0.669811
   6 O :   -0.696433
   7 H :   -0.157359
   8 H :   -0.150589
   9 H :   -0.103266
Sum of atomic charges:   -1.0000000

LOEWDIN ATOMIC CHARGES
----------------------
   0 C :    0.103406
   1 C :   -0.039816
   2 H :    0.008766
   3 H :   -0.000166
   4 C :   -0.317761
   5 O :   -0.333580
   6 O :   -0.326547
   7 H :   -0.043898
   8 H :   -0.022495
   9 H :   -0.027909

  Mayer bond orders larger than 0.100000
B(  0-C ,  1-C ) :   1.2616 B(  0-C ,  7-H ) :   0.8120 B(  0-C ,  8-H ) :   0.8193
B(  0-C ,  9-H ) :   0.8026 B(  1-C ,  2-H ) :   0.8635 B(  1-C ,  3-H ) :   0.9469
B(  1-C ,  4-C ) :   1.0210 B(  1-C ,  7-H ) :   0.1731 B(  1-C ,  8-H ) :   0.1818
B(  1-C ,  9-H ) :   0.2022 B(  3-H ,  4-C ) :   0.1947 B(  4-C ,  5-O ) :   1.4911
B(  4-C ,  6-O ) :   1.5239

FINAL SINGLE POINT ENERGY      -267.545169950863

DIPOLE MOMENT
-------------
                                X             Y             Z
Electronic contribution:      2.39888      -1.42816       5.04540
Nuclear contribution   :     -3.31311       2.28398      -6.76358
                        -----------------------------------------
Total Dipole Moment    :     -0.91424       0.85582      -1.71818
                        -----------------------------------------
Magnitude (a.u.)       :      2.12612
Magnitude (Debye)      :      5.40418

Rotational constants in cm-1:     0.309287     0.135287     0.107346
Rotational constants in MHz :  9272.201029  4055.789113  3218.155789

                             ****ORCA TERMINATED NORMALLY****
TOTAL RUN TIME: 0 days 0 hours 0 minutes 19 seconds 559 msec
