                         Program Version 5.0.0 -  RELEASE  -
|  1> !CAM-B3LYP RIJCOSX def2-SVPD def2/J TightSCF
|  2> *xyz 1 1
|  3> C          3.91385       -1.65829        3.01513
|  4> N          5.03927       -0.90115        2.49282
|  5> C          6.21038       -1.41726        2.17824
|  6> N          6.53591       -2.67712        2.55608
|  7> N          7.07675       -0.70082        1.47891
|  8> H          7.95464       -1.12155        1.20755
|  9> H          6.75616        0.10664        0.96028
| 10> H          4.84217        0.01761        2.11519
| 11> H          5.99388       -3.12692        3.28278
| 12> C          3.13916       -2.37657        1.91061
| 13> H          3.26723       -0.93940        3.52069
| 14> H          4.24720       -2.35509        3.79006
| 15> H          7.49844       -2.97548        2.46878
| 16> H          2.82969       -1.66654        1.17238
| 17> H          2.27790       -2.85264        2.33072
| 18> H          3.76754       -3.11338        1.45548
| 19> *
| 20> %MaxCore 64000
| 21> %pal nprocs 8
| 22> end
| 23> %scf
| 24>   MaxIter 150
| 25> end
| 26>
| 27>
| 28>                          ****END OF INPUT****

CARTESIAN COORDINATES (ANGSTROEM)
---------------------------------
  C      3.913850   -1.658290    3.015130
  N      5.039270   -0.901150    2.492820
  C      6.210380   -1.417260    2.178240
  N      6.535910   -2.677120    2.556080
  N      7.076750   -0.700820    1.478910
  H      7.954640   -1.121550    1.207550
  H      6.756160    0.106640    0.960280
  H      4.842170    0.017610    2.115190
  H      5.993880   -3.126920    3.282780
  C      3.139160   -2.376570    1.910610
  H      3.267230   -0.939400    3.520690
  H      4.247200   -2.355090    3.790060
  H      7.498440   -2.975480    2.468780
  H      2.829690   -1.666540    1.172380
  H      2.277900   -2.852640    2.330720
  H      3.767540   -3.113380    1.455480

 Total Charge           Charge          ....    1
 Multiplicity           Mult            ....    1
 Number of Electrons    NEL             ....   48
 Basis Dimension        Dim             ....  200

ORBITAL ENERGIES
----------------

  NO   OCC          E(Eh)            E(eV)
   0   2.0000     -14.631789      -398.1512
   1   2.0000     -14.631083      -398.1320
   2   2.0000     -14.628454      -398.0605
   3   2.0000     -10.600676      -288.4591
   4   2.0000     -10.468207      -284.8544
   5   2.0000     -10.395088      -282.8647
   6   2.0000      -1.295682       -35.2573
   7   2.0000      -1.184048       -32.2196
   8   2.0000      -1.166535       -31.7430
   9   2.0000      -1.008637       -27.4464
  10   2.0000      -0.916463       -24.9382
  11   2.0000      -0.877669       -23.8826
  12   2.0000      -0.862800       -23.4780
  13   2.0000      -0.818109       -22.2619
  14   2.0000      -0.765124       -20.8201
  15   2.0000      -0.758009       -20.6265
  16   2.0000      -0.728983       -19.8366
  17   2.0000      -0.703124       -19.1330
  18   2.0000      -0.672884       -18.3101
  19   2.0000      -0.632136       -17.2013
  20   2.0000      -0.599987       -16.3265
  21   2.0000      -0.579735       -15.7754
  22   2.0000      -0.545937       -14.8557
  23   2.0000      -0.516300       -14.0492
  24   0.0000      -0.127071        -3.4578
  25   0.0000      -0.119851        -3.2613
  26   0.0000      -0.087491        -2.3807
  27   0.0000      -0.080276        -2.1844
  28   0.0000      -0.054231        -1.4757

MULLIKEN ATOMIC CHARGES
-----------------------
   0 C :    0.415659
   1 N :   -0.267445
   2 C :    1.180489
   3 N :    0.125642
   4 N :    0.080181
   5 H :   -0.047096
   6 H :   -0.082091
   7 H :   -0.256275
   8 H :   -0.068793
   9 C :    0.873442
  10 H :   -0.357852
  11 H :   -0.145776
  12 H :   -0.187753
  13 H :   -0.103981
  14 H :   -0.039728
  15 H :   -0.118625
Sum of atomic charges:    1.0000000

LOEWDIN ATOMIC CHARGES
----------------------
   0 C :    0.038226
   1 N :    0.045846
   2 C :   -0.036458
   3 N :    0.283462
   4 N :    0.265358
   5 H :    0.039554
   6 H :    0.041488
   7 H :    0.063873
   8 H :    0.013297
   9 C :    0.162627
  10 H :    0.042510
  11 H :    0.024716
  12 H :    0.034731
  13 H :   -0.006206
  14 H :    0.002808
  15 H :   -0.015833

  Mayer bond orders larger than 0.100000
B(  0-C ,  1-N ) :   0.9785 B(  0-C ,  7-H ) :  -0.1614 B(  0-C ,  9-C ) :   1.2344
B(  0-C , 10-H ) :   0.8318 B(  0-C , 11-H ) :   0.8757 B(  0-C , 13-H ) :   0.2553
B(  0-C , 14-H ) :   0.1768 B(  0-C , 15-H ) :   0.2013 B(  1-N ,  2-C ) :   1.1004
B(  1-N ,  3-N ) :   0.1890 B(  1-N ,  4-N ) :   0.2353 B(  1-N ,  7-H ) :   1.2813
B(  1-N , 10-H ) :   0.2012 B(  1-N , 11-H ) :   0.1303 B(  2-C ,  3-N ) :   0.9669
B(  2-C ,  4-N ) :   0.9061 B(  2-C ,  6-H ) :  -0.1645 B(  2-C ,  7-H ) :  -0.2647
B(  2-C ,  8-H ) :  -0.1134 B(  2-C , 12-H ) :  -0.1503 B(  3-N ,  4-N ) :   0.1301
B(  3-N ,  8-H ) :   1.0784 B(  3-N , 12-H ) :   1.2483 B(  4-N ,  5-H ) :   1.1466
B(  4-N ,  6-H ) :   1.1970 B(  5-H ,  6-H ) :  -0.1670 B(  8-H , 12-H ) :  -0.1979
B(  9-C , 13-H ) :   0.7541 B(  9-C , 14-H ) :   0.7673 B(  9-C , 15-H ) :   0.8038

FINAL SINGLE POINT ENERGY      -284.066683745522

DIPOLE MOMENT
-------------
                                X             Y             Z
Electronic contribution:      4.70501       1.91130       0.07942
Nuclear contribution   :     -3.67981      -1.62355      -0.28562
                        -----------------------------------------
Total Dipole Moment    :      1.02520       0.28776      -0.20620
                        -----------------------------------------
Magnitude (a.u.)       :      1.08460
Magnitude (Debye)      :      2.75685

Rotational constants in cm-1:     0.222027     0.074735     0.065694
Rotational constants in MHz :  6656.200457  2240.503315  1969.451902

                             ****ORCA TERMINATED NORMALLY****
TOTAL RUN TIME: 0 days 0 hours 0 minutes 30 seconds 574 msec
