                         Program Version 5.0.0 -  RELEASE  -
|  1> !CAM-B3LYP RIJCOSX def2-SVPD def2/J TightSCF xyzfile
|  2>
|  3> *xyzfile 0 1 B.xyz
|  4>
|  5> %MaxCore 64000
|  6>
|  7> %pal nprocs 4
|  8> end
|  9>
| 10> %scf
| 11>   MaxIter 150
| 12> end
| 13>
| 14>
| 15>                          ****END OF INPUT****

CARTESIAN COORDINATES (ANGSTROEM)
---------------------------------
  C      3.913853   -1.658291    3.015134
  N      5.039266   -0.901154    2.492821
  C      4.084215    1.742081   -2.114724
  C      4.265245    2.500518   -0.795890
  H      4.868534    3.392674   -0.981134
  H      3.307640    2.824571   -0.387809
  C      4.982240    1.650257    0.247422
  C      6.210384   -1.417261    2.178244
  N      6.535913   -2.677122    2.556078
  N      7.076754   -0.700820    1.478906
  H      7.954643   -1.121554    1.207554
  H      6.756161    0.106637    0.960278
  H      4.842168    0.017609    2.115191
  H      5.993876   -3.126918    3.282784
  H      7.498441   -2.975482    2.468776
  O      4.368065    1.389270    1.313706
  O      6.128919    1.233512   -0.045620
  C      3.139159   -2.376572    1.910609
  H      3.267235   -0.939401    3.520693
  H      4.247195   -2.355095    3.790065
  C      1.997274    0.430918   -1.399218
  C      3.412746    0.376886   -1.965497
  H      4.047407   -0.246590   -1.326706
  H      3.390774   -0.118719   -2.942839
  H      5.068475    1.598504   -2.565728
  H      3.503356    2.363939   -2.804565
  C      2.399946   -1.389579    1.009490
  H      2.440750   -3.087118    2.362976
  H      3.844475   -2.970462    1.318677
  C      2.070177   -1.936705   -0.372401
  H      1.481611   -1.061542    1.509912
  H      3.008628   -0.490001    0.897451
  C      1.322238   -0.935775   -1.256413
  H      1.472747   -2.850902   -0.283997
  H      3.003539   -2.234041   -0.862535
  H      1.376444    1.058920   -2.047420
  H      2.015341    0.929780   -0.426535
  H      0.316648   -0.787213   -0.848278
  H      1.185611   -1.379252   -2.248613

 Total Charge           Charge          ....    0
 Multiplicity           Mult            ....    1
 Number of Electrons    NEL             ....  126
 Basis Dimension        Dim             ....  510

ORBITAL ENERGIES
----------------

  NO   OCC          E(Eh)            E(eV)
   0   2.0000     -19.136690      -520.7358
   1   2.0000     -19.135480      -520.7029
   2   2.0000     -14.473434      -393.8422
   3   2.0000     -14.436684      -392.8421
   4   2.0000     -14.431856      -392.7108
   5   2.0000     -10.423631      -283.6414
   6   2.0000     -10.324689      -280.9491
   7   2.0000     -10.316503      -280.7263
   8   2.0000     -10.265824      -279.3473
   9   2.0000     -10.243540      -278.7409
  10   2.0000     -10.242888      -278.7232
  11   2.0000     -10.239289      -278.6252
  12   2.0000     -10.230381      -278.3828
  13   2.0000     -10.229035      -278.3462
  14   2.0000     -10.228250      -278.3248
  15   2.0000     -10.219656      -278.0910
  16   2.0000      -1.120358       -30.4865
  17   2.0000      -1.083654       -29.4877
  18   2.0000      -1.010757       -27.5041
  19   2.0000      -0.995753       -27.0958
  20   2.0000      -0.984045       -26.7772
  21   2.0000      -0.889557       -24.2061
  22   2.0000      -0.864639       -23.5280
  23   2.0000      -0.835247       -22.7282
  24   2.0000      -0.794355       -21.6155
  25   2.0000      -0.755296       -20.5526
  26   2.0000      -0.737630       -20.0719
  27   2.0000      -0.706956       -19.2373
  28   2.0000      -0.691794       -18.8247
  29   2.0000      -0.677593       -18.4383
  30   2.0000      -0.648867       -17.6566
  31   2.0000      -0.642782       -17.4910
  32   2.0000      -0.610828       -16.6215
  33   2.0000      -0.597234       -16.2516
  34   2.0000      -0.591725       -16.1017
  35   2.0000      -0.571536       -15.5523
  36   2.0000      -0.543112       -14.7788
  37   2.0000      -0.537519       -14.6266
  38   2.0000      -0.531329       -14.4582
  39   2.0000      -0.525927       -14.3112
  40   2.0000      -0.511851       -13.9282
  41   2.0000      -0.493667       -13.4334
  42   2.0000      -0.491955       -13.3868
  43   2.0000      -0.486621       -13.2416
  44   2.0000      -0.477255       -12.9868
  45   2.0000      -0.470091       -12.7918
  46   2.0000      -0.453687       -12.3455
  47   2.0000      -0.440546       -11.9879
  48   2.0000      -0.434043       -11.8109
  49   2.0000      -0.422412       -11.4944
  50   2.0000      -0.415048       -11.2940
  51   2.0000      -0.407207       -11.0807
  52   2.0000      -0.393201       -10.6996
  53   2.0000      -0.385020       -10.4769
  54   2.0000      -0.380528       -10.3547
  55   2.0000      -0.374784       -10.1984
  56   2.0000      -0.363861        -9.9012
  57   2.0000      -0.359215        -9.7747
  58   2.0000      -0.352136        -9.5821
  59   2.0000      -0.340268        -9.2592
  60   2.0000      -0.300092        -8.1659
  61   2.0000      -0.290512        -7.9052
  62   2.0000      -0.286544        -7.7973
  63   0.0000       0.016594         0.4516
  64   0.0000       0.039705         1.0804
  65   0.0000       0.047213         1.2847
  66   0.0000       0.063411         1.7255
  67   0.0000       0.070263         1.9119

MULLIKEN ATOMIC CHARGES
-----------------------
   0 C :    1.370642
   1 N :    0.222258
   2 C :    0.555083
   3 C :    0.493946
   4 H :   -0.200432
   5 H :    0.063400
   6 C :    0.155643
   7 C :    1.021621
   8 N :    0.199072
   9 N :    0.546906
  10 H :   -0.126485
  11 H :   -0.458698
  12 H :   -1.018293
  13 H :   -0.075954
  14 H :   -0.217354
  15 O :   -0.662643
  16 O :   -0.580648
  17 C :    0.485500
  18 H :   -0.360881
  19 H :   -0.356327
  20 C :    0.042537
  21 C :    0.020999
  22 H :   -0.100835
  23 H :   -0.247147
  24 H :   -0.065020
  25 H :   -0.208493
  26 C :    0.874613
  27 H :   -0.195082
  28 H :   -0.098819
  29 C :    0.162702
  30 H :   -0.087677
  31 H :   -1.080842
  32 C :    0.853485
  33 H :   -0.492885
  34 H :    0.071704
  35 H :   -0.482476
  36 H :    0.125724
  37 H :   -0.060231
  38 H :   -0.088613
Sum of atomic charges:    0.0000000

LOEWDIN ATOMIC CHARGES
----------------------
   0 C :    0.073046
   1 N :    0.082874
   2 C :   -0.022298
   3 C :    0.034761
   4 H :    0.028950
   5 H :    0.014629
   6 C :   -0.193501
   7 C :   -0.035750
   8 N :    0.250203
   9 N :    0.288258
  10 H :    0.022374
  11 H :   -0.112028
  12 H :   -0.081916
  13 H :   -0.008323
  14 H :    0.012168
  15 O :   -0.243336
  16 O :   -0.231975
  17 C :   -0.014695
  18 H :    0.040808
  19 H :    0.006322
  20 C :   -0.031410
  21 C :   -0.030593
  22 H :    0.011220
  23 H :    0.025206
  24 H :    0.021621
  25 H :    0.019188
  26 C :   -0.026363
  27 H :    0.025514
  28 H :    0.017165
  29 C :   -0.040164
  30 H :    0.039304
  31 H :   -0.021121
  32 C :   -0.032026
  33 H :    0.020911
  34 H :    0.016844
  35 H :    0.024195
  36 H :    0.009469
  37 H :    0.020696
  38 H :    0.019773

  Mayer bond orders larger than 0.100000
B(  0-C ,  1-N ) :   0.9172 B(  0-C , 12-H ) :  -0.4891 B(  0-C , 17-C ) :   1.0420
B(  0-C , 18-H ) :   0.5552 B(  0-C , 19-H ) :   0.7120 B(  0-C , 26-C ) :   0.1761
B(  1-N ,  7-C ) :   1.1885 B(  1-N ,  8-N ) :   0.1997 B(  1-N , 12-H ) :   1.1580
B(  1-N , 18-H ) :   0.2487 B(  1-N , 19-H ) :   0.1145 B(  2-C ,  3-C ) :   1.1487
B(  2-C ,  4-H ) :   0.1731 B(  2-C ,  5-H ) :   0.1057 B(  2-C ,  6-C ) :   0.1010
B(  2-C , 21-C ) :   1.2158 B(  2-C , 22-H ) :   0.1140 B(  2-C , 24-H ) :   0.6232
B(  2-C , 25-H ) :   0.7634 B(  3-C ,  4-H ) :   0.6053 B(  3-C ,  5-H ) :   0.7194
B(  3-C ,  6-C ) :   1.1234 B(  3-C , 21-C ) :   0.1315 B(  3-C , 24-H ) :   0.1224
B(  3-C , 25-H ) :   0.1651 B(  4-H ,  6-C ) :   0.2861 B(  5-H ,  6-C ) :   0.2853
B(  6-C , 15-O ) :   1.4714 B(  6-C , 16-O ) :   1.3780 B(  7-C ,  8-N ) :   0.9079
B(  7-C ,  9-N ) :   1.0051 B(  7-C , 11-H ) :  -0.2469 B(  7-C , 12-H ) :  -0.6346
B(  7-C , 13-H ) :  -0.1003 B(  8-N ,  9-N ) :   0.1225 B(  8-N , 13-H ) :   1.0775
B(  8-N , 14-H ) :   1.2120 B(  9-N , 10-H ) :   1.1379 B(  9-N , 11-H ) :   1.1351
B( 10-H , 11-H ) :  -0.2460 B( 11-H , 16-O ) :   0.1436 B( 12-H , 15-O ) :   0.2626
B( 12-H , 18-H ) :   0.1754 B( 13-H , 14-H ) :  -0.2049 B( 15-O , 31-H ) :   0.1096
B( 17-C , 19-H ) :   0.1965 B( 17-C , 26-C ) :   1.1033 B( 17-C , 27-H ) :   0.8451
B( 17-C , 28-H ) :   0.8559 B( 17-C , 29-C ) :   0.1106 B( 17-C , 30-H ) :   0.1513
B( 18-H , 19-H ) :  -0.2576 B( 20-C , 21-C ) :   1.2084 B( 20-C , 22-H ) :   0.1244
B( 20-C , 23-H ) :   0.1559 B( 20-C , 29-C ) :   0.1348 B( 20-C , 32-C ) :   1.1256
B( 20-C , 35-H ) :   0.9475 B( 20-C , 36-H ) :   0.8211 B( 20-C , 37-H ) :   0.3133
B( 20-C , 38-H ) :   0.1481 B( 21-C , 22-H ) :   0.9113 B( 21-C , 23-H ) :   0.8297
B( 21-C , 24-H ) :   0.2755 B( 21-C , 25-H ) :   0.1904 B( 21-C , 35-H ) :   0.1191
B( 21-C , 36-H ) :   0.1227 B( 24-H , 25-H ) :  -0.1459 B( 26-C , 27-H ) :   0.1641
B( 26-C , 28-H ) :   0.1035 B( 26-C , 29-C ) :   1.2261 B( 26-C , 30-H ) :   0.5628
B( 26-C , 31-H ) :  -0.2187 B( 26-C , 34-H ) :   0.1802 B( 27-H , 31-H ) :   0.1358
B( 28-H , 33-H ) :  -0.1077 B( 29-C , 31-H ) :   0.1698 B( 29-C , 32-C ) :   1.0901
B( 29-C , 33-H ) :   0.9583 B( 29-C , 34-H ) :   0.8020 B( 29-C , 37-H ) :   0.1171
B( 29-C , 38-H ) :   0.2588 B( 30-H , 31-H ) :   0.3047 B( 31-H , 36-H ) :   0.1162
B( 32-C , 37-H ) :   0.6080 B( 32-C , 38-H ) :   0.6363 B( 37-H , 38-H ) :  -0.1369

FINAL SINGLE POINT ENERGY      -746.925027800337

DIPOLE MOMENT
-------------
                                X             Y             Z
Electronic contribution:     12.27130       3.28526       7.68105
Nuclear contribution   :    -11.44764      -6.21818      -6.18483
                        -----------------------------------------
Total Dipole Moment    :      0.82367      -2.93292       1.49622
                        -----------------------------------------
Magnitude (a.u.)       :      3.39398
Magnitude (Debye)      :      8.62681

Rotational constants in cm-1:     0.020281     0.013510     0.009451
Rotational constants in MHz :   608.005987   405.034308   283.324538

                             ****ORCA TERMINATED NORMALLY****
TOTAL RUN TIME: 0 days 0 hours 7 minutes 4 seconds 95 msec
