                         Program Version 5.0.0 -  RELEASE  -
|  1> !CAM-B3LYP RIJCOSX def2-SVPD def2/J TightSCF
|  2> *xyz 0 1
|  3> C          4.08422        1.74208       -2.11472
|  4> C          4.26524        2.50052       -0.79589
|  5> H          4.86853        3.39267       -0.98113
|  6> H          3.30764        2.82457       -0.38781
|  7> C          4.98224        1.65026        0.24742
|  8> F          4.36806        1.38927        1.31371
|  9> O          6.12892        1.23351       -0.04562
| 10> H          3.57911        2.36849       -2.81997
| 11> H          3.50424        0.85965       -1.94198
| 12> H          5.04288        1.46841       -2.50327
| 13> *
| 14> %MaxCore 64000
| 15> %pal nprocs 8
| 16> end
| 17> %scf
| 18>   MaxIter 150
| 19> end
| 20>
| 21>
| 22>                          ****END OF INPUT****

CARTESIAN COORDINATES (ANGSTROEM)
---------------------------------
  C      4.084220    1.742080   -2.114720
  C      4.265240    2.500520   -0.795890
  H      4.868530    3.392670   -0.981130
  H      3.307640    2.824570   -0.387810
  C      4.982240    1.650260    0.247420
  F      4.368060    1.389270    1.313710
  O      6.128920    1.233510   -0.045620
  H      3.579110    2.368490   -2.819970
  H      3.504240    0.859650   -1.941980
  H      5.042880    1.468410   -2.503270

 Total Charge           Charge          ....    0
 Multiplicity           Mult            ....    1
 Number of Electrons    NEL             ....   40
 Basis Dimension        Dim             ....  146

ORBITAL ENERGIES
----------------

  NO   OCC          E(Eh)            E(eV)
   0   2.0000     -24.847818      -676.1435
   1   2.0000     -19.226851      -523.1892
   2   2.0000     -10.447448      -284.2895
   3   2.0000     -10.294210      -280.1197
   4   2.0000     -10.267115      -279.3824
   5   2.0000      -1.390748       -37.8442
   6   2.0000      -1.111373       -30.2420
   7   2.0000      -0.881636       -23.9905
   8   2.0000      -0.767224       -20.8772
   9   2.0000      -0.717697       -19.5295
  10   2.0000      -0.630136       -17.1469
  11   2.0000      -0.614531       -16.7222
  12   2.0000      -0.583951       -15.8901
  13   2.0000      -0.539644       -14.6845
  14   2.0000      -0.509056       -13.8521
  15   2.0000      -0.472130       -12.8473
  16   2.0000      -0.451229       -12.2786
  17   2.0000      -0.444539       -12.0965
  18   2.0000      -0.418150       -11.3784
  19   2.0000      -0.367301        -9.9948
  20   0.0000       0.012502         0.3402
  21   0.0000       0.043976         1.1966
  22   0.0000       0.073084         1.9887
  23   0.0000       0.084156         2.2900
  24   0.0000       0.104897         2.8544

MULLIKEN ATOMIC CHARGES
-----------------------
   0 C :    0.756668
   1 C :   -0.166535
   2 H :   -0.006114
   3 H :   -0.099783
   4 C :    0.656606
   5 F :   -0.349865
   6 O :   -0.459446
   7 H :   -0.116758
   8 H :   -0.127551
   9 H :   -0.087221
Sum of atomic charges:    0.0000000

LOEWDIN ATOMIC CHARGES
----------------------
   0 C :    0.143676
   1 C :    0.005158
   2 H :    0.040640
   3 H :    0.022929
   4 C :   -0.017740
   5 F :   -0.032831
   6 O :   -0.131765
   7 H :   -0.012599
   8 H :   -0.008895
   9 H :   -0.008573

  Mayer bond orders larger than 0.100000
B(  0-C ,  1-C ) :   1.2943 B(  0-C ,  7-H ) :   0.8167 B(  0-C ,  8-H ) :   0.8158
B(  0-C ,  9-H ) :   0.8027 B(  1-C ,  2-H ) :   0.8582 B(  1-C ,  3-H ) :   0.9499
B(  1-C ,  4-C ) :   1.0823 B(  1-C ,  7-H ) :   0.1649 B(  1-C ,  8-H ) :   0.1687
B(  1-C ,  9-H ) :   0.1833 B(  3-H ,  4-C ) :   0.1027 B(  4-C ,  5-F ) :   0.7793
B(  4-C ,  6-O ) :   1.8614 B(  5-F ,  6-O ) :   0.1004

FINAL SINGLE POINT ENERGY      -292.078950488861

DIPOLE MOMENT
-------------
                                X             Y             Z
Electronic contribution:      1.89309      -2.01690       8.11528
Nuclear contribution   :     -2.87511       2.61564      -8.50037
                        -----------------------------------------
Total Dipole Moment    :     -0.98202       0.59874      -0.38509
                        -----------------------------------------
Magnitude (a.u.)       :      1.21290
Magnitude (Debye)      :      3.08296

Rotational constants in cm-1:     0.297822     0.128965     0.102219
Rotational constants in MHz :  8928.481997  3866.271686  3064.463504

                             ****ORCA TERMINATED NORMALLY****
TOTAL RUN TIME: 0 days 0 hours 0 minutes 20 seconds 813 msec
