                         Program Version 5.0.0 -  RELEASE  -
|  1> !CAM-B3LYP RIJCOSX def2-SVPD def2/J TightSCF
|  2> *xyz 0 1
|  3> C          3.91385       -1.65829        3.01513
|  4> C          5.03927       -0.90115        2.49282
|  5> C          6.21038       -1.41726        2.17824
|  6> N          6.53591       -2.67712        2.55608
|  7> N          7.07675       -0.70082        1.47891
|  8> H          7.95464       -1.12155        1.20755
|  9> H          6.75616        0.10664        0.96028
| 10> H          4.84217        0.01761        2.11519
| 11> H          5.99388       -3.12692        3.28278
| 12> C          3.13916       -2.37657        1.91061
| 13> H          3.26723       -0.93940        3.52069
| 14> H          4.24720       -2.35509        3.79006
| 15> H          7.49844       -2.97548        2.46878
| 16> H          2.82969       -1.66654        1.17238
| 17> H          2.27790       -2.85264        2.33072
| 18> H          3.76754       -3.11338        1.45548
| 19> *
| 20> %MaxCore 64000
| 21> %pal nprocs 8
| 22> end
| 23> %scf
| 24>   MaxIter 150
| 25> end
| 26>
| 27>
| 28>                          ****END OF INPUT****

CARTESIAN COORDINATES (ANGSTROEM)
---------------------------------
  C      3.913850   -1.658290    3.015130
  C      5.039270   -0.901150    2.492820
  C      6.210380   -1.417260    2.178240
  N      6.535910   -2.677120    2.556080
  N      7.076750   -0.700820    1.478910
  H      7.954640   -1.121550    1.207550
  H      6.756160    0.106640    0.960280
  H      4.842170    0.017610    2.115190
  H      5.993880   -3.126920    3.282780
  C      3.139160   -2.376570    1.910610
  H      3.267230   -0.939400    3.520690
  H      4.247200   -2.355090    3.790060
  H      7.498440   -2.975480    2.468780
  H      2.829690   -1.666540    1.172380
  H      2.277900   -2.852640    2.330720
  H      3.767540   -3.113380    1.455480

 Total Charge           Charge          ....    0
 Multiplicity           Mult            ....    1
 Number of Electrons    NEL             ....   48
 Basis Dimension        Dim             ....  200

ORBITAL ENERGIES
----------------

  NO   OCC          E(Eh)            E(eV)
   0   2.0000     -14.406209      -392.0129
   1   2.0000     -14.404247      -391.9595
   2   2.0000     -10.302933      -280.3571
   3   2.0000     -10.233546      -278.4690
   4   2.0000     -10.222915      -278.1797
   5   2.0000     -10.180313      -277.0204
   6   2.0000      -1.036219       -28.1970
   7   2.0000      -0.943194       -25.6656
   8   2.0000      -0.851277       -23.1644
   9   2.0000      -0.768772       -20.9194
  10   2.0000      -0.689765       -18.7695
  11   2.0000      -0.650139       -17.6912
  12   2.0000      -0.613093       -16.6831
  13   2.0000      -0.581684       -15.8284
  14   2.0000      -0.542879       -14.7725
  15   2.0000      -0.508583       -13.8393
  16   2.0000      -0.490062       -13.3353
  17   2.0000      -0.458509       -12.4767
  18   2.0000      -0.451482       -12.2855
  19   2.0000      -0.421848       -11.4791
  20   2.0000      -0.394566       -10.7367
  21   2.0000      -0.384668       -10.4673
  22   2.0000      -0.333484        -9.0746
  23   2.0000      -0.219720        -5.9789
  24   0.0000       0.045990         1.2515
  25   0.0000       0.072220         1.9652
  26   0.0000       0.078495         2.1360
  27   0.0000       0.091794         2.4978
  28   0.0000       0.109817         2.9883

MULLIKEN ATOMIC CHARGES
-----------------------
   0 C :   -0.023578
   1 C :   -0.363024
   2 C :    0.828920
   3 N :    0.078705
   4 N :    0.104443
   5 H :   -0.172075
   6 H :   -0.078309
   7 H :   -0.277425
   8 H :   -0.059147
   9 C :    0.870762
  10 H :   -0.143369
  11 H :   -0.145245
  12 H :   -0.303177
  13 H :   -0.108972
  14 H :   -0.079547
  15 H :   -0.128963
Sum of atomic charges:    0.0000000

LOEWDIN ATOMIC CHARGES
----------------------
   0 C :   -0.101579
   1 C :   -0.041763
   2 C :   -0.224320
   3 N :    0.204128
   4 N :    0.179153
   5 H :   -0.010569
   6 H :    0.007378
   7 H :   -0.045845
   8 H :   -0.017104
   9 C :    0.121693
  10 H :    0.014206
  11 H :    0.001169
  12 H :   -0.014747
  13 H :   -0.019087
  14 H :   -0.027300
  15 H :   -0.025413

  Mayer bond orders larger than 0.100000
B(  0-C ,  1-C ) :   1.2950 B(  0-C ,  7-H ) :   0.3457 B(  0-C ,  9-C ) :   1.2034
B(  0-C , 10-H ) :   0.7450 B(  0-C , 11-H ) :   0.8434 B(  0-C , 13-H ) :   0.2526
B(  0-C , 14-H ) :   0.1894 B(  0-C , 15-H ) :   0.2119 B(  1-C ,  2-C ) :   1.6707
B(  1-C ,  3-N ) :   0.2236 B(  1-C ,  4-N ) :   0.3333 B(  1-C ,  7-H ) :   0.7954
B(  1-C , 10-H ) :   0.3153 B(  1-C , 11-H ) :   0.2485 B(  2-C ,  3-N ) :   0.9179
B(  2-C ,  4-N ) :   0.8337 B(  2-C ,  6-H ) :  -0.1139 B(  2-C ,  7-H ) :   0.2231
B(  2-C , 11-H ) :  -0.1015 B(  2-C , 12-H ) :  -0.1648 B(  3-N ,  8-H ) :   1.0399
B(  3-N , 12-H ) :   1.2955 B(  4-N ,  5-H ) :   1.1420 B(  4-N ,  6-H ) :   1.1692
B(  5-H ,  6-H ) :  -0.1618 B(  8-H , 12-H ) :  -0.1904 B(  9-C , 13-H ) :   0.7796
B(  9-C , 14-H ) :   0.7621 B(  9-C , 15-H ) :   0.8010

FINAL SINGLE POINT ENERGY      -267.595997055561

DIPOLE MOMENT
-------------
                                X             Y             Z
Electronic contribution:      4.59794       1.23391      -0.03028
Nuclear contribution   :     -3.74303      -1.46908      -0.23637
                        -----------------------------------------
Total Dipole Moment    :      0.85491      -0.23517      -0.26665
                        -----------------------------------------
Magnitude (a.u.)       :      0.92589
Magnitude (Debye)      :      2.35344

Rotational constants in cm-1:     0.225937     0.074877     0.065953
Rotational constants in MHz :  6773.424301  2244.750632  1977.214101

                             ****ORCA TERMINATED NORMALLY****
TOTAL RUN TIME: 0 days 0 hours 0 minutes 31 seconds 753 msec
