                         Program Version 5.0.0 -  RELEASE  -
|  1> !CAM-B3LYP RIJCOSX def2-SVPD def2/J TightSCF
|  2> *xyz 0 1
|  3> C          4.08422        1.74208       -2.11472
|  4> C          4.26524        2.50052       -0.79589
|  5> H          4.86853        3.39267       -0.98113
|  6> H          3.30764        2.82457       -0.38781
|  7> C          4.98224        1.65026        0.24742
|  8> O          4.36806        1.38927        1.31371
|  9> F          6.12892        1.23351       -0.04562
| 10> H          3.57911        2.36849       -2.81997
| 11> H          3.50424        0.85965       -1.94198
| 12> H          5.04288        1.46841       -2.50327
| 13> *
| 14> %MaxCore 64000
| 15> %pal nprocs 8
| 16> end
| 17> %scf
| 18>   MaxIter 150
| 19> end
| 20>
| 21>
| 22>                          ****END OF INPUT****

CARTESIAN COORDINATES (ANGSTROEM)
---------------------------------
  C      4.084220    1.742080   -2.114720
  C      4.265240    2.500520   -0.795890
  H      4.868530    3.392670   -0.981130
  H      3.307640    2.824570   -0.387810
  C      4.982240    1.650260    0.247420
  O      4.368060    1.389270    1.313710
  F      6.128920    1.233510   -0.045620
  H      3.579110    2.368490   -2.819970
  H      3.504240    0.859650   -1.941980
  H      5.042880    1.468410   -2.503270

 Total Charge           Charge          ....    0
 Multiplicity           Mult            ....    1
 Number of Electrons    NEL             ....   40
 Basis Dimension        Dim             ....  146

ORBITAL ENERGIES
----------------

  NO   OCC          E(Eh)            E(eV)
   0   2.0000     -24.849157      -676.1800
   1   2.0000     -19.226271      -523.1734
   2   2.0000     -10.447056      -284.2788
   3   2.0000     -10.293960      -280.1129
   4   2.0000     -10.271880      -279.5121
   5   2.0000      -1.393507       -37.9193
   6   2.0000      -1.108290       -30.1581
   7   2.0000      -0.885760       -24.1028
   8   2.0000      -0.764785       -20.8109
   9   2.0000      -0.723101       -19.6766
  10   2.0000      -0.633213       -17.2306
  11   2.0000      -0.620651       -16.8888
  12   2.0000      -0.577172       -15.7056
  13   2.0000      -0.539966       -14.6932
  14   2.0000      -0.509476       -13.8635
  15   2.0000      -0.475920       -12.9505
  16   2.0000      -0.456423       -12.4199
  17   2.0000      -0.446961       -12.1624
  18   2.0000      -0.421815       -11.4782
  19   2.0000      -0.362360        -9.8603
  20   0.0000       0.015473         0.4211
  21   0.0000       0.042553         1.1579
  22   0.0000       0.073552         2.0014
  23   0.0000       0.083041         2.2597
  24   0.0000       0.105067         2.8590

MULLIKEN ATOMIC CHARGES
-----------------------
   0 C :    0.745495
   1 C :   -0.138689
   2 H :   -0.020796
   3 H :   -0.109465
   4 C :    0.671869
   5 O :   -0.437752
   6 F :   -0.370725
   7 H :   -0.113998
   8 H :   -0.125714
   9 H :   -0.100226
Sum of atomic charges:   -0.0000000

LOEWDIN ATOMIC CHARGES
----------------------
   0 C :    0.138866
   1 C :    0.009148
   2 H :    0.035645
   3 H :    0.034560
   4 C :   -0.022497
   5 O :   -0.134163
   6 F :   -0.028906
   7 H :   -0.012030
   8 H :   -0.007012
   9 H :   -0.013611

  Mayer bond orders larger than 0.100000
B(  0-C ,  1-C ) :   1.2706 B(  0-C ,  7-H ) :   0.8252 B(  0-C ,  8-H ) :   0.8297
B(  0-C ,  9-H ) :   0.7926 B(  1-C ,  2-H ) :   0.8584 B(  1-C ,  3-H ) :   0.9688
B(  1-C ,  4-C ) :   1.0552 B(  1-C ,  7-H ) :   0.1646 B(  1-C ,  8-H ) :   0.1648
B(  1-C ,  9-H ) :   0.1760 B(  3-H ,  4-C ) :   0.1429 B(  4-C ,  5-O ) :   1.8509
B(  4-C ,  6-F ) :   0.7575 B(  5-O ,  6-F ) :   0.1095

FINAL SINGLE POINT ENERGY      -292.078267724910

DIPOLE MOMENT
-------------
                                X             Y             Z
Electronic contribution:      4.83270      -2.26864       5.81605
Nuclear contribution   :     -4.79499       2.78546      -7.01827
                        -----------------------------------------
Total Dipole Moment    :      0.03771       0.51682      -1.20222
                        -----------------------------------------
Magnitude (a.u.)       :      1.30915
Magnitude (Debye)      :      3.32759

Rotational constants in cm-1:     0.286098     0.133492     0.103343
Rotational constants in MHz :  8577.003657  4001.981591  3098.148068

                             ****ORCA TERMINATED NORMALLY****
TOTAL RUN TIME: 0 days 0 hours 0 minutes 20 seconds 896 msec
