                         Program Version 5.0.0 -  RELEASE  -
|  1> !CAM-B3LYP RIJCOSX def2-SVPD def2/J TightSCF
|  2> *xyz 0 1
|  3> C          3.91385       -1.65829        3.01513
|  4> N          5.03927       -0.90115        2.49282
|  5> C          6.21038       -1.41726        2.17824
|  6> C          6.53591       -2.67712        2.55608
|  7> N          7.07675       -0.70082        1.47891
|  8> H          7.95464       -1.12155        1.20755
|  9> H          6.75616        0.10664        0.96028
| 10> H          4.84217        0.01761        2.11519
| 11> H          5.99388       -3.12692        3.28278
| 12> C          3.13916       -2.37657        1.91061
| 13> H          3.26723       -0.93940        3.52069
| 14> H          4.24720       -2.35509        3.79006
| 15> H          7.49844       -2.97548        2.46878
| 16> H          2.82969       -1.66654        1.17238
| 17> H          2.27790       -2.85264        2.33072
| 18> H          3.76754       -3.11338        1.45548
| 19> *
| 20> %MaxCore 64000
| 21> %pal nprocs 8
| 22> end
| 23> %scf
| 24>   MaxIter 150
| 25> end
| 26>
| 27>
| 28>                          ****END OF INPUT****

CARTESIAN COORDINATES (ANGSTROEM)
---------------------------------
  C      3.913850   -1.658290    3.015130
  N      5.039270   -0.901150    2.492820
  C      6.210380   -1.417260    2.178240
  C      6.535910   -2.677120    2.556080
  N      7.076750   -0.700820    1.478910
  H      7.954640   -1.121550    1.207550
  H      6.756160    0.106640    0.960280
  H      4.842170    0.017610    2.115190
  H      5.993880   -3.126920    3.282780
  C      3.139160   -2.376570    1.910610
  H      3.267230   -0.939400    3.520690
  H      4.247200   -2.355090    3.790060
  H      7.498440   -2.975480    2.468780
  H      2.829690   -1.666540    1.172380
  H      2.277900   -2.852640    2.330720
  H      3.767540   -3.113380    1.455480

 Total Charge           Charge          ....    0
 Multiplicity           Mult            ....    1
 Number of Electrons    NEL             ....   48
 Basis Dimension        Dim             ....  200

ORBITAL ENERGIES
----------------

  NO   OCC          E(Eh)            E(eV)
   0   2.0000     -14.409242      -392.0954
   1   2.0000     -14.407870      -392.0581
   2   2.0000     -10.309902      -280.5467
   3   2.0000     -10.292102      -280.0623
   4   2.0000     -10.240476      -278.6575
   5   2.0000     -10.170035      -276.7407
   6   2.0000      -1.050343       -28.5813
   7   2.0000      -0.964380       -26.2421
   8   2.0000      -0.829921       -22.5833
   9   2.0000      -0.781548       -21.2670
  10   2.0000      -0.715996       -19.4833
  11   2.0000      -0.636677       -17.3249
  12   2.0000      -0.625493       -17.0205
  13   2.0000      -0.592111       -16.1122
  14   2.0000      -0.538086       -14.6421
  15   2.0000      -0.510485       -13.8910
  16   2.0000      -0.489398       -13.3172
  17   2.0000      -0.467835       -12.7304
  18   2.0000      -0.447030       -12.1643
  19   2.0000      -0.434323       -11.8185
  20   2.0000      -0.431648       -11.7457
  21   2.0000      -0.411406       -11.1949
  22   2.0000      -0.317585        -8.6419
  23   2.0000      -0.223097        -6.0708
  24   0.0000       0.044696         1.2162
  25   0.0000       0.067980         1.8498
  26   0.0000       0.078711         2.1418
  27   0.0000       0.083316         2.2671
  28   0.0000       0.112383         3.0581

MULLIKEN ATOMIC CHARGES
-----------------------
   0 C :    0.417327
   1 N :   -0.275864
   2 C :    0.637065
   3 C :    0.574392
   4 N :    0.111188
   5 H :   -0.052951
   6 H :   -0.200959
   7 H :   -0.374995
   8 H :   -0.262592
   9 C :    0.878452
  10 H :   -0.413641
  11 H :   -0.044564
  12 H :   -0.608282
  13 H :   -0.144841
  14 H :   -0.088267
  15 H :   -0.151466
Sum of atomic charges:   -0.0000000

LOEWDIN ATOMIC CHARGES
----------------------
   0 C :    0.015506
   1 N :   -0.019888
   2 C :   -0.237468
   3 C :    0.157244
   4 N :    0.185205
   5 H :    0.008309
   6 H :   -0.007556
   7 H :    0.023931
   8 H :   -0.121634
   9 C :    0.137760
  10 H :    0.018595
  11 H :    0.014716
  12 H :   -0.108453
  13 H :   -0.022418
  14 H :   -0.020212
  15 H :   -0.023637

  Mayer bond orders larger than 0.100000
B(  0-C ,  1-N ) :   0.9452 B(  0-C ,  3-C ) :   0.1024 B(  0-C ,  7-H ) :  -0.1616
B(  0-C ,  9-C ) :   1.1902 B(  0-C , 10-H ) :   0.8693 B(  0-C , 11-H ) :   0.8546
B(  0-C , 13-H ) :   0.2447 B(  0-C , 14-H ) :   0.1854 B(  0-C , 15-H ) :   0.2098
B(  1-N ,  2-C ) :   0.9900 B(  1-N ,  3-C ) :   0.3616 B(  1-N ,  4-N ) :   0.1445
B(  1-N ,  7-H ) :   1.3403 B(  1-N , 10-H ) :   0.1743 B(  1-N , 11-H ) :   0.1127
B(  2-C ,  3-C ) :   1.6827 B(  2-C ,  4-N ) :   0.8881 B(  2-C ,  7-H ) :  -0.2885
B(  2-C ,  8-H ) :   0.3088 B(  2-C , 12-H ) :   0.1778 B(  3-C ,  4-N ) :   0.2266
B(  3-C ,  8-H ) :   0.6161 B(  3-C , 12-H ) :   0.7437 B(  4-N ,  5-H ) :   1.1309
B(  4-N ,  6-H ) :   1.2102 B(  5-H ,  6-H ) :  -0.1637 B(  8-H , 12-H ) :   0.1026
B(  9-C , 13-H ) :   0.7649 B(  9-C , 14-H ) :   0.7808 B(  9-C , 15-H ) :   0.8162
B( 10-H , 11-H ) :  -0.1001

FINAL SINGLE POINT ENERGY      -267.586836793790

DIPOLE MOMENT
-------------
                                X             Y             Z
Electronic contribution:      3.06272       2.80549      -0.20515
Nuclear contribution   :     -3.42552      -1.84584      -0.22295
                        -----------------------------------------
Total Dipole Moment    :     -0.36281       0.95965      -0.42811
                        -----------------------------------------
Magnitude (a.u.)       :      1.11168
Magnitude (Debye)      :      2.82567

Rotational constants in cm-1:     0.233526     0.075277     0.067092
Rotational constants in MHz :  7000.931279  2256.752901  2011.361214

                             ****ORCA TERMINATED NORMALLY****
TOTAL RUN TIME: 0 days 0 hours 0 minutes 30 seconds 580 msec
