                         Program Version 5.0.0 -  RELEASE  -
|  1> !CAM-B3LYP RIJCOSX def2-SVPD def2/J TightSCF
|  2> *xyz 0 1
|  3> C          3.91385       -1.65829        3.01513
|  4> N          5.03927       -0.90115        2.49282
|  5> C          6.21038       -1.41726        2.17824
|  6> N          6.53591       -2.67712        2.55608
|  7> C          7.07675       -0.70082        1.47891
|  8> H          7.95464       -1.12155        1.20755
|  9> H          6.75616        0.10664        0.96028
| 10> H          4.84217        0.01761        2.11519
| 11> H          5.99388       -3.12692        3.28278
| 12> C          3.13916       -2.37657        1.91061
| 13> H          3.26723       -0.93940        3.52069
| 14> H          4.24720       -2.35509        3.79006
| 15> H          7.49844       -2.97548        2.46878
| 16> H          2.82969       -1.66654        1.17238
| 17> H          2.27790       -2.85264        2.33072
| 18> H          3.76754       -3.11338        1.45548
| 19> *
| 20> %MaxCore 64000
| 21> %pal nprocs 8
| 22> end
| 23> %scf
| 24>   MaxIter 150
| 25> end
| 26>
| 27>
| 28>                          ****END OF INPUT****

CARTESIAN COORDINATES (ANGSTROEM)
---------------------------------
  C      3.913850   -1.658290    3.015130
  N      5.039270   -0.901150    2.492820
  C      6.210380   -1.417260    2.178240
  N      6.535910   -2.677120    2.556080
  C      7.076750   -0.700820    1.478910
  H      7.954640   -1.121550    1.207550
  H      6.756160    0.106640    0.960280
  H      4.842170    0.017610    2.115190
  H      5.993880   -3.126920    3.282780
  C      3.139160   -2.376570    1.910610
  H      3.267230   -0.939400    3.520690
  H      4.247200   -2.355090    3.790060
  H      7.498440   -2.975480    2.468780
  H      2.829690   -1.666540    1.172380
  H      2.277900   -2.852640    2.330720
  H      3.767540   -3.113380    1.455480

 Total Charge           Charge          ....    0
 Multiplicity           Mult            ....    1
 Number of Electrons    NEL             ....   48
 Basis Dimension        Dim             ....  200

ORBITAL ENERGIES
----------------

  NO   OCC          E(Eh)            E(eV)
   0   2.0000     -14.405411      -391.9912
   1   2.0000     -14.405037      -391.9810
   2   2.0000     -10.306493      -280.4539
   3   2.0000     -10.300577      -280.2930
   4   2.0000     -10.248197      -278.8676
   5   2.0000     -10.168382      -276.6957
   6   2.0000      -1.045247       -28.4426
   7   2.0000      -0.956576       -26.0297
   8   2.0000      -0.847951       -23.0739
   9   2.0000      -0.777071       -21.1452
  10   2.0000      -0.703566       -19.1450
  11   2.0000      -0.673396       -18.3240
  12   2.0000      -0.608809       -16.5665
  13   2.0000      -0.569275       -15.4907
  14   2.0000      -0.548324       -14.9207
  15   2.0000      -0.510051       -13.8792
  16   2.0000      -0.502672       -13.6784
  17   2.0000      -0.474755       -12.9187
  18   2.0000      -0.448574       -12.2063
  19   2.0000      -0.439345       -11.9552
  20   2.0000      -0.428194       -11.6518
  21   2.0000      -0.423452       -11.5227
  22   2.0000      -0.321224        -8.7410
  23   2.0000      -0.222090        -6.0434
  24   0.0000       0.043152         1.1742
  25   0.0000       0.071522         1.9462
  26   0.0000       0.075643         2.0584
  27   0.0000       0.080319         2.1856
  28   0.0000       0.112318         3.0563

MULLIKEN ATOMIC CHARGES
-----------------------
   0 C :    0.429250
   1 N :   -0.190101
   2 C :    0.668942
   3 N :    0.196867
   4 C :    0.464457
   5 H :   -0.436477
   6 H :   -0.363630
   7 H :   -0.321850
   8 H :   -0.180498
   9 C :    0.868112
  10 H :   -0.404257
  11 H :   -0.181460
  12 H :   -0.195901
  13 H :   -0.132843
  14 H :   -0.104571
  15 H :   -0.116040
Sum of atomic charges:   -0.0000000

LOEWDIN ATOMIC CHARGES
----------------------
   0 C :    0.008155
   1 N :   -0.015602
   2 C :   -0.237579
   3 N :    0.203624
   4 C :    0.137105
   5 H :   -0.103693
   6 H :   -0.101320
   7 H :    0.037999
   8 H :   -0.031516
   9 C :    0.134991
  10 H :    0.019071
  11 H :    0.007325
  12 H :    0.003166
  13 H :   -0.017961
  14 H :   -0.021320
  15 H :   -0.022446

  Mayer bond orders larger than 0.100000
B(  0-C ,  1-N ) :   0.9576 B(  0-C ,  7-H ) :  -0.1745 B(  0-C ,  9-C ) :   1.2117
B(  0-C , 10-H ) :   0.8208 B(  0-C , 11-H ) :   0.8727 B(  0-C , 13-H ) :   0.2728
B(  0-C , 14-H ) :   0.1899 B(  0-C , 15-H ) :   0.2011 B(  1-N ,  2-C ) :   1.0915
B(  1-N ,  3-N ) :   0.1247 B(  1-N ,  4-C ) :   0.2559 B(  1-N ,  7-H ) :   1.2278
B(  1-N , 10-H ) :   0.2058 B(  1-N , 11-H ) :   0.1426 B(  2-C ,  3-N ) :   0.9255
B(  2-C ,  4-C ) :   1.4678 B(  2-C ,  5-H ) :   0.1811 B(  2-C ,  7-H ) :  -0.2115
B(  3-N ,  4-C ) :   0.1928 B(  3-N ,  8-H ) :   1.0482 B(  3-N , 12-H ) :   1.2103
B(  4-C ,  5-H ) :   0.7239 B(  4-C ,  6-H ) :   0.8191 B(  5-H ,  6-H ) :   0.1289
B(  8-H , 12-H ) :  -0.1923 B(  9-C , 13-H ) :   0.7479 B(  9-C , 14-H ) :   0.7840
B(  9-C , 15-H ) :   0.8016

FINAL SINGLE POINT ENERGY      -267.586779079162

DIPOLE MOMENT
-------------
                                X             Y             Z
Electronic contribution:      2.51828       0.92110       0.96556
Nuclear contribution   :     -3.31079      -1.42658      -0.45147
                        -----------------------------------------
Total Dipole Moment    :     -0.79251      -0.50548       0.51410
                        -----------------------------------------
Magnitude (a.u.)       :      1.07139
Magnitude (Debye)      :      2.72325

Rotational constants in cm-1:     0.225507     0.077571     0.068070
Rotational constants in MHz :  6760.542142  2325.533779  2040.680522

                             ****ORCA TERMINATED NORMALLY****
TOTAL RUN TIME: 0 days 0 hours 0 minutes 31 seconds 338 msec
