                         Program Version 5.0.0 -  RELEASE  -
|  1> !CAM-B3LYP RIJCOSX def2-SVPD def2/J TightSCF xyzfile
|  2>
|  3> *xyzfile 0 1 D4.xyz
|  4>
|  5> %MaxCore 64000
|  6>
|  7> %pal nprocs 4
|  8> end
|  9>
| 10> %scf
| 11>   MaxIter 150
| 12> end
| 13>
| 14>
| 15>                          ****END OF INPUT****

CARTESIAN COORDINATES (ANGSTROEM)
---------------------------------
  C      3.913853   -1.658291    3.015134
  C      5.039266   -0.901154    2.492821
  C      4.084215    1.742081   -2.114724
  C      4.265245    2.500518   -0.795890
  H      4.868534    3.392674   -0.981134
  H      3.307640    2.824571   -0.387809
  C      4.982240    1.650257    0.247422
  C      6.210384   -1.417261    2.178244
  N      6.535913   -2.677122    2.556078
  N      7.076754   -0.700820    1.478906
  H      7.954643   -1.121554    1.207554
  H      6.756161    0.106637    0.960278
  H      4.842168    0.017609    2.115191
  H      5.993876   -3.126918    3.282784
  H      7.498441   -2.975482    2.468776
  O      4.368065    1.389270    1.313706
  F      6.128919    1.233512   -0.045620
  C      3.139159   -2.376572    1.910609
  H      3.267235   -0.939401    3.520693
  H      4.247195   -2.355095    3.790065
  C      1.997274    0.430918   -1.399218
  C      3.412746    0.376886   -1.965497
  H      4.047407   -0.246590   -1.326706
  H      3.390774   -0.118719   -2.942839
  H      5.068475    1.598504   -2.565728
  H      3.503356    2.363939   -2.804565
  C      2.399946   -1.389579    1.009490
  H      2.440750   -3.087118    2.362976
  H      3.844475   -2.970462    1.318677
  C      2.070177   -1.936705   -0.372401
  H      1.481611   -1.061542    1.509912
  H      3.008628   -0.490001    0.897451
  C      1.322238   -0.935775   -1.256413
  H      1.472747   -2.850902   -0.283997
  H      3.003539   -2.234041   -0.862535
  H      1.376444    1.058920   -2.047420
  H      2.015341    0.929780   -0.426535
  H      0.316648   -0.787213   -0.848278
  H      1.185611   -1.379252   -2.248613

 Total Charge           Charge          ....    0
 Multiplicity           Mult            ....    1
 Number of Electrons    NEL             ....  126
 Basis Dimension        Dim             ....  510

ORBITAL ENERGIES
----------------

  NO   OCC          E(Eh)            E(eV)
   0   2.0000     -24.875415      -676.8944
   1   2.0000     -19.237865      -523.4889
   2   2.0000     -14.389141      -391.5484
   3   2.0000     -14.379554      -391.2875
   4   2.0000     -10.461540      -284.6730
   5   2.0000     -10.296743      -280.1886
   6   2.0000     -10.280567      -279.7484
   7   2.0000     -10.280191      -279.7382
   8   2.0000     -10.262956      -279.2692
   9   2.0000     -10.252243      -278.9777
  10   2.0000     -10.246049      -278.8092
  11   2.0000     -10.237240      -278.5695
  12   2.0000     -10.225979      -278.2630
  13   2.0000     -10.221484      -278.1407
  14   2.0000     -10.214965      -277.9633
  15   2.0000     -10.145592      -276.0756
  16   2.0000      -1.421908       -38.6921
  17   2.0000      -1.126926       -30.6652
  18   2.0000      -1.017048       -27.6753
  19   2.0000      -0.926195       -25.2030
  20   2.0000      -0.912774       -24.8378
  21   2.0000      -0.878275       -23.8991
  22   2.0000      -0.848518       -23.0893
  23   2.0000      -0.819236       -22.2926
  24   2.0000      -0.786478       -21.4012
  25   2.0000      -0.763409       -20.7734
  26   2.0000      -0.743327       -20.2269
  27   2.0000      -0.707495       -19.2519
  28   2.0000      -0.679466       -18.4892
  29   2.0000      -0.666305       -18.1311
  30   2.0000      -0.656258       -17.8577
  31   2.0000      -0.645673       -17.5697
  32   2.0000      -0.624949       -17.0057
  33   2.0000      -0.614344       -16.7171
  34   2.0000      -0.604458       -16.4482
  35   2.0000      -0.583932       -15.8896
  36   2.0000      -0.557223       -15.1628
  37   2.0000      -0.553997       -15.0750
  38   2.0000      -0.550628       -14.9834
  39   2.0000      -0.529654       -14.4126
  40   2.0000      -0.520147       -14.1539
  41   2.0000      -0.507809       -13.8182
  42   2.0000      -0.498557       -13.5664
  43   2.0000      -0.482956       -13.1419
  44   2.0000      -0.477620       -12.9967
  45   2.0000      -0.471616       -12.8333
  46   2.0000      -0.463124       -12.6022
  47   2.0000      -0.454560       -12.3692
  48   2.0000      -0.447155       -12.1677
  49   2.0000      -0.441613       -12.0169
  50   2.0000      -0.430713       -11.7203
  51   2.0000      -0.427983       -11.6460
  52   2.0000      -0.408598       -11.1185
  53   2.0000      -0.399707       -10.8766
  54   2.0000      -0.398263       -10.8373
  55   2.0000      -0.393317       -10.7027
  56   2.0000      -0.373150       -10.1539
  57   2.0000      -0.367453        -9.9989
  58   2.0000      -0.361886        -9.8474
  59   2.0000      -0.357619        -9.7313
  60   2.0000      -0.330211        -8.9855
  61   2.0000      -0.315466        -8.5843
  62   2.0000      -0.198246        -5.3945
  63   0.0000       0.000768         0.0209
  64   0.0000       0.039147         1.0652
  65   0.0000       0.056632         1.5410
  66   0.0000       0.062030         1.6879
  67   0.0000       0.064820         1.7638

MULLIKEN ATOMIC CHARGES
-----------------------
   0 C :    0.758631
   1 C :    0.302622
   2 C :    0.574785
   3 C :    0.470447
   4 H :   -0.176670
   5 H :    0.064177
   6 C :    0.501748
   7 C :    0.567671
   8 N :    0.094671
   9 N :    0.542521
  10 H :   -0.211929
  11 H :   -0.424221
  12 H :   -0.844493
  13 H :   -0.069274
  14 H :   -0.315306
  15 O :   -0.523531
  16 F :   -0.415362
  17 C :    0.552138
  18 H :   -0.027212
  19 H :   -0.330854
  20 C :    0.025356
  21 C :    0.060282
  22 H :   -0.109197
  23 H :   -0.237142
  24 H :   -0.095494
  25 H :   -0.183889
  26 C :    0.879964
  27 H :   -0.175505
  28 H :   -0.129086
  29 C :    0.146171
  30 H :   -0.012215
  31 H :   -1.183564
  32 C :    0.865431
  33 H :   -0.511621
  34 H :    0.078060
  35 H :   -0.500489
  36 H :    0.124179
  37 H :   -0.051269
  38 H :   -0.080535
Sum of atomic charges:   -0.0000000

LOEWDIN ATOMIC CHARGES
----------------------
   0 C :   -0.044664
   1 C :   -0.013287
   2 C :   -0.019174
   3 C :    0.063208
   4 H :    0.038981
   5 H :    0.034208
   6 C :    0.046442
   7 C :   -0.203032
   8 N :    0.200692
   9 N :    0.204179
  10 H :   -0.009440
  11 H :   -0.083889
  12 H :   -0.140622
  13 H :   -0.020584
  14 H :   -0.019572
  15 O :   -0.110008
  16 F :   -0.017516
  17 C :   -0.026765
  18 H :    0.021451
  19 H :   -0.002587
  20 C :   -0.031542
  21 C :   -0.028084
  22 H :    0.014328
  23 H :    0.032321
  24 H :    0.023993
  25 H :    0.029659
  26 C :   -0.028718
  27 H :    0.015891
  28 H :    0.017639
  29 C :   -0.040222
  30 H :    0.036184
  31 H :   -0.024032
  32 C :   -0.031175
  33 H :    0.023567
  34 H :    0.016078
  35 H :    0.024818
  36 H :    0.008662
  37 H :    0.022984
  38 H :    0.019630

  Mayer bond orders larger than 0.100000
B(  0-C ,  1-C ) :   0.8546 B(  0-C ,  7-C ) :   0.1392 B(  0-C , 12-H ) :   0.8451
B(  0-C , 17-C ) :   1.0380 B(  0-C , 18-H ) :   0.6471 B(  0-C , 19-H ) :   0.4823
B(  1-C ,  7-C ) :   1.8024 B(  1-C ,  8-N ) :   0.2773 B(  1-C ,  9-N ) :   0.2478
B(  1-C , 12-H ) :  -0.4098 B(  1-C , 13-H ) :  -0.1247 B(  1-C , 18-H ) :   0.3449
B(  1-C , 19-H ) :   0.3641 B(  2-C ,  3-C ) :   1.1359 B(  2-C ,  4-H ) :   0.1777
B(  2-C ,  6-C ) :   0.1140 B(  2-C , 21-C ) :   1.1999 B(  2-C , 22-H ) :   0.1072
B(  2-C , 24-H ) :   0.6286 B(  2-C , 25-H ) :   0.7755 B(  3-C ,  4-H ) :   0.5871
B(  3-C ,  5-H ) :   0.7554 B(  3-C ,  6-C ) :   1.1817 B(  3-C , 21-C ) :   0.1110
B(  3-C , 24-H ) :   0.1101 B(  3-C , 25-H ) :   0.1677 B(  4-H ,  6-C ) :   0.3009
B(  5-H ,  6-C ) :   0.2220 B(  6-C , 15-O ) :   1.8508 B(  6-C , 16-F ) :   0.5426
B(  7-C ,  8-N ) :   0.8316 B(  7-C ,  9-N ) :   0.8259 B(  7-C , 11-H ) :  -0.2762
B(  7-C , 12-H ) :   0.4574 B(  7-C , 14-H ) :  -0.1661 B(  7-C , 19-H ) :  -0.1148
B(  8-N , 13-H ) :   1.0471 B(  8-N , 14-H ) :   1.2894 B(  9-N , 10-H ) :   1.1232
B(  9-N , 11-H ) :   1.2062 B( 10-H , 11-H ) :  -0.1837 B( 10-H , 12-H ) :  -0.1071
B( 12-H , 19-H ) :   0.1190 B( 12-H , 31-H ) :   0.1035 B( 13-H , 14-H ) :  -0.1959
B( 15-O , 16-F ) :   0.1557 B( 15-O , 31-H ) :   0.1111 B( 17-C , 19-H ) :   0.1292
B( 17-C , 26-C ) :   1.1025 B( 17-C , 27-H ) :   0.7910 B( 17-C , 28-H ) :   0.8605
B( 17-C , 30-H ) :   0.1813 B( 18-H , 19-H ) :  -0.1413 B( 20-C , 21-C ) :   1.2196
B( 20-C , 22-H ) :   0.1322 B( 20-C , 23-H ) :   0.1589 B( 20-C , 29-C ) :   0.1394
B( 20-C , 32-C ) :   1.1139 B( 20-C , 35-H ) :   0.9689 B( 20-C , 36-H ) :   0.8188
B( 20-C , 37-H ) :   0.3149 B( 20-C , 38-H ) :   0.1414 B( 21-C , 22-H ) :   0.8888
B( 21-C , 23-H ) :   0.8376 B( 21-C , 24-H ) :   0.2822 B( 21-C , 25-H ) :   0.1735
B( 21-C , 35-H ) :   0.1129 B( 21-C , 36-H ) :   0.1246 B( 24-H , 25-H ) :  -0.1461
B( 26-C , 27-H ) :   0.1990 B( 26-C , 28-H ) :   0.1288 B( 26-C , 29-C ) :   1.2083
B( 26-C , 30-H ) :   0.5593 B( 26-C , 31-H ) :  -0.2362 B( 26-C , 33-H ) :   0.1066
B( 26-C , 34-H ) :   0.1477 B( 27-H , 31-H ) :   0.1114 B( 28-H , 33-H ) :  -0.1182
B( 29-C , 31-H ) :   0.1670 B( 29-C , 32-C ) :   1.0833 B( 29-C , 33-H ) :   0.9562
B( 29-C , 34-H ) :   0.8209 B( 29-C , 37-H ) :   0.1223 B( 29-C , 38-H ) :   0.2747
B( 30-H , 31-H ) :   0.2776 B( 31-H , 36-H ) :   0.1117 B( 32-C , 37-H ) :   0.6098
B( 32-C , 38-H ) :   0.6156 B( 33-H , 34-H ) :  -0.1024 B( 37-H , 38-H ) :  -0.1368

FINAL SINGLE POINT ENERGY      -754.766933239968

DIPOLE MOMENT
-------------
                                X             Y             Z
Electronic contribution:     14.25229       8.78855       3.66017
Nuclear contribution   :    -13.61164      -8.17416      -5.14068
                        -----------------------------------------
Total Dipole Moment    :      0.64065       0.61438      -1.48051
                        -----------------------------------------
Magnitude (a.u.)       :      1.72621
Magnitude (Debye)      :      4.38768

Rotational constants in cm-1:     0.019858     0.013613     0.009401
Rotational constants in MHz :   595.331791   408.100423   281.843625

                             ****ORCA TERMINATED NORMALLY****
TOTAL RUN TIME: 0 days 0 hours 7 minutes 33 seconds 661 msec
