                         Program Version 5.0.0 -  RELEASE  -
|  1> !CAM-B3LYP RIJCOSX def2-SVPD def2/J TightSCF xyzfile
|  2>
|  3> *xyzfile 0 1 D6.xyz
|  4>
|  5> %MaxCore 64000
|  6>
|  7> %pal nprocs 4
|  8> end
|  9>
| 10> %scf
| 11>   MaxIter 150
| 12> end
| 13>
| 14>
| 15>                          ****END OF INPUT****

CARTESIAN COORDINATES (ANGSTROEM)
---------------------------------
  C      3.913853   -1.658291    3.015134
  N      5.039266   -0.901154    2.492821
  C      4.084215    1.742081   -2.114724
  C      4.265245    2.500518   -0.795890
  H      4.868534    3.392674   -0.981134
  H      3.307640    2.824571   -0.387809
  C      4.982240    1.650257    0.247422
  C      6.210384   -1.417261    2.178244
  N      6.535913   -2.677122    2.556078
  C      7.076754   -0.700820    1.478906
  H      7.954643   -1.121554    1.207554
  H      6.756161    0.106637    0.960278
  H      4.842168    0.017609    2.115191
  H      5.993876   -3.126918    3.282784
  H      7.498441   -2.975482    2.468776
  O      4.368065    1.389270    1.313706
  F      6.128919    1.233512   -0.045620
  C      3.139159   -2.376572    1.910609
  H      3.267235   -0.939401    3.520693
  H      4.247195   -2.355095    3.790065
  C      1.997274    0.430918   -1.399218
  C      3.412746    0.376886   -1.965497
  H      4.047407   -0.246590   -1.326706
  H      3.390774   -0.118719   -2.942839
  H      5.068475    1.598504   -2.565728
  H      3.503356    2.363939   -2.804565
  C      2.399946   -1.389579    1.009490
  H      2.440750   -3.087118    2.362976
  H      3.844475   -2.970462    1.318677
  C      2.070177   -1.936705   -0.372401
  H      1.481611   -1.061542    1.509912
  H      3.008628   -0.490001    0.897451
  C      1.322238   -0.935775   -1.256413
  H      1.472747   -2.850902   -0.283997
  H      3.003539   -2.234041   -0.862535
  H      1.376444    1.058920   -2.047420
  H      2.015341    0.929780   -0.426535
  H      0.316648   -0.787213   -0.848278
  H      1.185611   -1.379252   -2.248613

 Total Charge           Charge          ....    0
 Multiplicity           Mult            ....    1
 Number of Electrons    NEL             ....  126
 Basis Dimension        Dim             ....  510

ORBITAL ENERGIES
----------------

  NO   OCC          E(Eh)            E(eV)
   0   2.0000     -24.860360      -676.4848
   1   2.0000     -19.247194      -523.7428
   2   2.0000     -14.387896      -391.5145
   3   2.0000     -14.366574      -390.9343
   4   2.0000     -10.466815      -284.8165
   5   2.0000     -10.298330      -280.2318
   6   2.0000     -10.285397      -279.8799
   7   2.0000     -10.281701      -279.7793
   8   2.0000     -10.277370      -279.6615
   9   2.0000     -10.265637      -279.3422
  10   2.0000     -10.257379      -279.1175
  11   2.0000     -10.253126      -279.0017
  12   2.0000     -10.247540      -278.8498
  13   2.0000     -10.242248      -278.7057
  14   2.0000     -10.241889      -278.6960
  15   2.0000     -10.142546      -275.9927
  16   2.0000      -1.408884       -38.3377
  17   2.0000      -1.135076       -30.8870
  18   2.0000      -1.021260       -27.7899
  19   2.0000      -0.936108       -25.4728
  20   2.0000      -0.915892       -24.9227
  21   2.0000      -0.883787       -24.0491
  22   2.0000      -0.852289       -23.1920
  23   2.0000      -0.815320       -22.1860
  24   2.0000      -0.790098       -21.4997
  25   2.0000      -0.754798       -20.5391
  26   2.0000      -0.748641       -20.3715
  27   2.0000      -0.713997       -19.4288
  28   2.0000      -0.685243       -18.6464
  29   2.0000      -0.669505       -18.2182
  30   2.0000      -0.650580       -17.7032
  31   2.0000      -0.643971       -17.5233
  32   2.0000      -0.642843       -17.4926
  33   2.0000      -0.624797       -17.0016
  34   2.0000      -0.596572       -16.2335
  35   2.0000      -0.581412       -15.8210
  36   2.0000      -0.559990       -15.2381
  37   2.0000      -0.557276       -15.1642
  38   2.0000      -0.546075       -14.8595
  39   2.0000      -0.534506       -14.5446
  40   2.0000      -0.526108       -14.3161
  41   2.0000      -0.506988       -13.7959
  42   2.0000      -0.502960       -13.6862
  43   2.0000      -0.493845       -13.4382
  44   2.0000      -0.487841       -13.2748
  45   2.0000      -0.480552       -13.0765
  46   2.0000      -0.464021       -12.6266
  47   2.0000      -0.453797       -12.3484
  48   2.0000      -0.450940       -12.2707
  49   2.0000      -0.444540       -12.0966
  50   2.0000      -0.435605       -11.8534
  51   2.0000      -0.422341       -11.4925
  52   2.0000      -0.420477       -11.4418
  53   2.0000      -0.409623       -11.1464
  54   2.0000      -0.407173       -11.0797
  55   2.0000      -0.401854       -10.9350
  56   2.0000      -0.390638       -10.6298
  57   2.0000      -0.378822       -10.3083
  58   2.0000      -0.377149       -10.2627
  59   2.0000      -0.372942       -10.1483
  60   2.0000      -0.367845       -10.0096
  61   2.0000      -0.298605        -8.1254
  62   2.0000      -0.201475        -5.4824
  63   0.0000      -0.002519        -0.0685
  64   0.0000       0.042513         1.1568
  65   0.0000       0.057689         1.5698
  66   0.0000       0.060010         1.6329
  67   0.0000       0.060531         1.6471

MULLIKEN ATOMIC CHARGES
-----------------------
   0 C :    1.358037
   1 N :    0.367520
   2 C :    0.569298
   3 C :    0.448794
   4 H :   -0.169309
   5 H :    0.069856
   6 C :    0.547064
   7 C :    0.701617
   8 N :    0.251037
   9 C :    1.220361
  10 H :   -0.384659
  11 H :   -1.125464
  12 H :   -1.112964
  13 H :   -0.145869
  14 H :   -0.222349
  15 O :   -0.533361
  16 F :   -0.476894
  17 C :    0.468960
  18 H :   -0.399869
  19 H :   -0.343226
  20 C :    0.044296
  21 C :    0.054346
  22 H :   -0.116113
  23 H :   -0.237005
  24 H :   -0.090836
  25 H :   -0.183530
  26 C :    0.864025
  27 H :   -0.255071
  28 H :   -0.080150
  29 C :    0.182333
  30 H :   -0.083744
  31 H :   -1.097390
  32 C :    0.866439
  33 H :   -0.496868
  34 H :    0.058726
  35 H :   -0.486626
  36 H :    0.111992
  37 H :   -0.054319
  38 H :   -0.089086
Sum of atomic charges:    0.0000000

LOEWDIN ATOMIC CHARGES
----------------------
   0 C :    0.057374
   1 N :    0.016323
   2 C :   -0.016007
   3 C :    0.063733
   4 H :    0.040985
   5 H :    0.033175
   6 C :    0.053790
   7 C :   -0.214529
   8 N :    0.201749
   9 C :    0.165311
  10 H :   -0.100996
  11 H :   -0.170966
  12 H :   -0.089049
  13 H :   -0.033926
  14 H :   -0.000921
  15 O :   -0.110280
  16 F :   -0.024699
  17 C :   -0.018638
  18 H :    0.026316
  19 H :    0.003050
  20 C :   -0.031774
  21 C :   -0.026927
  22 H :    0.015328
  23 H :    0.033199
  24 H :    0.026610
  25 H :    0.030165
  26 C :   -0.032366
  27 H :    0.020403
  28 H :    0.019395
  29 C :   -0.038041
  30 H :    0.036426
  31 H :   -0.025890
  32 C :   -0.029618
  33 H :    0.024654
  34 H :    0.018730
  35 H :    0.025677
  36 H :    0.007692
  37 H :    0.023281
  38 H :    0.021261

  Mayer bond orders larger than 0.100000
B(  0-C ,  1-N ) :   0.9379 B(  0-C , 12-H ) :  -0.5028 B(  0-C , 17-C ) :   1.0327
B(  0-C , 18-H ) :   0.5284 B(  0-C , 19-H ) :   0.7122 B(  0-C , 26-C ) :   0.1776
B(  1-N ,  7-C ) :   1.1309 B(  1-N ,  8-N ) :   0.1705 B(  1-N ,  9-C ) :   0.1119
B(  1-N , 12-H ) :   0.8854 B(  1-N , 18-H ) :   0.2248 B(  1-N , 19-H ) :   0.1048
B(  2-C ,  3-C ) :   1.1395 B(  2-C ,  4-H ) :   0.1806 B(  2-C ,  6-C ) :   0.1149
B(  2-C , 21-C ) :   1.2117 B(  2-C , 22-H ) :   0.1044 B(  2-C , 24-H ) :   0.6339
B(  2-C , 25-H ) :   0.7753 B(  3-C ,  4-H ) :   0.6000 B(  3-C ,  5-H ) :   0.7326
B(  3-C ,  6-C ) :   1.2124 B(  3-C , 21-C ) :   0.1132 B(  3-C , 24-H ) :   0.1123
B(  3-C , 25-H ) :   0.1634 B(  4-H ,  6-C ) :   0.2986 B(  5-H ,  6-C ) :   0.2333
B(  6-C , 15-O ) :   1.7297 B(  6-C , 16-F ) :   0.6051 B(  7-C ,  8-N ) :   0.8661
B(  7-C ,  9-C ) :   1.5422 B(  7-C , 10-H ) :   0.3251 B(  7-C , 12-H ) :  -0.6716
B(  7-C , 19-H ) :  -0.1081 B(  8-N ,  9-C ) :   0.2574 B(  8-N , 13-H ) :   0.9989
B(  8-N , 14-H ) :   1.2125 B(  8-N , 19-H ) :   0.1094 B(  9-C , 10-H ) :   0.3602
B( 10-H , 11-H ) :   0.3103 B( 11-H , 16-F ) :   0.2630 B( 12-H , 15-O ) :   0.1612
B( 12-H , 18-H ) :   0.1846 B( 13-H , 14-H ) :  -0.1953 B( 15-O , 16-F ) :   0.1301
B( 17-C , 19-H ) :   0.1962 B( 17-C , 26-C ) :   1.0920 B( 17-C , 27-H ) :   0.8706
B( 17-C , 28-H ) :   0.8436 B( 17-C , 29-C ) :   0.1022 B( 17-C , 30-H ) :   0.1557
B( 18-H , 19-H ) :  -0.2559 B( 20-C , 21-C ) :   1.2123 B( 20-C , 22-H ) :   0.1255
B( 20-C , 23-H ) :   0.1571 B( 20-C , 29-C ) :   0.1382 B( 20-C , 32-C ) :   1.1263
B( 20-C , 35-H ) :   0.9439 B( 20-C , 36-H ) :   0.8213 B( 20-C , 37-H ) :   0.3135
B( 20-C , 38-H ) :   0.1473 B( 21-C , 22-H ) :   0.8941 B( 21-C , 23-H ) :   0.8364
B( 21-C , 24-H ) :   0.2754 B( 21-C , 25-H ) :   0.1765 B( 21-C , 35-H ) :   0.1224
B( 21-C , 36-H ) :   0.1238 B( 24-H , 25-H ) :  -0.1451 B( 26-C , 27-H ) :   0.1797
B( 26-C , 29-C ) :   1.2211 B( 26-C , 30-H ) :   0.5602 B( 26-C , 31-H ) :  -0.1828
B( 26-C , 34-H ) :   0.1734 B( 27-H , 31-H ) :   0.1132 B( 28-H , 33-H ) :  -0.1062
B( 29-C , 31-H ) :   0.1613 B( 29-C , 32-C ) :   1.0855 B( 29-C , 33-H ) :   0.9608
B( 29-C , 34-H ) :   0.8102 B( 29-C , 37-H ) :   0.1199 B( 29-C , 38-H ) :   0.2580
B( 30-H , 31-H ) :   0.2966 B( 31-H , 36-H ) :   0.1077 B( 32-C , 37-H ) :   0.6078
B( 32-C , 38-H ) :   0.6351 B( 37-H , 38-H ) :  -0.1394

FINAL SINGLE POINT ENERGY      -754.769163412591

DIPOLE MOMENT
-------------
                                X             Y             Z
Electronic contribution:     12.38181       8.54414       4.37558
Nuclear contribution   :    -13.25777      -8.13937      -5.31678
                        -----------------------------------------
Total Dipole Moment    :     -0.87596       0.40477      -0.94120
                        -----------------------------------------
Magnitude (a.u.)       :      1.34796
Magnitude (Debye)      :      3.42624

Rotational constants in cm-1:     0.020021     0.013636     0.009443
Rotational constants in MHz :   600.208195   408.782966   283.102361

                             ****ORCA TERMINATED NORMALLY****
TOTAL RUN TIME: 0 days 0 hours 7 minutes 11 seconds 238 msec
