                         Program Version 5.0.0 -  RELEASE  -
|  1> !PBE D3BJ RIJCOSX def2-SVP def2/J TightSCF
|  2> *xyz -1 1
|  3> C          0.61188        1.65763       -4.50029
|  4> C          1.69499        1.54179       -5.57045
|  5> H          2.69733        1.73466       -5.18400
|  6> H          1.50666        2.27224       -6.35808
|  7> S          1.78029       -0.03313       -6.42874
|  8> O          2.56929        0.21366       -7.60736
|  9> O          0.41688       -0.46297       -6.61859
| 10> O          2.50513       -0.93326       -5.48257
| 11> H         -0.34424        1.45871       -4.93752
| 12> H          0.61845        2.64655       -4.09174
| 13> H          0.80247        0.94882       -3.72173
| 14> *
| 15> %MaxCore 64000
| 16>
| 17> %pal nprocs 4
| 18> end
| 19>
| 20> %scf
| 21>   MaxIter 150
| 22> end
| 23>
| 24>
| 25>                          ****END OF INPUT****

CARTESIAN COORDINATES (ANGSTROEM)
---------------------------------
  C      0.611880    1.657630   -4.500290
  C      1.694990    1.541790   -5.570450
  H      2.697330    1.734660   -5.184000
  H      1.506660    2.272240   -6.358080
  S      1.780290   -0.033130   -6.428740
  O      2.569290    0.213660   -7.607360
  O      0.416880   -0.462970   -6.618590
  O      2.505130   -0.933260   -5.482570
  H     -0.344240    1.458710   -4.937520
  H      0.618450    2.646550   -4.091740
  H      0.802470    0.948820   -3.721730

 Total Charge           Charge          ....   -1
 Multiplicity           Mult            ....    1
 Number of Electrons    NEL             ....   58
 Basis Dimension        Dim             ....  113

ORBITAL ENERGIES
----------------

  NO   OCC          E(Eh)            E(eV)
   0   2.0000     -88.007790     -2394.8137
   1   2.0000     -18.506598      -503.5901
   2   2.0000     -18.504867      -503.5430
   3   2.0000     -18.483873      -502.9718
   4   2.0000      -9.742103      -265.0961
   5   2.0000      -9.735122      -264.9061
   6   2.0000      -7.619484      -207.3367
   7   2.0000      -5.646045      -153.6367
   8   2.0000      -5.645731      -153.6282
   9   2.0000      -5.645516      -153.6223
  10   2.0000      -0.806851       -21.9555
  11   2.0000      -0.675354       -18.3773
  12   2.0000      -0.639730       -17.4079
  13   2.0000      -0.540366       -14.7041
  14   2.0000      -0.423407       -11.5215
  15   2.0000      -0.298691        -8.1278
  16   2.0000      -0.254039        -6.9127
  17   2.0000      -0.237732        -6.4690
  18   2.0000      -0.207280        -5.6404
  19   2.0000      -0.184414        -5.0182
  20   2.0000      -0.181718        -4.9448
  21   2.0000      -0.162366        -4.4182
  22   2.0000      -0.150162        -4.0861
  23   2.0000      -0.066531        -1.8104
  24   2.0000      -0.066414        -1.8072
  25   2.0000      -0.038401        -1.0449
  26   2.0000      -0.035933        -0.9778
  27   2.0000      -0.012744        -0.3468
  28   2.0000       0.019847         0.5401
  29   0.0000       0.184402         5.0178
  30   0.0000       0.235170         6.3993
  31   0.0000       0.238668         6.4945
  32   0.0000       0.245703         6.6859
  33   0.0000       0.270518         7.3612

MULLIKEN ATOMIC CHARGES
-----------------------
   0 C :    0.026023
   1 C :   -0.105062
   2 H :    0.000148
   3 H :   -0.011660
   4 S :    0.735119
   5 O :   -0.519334
   6 O :   -0.517946
   7 O :   -0.580841
   8 H :    0.004985
   9 H :   -0.033804
  10 H :    0.002373
Sum of atomic charges:   -1.0000000

LOEWDIN ATOMIC CHARGES
----------------------
   0 C :   -0.081438
   1 C :   -0.199124
   2 H :    0.008132
   3 H :    0.001538
   4 S :    1.027369
   5 O :   -0.575523
   6 O :   -0.574662
   7 O :   -0.637892
   8 H :    0.015119
   9 H :    0.001605
  10 H :    0.014877

  Mayer bond orders larger than 0.100000
B(  0-C ,  1-C ) :   1.0734 B(  0-C ,  8-H ) :   0.9584 B(  0-C ,  9-H ) :   0.9523
B(  0-C , 10-H ) :   0.9609 B(  1-C ,  2-H ) :   0.9345 B(  1-C ,  3-H ) :   0.9282
B(  1-C ,  4-S ) :   0.8633 B(  4-S ,  5-O ) :   1.6512 B(  4-S ,  6-O ) :   1.6417
B(  4-S ,  7-O ) :   1.5911

Dispersion correction           -0.009639369
FINAL SINGLE POINT ENERGY      -702.221050315382

DIPOLE MOMENT
-------------
                                X             Y             Z
Electronic contribution:      2.29510      -5.88637      -5.16506
Nuclear contribution   :     -2.69163       7.29476       5.86550
                        -----------------------------------------
Total Dipole Moment    :     -0.39653       1.40839       0.70044
                        -----------------------------------------
Magnitude (a.u.)       :      1.62216
Magnitude (Debye)      :      4.12321

Rotational constants in cm-1:     0.163060     0.082831     0.081111
Rotational constants in MHz :  4888.419330  2483.225008  2431.646841

                             ****ORCA TERMINATED NORMALLY****
TOTAL RUN TIME: 0 days 0 hours 0 minutes 3 seconds 843 msec
