                         Program Version 5.0.0 -  RELEASE  -
|  1> !PBE D3BJ RIJCOSX def2-SVP def2/J TightSCF
|  2> *xyz 1 1
|  3> C          1.96337       -1.74915       -1.89689
|  4> N          2.73849       -2.01517       -3.09711
|  5> C          4.04974       -2.15472       -3.15204
|  6> N          4.65821       -1.98629       -4.31866
|  7> N          4.76423       -2.45444       -2.05049
|  8> H          4.28736       -2.77626       -1.21750
|  9> H          5.75082       -2.65835       -2.12599
| 10> H          2.34518       -1.69027       -3.97145
| 11> H          4.10900       -1.59268       -5.07176
| 12> H          5.64910       -2.15646       -4.42724
| 13> C          2.08852       -0.30091       -1.41520
| 14> H          2.23127       -2.45162       -1.10264
| 15> H          0.93025       -1.97780       -2.15544
| 16> H          1.82118        0.36368       -2.21003
| 17> H          3.09792       -0.11068       -1.11551
| 18> H          1.43391       -0.14382       -0.58352
| 19> *
| 20> %MaxCore 64000
| 21>
| 22> %pal nprocs 4
| 23> end
| 24>
| 25> %scf
| 26>   MaxIter 150
| 27> end
| 28>
| 29>
| 30>                          ****END OF INPUT****

CARTESIAN COORDINATES (ANGSTROEM)
---------------------------------
  C      1.963370   -1.749150   -1.896890
  N      2.738490   -2.015170   -3.097110
  C      4.049740   -2.154720   -3.152040
  N      4.658210   -1.986290   -4.318660
  N      4.764230   -2.454440   -2.050490
  H      4.287360   -2.776260   -1.217500
  H      5.750820   -2.658350   -2.125990
  H      2.345180   -1.690270   -3.971450
  H      4.109000   -1.592680   -5.071760
  H      5.649100   -2.156460   -4.427240
  C      2.088520   -0.300910   -1.415200
  H      2.231270   -2.451620   -1.102640
  H      0.930250   -1.977800   -2.155440
  H      1.821180    0.363680   -2.210030
  H      3.097920   -0.110680   -1.115510
  H      1.433910   -0.143820   -0.583520

 Total Charge           Charge          ....    1
 Multiplicity           Mult            ....    1
 Number of Electrons    NEL             ....   48
 Basis Dimension        Dim             ....  134

ORBITAL ENERGIES
----------------

  NO   OCC          E(Eh)            E(eV)
   0   2.0000     -14.220187      -386.9510
   1   2.0000     -14.218510      -386.9053
   2   2.0000     -14.217304      -386.8725
   3   2.0000     -10.213941      -277.9355
   4   2.0000     -10.100380      -274.8453
   5   2.0000     -10.031286      -272.9652
   6   2.0000      -1.122372       -30.5413
   7   2.0000      -1.017672       -27.6923
   8   2.0000      -1.004762       -27.3410
   9   2.0000      -0.854281       -23.2462
  10   2.0000      -0.774712       -21.0810
  11   2.0000      -0.741568       -20.1791
  12   2.0000      -0.727260       -19.7898
  13   2.0000      -0.687361       -18.7040
  14   2.0000      -0.643688       -17.5157
  15   2.0000      -0.635980       -17.3059
  16   2.0000      -0.606302       -16.4983
  17   2.0000      -0.576929       -15.6990
  18   2.0000      -0.550716       -14.9858
  19   2.0000      -0.516906       -14.0657
  20   2.0000      -0.485091       -13.2000
  21   2.0000      -0.466531       -12.6949
  22   2.0000      -0.431466       -11.7408
  23   2.0000      -0.408376       -11.1125
  24   0.0000      -0.190301        -5.1783
  25   0.0000      -0.164221        -4.4687
  26   0.0000      -0.131739        -3.5848
  27   0.0000      -0.120282        -3.2730
  28   0.0000      -0.099432        -2.7057

MULLIKEN ATOMIC CHARGES
-----------------------
   0 C :   -0.015592
   1 N :   -0.067970
   2 C :   -0.019469
   3 N :    0.015383
   4 N :   -0.013585
   5 H :    0.161731
   6 H :    0.162745
   7 H :    0.152353
   8 H :    0.163265
   9 H :    0.168291
  10 C :   -0.005451
  11 H :    0.062195
  12 H :    0.075746
  13 H :    0.046654
  14 H :    0.039682
  15 H :    0.074023
Sum of atomic charges:    1.0000000

LOEWDIN ATOMIC CHARGES
----------------------
   0 C :    0.028856
   1 N :    0.050937
   2 C :    0.107064
   3 N :    0.066154
   4 N :    0.055220
   5 H :    0.105925
   6 H :    0.109104
   7 H :    0.102295
   8 H :    0.108427
   9 H :    0.111868
  10 C :   -0.054743
  11 H :    0.037583
  12 H :    0.052599
  13 H :    0.035712
  14 H :    0.030620
  15 H :    0.052378

  Mayer bond orders larger than 0.100000
B(  0-C ,  1-N ) :   0.9664 B(  0-C , 10-C ) :   1.1047 B(  0-C , 11-H ) :   0.9412
B(  0-C , 12-H ) :   0.9382 B(  1-N ,  2-C ) :   1.3717 B(  1-N ,  7-H ) :   0.9045
B(  2-C ,  3-N ) :   1.4012 B(  2-C ,  4-N ) :   1.3851 B(  3-N ,  8-H ) :   0.9216
B(  3-N ,  9-H ) :   0.9236 B(  4-N ,  5-H ) :   0.9213 B(  4-N ,  6-H ) :   0.9253
B( 10-C , 13-H ) :   0.9645 B( 10-C , 14-H ) :   0.9625 B( 10-C , 15-H ) :   0.9561

Dispersion correction           -0.012419522
FINAL SINGLE POINT ENERGY      -283.841395447908

DIPOLE MOMENT
-------------
                                X             Y             Z
Electronic contribution:      3.07822      -2.73136      -3.13656
Nuclear contribution   :     -2.17768       2.37118       2.44574
                        -----------------------------------------
Total Dipole Moment    :      0.90053      -0.36018      -0.69082
                        -----------------------------------------
Magnitude (a.u.)       :      1.19077
Magnitude (Debye)      :      3.02669

Rotational constants in cm-1:     0.215650     0.075183     0.066454
Rotational constants in MHz :  6465.033740  2253.919004  1992.232519

                             ****ORCA TERMINATED NORMALLY****
TOTAL RUN TIME: 0 days 0 hours 0 minutes 5 seconds 40 msec
