                         Program Version 5.0.0 -  RELEASE  -
|  1> !PBE D3BJ RIJCOSX def2-SVP def2/J TightSCF
|  2> *xyz 0 1
|  3> C          0.61188        1.65763       -4.50029
|  4> C          1.69499        1.54179       -5.57045
|  5> H          2.69733        1.73466       -5.18400
|  6> H          1.50666        2.27224       -6.35808
|  7> S          1.78029       -0.03313       -6.42874
|  8> F          2.56929        0.21366       -7.60736
|  9> O          0.41688       -0.46297       -6.61859
| 10> O          2.50513       -0.93326       -5.48257
| 11> H         -0.34424        1.45871       -4.93752
| 12> H          0.61845        2.64655       -4.09174
| 13> H          0.80247        0.94882       -3.72173
| 14> *
| 15> %MaxCore 64000
| 16>
| 17> %pal nprocs 4
| 18> end
| 19>
| 20> %scf
| 21>   MaxIter 150
| 22> end
| 23>
| 24>
| 25>                          ****END OF INPUT****

CARTESIAN COORDINATES (ANGSTROEM)
---------------------------------
  C      0.611880    1.657630   -4.500290
  C      1.694990    1.541790   -5.570450
  H      2.697330    1.734660   -5.184000
  H      1.506660    2.272240   -6.358080
  S      1.780290   -0.033130   -6.428740
  F      2.569290    0.213660   -7.607360
  O      0.416880   -0.462970   -6.618590
  O      2.505130   -0.933260   -5.482570
  H     -0.344240    1.458710   -4.937520
  H      0.618450    2.646550   -4.091740
  H      0.802470    0.948820   -3.721730

 Total Charge           Charge          ....    0
 Multiplicity           Mult            ....    1
 Number of Electrons    NEL             ....   58
 Basis Dimension        Dim             ....  113

ORBITAL ENERGIES
----------------

  NO   OCC          E(Eh)            E(eV)
   0   2.0000     -88.280074     -2402.2229
   1   2.0000     -24.369541      -663.1289
   2   2.0000     -18.757151      -510.4080
   3   2.0000     -18.736485      -509.8457
   4   2.0000      -9.947681      -270.6902
   5   2.0000      -9.912211      -269.7250
   6   2.0000      -7.894261      -214.8138
   7   2.0000      -5.924952      -161.2261
   8   2.0000      -5.918344      -161.0463
   9   2.0000      -5.916965      -161.0088
  10   2.0000      -1.260864       -34.3099
  11   2.0000      -1.001932       -27.2639
  12   2.0000      -0.895385       -24.3647
  13   2.0000      -0.740128       -20.1399
  14   2.0000      -0.658238       -17.9116
  15   2.0000      -0.603750       -16.4289
  16   2.0000      -0.516949       -14.0669
  17   2.0000      -0.511153       -13.9092
  18   2.0000      -0.484689       -13.1891
  19   2.0000      -0.438928       -11.9438
  20   2.0000      -0.418744       -11.3946
  21   2.0000      -0.381671       -10.3858
  22   2.0000      -0.374808       -10.1991
  23   2.0000      -0.359074        -9.7709
  24   2.0000      -0.339789        -9.2461
  25   2.0000      -0.321500        -8.7485
  26   2.0000      -0.276114        -7.5135
  27   2.0000      -0.255663        -6.9569
  28   2.0000      -0.237894        -6.4734
  29   0.0000       0.002972         0.0809
  30   0.0000       0.023225         0.6320
  31   0.0000       0.050893         1.3849
  32   0.0000       0.057967         1.5774
  33   0.0000       0.073665         2.0045

MULLIKEN ATOMIC CHARGES
-----------------------
   0 C :    0.009620
   1 C :   -0.143511
   2 H :    0.071640
   3 H :    0.053745
   4 S :    0.820021
   5 F :   -0.129267
   6 O :   -0.384308
   7 O :   -0.442671
   8 H :    0.050282
   9 H :    0.041712
  10 H :    0.052738
Sum of atomic charges:    0.0000000

LOEWDIN ATOMIC CHARGES
----------------------
   0 C :   -0.053767
   1 C :   -0.163071
   2 H :    0.038352
   3 H :    0.028663
   4 S :    1.084093
   5 F :   -0.094618
   6 O :   -0.445706
   7 O :   -0.505094
   8 H :    0.035412
   9 H :    0.038613
  10 H :    0.037123

  Mayer bond orders larger than 0.100000
B(  0-C ,  1-C ) :   1.0927 B(  0-C ,  8-H ) :   0.9622 B(  0-C ,  9-H ) :   0.9552
B(  0-C , 10-H ) :   0.9676 B(  1-C ,  2-H ) :   0.9238 B(  1-C ,  3-H ) :   0.9199
B(  1-C ,  4-S ) :   0.9025 B(  4-S ,  5-F ) :   1.0487 B(  4-S ,  6-O ) :   1.7908
B(  4-S ,  7-O ) :   1.7456

Dispersion correction           -0.009229727
FINAL SINGLE POINT ENERGY      -726.713187387716

DIPOLE MOMENT
-------------
                                X             Y             Z
Electronic contribution:      3.87534      -5.79149      -7.59712
Nuclear contribution   :     -3.66946       7.33549       7.42434
                        -----------------------------------------
Total Dipole Moment    :      0.20588       1.54400      -0.17278
                        -----------------------------------------
Magnitude (a.u.)       :      1.56722
Magnitude (Debye)      :      3.98356

Rotational constants in cm-1:     0.158379     0.080294     0.077843
Rotational constants in MHz :  4748.076444  2407.152850  2333.668303

                             ****ORCA TERMINATED NORMALLY****
TOTAL RUN TIME: 0 days 0 hours 0 minutes 3 seconds 896 msec
