                         Program Version 5.0.0 -  RELEASE  -
|  1> !PBE D3BJ RIJCOSX def2-SVP def2/J TightSCF
|  2> *xyz 0 1
|  3> C          1.96337       -1.74915       -1.89689
|  4> C          2.73849       -2.01517       -3.09711
|  5> C          4.04974       -2.15472       -3.15204
|  6> N          4.65821       -1.98629       -4.31866
|  7> N          4.76423       -2.45444       -2.05049
|  8> H          4.28736       -2.77626       -1.21750
|  9> H          5.75082       -2.65835       -2.12599
| 10> H          2.34518       -1.69027       -3.97145
| 11> H          4.10900       -1.59268       -5.07176
| 12> H          5.64910       -2.15646       -4.42724
| 13> C          2.08852       -0.30091       -1.41520
| 14> H          2.23127       -2.45162       -1.10264
| 15> H          0.93025       -1.97780       -2.15544
| 16> H          1.82118        0.36368       -2.21003
| 17> H          3.09792       -0.11068       -1.11551
| 18> H          1.43391       -0.14382       -0.58352
| 19> *
| 20> %MaxCore 64000
| 21>
| 22> %pal nprocs 4
| 23> end
| 24>
| 25> %scf
| 26>   MaxIter 150
| 27> end
| 28>
| 29>
| 30>                          ****END OF INPUT****

CARTESIAN COORDINATES (ANGSTROEM)
---------------------------------
  C      1.963370   -1.749150   -1.896890
  C      2.738490   -2.015170   -3.097110
  C      4.049740   -2.154720   -3.152040
  N      4.658210   -1.986290   -4.318660
  N      4.764230   -2.454440   -2.050490
  H      4.287360   -2.776260   -1.217500
  H      5.750820   -2.658350   -2.125990
  H      2.345180   -1.690270   -3.971450
  H      4.109000   -1.592680   -5.071760
  H      5.649100   -2.156460   -4.427240
  C      2.088520   -0.300910   -1.415200
  H      2.231270   -2.451620   -1.102640
  H      0.930250   -1.977800   -2.155440
  H      1.821180    0.363680   -2.210030
  H      3.097920   -0.110680   -1.115510
  H      1.433910   -0.143820   -0.583520

 Total Charge           Charge          ....    0
 Multiplicity           Mult            ....    1
 Number of Electrons    NEL             ....   48
 Basis Dimension        Dim             ....  134

ORBITAL ENERGIES
----------------

  NO   OCC          E(Eh)            E(eV)
   0   2.0000     -13.991129      -380.7180
   1   2.0000     -13.988700      -380.6519
   2   2.0000      -9.921907      -269.9888
   3   2.0000      -9.863167      -268.3904
   4   2.0000      -9.854253      -268.1479
   5   2.0000      -9.804409      -266.7915
   6   2.0000      -0.859663       -23.3926
   7   2.0000      -0.776774       -21.1371
   8   2.0000      -0.684450       -18.6248
   9   2.0000      -0.611112       -16.6292
  10   2.0000      -0.543410       -14.7869
  11   2.0000      -0.512995       -13.9593
  12   2.0000      -0.482100       -13.1186
  13   2.0000      -0.447183       -12.1685
  14   2.0000      -0.417528       -11.3615
  15   2.0000      -0.381722       -10.3872
  16   2.0000      -0.362299        -9.8586
  17   2.0000      -0.328214        -8.9312
  18   2.0000      -0.325066        -8.8455
  19   2.0000      -0.304290        -8.2801
  20   2.0000      -0.276353        -7.5200
  21   2.0000      -0.266870        -7.2619
  22   2.0000      -0.209804        -5.7091
  23   2.0000      -0.114826        -3.1246
  24   0.0000       0.021164         0.5759
  25   0.0000       0.052649         1.4327
  26   0.0000       0.061843         1.6828
  27   0.0000       0.077440         2.1073
  28   0.0000       0.085965         2.3392

MULLIKEN ATOMIC CHARGES
-----------------------
   0 C :    0.017740
   1 C :   -0.131417
   2 C :   -0.121811
   3 N :   -0.021268
   4 N :   -0.049226
   5 H :    0.110577
   6 H :    0.093565
   7 H :   -0.109481
   8 H :    0.114180
   9 H :    0.091838
  10 C :    0.042903
  11 H :   -0.022530
  12 H :   -0.008931
  13 H :   -0.002126
  14 H :    0.001746
  15 H :   -0.005758
Sum of atomic charges:    0.0000000

LOEWDIN ATOMIC CHARGES
----------------------
   0 C :   -0.046646
   1 C :   -0.223845
   2 C :    0.002864
   3 N :   -0.006362
   4 N :   -0.015492
   5 H :    0.076989
   6 H :    0.062841
   7 H :   -0.011597
   8 H :    0.081460
   9 H :    0.062782
  10 C :   -0.062358
  11 H :    0.009074
  12 H :    0.024754
  13 H :    0.017809
  14 H :    0.015865
  15 H :    0.011862

  Mayer bond orders larger than 0.100000
B(  0-C ,  1-C ) :   1.1151 B(  0-C , 10-C ) :   1.0942 B(  0-C , 11-H ) :   0.9206
B(  0-C , 12-H ) :   0.9097 B(  1-C ,  2-C ) :   1.6659 B(  1-C ,  7-H ) :   0.9071
B(  2-C ,  3-N ) :   1.2577 B(  2-C ,  4-N ) :   1.2573 B(  3-N ,  8-H ) :   0.9305
B(  3-N ,  9-H ) :   0.9445 B(  4-N ,  5-H ) :   0.9378 B(  4-N ,  6-H ) :   0.9453
B( 10-C , 13-H ) :   0.9623 B( 10-C , 14-H ) :   0.9674 B( 10-C , 15-H ) :   0.9547

Dispersion correction           -0.012877387
FINAL SINGLE POINT ENERGY      -267.368245885463

DIPOLE MOMENT
-------------
                                X             Y             Z
Electronic contribution:      3.49721      -2.49437      -2.57613
Nuclear contribution   :     -2.31778       2.31977       2.35294
                        -----------------------------------------
Total Dipole Moment    :      1.17943      -0.17460      -0.22319
                        -----------------------------------------
Magnitude (a.u.)       :      1.21300
Magnitude (Debye)      :      3.08319

Rotational constants in cm-1:     0.219415     0.075373     0.066689
Rotational constants in MHz :  6577.897266  2259.621393  1999.290981

                             ****ORCA TERMINATED NORMALLY****
TOTAL RUN TIME: 0 days 0 hours 0 minutes 4 seconds 629 msec
