                         Program Version 5.0.0 -  RELEASE  -
|  1> !PBE D3BJ RIJCOSX def2-SVP def2/J TightSCF
|  2> *xyz 0 1
|  3> C          0.61188        1.65763       -4.50029
|  4> C          1.69499        1.54179       -5.57045
|  5> H          2.69733        1.73466       -5.18400
|  6> H          1.50666        2.27224       -6.35808
|  7> S          1.78029       -0.03313       -6.42874
|  8> O          2.56929        0.21366       -7.60736
|  9> F          0.41688       -0.46297       -6.61859
| 10> O          2.50513       -0.93326       -5.48257
| 11> H         -0.34424        1.45871       -4.93752
| 12> H          0.61845        2.64655       -4.09174
| 13> H          0.80247        0.94882       -3.72173
| 14> *
| 15> %MaxCore 64000
| 16>
| 17> %pal nprocs 4
| 18> end
| 19>
| 20> %scf
| 21>   MaxIter 150
| 22> end
| 23>
| 24>
| 25>                          ****END OF INPUT****

CARTESIAN COORDINATES (ANGSTROEM)
---------------------------------
  C      0.611880    1.657630   -4.500290
  C      1.694990    1.541790   -5.570450
  H      2.697330    1.734660   -5.184000
  H      1.506660    2.272240   -6.358080
  S      1.780290   -0.033130   -6.428740
  O      2.569290    0.213660   -7.607360
  F      0.416880   -0.462970   -6.618590
  O      2.505130   -0.933260   -5.482570
  H     -0.344240    1.458710   -4.937520
  H      0.618450    2.646550   -4.091740
  H      0.802470    0.948820   -3.721730

 Total Charge           Charge          ....    0
 Multiplicity           Mult            ....    1
 Number of Electrons    NEL             ....   58
 Basis Dimension        Dim             ....  113

ORBITAL ENERGIES
----------------

  NO   OCC          E(Eh)            E(eV)
   0   2.0000     -88.279694     -2402.2126
   1   2.0000     -24.369562      -663.1295
   2   2.0000     -18.756420      -510.3881
   3   2.0000     -18.736865      -509.8560
   4   2.0000      -9.947296      -270.6797
   5   2.0000      -9.917444      -269.8674
   6   2.0000      -7.893929      -214.8047
   7   2.0000      -5.924752      -161.2207
   8   2.0000      -5.917933      -161.0351
   9   2.0000      -5.916594      -160.9987
  10   2.0000      -1.259490       -34.2725
  11   2.0000      -1.002894       -27.2901
  12   2.0000      -0.895234       -24.3605
  13   2.0000      -0.743932       -20.2434
  14   2.0000      -0.654396       -17.8070
  15   2.0000      -0.608793       -16.5661
  16   2.0000      -0.527639       -14.3578
  17   2.0000      -0.509749       -13.8710
  18   2.0000      -0.475573       -12.9410
  19   2.0000      -0.439992       -11.9728
  20   2.0000      -0.415702       -11.3118
  21   2.0000      -0.394848       -10.7444
  22   2.0000      -0.375130       -10.2078
  23   2.0000      -0.362563        -9.8659
  24   2.0000      -0.345311        -9.3964
  25   2.0000      -0.320707        -8.7269
  26   2.0000      -0.275956        -7.5091
  27   2.0000      -0.255327        -6.9478
  28   2.0000      -0.238204        -6.4818
  29   0.0000      -0.004407        -0.1199
  30   0.0000       0.031235         0.8500
  31   0.0000       0.046732         1.2716
  32   0.0000       0.061042         1.6610
  33   0.0000       0.074080         2.0158

MULLIKEN ATOMIC CHARGES
-----------------------
   0 C :   -0.009994
   1 C :   -0.144789
   2 H :    0.095887
   3 H :    0.064863
   4 S :    0.819461
   5 O :   -0.379622
   6 F :   -0.132079
   7 O :   -0.441706
   8 H :    0.032169
   9 H :    0.045599
  10 H :    0.050211
Sum of atomic charges:    0.0000000

LOEWDIN ATOMIC CHARGES
----------------------
   0 C :   -0.069371
   1 C :   -0.159175
   2 H :    0.054275
   3 H :    0.033844
   4 S :    1.084872
   5 O :   -0.442986
   6 F :   -0.096303
   7 O :   -0.504509
   8 H :    0.026360
   9 H :    0.039437
  10 H :    0.033556

  Mayer bond orders larger than 0.100000
B(  0-C ,  1-C ) :   1.0669 B(  0-C ,  8-H ) :   0.9684 B(  0-C ,  9-H ) :   0.9555
B(  0-C , 10-H ) :   0.9662 B(  1-C ,  2-H ) :   0.9288 B(  1-C ,  3-H ) :   0.9248
B(  1-C ,  4-S ) :   0.9072 B(  4-S ,  5-O ) :   1.7976 B(  4-S ,  6-F ) :   1.0422
B(  4-S ,  7-O ) :   1.7453

Dispersion correction           -0.009174978
FINAL SINGLE POINT ENERGY      -726.712954205350

DIPOLE MOMENT
-------------
                                X             Y             Z
Electronic contribution:      0.31051      -6.90887      -5.93508
Nuclear contribution   :     -1.42658       8.04056       6.39401
                        -----------------------------------------
Total Dipole Moment    :     -1.11608       1.13169       0.45893
                        -----------------------------------------
Magnitude (a.u.)       :      1.65438
Magnitude (Debye)      :      4.20510

Rotational constants in cm-1:     0.153659     0.082363     0.078978
Rotational constants in MHz :  4606.587369  2469.179541  2367.702074

                             ****ORCA TERMINATED NORMALLY****
TOTAL RUN TIME: 0 days 0 hours 0 minutes 3 seconds 593 msec
