                         Program Version 5.0.0 -  RELEASE  -
|  1> !PBE D3BJ RIJCOSX def2-SVP def2/J TightSCF
|  2> *xyz 0 1
|  3> C          1.96337       -1.74915       -1.89689
|  4> N          2.73849       -2.01517       -3.09711
|  5> C          4.04974       -2.15472       -3.15204
|  6> C          4.65821       -1.98629       -4.31866
|  7> N          4.76423       -2.45444       -2.05049
|  8> H          4.28736       -2.77626       -1.21750
|  9> H          5.75082       -2.65835       -2.12599
| 10> H          2.34518       -1.69027       -3.97145
| 11> H          4.10900       -1.59268       -5.07176
| 12> H          5.64910       -2.15646       -4.42724
| 13> C          2.08852       -0.30091       -1.41520
| 14> H          2.23127       -2.45162       -1.10264
| 15> H          0.93025       -1.97780       -2.15544
| 16> H          1.82118        0.36368       -2.21003
| 17> H          3.09792       -0.11068       -1.11551
| 18> H          1.43391       -0.14382       -0.58352
| 19> *
| 20> %MaxCore 64000
| 21>
| 22> %pal nprocs 4
| 23> end
| 24>
| 25> %scf
| 26>   MaxIter 150
| 27> end
| 28>
| 29>
| 30>                          ****END OF INPUT****

CARTESIAN COORDINATES (ANGSTROEM)
---------------------------------
  C      1.963370   -1.749150   -1.896890
  N      2.738490   -2.015170   -3.097110
  C      4.049740   -2.154720   -3.152040
  C      4.658210   -1.986290   -4.318660
  N      4.764230   -2.454440   -2.050490
  H      4.287360   -2.776260   -1.217500
  H      5.750820   -2.658350   -2.125990
  H      2.345180   -1.690270   -3.971450
  H      4.109000   -1.592680   -5.071760
  H      5.649100   -2.156460   -4.427240
  C      2.088520   -0.300910   -1.415200
  H      2.231270   -2.451620   -1.102640
  H      0.930250   -1.977800   -2.155440
  H      1.821180    0.363680   -2.210030
  H      3.097920   -0.110680   -1.115510
  H      1.433910   -0.143820   -0.583520

 Total Charge           Charge          ....    0
 Multiplicity           Mult            ....    1
 Number of Electrons    NEL             ....   48
 Basis Dimension        Dim             ....  134

ORBITAL ENERGIES
----------------

  NO   OCC          E(Eh)            E(eV)
   0   2.0000     -13.990103      -380.6901
   1   2.0000     -13.989981      -380.6867
   2   2.0000      -9.930520      -270.2232
   3   2.0000      -9.923331      -270.0276
   4   2.0000      -9.882166      -268.9074
   5   2.0000      -9.801262      -266.7059
   6   2.0000      -0.870094       -23.6765
   7   2.0000      -0.790054       -21.4985
   8   2.0000      -0.688746       -18.7417
   9   2.0000      -0.619745       -16.8641
  10   2.0000      -0.557543       -15.1715
  11   2.0000      -0.533676       -14.5221
  12   2.0000      -0.475393       -12.9361
  13   2.0000      -0.439012       -11.9461
  14   2.0000      -0.425022       -11.5654
  15   2.0000      -0.385094       -10.4789
  16   2.0000      -0.378199       -10.2913
  17   2.0000      -0.348465        -9.4822
  18   2.0000      -0.329399        -8.9634
  19   2.0000      -0.324119        -8.8197
  20   2.0000      -0.310757        -8.4561
  21   2.0000      -0.305384        -8.3099
  22   2.0000      -0.201717        -5.4890
  23   2.0000      -0.120698        -3.2844
  24   0.0000       0.020725         0.5640
  25   0.0000       0.047330         1.2879
  26   0.0000       0.061976         1.6865
  27   0.0000       0.071775         1.9531
  28   0.0000       0.085565         2.3284

MULLIKEN ATOMIC CHARGES
-----------------------
   0 C :    0.018111
   1 N :   -0.083520
   2 C :   -0.100312
   3 C :   -0.045909
   4 N :   -0.060620
   5 H :    0.092808
   6 H :    0.113393
   7 H :    0.110967
   8 H :   -0.070078
   9 H :   -0.070482
  10 C :    0.014160
  11 H :    0.013965
  12 H :    0.015270
  13 H :    0.016464
  14 H :    0.024057
  15 H :    0.011727
Sum of atomic charges:   -0.0000000

LOEWDIN ATOMIC CHARGES
----------------------
   0 C :    0.016136
   1 N :   -0.007815
   2 C :    0.008259
   3 C :   -0.248705
   4 N :   -0.014756
   5 H :    0.060274
   6 H :    0.081185
   7 H :    0.081916
   8 H :   -0.009584
   9 H :   -0.009282
  10 C :   -0.072195
  11 H :    0.017762
  12 H :    0.025412
  13 H :    0.023515
  14 H :    0.024858
  15 H :    0.023019

  Mayer bond orders larger than 0.100000
B(  0-C ,  1-N ) :   1.0496 B(  0-C , 10-C ) :   1.0885 B(  0-C , 11-H ) :   0.9412
B(  0-C , 12-H ) :   0.9455 B(  1-N ,  2-C ) :   1.2213 B(  1-N ,  7-H ) :   0.9158
B(  2-C ,  3-C ) :   1.7309 B(  2-C ,  4-N ) :   1.2282 B(  3-C ,  8-H ) :   0.9123
B(  3-C ,  9-H ) :   0.9284 B(  4-N ,  5-H ) :   0.9448 B(  4-N ,  6-H ) :   0.9408
B( 10-C , 13-H ) :   0.9645 B( 10-C , 14-H ) :   0.9617 B( 10-C , 15-H ) :   0.9541

Dispersion correction           -0.012775246
FINAL SINGLE POINT ENERGY      -267.364328236932

DIPOLE MOMENT
-------------
                                X             Y             Z
Electronic contribution:      1.45106      -2.39568      -1.19111
Nuclear contribution   :     -1.91052       2.32590       2.09379
                        -----------------------------------------
Total Dipole Moment    :     -0.45946      -0.06978       0.90268
                        -----------------------------------------
Magnitude (a.u.)       :      1.01529
Magnitude (Debye)      :      2.58065

Rotational constants in cm-1:     0.219448     0.077923     0.068804
Rotational constants in MHz :  6578.886179  2336.083179  2062.700476

                             ****ORCA TERMINATED NORMALLY****
TOTAL RUN TIME: 0 days 0 hours 0 minutes 4 seconds 738 msec
