                         Program Version 5.0.0 -  RELEASE  -
|  1> !PBE D3BJ RIJCOSX def2-SVP def2/J TightSCF
|  2> *xyz 0 1
|  3> C          0.61188        1.65763       -4.50029
|  4> C          1.69499        1.54179       -5.57045
|  5> H          2.69733        1.73466       -5.18400
|  6> H          1.50666        2.27224       -6.35808
|  7> S          1.78029       -0.03313       -6.42874
|  8> O          2.56929        0.21366       -7.60736
|  9> O          0.41688       -0.46297       -6.61859
| 10> F          2.50513       -0.93326       -5.48257
| 11> H         -0.34424        1.45871       -4.93752
| 12> H          0.61845        2.64655       -4.09174
| 13> H          0.80247        0.94882       -3.72173
| 14> *
| 15> %MaxCore 64000
| 16>
| 17> %pal nprocs 4
| 18> end
| 19>
| 20> %scf
| 21>   MaxIter 150
| 22> end
| 23>
| 24>
| 25>                          ****END OF INPUT****

CARTESIAN COORDINATES (ANGSTROEM)
---------------------------------
  C      0.611880    1.657630   -4.500290
  C      1.694990    1.541790   -5.570450
  H      2.697330    1.734660   -5.184000
  H      1.506660    2.272240   -6.358080
  S      1.780290   -0.033130   -6.428740
  O      2.569290    0.213660   -7.607360
  O      0.416880   -0.462970   -6.618590
  F      2.505130   -0.933260   -5.482570
  H     -0.344240    1.458710   -4.937520
  H      0.618450    2.646550   -4.091740
  H      0.802470    0.948820   -3.721730

 Total Charge           Charge          ....    0
 Multiplicity           Mult            ....    1
 Number of Electrons    NEL             ....   58
 Basis Dimension        Dim             ....  113

ORBITAL ENERGIES
----------------

  NO   OCC          E(Eh)            E(eV)
   0   2.0000     -88.278260     -2402.1736
   1   2.0000     -24.341618      -662.3691
   2   2.0000     -18.758396      -510.4419
   3   2.0000     -18.756754      -510.3972
   4   2.0000      -9.946413      -270.6557
   5   2.0000      -9.912670      -269.7375
   6   2.0000      -7.892402      -214.7632
   7   2.0000      -5.922766      -161.1667
   8   2.0000      -5.916828      -161.0051
   9   2.0000      -5.915383      -160.9658
  10   2.0000      -1.215464       -33.0745
  11   2.0000      -1.014525       -27.6066
  12   2.0000      -0.924693       -25.1622
  13   2.0000      -0.740725       -20.1562
  14   2.0000      -0.641315       -17.4511
  15   2.0000      -0.595367       -16.2008
  16   2.0000      -0.507003       -13.7962
  17   2.0000      -0.479668       -13.0524
  18   2.0000      -0.474212       -12.9040
  19   2.0000      -0.436322       -11.8729
  20   2.0000      -0.416132       -11.3235
  21   2.0000      -0.394544       -10.7361
  22   2.0000      -0.376065       -10.2333
  23   2.0000      -0.355721        -9.6797
  24   2.0000      -0.349294        -9.5048
  25   2.0000      -0.325690        -8.8625
  26   2.0000      -0.281248        -7.6532
  27   2.0000      -0.278066        -7.5666
  28   2.0000      -0.261113        -7.1052
  29   0.0000       0.002740         0.0746
  30   0.0000       0.030532         0.8308
  31   0.0000       0.051655         1.4056
  32   0.0000       0.060960         1.6588
  33   0.0000       0.074754         2.0342

MULLIKEN ATOMIC CHARGES
-----------------------
   0 C :    0.000125
   1 C :   -0.156529
   2 H :    0.066375
   3 H :    0.088316
   4 S :    0.834790
   5 O :   -0.387910
   6 O :   -0.389909
   7 F :   -0.184897
   8 H :    0.054276
   9 H :    0.039856
  10 H :    0.035506
Sum of atomic charges:    0.0000000

LOEWDIN ATOMIC CHARGES
----------------------
   0 C :   -0.065875
   1 C :   -0.164958
   2 H :    0.035120
   3 H :    0.050049
   4 S :    1.093436
   5 O :   -0.449244
   6 O :   -0.449080
   7 F :   -0.151322
   8 H :    0.035298
   9 H :    0.037214
  10 H :    0.029362

  Mayer bond orders larger than 0.100000
B(  0-C ,  1-C ) :   1.0706 B(  0-C ,  8-H ) :   0.9629 B(  0-C ,  9-H ) :   0.9538
B(  0-C , 10-H ) :   0.9701 B(  1-C ,  2-H ) :   0.9262 B(  1-C ,  3-H ) :   0.9286
B(  1-C ,  4-S ) :   0.9001 B(  4-S ,  5-O ) :   1.8047 B(  4-S ,  6-O ) :   1.7984
B(  4-S ,  7-F ) :   0.9880

Dispersion correction           -0.009198964
FINAL SINGLE POINT ENERGY      -726.738083990552

DIPOLE MOMENT
-------------
                                X             Y             Z
Electronic contribution:      3.78702      -7.71605      -4.04504
Nuclear contribution   :     -3.60260       8.53062       5.21025
                        -----------------------------------------
Total Dipole Moment    :      0.18441       0.81457       1.16520
                        -----------------------------------------
Magnitude (a.u.)       :      1.43361
Magnitude (Debye)      :      3.64393

Rotational constants in cm-1:     0.154011     0.080858     0.079602
Rotational constants in MHz :  4617.134198  2424.070332  2386.404775

                             ****ORCA TERMINATED NORMALLY****
TOTAL RUN TIME: 0 days 0 hours 0 minutes 3 seconds 695 msec
