                         Program Version 5.0.0 -  RELEASE  -
|  1> !PBE D3BJ RIJCOSX def2-SVP def2/J TightSCF
|  2> *xyz 0 1
|  3> C          1.96337       -1.74915       -1.89689
|  4> N          2.73849       -2.01517       -3.09711
|  5> C          4.04974       -2.15472       -3.15204
|  6> N          4.65821       -1.98629       -4.31866
|  7> C          4.76423       -2.45444       -2.05049
|  8> H          4.28736       -2.77626       -1.21750
|  9> H          5.75082       -2.65835       -2.12599
| 10> H          2.34518       -1.69027       -3.97145
| 11> H          4.10900       -1.59268       -5.07176
| 12> H          5.64910       -2.15646       -4.42724
| 13> C          2.08852       -0.30091       -1.41520
| 14> H          2.23127       -2.45162       -1.10264
| 15> H          0.93025       -1.97780       -2.15544
| 16> H          1.82118        0.36368       -2.21003
| 17> H          3.09792       -0.11068       -1.11551
| 18> H          1.43391       -0.14382       -0.58352
| 19> *
| 20> %MaxCore 64000
| 21>
| 22> %pal nprocs 4
| 23> end
| 24>
| 25> %scf
| 26>   MaxIter 150
| 27> end
| 28>
| 29>
| 30>                          ****END OF INPUT****

CARTESIAN COORDINATES (ANGSTROEM)
---------------------------------
  C      1.963370   -1.749150   -1.896890
  N      2.738490   -2.015170   -3.097110
  C      4.049740   -2.154720   -3.152040
  N      4.658210   -1.986290   -4.318660
  C      4.764230   -2.454440   -2.050490
  H      4.287360   -2.776260   -1.217500
  H      5.750820   -2.658350   -2.125990
  H      2.345180   -1.690270   -3.971450
  H      4.109000   -1.592680   -5.071760
  H      5.649100   -2.156460   -4.427240
  C      2.088520   -0.300910   -1.415200
  H      2.231270   -2.451620   -1.102640
  H      0.930250   -1.977800   -2.155440
  H      1.821180    0.363680   -2.210030
  H      3.097920   -0.110680   -1.115510
  H      1.433910   -0.143820   -0.583520

 Total Charge           Charge          ....    0
 Multiplicity           Mult            ....    1
 Number of Electrons    NEL             ....   48
 Basis Dimension        Dim             ....  134

ORBITAL ENERGIES
----------------

  NO   OCC          E(Eh)            E(eV)
   0   2.0000     -13.993838      -380.7917
   1   2.0000     -13.992062      -380.7434
   2   2.0000      -9.924843      -270.0687
   3   2.0000      -9.923127      -270.0220
   4   2.0000      -9.874824      -268.7076
   5   2.0000      -9.799731      -266.6642
   6   2.0000      -0.875386       -23.8205
   7   2.0000      -0.793912       -21.6034
   8   2.0000      -0.672467       -18.2987
   9   2.0000      -0.622813       -16.9476
  10   2.0000      -0.571305       -15.5460
  11   2.0000      -0.496551       -13.5118
  12   2.0000      -0.487238       -13.2584
  13   2.0000      -0.463853       -12.6221
  14   2.0000      -0.414226       -11.2717
  15   2.0000      -0.385489       -10.4897
  16   2.0000      -0.364597        -9.9212
  17   2.0000      -0.343185        -9.3385
  18   2.0000      -0.328247        -8.9321
  19   2.0000      -0.313424        -8.5287
  20   2.0000      -0.310469        -8.4483
  21   2.0000      -0.298268        -8.1163
  22   2.0000      -0.200128        -5.4458
  23   2.0000      -0.120347        -3.2748
  24   0.0000       0.018292         0.4977
  25   0.0000       0.052065         1.4168
  26   0.0000       0.065257         1.7757
  27   0.0000       0.070834         1.9275
  28   0.0000       0.092195         2.5087

MULLIKEN ATOMIC CHARGES
-----------------------
   0 C :    0.047771
   1 N :   -0.101591
   2 C :   -0.097002
   3 N :   -0.039122
   4 C :   -0.072137
   5 H :   -0.057501
   6 H :   -0.073649
   7 H :    0.086298
   8 H :    0.089302
   9 H :    0.118163
  10 C :    0.006681
  11 H :    0.035816
  12 H :    0.008225
  13 H :    0.001942
  14 H :    0.033711
  15 H :    0.013092
Sum of atomic charges:    0.0000000

LOEWDIN ATOMIC CHARGES
----------------------
   0 C :    0.030471
   1 N :   -0.006760
   2 C :    0.005377
   3 N :   -0.004093
   4 C :   -0.262601
   5 H :   -0.008435
   6 H :   -0.010828
   7 H :    0.060101
   8 H :    0.059919
   9 H :    0.083563
  10 C :   -0.069952
  11 H :    0.030533
  12 H :    0.021809
  13 H :    0.017098
  14 H :    0.029512
  15 H :    0.024286

  Mayer bond orders larger than 0.100000
B(  0-C ,  1-N ) :   1.0370 B(  0-C , 10-C ) :   1.1111 B(  0-C , 11-H ) :   0.9346
B(  0-C , 12-H ) :   0.9471 B(  1-N ,  2-C ) :   1.1982 B(  1-N ,  7-H ) :   0.9276
B(  2-C ,  3-N ) :   1.2491 B(  2-C ,  4-C ) :   1.7260 B(  3-N ,  8-H ) :   0.9446
B(  3-N ,  9-H ) :   0.9385 B(  4-C ,  5-H ) :   0.9220 B(  4-C ,  6-H ) :   0.9250
B( 10-C , 13-H ) :   0.9634 B( 10-C , 14-H ) :   0.9594 B( 10-C , 15-H ) :   0.9567

Dispersion correction           -0.012840197
FINAL SINGLE POINT ENERGY      -267.362921839898

DIPOLE MOMENT
-------------
                                X             Y             Z
Electronic contribution:      1.36174      -1.83157      -3.56604
Nuclear contribution   :     -1.88803       2.22658       2.57497
                        -----------------------------------------
Total Dipole Moment    :     -0.52629       0.39501      -0.99107
                        -----------------------------------------
Magnitude (a.u.)       :      1.18963
Magnitude (Debye)      :      3.02380

Rotational constants in cm-1:     0.226509     0.075782     0.067928
Rotational constants in MHz :  6790.555051  2271.890226  2036.439218

                             ****ORCA TERMINATED NORMALLY****
TOTAL RUN TIME: 0 days 0 hours 0 minutes 4 seconds 859 msec
