                         Program Version 5.0.0 -  RELEASE  -
|  1> !PBE D3BJ RIJCOSX def2-TZVP def2/J TightSCF xyzfile
|  2>
|  3> *xyzfile 0 1 D2.xyz
|  4>
|  5> %MaxCore 64000
|  6>
|  7> %pal nprocs 18
|  8> end
|  9>
| 10> %scf
| 11>   MaxIter 150
| 12> end
| 13>
| 14>
| 15>                          ****END OF INPUT****

CARTESIAN COORDINATES (ANGSTROEM)
---------------------------------
  C      1.963365   -1.749150   -1.896887
  N      2.738490   -2.015170   -3.097113
  C      0.611877    1.657634   -4.500288
  C      1.694991    1.541794   -5.570447
  H      2.697326    1.734659   -5.183996
  H      1.506656    2.272239   -6.358076
  S      1.780287   -0.033128   -6.428739
  C      4.049736   -2.154717   -3.152044
  C      4.658206   -1.986293   -4.318655
  N      4.764231   -2.454435   -2.050491
  H      4.287363   -2.776259   -1.217496
  H      5.750825   -2.658351   -2.125988
  H      2.345176   -1.690274   -3.971447
  H      4.109004   -1.592677   -5.071760
  H      5.649095   -2.156462   -4.427237
  F      2.569287    0.213657   -7.607360
  O      0.416880   -0.462969   -6.618595
  C      2.088520   -0.300912   -1.415204
  H      2.231272   -2.451616   -1.102643
  H      0.930249   -1.977801   -2.155438
  C      0.680356    0.655418   -3.348038
  H     -0.356865    1.549231   -4.991128
  H      0.650228    2.675438   -4.096000
  C      1.968993    0.733582   -2.535654
  H      3.051356   -0.168602   -0.911868
  H      1.316501   -0.136231   -0.657252
  O      2.505129   -0.933263   -5.482570
  H      2.824195    0.624726   -3.208464
  H      2.058919    1.730331   -2.093112
  H      0.542252   -0.344731   -3.766662
  H     -0.174219    0.829692   -2.685182

 Total Charge           Charge          ....    0
 Multiplicity           Mult            ....    1
 Number of Electrons    NEL             ....  120
 Basis Dimension        Dim             ....  542

ORBITAL ENERGIES
----------------

  NO   OCC          E(Eh)            E(eV)
   0   2.0000     -88.278481     -2402.1796
   1   2.0000     -24.382748      -663.4883
   2   2.0000     -18.771605      -510.8013
   3   2.0000     -18.758209      -510.4368
   4   2.0000     -13.964032      -379.9806
   5   2.0000     -13.953488      -379.6937
   6   2.0000      -9.943238      -270.5693
   7   2.0000      -9.911721      -269.7116
   8   2.0000      -9.902410      -269.4583
   9   2.0000      -9.894280      -269.2370
  10   2.0000      -9.887411      -269.0501
  11   2.0000      -9.877917      -268.7918
  12   2.0000      -9.873105      -268.6608
  13   2.0000      -9.762634      -265.6548
  14   2.0000      -7.874371      -214.2725
  15   2.0000      -5.898462      -160.5053
  16   2.0000      -5.892333      -160.3385
  17   2.0000      -5.891966      -160.3285
  18   2.0000      -1.287221       -35.0271
  19   2.0000      -1.024724       -27.8841
  20   2.0000      -0.930306       -25.3149
  21   2.0000      -0.863034       -23.4843
  22   2.0000      -0.787110       -21.4184
  23   2.0000      -0.766186       -20.8490
  24   2.0000      -0.720213       -19.5980
  25   2.0000      -0.689340       -18.7579
  26   2.0000      -0.654686       -17.8149
  27   2.0000      -0.629414       -17.1272
  28   2.0000      -0.593900       -16.1608
  29   2.0000      -0.563778       -15.3412
  30   2.0000      -0.541007       -14.7215
  31   2.0000      -0.531484       -14.4624
  32   2.0000      -0.523812       -14.2536
  33   2.0000      -0.506423       -13.7805
  34   2.0000      -0.499684       -13.5971
  35   2.0000      -0.463565       -12.6143
  36   2.0000      -0.448958       -12.2168
  37   2.0000      -0.446893       -12.1606
  38   2.0000      -0.426703       -11.6112
  39   2.0000      -0.421574       -11.4716
  40   2.0000      -0.415555       -11.3078
  41   2.0000      -0.407970       -11.1014
  42   2.0000      -0.391496       -10.6531
  43   2.0000      -0.384534       -10.4637
  44   2.0000      -0.368900       -10.0383
  45   2.0000      -0.353112        -9.6087
  46   2.0000      -0.341049        -9.2804
  47   2.0000      -0.338308        -9.2058
  48   2.0000      -0.327494        -8.9116
  49   2.0000      -0.316794        -8.6204
  50   2.0000      -0.311679        -8.4812
  51   2.0000      -0.308172        -8.3858
  52   2.0000      -0.300722        -8.1831
  53   2.0000      -0.289047        -7.8654
  54   2.0000      -0.286912        -7.8073
  55   2.0000      -0.279974        -7.6185
  56   2.0000      -0.279048        -7.5933
  57   2.0000      -0.257027        -6.9941
  58   2.0000      -0.190679        -5.1886
  59   2.0000      -0.109577        -2.9818
  60   0.0000      -0.022529        -0.6130
  61   0.0000      -0.004605        -0.1253
  62   0.0000       0.013803         0.3756
  63   0.0000       0.021191         0.5766
  64   0.0000       0.029151         0.7932

MULLIKEN ATOMIC CHARGES
-----------------------
   0 C :   -0.260053
   1 N :   -0.181967
   2 C :   -0.133887
   3 C :   -0.286863
   4 H :    0.159493
   5 H :    0.143501
   6 S :    0.721813
   7 C :    0.270711
   8 C :   -0.532938
   9 N :   -0.449358
  10 H :    0.203218
  11 H :    0.221864
  12 H :    0.218741
  13 H :    0.117300
  14 H :    0.068030
  15 F :   -0.049662
  16 O :   -0.341571
  17 C :   -0.054544
  18 H :    0.101650
  19 H :    0.126947
  20 C :   -0.263258
  21 H :    0.124530
  22 H :    0.108415
  23 C :   -0.251033
  24 H :    0.091172
  25 H :    0.071101
  26 O :   -0.399650
  27 H :    0.138121
  28 H :    0.088380
  29 H :    0.134178
  30 H :    0.095621
Sum of atomic charges:    0.0000000

LOEWDIN ATOMIC CHARGES
----------------------
   0 C :   -0.309804
   1 N :    0.137771
   2 C :   -0.278349
   3 C :   -0.379897
   4 H :    0.144828
   5 H :    0.140410
   6 S :    0.493889
   7 C :   -0.483908
   8 C :   -0.356416
   9 N :   -0.013844
  10 H :    0.154541
  11 H :    0.169941
  12 H :    0.174159
  13 H :    0.094803
  14 H :    0.089551
  15 F :    0.127761
  16 O :   -0.221689
  17 C :   -0.274574
  18 H :    0.127020
  19 H :    0.134385
  20 C :   -0.272981
  21 H :    0.148422
  22 H :    0.149990
  23 C :   -0.275489
  24 H :    0.138570
  25 H :    0.133710
  26 O :   -0.257406
  27 H :    0.144954
  28 H :    0.136973
  29 H :    0.141011
  30 H :    0.141670

  Mayer bond orders larger than 0.100000
B(  0-C ,  1-N ) :   1.0278 B(  0-C , 17-C ) :   0.9392 B(  0-C , 18-H ) :   0.9656
B(  0-C , 19-H ) :   0.9720 B(  1-N ,  7-C ) :   1.2600 B(  1-N , 12-H ) :   0.8811
B(  2-C ,  3-C ) :   0.9976 B(  2-C , 20-C ) :   1.0159 B(  2-C , 21-H ) :   0.9439
B(  2-C , 22-H ) :   0.9299 B(  3-C ,  4-H ) :   0.9280 B(  3-C ,  5-H ) :   0.9254
B(  3-C ,  6-S ) :   0.9119 B(  6-S , 15-F ) :   1.1968 B(  6-S , 16-O ) :   1.9667
B(  6-S , 26-O ) :   1.7647 B(  7-C ,  8-C ) :   1.6396 B(  7-C ,  9-N ) :   1.1402
B(  8-C , 13-H ) :   0.9655 B(  8-C , 14-H ) :   0.9833 B(  9-N , 10-H ) :   0.9142
B(  9-N , 11-H ) :   0.9231 B( 17-C , 23-C ) :   1.0128 B( 17-C , 24-H ) :   0.9351
B( 17-C , 25-H ) :   0.9390 B( 20-C , 23-C ) :   0.9948 B( 20-C , 29-H ) :   0.9562
B( 20-C , 30-H ) :   0.9465 B( 23-C , 27-H ) :   0.9490 B( 23-C , 28-H ) :   0.9428

Dispersion correction           -0.037628914
FINAL SINGLE POINT ENERGY     -1072.329610247155

DIPOLE MOMENT
-------------
                                X             Y             Z
Electronic contribution:     -0.85345      -0.94117     -22.52259
Nuclear contribution   :      0.43347       2.59110      22.83150
                        -----------------------------------------
Total Dipole Moment    :     -0.41999       1.64993       0.30891
                        -----------------------------------------
Magnitude (a.u.)       :      1.73034
Magnitude (Debye)      :      4.39819

Rotational constants in cm-1:     0.029257     0.014415     0.010996
Rotational constants in MHz :   877.098782   432.159206   329.643335

                             ****ORCA TERMINATED NORMALLY****
TOTAL RUN TIME: 0 days 0 hours 0 minutes 21 seconds 394 msec
