                         Program Version 5.0.0 -  RELEASE  -
|  1> !PBE D3BJ RIJCOSX def2-TZVP def2/J TightSCF xyzfile
|  2>
|  3> *xyzfile 0 1 D3.xyz
|  4>
|  5> %MaxCore 64000
|  6>
|  7> %pal nprocs 18
|  8> end
|  9>
| 10> %scf
| 11>   MaxIter 150
| 12> end
| 13>
| 14>
| 15>                          ****END OF INPUT****

CARTESIAN COORDINATES (ANGSTROEM)
---------------------------------
  C      1.963365   -1.749150   -1.896887
  N      2.738490   -2.015170   -3.097113
  C      0.611877    1.657634   -4.500288
  C      1.694991    1.541794   -5.570447
  H      2.697326    1.734659   -5.183996
  H      1.506656    2.272239   -6.358076
  S      1.780287   -0.033128   -6.428739
  C      4.049736   -2.154717   -3.152044
  N      4.658206   -1.986293   -4.318655
  C      4.764231   -2.454435   -2.050491
  H      4.287363   -2.776259   -1.217496
  H      5.750825   -2.658351   -2.125988
  H      2.345176   -1.690274   -3.971447
  H      4.109004   -1.592677   -5.071760
  H      5.649095   -2.156462   -4.427237
  F      2.569287    0.213657   -7.607360
  O      0.416880   -0.462969   -6.618595
  C      2.088520   -0.300912   -1.415204
  H      2.231272   -2.451616   -1.102643
  H      0.930249   -1.977801   -2.155438
  C      0.680356    0.655418   -3.348038
  H     -0.356865    1.549231   -4.991128
  H      0.650228    2.675438   -4.096000
  C      1.968993    0.733582   -2.535654
  H      3.051356   -0.168602   -0.911868
  H      1.316501   -0.136231   -0.657252
  O      2.505129   -0.933263   -5.482570
  H      2.824195    0.624726   -3.208464
  H      2.058919    1.730331   -2.093112
  H      0.542252   -0.344731   -3.766662
  H     -0.174219    0.829692   -2.685182

 Total Charge           Charge          ....    0
 Multiplicity           Mult            ....    1
 Number of Electrons    NEL             ....  120
 Basis Dimension        Dim             ....  542

ORBITAL ENERGIES
----------------

  NO   OCC          E(Eh)            E(eV)
   0   2.0000     -88.294951     -2402.6278
   1   2.0000     -24.397477      -663.8891
   2   2.0000     -18.786371      -511.2032
   3   2.0000     -18.779822      -511.0249
   4   2.0000     -13.954540      -379.7223
   5   2.0000     -13.950945      -379.6245
   6   2.0000      -9.954299      -270.8702
   7   2.0000      -9.918079      -269.8847
   8   2.0000      -9.895844      -269.2796
   9   2.0000      -9.894738      -269.2495
  10   2.0000      -9.890513      -269.1345
  11   2.0000      -9.878737      -268.8141
  12   2.0000      -9.867746      -268.5150
  13   2.0000      -9.770430      -265.8669
  14   2.0000      -7.890785      -214.7192
  15   2.0000      -5.914989      -160.9550
  16   2.0000      -5.908883      -160.7889
  17   2.0000      -5.908175      -160.7696
  18   2.0000      -1.302149       -35.4333
  19   2.0000      -1.041117       -28.3302
  20   2.0000      -0.949157       -25.8279
  21   2.0000      -0.863770       -23.5044
  22   2.0000      -0.785243       -21.3676
  23   2.0000      -0.773905       -21.0590
  24   2.0000      -0.723915       -19.6987
  25   2.0000      -0.690839       -18.7987
  26   2.0000      -0.656902       -17.8752
  27   2.0000      -0.621497       -16.9118
  28   2.0000      -0.611617       -16.6429
  29   2.0000      -0.575834       -15.6692
  30   2.0000      -0.548456       -14.9242
  31   2.0000      -0.540676       -14.7125
  32   2.0000      -0.529810       -14.4169
  33   2.0000      -0.512984       -13.9590
  34   2.0000      -0.483461       -13.1556
  35   2.0000      -0.470972       -12.8158
  36   2.0000      -0.463195       -12.6042
  37   2.0000      -0.455162       -12.3856
  38   2.0000      -0.443569       -12.0701
  39   2.0000      -0.428192       -11.6517
  40   2.0000      -0.411963       -11.2101
  41   2.0000      -0.407413       -11.0863
  42   2.0000      -0.392187       -10.6719
  43   2.0000      -0.379538       -10.3278
  44   2.0000      -0.375143       -10.2082
  45   2.0000      -0.366391        -9.9700
  46   2.0000      -0.344982        -9.3874
  47   2.0000      -0.340597        -9.2681
  48   2.0000      -0.324646        -8.8341
  49   2.0000      -0.321789        -8.7563
  50   2.0000      -0.318084        -8.6555
  51   2.0000      -0.306588        -8.3427
  52   2.0000      -0.304013        -8.2726
  53   2.0000      -0.297358        -8.0915
  54   2.0000      -0.288245        -7.8435
  55   2.0000      -0.287091        -7.8121
  56   2.0000      -0.285447        -7.7674
  57   2.0000      -0.274211        -7.4617
  58   2.0000      -0.183758        -5.0003
  59   2.0000      -0.110743        -3.0135
  60   0.0000      -0.036433        -0.9914
  61   0.0000      -0.013419        -0.3651
  62   0.0000       0.007682         0.2090
  63   0.0000       0.016985         0.4622
  64   0.0000       0.022725         0.6184

MULLIKEN ATOMIC CHARGES
-----------------------
   0 C :   -0.205762
   1 N :   -0.197997
   2 C :   -0.134443
   3 C :   -0.287901
   4 H :    0.160253
   5 H :    0.149176
   6 S :    0.730463
   7 C :    0.259020
   8 N :   -0.425945
   9 C :   -0.528637
  10 H :    0.078894
  11 H :    0.068395
  12 H :    0.209031
  13 H :    0.214791
  14 H :    0.215453
  15 F :   -0.047916
  16 O :   -0.330082
  17 C :   -0.073880
  18 H :    0.115884
  19 H :    0.119271
  20 C :   -0.264368
  21 H :    0.126760
  22 H :    0.111906
  23 C :   -0.251510
  24 H :    0.107695
  25 H :    0.076497
  26 O :   -0.435541
  27 H :    0.118045
  28 H :    0.089009
  29 H :    0.133684
  30 H :    0.099755
Sum of atomic charges:    0.0000000

LOEWDIN ATOMIC CHARGES
----------------------
   0 C :   -0.290072
   1 N :    0.136440
   2 C :   -0.277752
   3 C :   -0.378400
   4 H :    0.144851
   5 H :    0.142248
   6 S :    0.498157
   7 C :   -0.487553
   8 N :   -0.006307
   9 C :   -0.367647
  10 H :    0.094569
  11 H :    0.090401
  12 H :    0.161742
  13 H :    0.144878
  14 H :    0.167595
  15 F :    0.128285
  16 O :   -0.211753
  17 C :   -0.270910
  18 H :    0.137539
  19 H :    0.131603
  20 C :   -0.273124
  21 H :    0.148760
  22 H :    0.151503
  23 C :   -0.276359
  24 H :    0.145114
  25 H :    0.135221
  26 O :   -0.279883
  27 H :    0.140123
  28 H :    0.137023
  29 H :    0.140423
  30 H :    0.143286

  Mayer bond orders larger than 0.100000
B(  0-C ,  1-N ) :   1.0163 B(  0-C , 17-C ) :   0.9730 B(  0-C , 18-H ) :   0.9508
B(  0-C , 19-H ) :   0.9697 B(  1-N ,  7-C ) :   1.2333 B(  1-N , 12-H ) :   0.8841
B(  2-C ,  3-C ) :   0.9942 B(  2-C , 20-C ) :   1.0130 B(  2-C , 21-H ) :   0.9445
B(  2-C , 22-H ) :   0.9281 B(  3-C ,  4-H ) :   0.9262 B(  3-C ,  5-H ) :   0.9247
B(  3-C ,  6-S ) :   0.9147 B(  6-S , 15-F ) :   1.1987 B(  6-S , 16-O ) :   1.9800
B(  6-S , 26-O ) :   1.7286 B(  7-C ,  8-N ) :   1.1869 B(  7-C ,  9-C ) :   1.6386
B(  8-N , 13-H ) :   0.8800 B(  8-N , 14-H ) :   0.9227 B(  9-C , 10-H ) :   0.9833
B(  9-C , 11-H ) :   0.9819 B( 17-C , 23-C ) :   1.0193 B( 17-C , 24-H ) :   0.9303
B( 17-C , 25-H ) :   0.9470 B( 20-C , 23-C ) :   0.9897 B( 20-C , 29-H ) :   0.9590
B( 20-C , 30-H ) :   0.9478 B( 23-C , 27-H ) :   0.9518 B( 23-C , 28-H ) :   0.9422

Dispersion correction           -0.037580982
FINAL SINGLE POINT ENERGY     -1072.340417729874

DIPOLE MOMENT
-------------
                                X             Y             Z
Electronic contribution:     -1.10101      -0.33234     -24.59669
Nuclear contribution   :      0.44707       2.53104      23.12246
                        -----------------------------------------
Total Dipole Moment    :     -0.65394       2.19871      -1.47423
                        -----------------------------------------
Magnitude (a.u.)       :      2.72678
Magnitude (Debye)      :      6.93091

Rotational constants in cm-1:     0.028906     0.014696     0.011110
Rotational constants in MHz :   866.591909   440.585554   333.081943

                             ****ORCA TERMINATED NORMALLY****
TOTAL RUN TIME: 0 days 0 hours 0 minutes 21 seconds 512 msec
