                         Program Version 5.0.0 -  RELEASE  -
|  1> !PBE D3BJ RIJCOSX def2-TZVP def2/J TightSCF xyzfile
|  2>
|  3> *xyzfile 0 1 D4.xyz
|  4>
|  5> %MaxCore 64000
|  6>
|  7> %pal nprocs 18
|  8> end
|  9>
| 10> %scf
| 11>   MaxIter 150
| 12> end
| 13>
| 14>
| 15>                          ****END OF INPUT****

CARTESIAN COORDINATES (ANGSTROEM)
---------------------------------
  C      1.963365   -1.749150   -1.896887
  C      2.738490   -2.015170   -3.097113
  C      0.611877    1.657634   -4.500288
  C      1.694991    1.541794   -5.570447
  H      2.697326    1.734659   -5.183996
  H      1.506656    2.272239   -6.358076
  S      1.780287   -0.033128   -6.428739
  C      4.049736   -2.154717   -3.152044
  N      4.658206   -1.986293   -4.318655
  N      4.764231   -2.454435   -2.050491
  H      4.287363   -2.776259   -1.217496
  H      5.750825   -2.658351   -2.125988
  H      2.345176   -1.690274   -3.971447
  H      4.109004   -1.592677   -5.071760
  H      5.649095   -2.156462   -4.427237
  O      2.569287    0.213657   -7.607360
  F      0.416880   -0.462969   -6.618595
  C      2.088520   -0.300912   -1.415204
  H      2.231272   -2.451616   -1.102643
  H      0.930249   -1.977801   -2.155438
  C      0.680356    0.655418   -3.348038
  H     -0.356865    1.549231   -4.991128
  H      0.650228    2.675438   -4.096000
  C      1.968993    0.733582   -2.535654
  H      3.051356   -0.168602   -0.911868
  H      1.316501   -0.136231   -0.657252
  O      2.505129   -0.933263   -5.482570
  H      2.824195    0.624726   -3.208464
  H      2.058919    1.730331   -2.093112
  H      0.542252   -0.344731   -3.766662
  H     -0.174219    0.829692   -2.685182

 Total Charge           Charge          ....    0
 Multiplicity           Mult            ....    1
 Number of Electrons    NEL             ....  120
 Basis Dimension        Dim             ....  542

ORBITAL ENERGIES
----------------

  NO   OCC          E(Eh)            E(eV)
   0   2.0000     -88.275938     -2402.1104
   1   2.0000     -24.380697      -663.4325
   2   2.0000     -18.768699      -510.7223
   3   2.0000     -18.756302      -510.3849
   4   2.0000     -13.966765      -380.0550
   5   2.0000     -13.951385      -379.6365
   6   2.0000      -9.939460      -270.4664
   7   2.0000      -9.907466      -269.5959
   8   2.0000      -9.894384      -269.2399
   9   2.0000      -9.880683      -268.8671
  10   2.0000      -9.865977      -268.4669
  11   2.0000      -9.854432      -268.1527
  12   2.0000      -9.842915      -267.8393
  13   2.0000      -9.768955      -265.8268
  14   2.0000      -7.871917      -214.2058
  15   2.0000      -5.896251      -160.4451
  16   2.0000      -5.889949      -160.2737
  17   2.0000      -5.889191      -160.2530
  18   2.0000      -1.284153       -34.9436
  19   2.0000      -1.023468       -27.8500
  20   2.0000      -0.928231       -25.2585
  21   2.0000      -0.854965       -23.2648
  22   2.0000      -0.772728       -21.0270
  23   2.0000      -0.763928       -20.7875
  24   2.0000      -0.717906       -19.5352
  25   2.0000      -0.681567       -18.5464
  26   2.0000      -0.656448       -17.8629
  27   2.0000      -0.626412       -17.0455
  28   2.0000      -0.588185       -16.0053
  29   2.0000      -0.557980       -15.1834
  30   2.0000      -0.537250       -14.6193
  31   2.0000      -0.533225       -14.5098
  32   2.0000      -0.520569       -14.1654
  33   2.0000      -0.494665       -13.4605
  34   2.0000      -0.488296       -13.2872
  35   2.0000      -0.469884       -12.7862
  36   2.0000      -0.444819       -12.1041
  37   2.0000      -0.441083       -12.0025
  38   2.0000      -0.426082       -11.5943
  39   2.0000      -0.421099       -11.4587
  40   2.0000      -0.413692       -11.2571
  41   2.0000      -0.394499       -10.7349
  42   2.0000      -0.388282       -10.5657
  43   2.0000      -0.382662       -10.4128
  44   2.0000      -0.370861       -10.0916
  45   2.0000      -0.346095        -9.4177
  46   2.0000      -0.339922        -9.2497
  47   2.0000      -0.333737        -9.0814
  48   2.0000      -0.326787        -8.8923
  49   2.0000      -0.316457        -8.6112
  50   2.0000      -0.305534        -8.3140
  51   2.0000      -0.293945        -7.9987
  52   2.0000      -0.291138        -7.9223
  53   2.0000      -0.285049        -7.7566
  54   2.0000      -0.275608        -7.4997
  55   2.0000      -0.270677        -7.3655
  56   2.0000      -0.258890        -7.0448
  57   2.0000      -0.236619        -6.4387
  58   2.0000      -0.200158        -5.4466
  59   2.0000      -0.106731        -2.9043
  60   0.0000      -0.026028        -0.7083
  61   0.0000       0.006528         0.1776
  62   0.0000       0.013848         0.3768
  63   0.0000       0.020073         0.5462
  64   0.0000       0.026623         0.7244

MULLIKEN ATOMIC CHARGES
-----------------------
   0 C :   -0.274786
   1 C :   -0.266500
   2 C :   -0.168311
   3 C :   -0.270652
   4 H :    0.164252
   5 H :    0.152306
   6 S :    0.720487
   7 C :    0.182184
   8 N :   -0.410731
   9 N :   -0.428998
  10 H :    0.223428
  11 H :    0.199311
  12 H :    0.129935
  13 H :    0.237014
  14 H :    0.191863
  15 O :   -0.346974
  16 F :   -0.050960
  17 C :   -0.079105
  18 H :    0.067212
  19 H :    0.089720
  20 C :   -0.260530
  21 H :    0.115479
  22 H :    0.105442
  23 C :   -0.157677
  24 H :    0.076889
  25 H :    0.060131
  26 O :   -0.405829
  27 H :    0.114598
  28 H :    0.080068
  29 H :    0.117464
  30 H :    0.093269
Sum of atomic charges:   -0.0000000

LOEWDIN ATOMIC CHARGES
----------------------
   0 C :   -0.301359
   1 C :   -0.291828
   2 C :   -0.293257
   3 C :   -0.372137
   4 H :    0.152770
   5 H :    0.144450
   6 S :    0.493790
   7 C :   -0.478813
   8 N :   -0.003806
   9 N :   -0.014879
  10 H :    0.169641
  11 H :    0.154692
  12 H :    0.116694
  13 H :    0.163135
  14 H :    0.152684
  15 O :   -0.225877
  16 F :    0.127534
  17 C :   -0.264591
  18 H :    0.127856
  19 H :    0.139590
  20 C :   -0.272688
  21 H :    0.139821
  22 H :    0.148149
  23 C :   -0.272280
  24 H :    0.136003
  25 H :    0.127541
  26 O :   -0.260195
  27 H :    0.142285
  28 H :    0.133733
  29 H :    0.140279
  30 H :    0.141064

  Mayer bond orders larger than 0.100000
B(  0-C ,  1-C ) :   1.0578 B(  0-C , 17-C ) :   0.9727 B(  0-C , 18-H ) :   0.9535
B(  0-C , 19-H ) :   0.9687 B(  1-C ,  7-C ) :   1.6730 B(  1-C , 12-H ) :   0.9863
B(  2-C ,  3-C ) :   0.9883 B(  2-C , 20-C ) :   0.9896 B(  2-C , 21-H ) :   0.9572
B(  2-C , 22-H ) :   0.9280 B(  3-C ,  4-H ) :   0.9318 B(  3-C ,  5-H ) :   0.9312
B(  3-C ,  6-S ) :   0.9091 B(  6-S , 15-O ) :   2.0042 B(  6-S , 16-F ) :   1.1779
B(  6-S , 26-O ) :   1.7625 B(  7-C ,  8-N ) :   1.2349 B(  7-C ,  9-N ) :   1.1773
B(  8-N , 13-H ) :   0.8710 B(  8-N , 14-H ) :   0.9242 B(  9-N , 10-H ) :   0.9143
B(  9-N , 11-H ) :   0.9221 B( 17-C , 23-C ) :   1.0270 B( 17-C , 24-H ) :   0.9370
B( 17-C , 25-H ) :   0.9427 B( 20-C , 23-C ) :   0.9786 B( 20-C , 29-H ) :   0.9678
B( 20-C , 30-H ) :   0.9456 B( 23-C , 27-H ) :   0.9528 B( 23-C , 28-H ) :   0.9427

Dispersion correction           -0.037702067
FINAL SINGLE POINT ENERGY     -1072.332580212852

DIPOLE MOMENT
-------------
                                X             Y             Z
Electronic contribution:     -2.82862      -2.28747     -21.82935
Nuclear contribution   :      2.64598       3.36033      21.85869
                        -----------------------------------------
Total Dipole Moment    :     -0.18264       1.07286       0.02935
                        -----------------------------------------
Magnitude (a.u.)       :      1.08869
Magnitude (Debye)      :      2.76724

Rotational constants in cm-1:     0.028973     0.014435     0.011026
Rotational constants in MHz :   868.588266   432.748309   330.548534

                             ****ORCA TERMINATED NORMALLY****
TOTAL RUN TIME: 0 days 0 hours 0 minutes 23 seconds 716 msec
