                         Program Version 5.0.0 -  RELEASE  -
|  1> !PBE D3BJ RIJCOSX def2-TZVP def2/J TightSCF xyzfile
|  2>
|  3> *xyzfile 0 1 D5.xyz
|  4>
|  5> %MaxCore 64000
|  6>
|  7> %pal nprocs 18
|  8> end
|  9>
| 10> %scf
| 11>   MaxIter 150
| 12> end
| 13>
| 14>
| 15>                          ****END OF INPUT****

CARTESIAN COORDINATES (ANGSTROEM)
---------------------------------
  C      1.963365   -1.749150   -1.896887
  N      2.738490   -2.015170   -3.097113
  C      0.611877    1.657634   -4.500288
  C      1.694991    1.541794   -5.570447
  H      2.697326    1.734659   -5.183996
  H      1.506656    2.272239   -6.358076
  S      1.780287   -0.033128   -6.428739
  C      4.049736   -2.154717   -3.152044
  C      4.658206   -1.986293   -4.318655
  N      4.764231   -2.454435   -2.050491
  H      4.287363   -2.776259   -1.217496
  H      5.750825   -2.658351   -2.125988
  H      2.345176   -1.690274   -3.971447
  H      4.109004   -1.592677   -5.071760
  H      5.649095   -2.156462   -4.427237
  O      2.569287    0.213657   -7.607360
  F      0.416880   -0.462969   -6.618595
  C      2.088520   -0.300912   -1.415204
  H      2.231272   -2.451616   -1.102643
  H      0.930249   -1.977801   -2.155438
  C      0.680356    0.655418   -3.348038
  H     -0.356865    1.549231   -4.991128
  H      0.650228    2.675438   -4.096000
  C      1.968993    0.733582   -2.535654
  H      3.051356   -0.168602   -0.911868
  H      1.316501   -0.136231   -0.657252
  O      2.505129   -0.933263   -5.482570
  H      2.824195    0.624726   -3.208464
  H      2.058919    1.730331   -2.093112
  H      0.542252   -0.344731   -3.766662
  H     -0.174219    0.829692   -2.685182

 Total Charge           Charge          ....    0
 Multiplicity           Mult            ....    1
 Number of Electrons    NEL             ....  120
 Basis Dimension        Dim             ....  542

ORBITAL ENERGIES
----------------

  NO   OCC          E(Eh)            E(eV)
   0   2.0000     -88.277350     -2402.1488
   1   2.0000     -24.382122      -663.4713
   2   2.0000     -18.770598      -510.7739
   3   2.0000     -18.759344      -510.4677
   4   2.0000     -13.964212      -379.9855
   5   2.0000     -13.953472      -379.6933
   6   2.0000      -9.942498      -270.5491
   7   2.0000      -9.915444      -269.8129
   8   2.0000      -9.904880      -269.5255
   9   2.0000      -9.894885      -269.2535
  10   2.0000      -9.894124      -269.2328
  11   2.0000      -9.881952      -268.9016
  12   2.0000      -9.875921      -268.7375
  13   2.0000      -9.762890      -265.6617
  14   2.0000      -7.873349      -214.2447
  15   2.0000      -5.897812      -160.4876
  16   2.0000      -5.891232      -160.3086
  17   2.0000      -5.890671      -160.2933
  18   2.0000      -1.285926       -34.9918
  19   2.0000      -1.024830       -27.8871
  20   2.0000      -0.930274       -25.3140
  21   2.0000      -0.863508       -23.4973
  22   2.0000      -0.787806       -21.4373
  23   2.0000      -0.770766       -20.9736
  24   2.0000      -0.721996       -19.6465
  25   2.0000      -0.688051       -18.7228
  26   2.0000      -0.656476       -17.8636
  27   2.0000      -0.632613       -17.2143
  28   2.0000      -0.595299       -16.1989
  29   2.0000      -0.566155       -15.4058
  30   2.0000      -0.541548       -14.7363
  31   2.0000      -0.538615       -14.6565
  32   2.0000      -0.525985       -14.3128
  33   2.0000      -0.511811       -13.9271
  34   2.0000      -0.492065       -13.3898
  35   2.0000      -0.464684       -12.6447
  36   2.0000      -0.449949       -12.2437
  37   2.0000      -0.443695       -12.0736
  38   2.0000      -0.427220       -11.6252
  39   2.0000      -0.424343       -11.5470
  40   2.0000      -0.417210       -11.3529
  41   2.0000      -0.409938       -11.1550
  42   2.0000      -0.395464       -10.7611
  43   2.0000      -0.384023       -10.4498
  44   2.0000      -0.376246       -10.2382
  45   2.0000      -0.350688        -9.5427
  46   2.0000      -0.349171        -9.5014
  47   2.0000      -0.342513        -9.3202
  48   2.0000      -0.333711        -9.0808
  49   2.0000      -0.318162        -8.6576
  50   2.0000      -0.315612        -8.5882
  51   2.0000      -0.305968        -8.3258
  52   2.0000      -0.295869        -8.0510
  53   2.0000      -0.290271        -7.8987
  54   2.0000      -0.287305        -7.8180
  55   2.0000      -0.284033        -7.7289
  56   2.0000      -0.276817        -7.5326
  57   2.0000      -0.264352        -7.1934
  58   2.0000      -0.191334        -5.2065
  59   2.0000      -0.109515        -2.9801
  60   0.0000      -0.027204        -0.7403
  61   0.0000       0.001271         0.0346
  62   0.0000       0.011531         0.3138
  63   0.0000       0.017070         0.4645
  64   0.0000       0.023915         0.6508

MULLIKEN ATOMIC CHARGES
-----------------------
   0 C :   -0.255207
   1 N :   -0.182108
   2 C :   -0.168291
   3 C :   -0.275599
   4 H :    0.171249
   5 H :    0.153736
   6 S :    0.722580
   7 C :    0.271280
   8 C :   -0.544348
   9 N :   -0.450186
  10 H :    0.202483
  11 H :    0.222594
  12 H :    0.210673
  13 H :    0.141103
  14 H :    0.069436
  15 O :   -0.337004
  16 F :   -0.054464
  17 C :   -0.057546
  18 H :    0.102432
  19 H :    0.121115
  20 C :   -0.254506
  21 H :    0.118482
  22 H :    0.109557
  23 C :   -0.239421
  24 H :    0.093213
  25 H :    0.070574
  26 O :   -0.399572
  27 H :    0.140522
  28 H :    0.091674
  29 H :    0.107064
  30 H :    0.098484
Sum of atomic charges:    0.0000000

LOEWDIN ATOMIC CHARGES
----------------------
   0 C :   -0.311719
   1 N :    0.134146
   2 C :   -0.291852
   3 C :   -0.371935
   4 H :    0.154486
   5 H :    0.145147
   6 S :    0.493030
   7 C :   -0.485214
   8 C :   -0.347669
   9 N :   -0.014223
  10 H :    0.154181
  11 H :    0.170224
  12 H :    0.169031
  13 H :    0.099406
  14 H :    0.090782
  15 O :   -0.215395
  16 F :    0.123635
  17 C :   -0.274274
  18 H :    0.127180
  19 H :    0.132432
  20 C :   -0.277178
  21 H :    0.140901
  22 H :    0.149284
  23 C :   -0.273778
  24 H :    0.139449
  25 H :    0.133456
  26 O :   -0.253883
  27 H :    0.146546
  28 H :    0.138283
  29 H :    0.133927
  30 H :    0.141591

  Mayer bond orders larger than 0.100000
B(  0-C ,  1-N ) :   1.0305 B(  0-C , 17-C ) :   0.9384 B(  0-C , 18-H ) :   0.9654
B(  0-C , 19-H ) :   0.9734 B(  1-N ,  7-C ) :   1.2558 B(  1-N , 12-H ) :   0.8821
B(  2-C ,  3-C ) :   0.9862 B(  2-C , 20-C ) :   0.9926 B(  2-C , 21-H ) :   0.9570
B(  2-C , 22-H ) :   0.9297 B(  3-C ,  4-H ) :   0.9318 B(  3-C ,  5-H ) :   0.9322
B(  3-C ,  6-S ) :   0.9075 B(  6-S , 15-O ) :   2.0159 B(  6-S , 16-F ) :   1.1706
B(  6-S , 26-O ) :   1.7548 B(  7-C ,  8-C ) :   1.6335 B(  7-C ,  9-N ) :   1.1371
B(  8-C , 13-H ) :   0.9633 B(  8-C , 14-H ) :   0.9873 B(  9-N , 10-H ) :   0.9146
B(  9-N , 11-H ) :   0.9229 B( 17-C , 23-C ) :   1.0116 B( 17-C , 24-H ) :   0.9341
B( 17-C , 25-H ) :   0.9390 B( 20-C , 23-C ) :   0.9871 B( 20-C , 29-H ) :   0.9657
B( 20-C , 30-H ) :   0.9455 B( 23-C , 27-H ) :   0.9490 B( 23-C , 28-H ) :   0.9422

Dispersion correction           -0.037522203
FINAL SINGLE POINT ENERGY     -1072.329102237882

DIPOLE MOMENT
-------------
                                X             Y             Z
Electronic contribution:     -4.51313      -2.10047     -20.77706
Nuclear contribution   :      2.89225       3.36404      21.70199
                        -----------------------------------------
Total Dipole Moment    :     -1.62088       1.26357       0.92493
                        -----------------------------------------
Magnitude (a.u.)       :      2.25375
Magnitude (Debye)      :      5.72857

Rotational constants in cm-1:     0.029431     0.014408     0.011084
Rotational constants in MHz :   882.306106   431.946714   332.288152

                             ****ORCA TERMINATED NORMALLY****
TOTAL RUN TIME: 0 days 0 hours 0 minutes 18 seconds 818 msec
