                         Program Version 5.0.0 -  RELEASE  -
|  1> !PBE D3BJ RIJCOSX def2-TZVP def2/J TightSCF xyzfile
|  2>
|  3> *xyzfile 0 1 D6.xyz
|  4>
|  5> %MaxCore 64000
|  6>
|  7> %pal nprocs 18
|  8> end
|  9>
| 10> %scf
| 11>   MaxIter 150
| 12> end
| 13>
| 14>
| 15>                          ****END OF INPUT****

CARTESIAN COORDINATES (ANGSTROEM)
---------------------------------
  C      1.963365   -1.749150   -1.896887
  N      2.738490   -2.015170   -3.097113
  C      0.611877    1.657634   -4.500288
  C      1.694991    1.541794   -5.570447
  H      2.697326    1.734659   -5.183996
  H      1.506656    2.272239   -6.358076
  S      1.780287   -0.033128   -6.428739
  C      4.049736   -2.154717   -3.152044
  N      4.658206   -1.986293   -4.318655
  C      4.764231   -2.454435   -2.050491
  H      4.287363   -2.776259   -1.217496
  H      5.750825   -2.658351   -2.125988
  H      2.345176   -1.690274   -3.971447
  H      4.109004   -1.592677   -5.071760
  H      5.649095   -2.156462   -4.427237
  O      2.569287    0.213657   -7.607360
  F      0.416880   -0.462969   -6.618595
  C      2.088520   -0.300912   -1.415204
  H      2.231272   -2.451616   -1.102643
  H      0.930249   -1.977801   -2.155438
  C      0.680356    0.655418   -3.348038
  H     -0.356865    1.549231   -4.991128
  H      0.650228    2.675438   -4.096000
  C      1.968993    0.733582   -2.535654
  H      3.051356   -0.168602   -0.911868
  H      1.316501   -0.136231   -0.657252
  O      2.505129   -0.933263   -5.482570
  H      2.824195    0.624726   -3.208464
  H      2.058919    1.730331   -2.093112
  H      0.542252   -0.344731   -3.766662
  H     -0.174219    0.829692   -2.685182

 Total Charge           Charge          ....    0
 Multiplicity           Mult            ....    1
 Number of Electrons    NEL             ....  120
 Basis Dimension        Dim             ....  542

ORBITAL ENERGIES
----------------

  NO   OCC          E(Eh)            E(eV)
   0   2.0000     -88.294754     -2402.6224
   1   2.0000     -24.396753      -663.8694
   2   2.0000     -18.785782      -511.1871
   3   2.0000     -18.779616      -511.0193
   4   2.0000     -13.954790      -379.7291
   5   2.0000     -13.950693      -379.6177
   6   2.0000      -9.954026      -270.8628
   7   2.0000      -9.921904      -269.9887
   8   2.0000      -9.898527      -269.3526
   9   2.0000      -9.898185      -269.3433
  10   2.0000      -9.895022      -269.2572
  11   2.0000      -9.882930      -268.9282
  12   2.0000      -9.870766      -268.5972
  13   2.0000      -9.770901      -265.8797
  14   2.0000      -7.890591      -214.7139
  15   2.0000      -5.914944      -160.9538
  16   2.0000      -5.908761      -160.7856
  17   2.0000      -5.907774      -160.7587
  18   2.0000      -1.300328       -35.3837
  19   2.0000      -1.041816       -28.3492
  20   2.0000      -0.948936       -25.8218
  21   2.0000      -0.864177       -23.5155
  22   2.0000      -0.786404       -21.3991
  23   2.0000      -0.777728       -21.1630
  24   2.0000      -0.725161       -19.7326
  25   2.0000      -0.689225       -18.7548
  26   2.0000      -0.661015       -17.9871
  27   2.0000      -0.623695       -16.9716
  28   2.0000      -0.612361       -16.6632
  29   2.0000      -0.578261       -15.7353
  30   2.0000      -0.551890       -15.0177
  31   2.0000      -0.546320       -14.8661
  32   2.0000      -0.527606       -14.3569
  33   2.0000      -0.515392       -14.0245
  34   2.0000      -0.481221       -13.0947
  35   2.0000      -0.471133       -12.8202
  36   2.0000      -0.457559       -12.4508
  37   2.0000      -0.455999       -12.4084
  38   2.0000      -0.446205       -12.1419
  39   2.0000      -0.432458       -11.7678
  40   2.0000      -0.415500       -11.3063
  41   2.0000      -0.409096       -11.1321
  42   2.0000      -0.394185       -10.7263
  43   2.0000      -0.384801       -10.4710
  44   2.0000      -0.381005       -10.3677
  45   2.0000      -0.362014        -9.8509
  46   2.0000      -0.349306        -9.5051
  47   2.0000      -0.347495        -9.4558
  48   2.0000      -0.330262        -8.9869
  49   2.0000      -0.323993        -8.8163
  50   2.0000      -0.315626        -8.5886
  51   2.0000      -0.312255        -8.4969
  52   2.0000      -0.303566        -8.2604
  53   2.0000      -0.298974        -8.1355
  54   2.0000      -0.290588        -7.9073
  55   2.0000      -0.289870        -7.8878
  56   2.0000      -0.285298        -7.7633
  57   2.0000      -0.275765        -7.5040
  58   2.0000      -0.184101        -5.0097
  59   2.0000      -0.111241        -3.0270
  60   0.0000      -0.041178        -1.1205
  61   0.0000      -0.006381        -0.1736
  62   0.0000       0.002282         0.0621
  63   0.0000       0.012351         0.3361
  64   0.0000       0.018754         0.5103

MULLIKEN ATOMIC CHARGES
-----------------------
   0 C :   -0.200507
   1 N :   -0.198859
   2 C :   -0.169146
   3 C :   -0.277160
   4 H :    0.172447
   5 H :    0.159506
   6 S :    0.739280
   7 C :    0.255403
   8 N :   -0.424868
   9 C :   -0.528684
  10 H :    0.078094
  11 H :    0.069520
  12 H :    0.201210
  13 H :    0.227849
  14 H :    0.217433
  15 O :   -0.335482
  16 F :   -0.048193
  17 C :   -0.078307
  18 H :    0.116797
  19 H :    0.113463
  20 C :   -0.255029
  21 H :    0.120744
  22 H :    0.112994
  23 C :   -0.240041
  24 H :    0.109828
  25 H :    0.076633
  26 O :   -0.437334
  27 H :    0.120741
  28 H :    0.092371
  29 H :    0.106471
  30 H :    0.102825
Sum of atomic charges:   -0.0000000

LOEWDIN ATOMIC CHARGES
----------------------
   0 C :   -0.291692
   1 N :    0.133096
   2 C :   -0.291329
   3 C :   -0.369826
   4 H :    0.154724
   5 H :    0.147042
   6 S :    0.500760
   7 C :   -0.488030
   8 N :   -0.001406
   9 C :   -0.367342
  10 H :    0.094310
  11 H :    0.090767
  12 H :    0.156885
  13 H :    0.150285
  14 H :    0.169151
  15 O :   -0.213972
  16 F :    0.130200
  17 C :   -0.270617
  18 H :    0.137705
  19 H :    0.129652
  20 C :   -0.277194
  21 H :    0.141266
  22 H :    0.150745
  23 C :   -0.274621
  24 H :    0.146005
  25 H :    0.135089
  26 O :   -0.278527
  27 H :    0.141828
  28 H :    0.138362
  29 H :    0.133406
  30 H :    0.143277

  Mayer bond orders larger than 0.100000
B(  0-C ,  1-N ) :   1.0180 B(  0-C , 17-C ) :   0.9724 B(  0-C , 18-H ) :   0.9507
B(  0-C , 19-H ) :   0.9709 B(  1-N ,  7-C ) :   1.2313 B(  1-N , 12-H ) :   0.8866
B(  2-C ,  3-C ) :   0.9834 B(  2-C , 20-C ) :   0.9898 B(  2-C , 21-H ) :   0.9571
B(  2-C , 22-H ) :   0.9282 B(  3-C ,  4-H ) :   0.9298 B(  3-C ,  5-H ) :   0.9315
B(  3-C ,  6-S ) :   0.9111 B(  6-S , 15-O ) :   2.0165 B(  6-S , 16-F ) :   1.1831
B(  6-S , 26-O ) :   1.7194 B(  7-C ,  8-N ) :   1.1927 B(  7-C ,  9-C ) :   1.6366
B(  8-N , 13-H ) :   0.8777 B(  8-N , 14-H ) :   0.9223 B(  9-C , 10-H ) :   0.9823
B(  9-C , 11-H ) :   0.9825 B( 17-C , 23-C ) :   1.0180 B( 17-C , 24-H ) :   0.9294
B( 17-C , 25-H ) :   0.9474 B( 20-C , 23-C ) :   0.9819 B( 20-C , 29-H ) :   0.9682
B( 20-C , 30-H ) :   0.9469 B( 23-C , 27-H ) :   0.9519 B( 23-C , 28-H ) :   0.9416

Dispersion correction           -0.037472493
FINAL SINGLE POINT ENERGY     -1072.340299074886

DIPOLE MOMENT
-------------
                                X             Y             Z
Electronic contribution:     -4.76454      -1.48381     -22.84162
Nuclear contribution   :      2.90585       3.30398      21.99296
                        -----------------------------------------
Total Dipole Moment    :     -1.85869       1.82017      -0.84866
                        -----------------------------------------
Magnitude (a.u.)       :      2.73642
Magnitude (Debye)      :      6.95542

Rotational constants in cm-1:     0.029065     0.014689     0.011200
Rotational constants in MHz :   871.338526   440.374927   335.770911

                             ****ORCA TERMINATED NORMALLY****
TOTAL RUN TIME: 0 days 0 hours 0 minutes 22 seconds 985 msec
