                         Program Version 5.0.0 -  RELEASE  -
|  1> !PBE D3BJ RIJCOSX def2-TZVP def2/J TightSCF xyzfile
|  2>
|  3> *xyzfile 0 1 D7.xyz
|  4>
|  5> %MaxCore 64000
|  6>
|  7> %pal nprocs 18
|  8> end
|  9>
| 10> %scf
| 11>   MaxIter 150
| 12> end
| 13>
| 14>
| 15>                          ****END OF INPUT****

CARTESIAN COORDINATES (ANGSTROEM)
---------------------------------
  C      1.963365   -1.749150   -1.896887
  C      2.738490   -2.015170   -3.097113
  C      0.611877    1.657634   -4.500288
  C      1.694991    1.541794   -5.570447
  H      2.697326    1.734659   -5.183996
  H      1.506656    2.272239   -6.358076
  S      1.780287   -0.033128   -6.428739
  C      4.049736   -2.154717   -3.152044
  N      4.658206   -1.986293   -4.318655
  N      4.764231   -2.454435   -2.050491
  H      4.287363   -2.776259   -1.217496
  H      5.750825   -2.658351   -2.125988
  H      2.345176   -1.690274   -3.971447
  H      4.109004   -1.592677   -5.071760
  H      5.649095   -2.156462   -4.427237
  O      2.569287    0.213657   -7.607360
  O      0.416880   -0.462969   -6.618595
  C      2.088520   -0.300912   -1.415204
  H      2.231272   -2.451616   -1.102643
  H      0.930249   -1.977801   -2.155438
  C      0.680356    0.655418   -3.348038
  H     -0.356865    1.549231   -4.991128
  H      0.650228    2.675438   -4.096000
  C      1.968993    0.733582   -2.535654
  H      3.051356   -0.168602   -0.911868
  H      1.316501   -0.136231   -0.657252
  F      2.505129   -0.933263   -5.482570
  H      2.824195    0.624726   -3.208464
  H      2.058919    1.730331   -2.093112
  H      0.542252   -0.344731   -3.766662
  H     -0.174219    0.829692   -2.685182

 Total Charge           Charge          ....    0
 Multiplicity           Mult            ....    1
 Number of Electrons    NEL             ....  120
 Basis Dimension        Dim             ....  542

ORBITAL ENERGIES
----------------

  NO   OCC          E(Eh)            E(eV)
   0   2.0000     -88.265022     -2401.8133
   1   2.0000     -24.356259      -662.7675
   2   2.0000     -18.763062      -510.5689
   3   2.0000     -18.762999      -510.5672
   4   2.0000     -13.985381      -380.5616
   5   2.0000     -13.980295      -380.4232
   6   2.0000      -9.933959      -270.3168
   7   2.0000      -9.917407      -269.8664
   8   2.0000      -9.900695      -269.4116
   9   2.0000      -9.881943      -268.9013
  10   2.0000      -9.873808      -268.6800
  11   2.0000      -9.864601      -268.4294
  12   2.0000      -9.857214      -268.2284
  13   2.0000      -9.796298      -266.5708
  14   2.0000      -7.861348      -213.9182
  15   2.0000      -5.886003      -160.1663
  16   2.0000      -5.879080      -159.9779
  17   2.0000      -5.878622      -159.9654
  18   2.0000      -1.248951       -33.9857
  19   2.0000      -1.027031       -27.9469
  20   2.0000      -0.940346       -25.5881
  21   2.0000      -0.878399       -23.9025
  22   2.0000      -0.796189       -21.6654
  23   2.0000      -0.759884       -20.6775
  24   2.0000      -0.725128       -19.7317
  25   2.0000      -0.683202       -18.5909
  26   2.0000      -0.663206       -18.0468
  27   2.0000      -0.628540       -17.1034
  28   2.0000      -0.600280       -16.3345
  29   2.0000      -0.563780       -15.3412
  30   2.0000      -0.530119       -14.4253
  31   2.0000      -0.517500       -14.0819
  32   2.0000      -0.513722       -13.9791
  33   2.0000      -0.501079       -13.6351
  34   2.0000      -0.489222       -13.3124
  35   2.0000      -0.486736       -13.2448
  36   2.0000      -0.453343       -12.3361
  37   2.0000      -0.438670       -11.9368
  38   2.0000      -0.436437       -11.8760
  39   2.0000      -0.422230       -11.4895
  40   2.0000      -0.416131       -11.3235
  41   2.0000      -0.402849       -10.9621
  42   2.0000      -0.395747       -10.7688
  43   2.0000      -0.382819       -10.4170
  44   2.0000      -0.373164       -10.1543
  45   2.0000      -0.350305        -9.5323
  46   2.0000      -0.347582        -9.4582
  47   2.0000      -0.345495        -9.4014
  48   2.0000      -0.336906        -9.1677
  49   2.0000      -0.321489        -8.7482
  50   2.0000      -0.310689        -8.4543
  51   2.0000      -0.301122        -8.1939
  52   2.0000      -0.294137        -8.0039
  53   2.0000      -0.289153        -7.8683
  54   2.0000      -0.281145        -7.6503
  55   2.0000      -0.277911        -7.5624
  56   2.0000      -0.270486        -7.3603
  57   2.0000      -0.266737        -7.2583
  58   2.0000      -0.222550        -6.0559
  59   2.0000      -0.129282        -3.5180
  60   0.0000      -0.015119        -0.4114
  61   0.0000      -0.000063        -0.0017
  62   0.0000       0.009803         0.2668
  63   0.0000       0.021114         0.5745
  64   0.0000       0.027042         0.7358

MULLIKEN ATOMIC CHARGES
-----------------------
   0 C :   -0.277872
   1 C :   -0.296125
   2 C :   -0.110401
   3 C :   -0.300636
   4 H :    0.149155
   5 H :    0.162310
   6 S :    0.711557
   7 C :    0.220381
   8 N :   -0.420119
   9 N :   -0.423202
  10 H :    0.228985
  11 H :    0.205118
  12 H :    0.110815
  13 H :    0.224721
  14 H :    0.205752
  15 O :   -0.364373
  16 O :   -0.349280
  17 C :   -0.079041
  18 H :    0.074900
  19 H :    0.103803
  20 C :   -0.302320
  21 H :    0.125158
  22 H :    0.098948
  23 C :   -0.166402
  24 H :    0.079199
  25 H :    0.070278
  26 F :   -0.098972
  27 H :    0.099092
  28 H :    0.086176
  29 H :    0.136404
  30 H :    0.095990
Sum of atomic charges:    0.0000000

LOEWDIN ATOMIC CHARGES
----------------------
   0 C :   -0.295396
   1 C :   -0.293241
   2 C :   -0.287402
   3 C :   -0.377649
   4 H :    0.139535
   5 H :    0.153415
   6 S :    0.491748
   7 C :   -0.476453
   8 N :   -0.004460
   9 N :   -0.006979
  10 H :    0.172712
  11 H :    0.158052
  12 H :    0.114973
  13 H :    0.162228
  14 H :    0.158894
  15 O :   -0.234939
  16 O :   -0.224482
  17 C :   -0.263434
  18 H :    0.130647
  19 H :    0.143983
  20 C :   -0.273281
  21 H :    0.147683
  22 H :    0.146186
  23 C :   -0.274733
  24 H :    0.136091
  25 H :    0.130990
  26 F :    0.069275
  27 H :    0.136016
  28 H :    0.135949
  29 H :    0.141305
  30 H :    0.142766

  Mayer bond orders larger than 0.100000
B(  0-C ,  1-C ) :   1.0536 B(  0-C , 17-C ) :   0.9773 B(  0-C , 18-H ) :   0.9539
B(  0-C , 19-H ) :   0.9649 B(  1-C ,  7-C ) :   1.6653 B(  1-C , 12-H ) :   1.0016
B(  2-C ,  3-C ) :   0.9805 B(  2-C , 20-C ) :   0.9994 B(  2-C , 21-H ) :   0.9447
B(  2-C , 22-H ) :   0.9268 B(  3-C ,  4-H ) :   0.9343 B(  3-C ,  5-H ) :   0.9317
B(  3-C ,  6-S ) :   0.9003 B(  6-S , 15-O ) :   1.9910 B(  6-S , 16-O ) :   1.9580
B(  6-S , 26-F ) :   1.0530 B(  7-C ,  8-N ) :   1.2150 B(  7-C ,  9-N ) :   1.1973
B(  8-N , 13-H ) :   0.8978 B(  8-N , 14-H ) :   0.9200 B(  9-N , 10-H ) :   0.9118
B(  9-N , 11-H ) :   0.9203 B( 17-C , 23-C ) :   1.0246 B( 17-C , 24-H ) :   0.9388
B( 17-C , 25-H ) :   0.9456 B( 20-C , 23-C ) :   0.9774 B( 20-C , 29-H ) :   0.9683
B( 20-C , 30-H ) :   0.9454 B( 23-C , 27-H ) :   0.9536 B( 23-C , 28-H ) :   0.9454

Dispersion correction           -0.037371291
FINAL SINGLE POINT ENERGY     -1072.349286283370

DIPOLE MOMENT
-------------
                                X             Y             Z
Electronic contribution:      0.88071      -3.23141     -19.51908
Nuclear contribution   :      0.26049       3.89757      20.56096
                        -----------------------------------------
Total Dipole Moment    :      1.14120       0.66616       1.04189
                        -----------------------------------------
Magnitude (a.u.)       :      1.68275
Magnitude (Debye)      :      4.27720

Rotational constants in cm-1:     0.029090     0.014735     0.011139
Rotational constants in MHz :   872.086433   441.731892   333.928051

                             ****ORCA TERMINATED NORMALLY****
TOTAL RUN TIME: 0 days 0 hours 0 minutes 21 seconds 337 msec
