                         Program Version 5.0.0 -  RELEASE  -
|  1> !PBE D3BJ RIJCOSX def2-TZVP def2/J TightSCF xyzfile
|  2>
|  3> *xyzfile 0 1 D8.xyz
|  4>
|  5> %MaxCore 64000
|  6>
|  7> %pal nprocs 18
|  8> end
|  9>
| 10> %scf
| 11>   MaxIter 150
| 12> end
| 13>
| 14>
| 15>                          ****END OF INPUT****

CARTESIAN COORDINATES (ANGSTROEM)
---------------------------------
  C      1.963365   -1.749150   -1.896887
  N      2.738490   -2.015170   -3.097113
  C      0.611877    1.657634   -4.500288
  C      1.694991    1.541794   -5.570447
  H      2.697326    1.734659   -5.183996
  H      1.506656    2.272239   -6.358076
  S      1.780287   -0.033128   -6.428739
  C      4.049736   -2.154717   -3.152044
  C      4.658206   -1.986293   -4.318655
  N      4.764231   -2.454435   -2.050491
  H      4.287363   -2.776259   -1.217496
  H      5.750825   -2.658351   -2.125988
  H      2.345176   -1.690274   -3.971447
  H      4.109004   -1.592677   -5.071760
  H      5.649095   -2.156462   -4.427237
  O      2.569287    0.213657   -7.607360
  O      0.416880   -0.462969   -6.618595
  C      2.088520   -0.300912   -1.415204
  H      2.231272   -2.451616   -1.102643
  H      0.930249   -1.977801   -2.155438
  C      0.680356    0.655418   -3.348038
  H     -0.356865    1.549231   -4.991128
  H      0.650228    2.675438   -4.096000
  C      1.968993    0.733582   -2.535654
  H      3.051356   -0.168602   -0.911868
  H      1.316501   -0.136231   -0.657252
  F      2.505129   -0.933263   -5.482570
  H      2.824195    0.624726   -3.208464
  H      2.058919    1.730331   -2.093112
  H      0.542252   -0.344731   -3.766662
  H     -0.174219    0.829692   -2.685182

 Total Charge           Charge          ....    0
 Multiplicity           Mult            ....    1
 Number of Electrons    NEL             ....  120
 Basis Dimension        Dim             ....  542

ORBITAL ENERGIES
----------------

  NO   OCC          E(Eh)            E(eV)
   0   2.0000     -88.267011     -2401.8675
   1   2.0000     -24.357834      -662.8104
   2   2.0000     -18.765521      -510.6358
   3   2.0000     -18.763572      -510.5827
   4   2.0000     -13.983181      -380.5017
   5   2.0000     -13.981647      -380.4599
   6   2.0000      -9.937641      -270.4170
   7   2.0000      -9.919914      -269.9346
   8   2.0000      -9.917884      -269.8793
   9   2.0000      -9.909234      -269.6440
  10   2.0000      -9.897222      -269.3171
  11   2.0000      -9.890506      -269.1344
  12   2.0000      -9.886610      -269.0283
  13   2.0000      -9.789613      -266.3889
  14   2.0000      -7.863258      -213.9701
  15   2.0000      -5.887903      -160.2180
  16   2.0000      -5.881081      -160.0323
  17   2.0000      -5.880474      -160.0158
  18   2.0000      -1.250278       -34.0218
  19   2.0000      -1.028484       -27.9865
  20   2.0000      -0.941730       -25.6258
  21   2.0000      -0.886968       -24.1356
  22   2.0000      -0.808394       -21.9975
  23   2.0000      -0.768114       -20.9014
  24   2.0000      -0.727709       -19.8020
  25   2.0000      -0.695063       -18.9136
  26   2.0000      -0.653182       -17.7740
  27   2.0000      -0.643509       -17.5108
  28   2.0000      -0.607247       -16.5240
  29   2.0000      -0.573493       -15.6055
  30   2.0000      -0.538701       -14.6588
  31   2.0000      -0.535778       -14.5793
  32   2.0000      -0.510761       -13.8985
  33   2.0000      -0.506173       -13.7737
  34   2.0000      -0.493177       -13.4200
  35   2.0000      -0.479417       -13.0456
  36   2.0000      -0.451604       -12.2888
  37   2.0000      -0.446363       -12.1462
  38   2.0000      -0.437264       -11.8985
  39   2.0000      -0.433907       -11.8072
  40   2.0000      -0.420182       -11.4337
  41   2.0000      -0.410256       -11.1636
  42   2.0000      -0.397150       -10.8070
  43   2.0000      -0.390016       -10.6129
  44   2.0000      -0.378959       -10.3120
  45   2.0000      -0.358787        -9.7631
  46   2.0000      -0.353704        -9.6248
  47   2.0000      -0.349319        -9.5054
  48   2.0000      -0.339686        -9.2433
  49   2.0000      -0.331320        -9.0157
  50   2.0000      -0.325845        -8.8667
  51   2.0000      -0.318722        -8.6729
  52   2.0000      -0.304838        -8.2951
  53   2.0000      -0.302734        -8.2378
  54   2.0000      -0.294996        -8.0272
  55   2.0000      -0.291451        -7.9308
  56   2.0000      -0.288288        -7.8447
  57   2.0000      -0.278499        -7.5783
  58   2.0000      -0.212518        -5.7829
  59   2.0000      -0.132955        -3.6179
  60   0.0000      -0.015685        -0.4268
  61   0.0000      -0.002315        -0.0630
  62   0.0000       0.006820         0.1856
  63   0.0000       0.019914         0.5419
  64   0.0000       0.021248         0.5782

MULLIKEN ATOMIC CHARGES
-----------------------
   0 C :   -0.258856
   1 N :   -0.196636
   2 C :   -0.111620
   3 C :   -0.306085
   4 H :    0.157508
   5 H :    0.163848
   6 S :    0.721680
   7 C :    0.296787
   8 C :   -0.555269
   9 N :   -0.443645
  10 H :    0.209173
  11 H :    0.227955
  12 H :    0.204672
  13 H :    0.113973
  14 H :    0.083323
  15 O :   -0.355139
  16 O :   -0.356602
  17 C :   -0.054159
  18 H :    0.109864
  19 H :    0.135065
  20 C :   -0.292967
  21 H :    0.128404
  22 H :    0.103193
  23 C :   -0.256551
  24 H :    0.096492
  25 H :    0.080854
  26 F :   -0.097929
  27 H :    0.128190
  28 H :    0.098468
  29 H :    0.123587
  30 H :    0.102425
Sum of atomic charges:   -0.0000000

LOEWDIN ATOMIC CHARGES
----------------------
   0 C :   -0.305460
   1 N :    0.133467
   2 C :   -0.286240
   3 C :   -0.376714
   4 H :    0.141885
   5 H :    0.154380
   6 S :    0.493556
   7 C :   -0.482000
   8 C :   -0.350467
   9 N :   -0.005579
  10 H :    0.157729
  11 H :    0.173447
  12 H :    0.173521
  13 H :    0.093454
  14 H :    0.095278
  15 O :   -0.224967
  16 O :   -0.229345
  17 C :   -0.273300
  18 H :    0.129786
  19 H :    0.136503
  20 C :   -0.277298
  21 H :    0.148763
  22 H :    0.147385
  23 C :   -0.276294
  24 H :    0.139786
  25 H :    0.136863
  26 F :    0.071958
  27 H :    0.140750
  28 H :    0.140625
  29 H :    0.134858
  30 H :    0.143671

  Mayer bond orders larger than 0.100000
B(  0-C ,  1-N ) :   1.0064 B(  0-C , 17-C ) :   0.9412 B(  0-C , 18-H ) :   0.9655
B(  0-C , 19-H ) :   0.9699 B(  1-N ,  7-C ) :   1.2564 B(  1-N , 12-H ) :   0.9065
B(  2-C ,  3-C ) :   0.9781 B(  2-C , 20-C ) :   1.0029 B(  2-C , 21-H ) :   0.9442
B(  2-C , 22-H ) :   0.9280 B(  3-C ,  4-H ) :   0.9355 B(  3-C ,  5-H ) :   0.9315
B(  3-C ,  6-S ) :   0.8995 B(  6-S , 15-O ) :   1.9977 B(  6-S , 16-O ) :   1.9493
B(  6-S , 26-F ) :   1.0495 B(  7-C ,  8-C ) :   1.6086 B(  7-C ,  9-N ) :   1.1557
B(  8-C , 13-H ) :   0.9822 B(  8-C , 14-H ) :   0.9883 B(  9-N , 10-H ) :   0.9128
B(  9-N , 11-H ) :   0.9208 B( 17-C , 23-C ) :   1.0054 B( 17-C , 24-H ) :   0.9363
B( 17-C , 25-H ) :   0.9409 B( 20-C , 23-C ) :   0.9837 B( 20-C , 29-H ) :   0.9667
B( 20-C , 30-H ) :   0.9460 B( 23-C , 27-H ) :   0.9536 B( 23-C , 28-H ) :   0.9447

Dispersion correction           -0.037189537
FINAL SINGLE POINT ENERGY     -1072.345667776263

DIPOLE MOMENT
-------------
                                X             Y             Z
Electronic contribution:     -0.83224      -3.02913     -18.43582
Nuclear contribution   :      0.50676       3.90127      20.40426
                        -----------------------------------------
Total Dipole Moment    :     -0.32549       0.87215       1.96844
                        -----------------------------------------
Magnitude (a.u.)       :      2.17747
Magnitude (Debye)      :      5.53468

Rotational constants in cm-1:     0.029548     0.014706     0.011197
Rotational constants in MHz :   885.834387   440.871746   335.667619

                             ****ORCA TERMINATED NORMALLY****
TOTAL RUN TIME: 0 days 0 hours 0 minutes 27 seconds 131 msec
