                         Program Version 5.0.0 -  RELEASE  -
|  1> !B3LYP D3BJ RIJCOSX def2-SVPD def2/J TightSCF
|  2> *xyz -1 1
|  3> C         -0.47749        0.60819       -4.10105
|  4> C          0.18467       -0.50664       -4.91676
|  5> O         -0.15869       -1.70109       -4.65798
|  6> O          1.05594       -0.17441       -5.74037
|  7> H         -0.09903        1.55672       -4.42038
|  8> H         -0.25931        0.46828       -3.06292
|  9> H         -1.53664        0.57826       -4.25010
| 10> *
| 11>
| 12> %MaxCore 64000
| 13>
| 14> %pal nprocs 4
| 15> end
| 16>
| 17> %scf
| 18>   MaxIter 150
| 19> end
| 20>
| 21>
| 22>                          ****END OF INPUT****

CARTESIAN COORDINATES (ANGSTROEM)
---------------------------------
  C     -0.477490    0.608190   -4.101050
  C      0.184670   -0.506640   -4.916760
  O     -0.158690   -1.701090   -4.657980
  O      1.055940   -0.174410   -5.740370
  H     -0.099030    1.556720   -4.420380
  H     -0.259310    0.468280   -3.062920
  H     -1.536640    0.578260   -4.250100

 Total Charge           Charge          ....   -1
 Multiplicity           Mult            ....    1
 Number of Electrons    NEL             ....   32
 Basis Dimension        Dim             ....  110

ORBITAL ENERGIES
----------------

  NO   OCC          E(Eh)            E(eV)
   0   2.0000     -18.877298      -513.6774
   1   2.0000     -18.871901      -513.5305
   2   2.0000     -10.068544      -273.9790
   3   2.0000      -9.996768      -272.0259
   4   2.0000      -0.808800       -22.0086
   5   2.0000      -0.714633       -19.4462
   6   2.0000      -0.537091       -14.6150
   7   2.0000      -0.300423        -8.1749
   8   2.0000      -0.259669        -7.0660
   9   2.0000      -0.245502        -6.6804
  10   2.0000      -0.224185        -6.1004
  11   2.0000      -0.184903        -5.0315
  12   2.0000      -0.166112        -4.5201
  13   2.0000      -0.048196        -1.3115
  14   2.0000      -0.042635        -1.1602
  15   2.0000      -0.026118        -0.7107
  16   0.0000       0.170518         4.6400
  17   0.0000       0.213808         5.8180
  18   0.0000       0.222153         6.0451
  19   0.0000       0.240283         6.5384
  20   0.0000       0.263976         7.1831

MULLIKEN ATOMIC CHARGES
-----------------------
   0 C :    0.697753
   1 C :    0.025446
   2 O :   -0.684018
   3 O :   -0.613682
   4 H :   -0.159531
   5 H :   -0.133609
   6 H :   -0.132358
Sum of atomic charges:   -1.0000000

LOEWDIN ATOMIC CHARGES
----------------------
   0 C :    0.152102
   1 C :   -0.336409
   2 O :   -0.352898
   3 O :   -0.329669
   4 H :   -0.049036
   5 H :   -0.041136
   6 H :   -0.042952

  Mayer bond orders larger than 0.100000
B(  0-C ,  1-C ) :   1.1940 B(  0-C ,  4-H ) :   0.8316 B(  0-C ,  5-H ) :   0.7855
B(  0-C ,  6-H ) :   0.7777 B(  1-C ,  2-O ) :   1.4810 B(  1-C ,  3-O ) :   1.5128
B(  1-C ,  4-H ) :   0.2799 B(  1-C ,  5-H ) :   0.1879 B(  1-C ,  6-H ) :   0.1952

Dispersion correction           -0.006228311
FINAL SINGLE POINT ENERGY      -228.262361621348

DIPOLE MOMENT
-------------
                                X             Y             Z
Electronic contribution:      1.60258      -2.58420      -1.94038
Nuclear contribution   :     -2.19461       3.67480       2.63888
                        -----------------------------------------
Total Dipole Moment    :     -0.59202       1.09060       0.69850
                        -----------------------------------------
Magnitude (a.u.)       :      1.42401
Magnitude (Debye)      :      3.61954

Rotational constants in cm-1:     0.393152     0.332423     0.186264
Rotational constants in MHz : 11786.395082  9965.786704  5584.045355

                             ****ORCA TERMINATED NORMALLY****
TOTAL RUN TIME: 0 days 0 hours 0 minutes 8 seconds 97 msec
