                         Program Version 5.0.0 -  RELEASE  -
|  1> !B3LYP D3BJ RIJCOSX def2-SVPD def2/J TightSCF
|  2> *xyz 1 1
|  3> C          2.48645       -2.67712       -2.56345
|  4> C          3.03764       -2.36672       -3.92351
|  5> N          2.28036       -2.45441       -4.96769
|  6> N          4.32174       -2.01793       -4.01664
|  7> H          4.87994       -1.91167       -3.17382
|  8> H          4.71015       -1.67088       -4.88356
|  9> H          1.27042       -2.41265       -4.86614
| 10> H          2.58183       -2.05528       -5.84688
| 11> H          1.45238       -2.93848       -2.64882
| 12> H          2.58636       -1.81799       -1.93352
| 13> H          3.02742       -3.49632       -2.13781
| 14> *
| 15>
| 16> %MaxCore 64000
| 17>
| 18> %pal nprocs 4
| 19> end
| 20>
| 21> %scf
| 22>   MaxIter 150
| 23> end
| 24>
| 25>
| 26>                          ****END OF INPUT****

CARTESIAN COORDINATES (ANGSTROEM)
---------------------------------
  C      2.486450   -2.677120   -2.563450
  C      3.037640   -2.366720   -3.923510
  N      2.280360   -2.454410   -4.967690
  N      4.321740   -2.017930   -4.016640
  H      4.879940   -1.911670   -3.173820
  H      4.710150   -1.670880   -4.883560
  H      1.270420   -2.412650   -4.866140
  H      2.581830   -2.055280   -5.846880
  H      1.452380   -2.938480   -2.648820
  H      2.586360   -1.817990   -1.933520
  H      3.027420   -3.496320   -2.137810

 Total Charge           Charge          ....    1
 Multiplicity           Mult            ....    1
 Number of Electrons    NEL             ....   32
 Basis Dimension        Dim             ....  136

ORBITAL ENERGIES
----------------

  NO   OCC          E(Eh)            E(eV)
   0   2.0000     -14.587112      -396.9355
   1   2.0000     -14.581585      -396.7851
   2   2.0000     -10.518329      -286.2183
   3   2.0000     -10.383865      -282.5593
   4   2.0000      -1.206675       -32.8353
   5   2.0000      -1.110073       -30.2066
   6   2.0000      -0.950955       -25.8768
   7   2.0000      -0.847125       -23.0514
   8   2.0000      -0.784947       -21.3595
   9   2.0000      -0.768606       -20.9148
  10   2.0000      -0.709653       -19.3106
  11   2.0000      -0.662900       -18.0384
  12   2.0000      -0.619444       -16.8559
  13   2.0000      -0.603782       -16.4297
  14   2.0000      -0.581392       -15.8205
  15   2.0000      -0.505324       -13.7506
  16   0.0000      -0.224665        -6.1134
  17   0.0000      -0.166424        -4.5286
  18   0.0000      -0.122415        -3.3311
  19   0.0000      -0.120476        -3.2783
  20   0.0000      -0.097484        -2.6527

MULLIKEN ATOMIC CHARGES
-----------------------
   0 C :    0.814069
   1 C :    0.214391
   2 N :    0.239133
   3 N :    0.211927
   4 H :   -0.029903
   5 H :   -0.166574
   6 H :   -0.017246
   7 H :   -0.120506
   8 H :   -0.044811
   9 H :   -0.054796
  10 H :   -0.045685
Sum of atomic charges:    1.0000000

LOEWDIN ATOMIC CHARGES
----------------------
   0 C :    0.242901
   1 C :   -0.068269
   2 N :    0.285953
   3 N :    0.285237
   4 H :    0.055441
   5 H :    0.043114
   6 H :    0.059365
   7 H :    0.050517
   8 H :    0.004897
   9 H :    0.019549
  10 H :    0.021296

  Mayer bond orders larger than 0.100000
B(  0-C ,  1-C ) :   1.2943 B(  0-C ,  8-H ) :   0.7339 B(  0-C ,  9-H ) :   0.7440
B(  0-C , 10-H ) :   0.6894 B(  1-C ,  2-N ) :   1.1610 B(  1-C ,  3-N ) :   1.1559
B(  1-C ,  5-H ) :  -0.1518 B(  1-C ,  7-H ) :  -0.1343 B(  1-C ,  8-H ) :   0.2993
B(  1-C ,  9-H ) :   0.1897 B(  1-C , 10-H ) :   0.2197 B(  2-N ,  3-N ) :   0.1480
B(  2-N ,  6-H ) :   1.0693 B(  2-N ,  7-H ) :   1.1941 B(  3-N ,  4-H ) :   1.1349
B(  3-N ,  5-H ) :   1.2371 B(  4-H ,  5-H ) :  -0.1589 B(  6-H ,  7-H ) :  -0.1270
B(  9-H , 10-H ) :   0.1093

Dispersion correction           -0.011415430
FINAL SINGLE POINT ENERGY      -189.483706845692

DIPOLE MOMENT
-------------
                                X             Y             Z
Electronic contribution:      0.79476       0.25052      -1.97428
Nuclear contribution   :     -0.70516       0.22720       1.57908
                        -----------------------------------------
Total Dipole Moment    :      0.08960       0.47772      -0.39520
                        -----------------------------------------
Magnitude (a.u.)       :      0.62644
Magnitude (Debye)      :      1.59229

Rotational constants in cm-1:     0.330529     0.301293     0.162717
Rotational constants in MHz :  9909.000224  9032.538169  4878.126278

                             ****ORCA TERMINATED NORMALLY****
TOTAL RUN TIME: 0 days 0 hours 0 minutes 9 seconds 711 msec
