                         Program Version 5.0.0 -  RELEASE  -
|  1> !B3LYP D3BJ RIJCOSX def2-SVPD def2/J TightSCF
|  2> *xyz 0 1
|  3> C         -0.47749        0.60819       -4.10105
|  4> C          0.18467       -0.50664       -4.91676
|  5> F         -0.15869       -1.70109       -4.65798
|  6> O          1.05594       -0.17441       -5.74037
|  7> H         -0.09903        1.55672       -4.42038
|  8> H         -0.25931        0.46828       -3.06292
|  9> H         -1.53664        0.57826       -4.25010
| 10> *
| 11>
| 12> %MaxCore 64000
| 13>
| 14> %pal nprocs 4
| 15> end
| 16>
| 17> %scf
| 18>   MaxIter 150
| 19> end
| 20>
| 21>
| 22>                          ****END OF INPUT****

CARTESIAN COORDINATES (ANGSTROEM)
---------------------------------
  C     -0.477490    0.608190   -4.101050
  C      0.184670   -0.506640   -4.916760
  F     -0.158690   -1.701090   -4.657980
  O      1.055940   -0.174410   -5.740370
  H     -0.099030    1.556720   -4.420380
  H     -0.259310    0.468280   -3.062920
  H     -1.536640    0.578260   -4.250100

 Total Charge           Charge          ....    0
 Multiplicity           Mult            ....    1
 Number of Electrons    NEL             ....   32
 Basis Dimension        Dim             ....  110

ORBITAL ENERGIES
----------------

  NO   OCC          E(Eh)            E(eV)
   0   2.0000     -24.768124      -673.9749
   1   2.0000     -19.154385      -521.2173
   2   2.0000     -10.372185      -282.2415
   3   2.0000     -10.213714      -277.9293
   4   2.0000      -1.300835       -35.3975
   5   2.0000      -1.036676       -28.2094
   6   2.0000      -0.768159       -20.9027
   7   2.0000      -0.657382       -17.8883
   8   2.0000      -0.549711       -14.9584
   9   2.0000      -0.545582       -14.8460
  10   2.0000      -0.505500       -13.7554
  11   2.0000      -0.448373       -12.2009
  12   2.0000      -0.437621       -11.9083
  13   2.0000      -0.410119       -11.1599
  14   2.0000      -0.366565        -9.9747
  15   2.0000      -0.301793        -8.2122
  16   0.0000      -0.035059        -0.9540
  17   0.0000       0.009694         0.2638
  18   0.0000       0.056367         1.5338
  19   0.0000       0.081949         2.2299
  20   0.0000       0.089641         2.4393

MULLIKEN ATOMIC CHARGES
-----------------------
   0 C :    0.643305
   1 C :    0.395830
   2 F :   -0.376343
   3 O :   -0.418662
   4 H :   -0.132702
   5 H :   -0.054238
   6 H :   -0.057190
Sum of atomic charges:    0.0000000

LOEWDIN ATOMIC CHARGES
----------------------
   0 C :    0.224794
   1 C :   -0.035752
   2 F :   -0.045209
   3 O :   -0.128859
   4 H :   -0.004087
   5 H :   -0.004407
   6 H :   -0.006480

  Mayer bond orders larger than 0.100000
B(  0-C ,  1-C ) :   1.2164 B(  0-C ,  4-H ) :   0.8511 B(  0-C ,  5-H ) :   0.7803
B(  0-C ,  6-H ) :   0.7755 B(  1-C ,  2-F ) :   0.7579 B(  1-C ,  3-O ) :   1.8626
B(  1-C ,  4-H ) :   0.2406 B(  1-C ,  5-H ) :   0.1459 B(  1-C ,  6-H ) :   0.1505

Dispersion correction           -0.005730978
FINAL SINGLE POINT ENERGY      -252.797972018059

DIPOLE MOMENT
-------------
                                X             Y             Z
Electronic contribution:      1.08813      -4.66224      -1.62052
Nuclear contribution   :     -1.87439       4.97468       2.43802
                        -----------------------------------------
Total Dipole Moment    :     -0.78626       0.31244       0.81750
                        -----------------------------------------
Magnitude (a.u.)       :      1.17649
Magnitude (Debye)      :      2.99041

Rotational constants in cm-1:     0.370842     0.317886     0.176700
Rotational constants in MHz : 11117.569466  9529.969862  5297.328364

                             ****ORCA TERMINATED NORMALLY****
TOTAL RUN TIME: 0 days 0 hours 0 minutes 7 seconds 382 msec
