                         Program Version 5.0.0 -  RELEASE  -
|  1> !B3LYP D3BJ RIJCOSX def2-SVPD def2/J TightSCF
|  2> *xyz 0 1
|  3> C          2.48645       -2.67712       -2.56345
|  4> C          3.03764       -2.36672       -3.92351
|  5> C          2.28036       -2.45441       -4.96769
|  6> N          4.32174       -2.01793       -4.01664
|  7> H          4.87994       -1.91167       -3.17382
|  8> H          4.71015       -1.67088       -4.88356
|  9> H          1.27042       -2.41265       -4.86614
| 10> H          2.58183       -2.05528       -5.84688
| 11> H          1.45238       -2.93848       -2.64882
| 12> H          2.58636       -1.81799       -1.93352
| 13> H          3.02742       -3.49632       -2.13781
| 14> *
| 15>
| 16> %MaxCore 64000
| 17>
| 18> %pal nprocs 4
| 19> end
| 20>
| 21> %scf
| 22>   MaxIter 150
| 23> end
| 24>
| 25>
| 26>                          ****END OF INPUT****

CARTESIAN COORDINATES (ANGSTROEM)
---------------------------------
  C      2.486450   -2.677120   -2.563450
  C      3.037640   -2.366720   -3.923510
  C      2.280360   -2.454410   -4.967690
  N      4.321740   -2.017930   -4.016640
  H      4.879940   -1.911670   -3.173820
  H      4.710150   -1.670880   -4.883560
  H      1.270420   -2.412650   -4.866140
  H      2.581830   -2.055280   -5.846880
  H      1.452380   -2.938480   -2.648820
  H      2.586360   -1.817990   -1.933520
  H      3.027420   -3.496320   -2.137810

 Total Charge           Charge          ....    0
 Multiplicity           Mult            ....    1
 Number of Electrons    NEL             ....   32
 Basis Dimension        Dim             ....  136

ORBITAL ENERGIES
----------------

  NO   OCC          E(Eh)            E(eV)
   0   2.0000     -14.332365      -390.0035
   1   2.0000     -10.205681      -277.7107
   2   2.0000     -10.174200      -276.8541
   3   2.0000     -10.114817      -275.2382
   4   2.0000      -0.916591       -24.9417
   5   2.0000      -0.753929       -20.5154
   6   2.0000      -0.687215       -18.7001
   7   2.0000      -0.569979       -15.5099
   8   2.0000      -0.523533       -14.2461
   9   2.0000      -0.475660       -12.9434
  10   2.0000      -0.432730       -11.7752
  11   2.0000      -0.397485       -10.8161
  12   2.0000      -0.395609       -10.7651
  13   2.0000      -0.348935        -9.4950
  14   2.0000      -0.333375        -9.0716
  15   2.0000      -0.198293        -5.3958
  16   0.0000       0.016717         0.4549
  17   0.0000       0.042565         1.1583
  18   0.0000       0.053800         1.4640
  19   0.0000       0.062299         1.6952
  20   0.0000       0.088824         2.4170

MULLIKEN ATOMIC CHARGES
-----------------------
   0 C :    1.025773
   1 C :   -0.473382
   2 C :    0.510446
   3 N :    0.304720
   4 H :   -0.220666
   5 H :   -0.216906
   6 H :   -0.172345
   7 H :   -0.478261
   8 H :   -0.051785
   9 H :   -0.133213
  10 H :   -0.094382
Sum of atomic charges:    0.0000000

LOEWDIN ATOMIC CHARGES
----------------------
   0 C :    0.172425
   1 C :   -0.288852
   2 C :    0.162507
   3 N :    0.172615
   4 H :   -0.002651
   5 H :    0.000571
   6 H :   -0.081199
   7 H :   -0.087878
   8 H :   -0.016354
   9 H :   -0.016063
  10 H :   -0.015121

  Mayer bond orders larger than 0.100000
B(  0-C ,  1-C ) :   1.3266 B(  0-C ,  8-H ) :   0.7538 B(  0-C ,  9-H ) :   0.5424
B(  0-C , 10-H ) :   0.6456 B(  1-C ,  2-C ) :   1.8947 B(  1-C ,  3-N ) :   1.1717
B(  1-C ,  7-H ) :   0.2573 B(  1-C ,  8-H ) :   0.2731 B(  1-C ,  9-H ) :   0.3758
B(  1-C , 10-H ) :   0.2713 B(  2-C ,  3-N ) :   0.2843 B(  2-C ,  6-H ) :   0.7904
B(  2-C ,  7-H ) :   0.6048 B(  3-N ,  4-H ) :   1.1836 B(  3-N ,  5-H ) :   1.1837
B(  4-H ,  5-H ) :  -0.1405 B(  6-H ,  7-H ) :   0.2273

Dispersion correction           -0.012055140
FINAL SINGLE POINT ENERGY      -173.029239472727

DIPOLE MOMENT
-------------
                                X             Y             Z
Electronic contribution:      1.44008       0.18314      -0.91422
Nuclear contribution   :     -0.87498       0.20680       1.33581
                        -----------------------------------------
Total Dipole Moment    :      0.56510       0.38994       0.42159
                        -----------------------------------------
Magnitude (a.u.)       :      0.80568
Magnitude (Debye)      :      2.04787

Rotational constants in cm-1:     0.351941     0.304186     0.168624
Rotational constants in MHz : 10550.928440  9119.266441  5055.221775

                             ****ORCA TERMINATED NORMALLY****
TOTAL RUN TIME: 0 days 0 hours 0 minutes 10 seconds 957 msec
