                         Program Version 5.0.0 -  RELEASE  -
|  1> !B3LYP D3BJ RIJCOSX def2-SVPD def2/J TightSCF
|  2> *xyz 0 1
|  3> C         -0.47749        0.60819       -4.10105
|  4> C          0.18467       -0.50664       -4.91676
|  5> O         -0.15869       -1.70109       -4.65798
|  6> F          1.05594       -0.17441       -5.74037
|  7> H         -0.09903        1.55672       -4.42038
|  8> H         -0.25931        0.46828       -3.06292
|  9> H         -1.53664        0.57826       -4.25010
| 10> *
| 11>
| 12> %MaxCore 64000
| 13>
| 14> %pal nprocs 4
| 15> end
| 16>
| 17> %scf
| 18>   MaxIter 150
| 19> end
| 20>
| 21>
| 22>                          ****END OF INPUT****

CARTESIAN COORDINATES (ANGSTROEM)
---------------------------------
  C     -0.477490    0.608190   -4.101050
  C      0.184670   -0.506640   -4.916760
  O     -0.158690   -1.701090   -4.657980
  F      1.055940   -0.174410   -5.740370
  H     -0.099030    1.556720   -4.420380
  H     -0.259310    0.468280   -3.062920
  H     -1.536640    0.578260   -4.250100

 Total Charge           Charge          ....    0
 Multiplicity           Mult            ....    1
 Number of Electrons    NEL             ....   32
 Basis Dimension        Dim             ....  110

ORBITAL ENERGIES
----------------

  NO   OCC          E(Eh)            E(eV)
   0   2.0000     -24.777201      -674.2219
   1   2.0000     -19.150340      -521.1073
   2   2.0000     -10.374492      -282.3043
   3   2.0000     -10.214072      -277.9390
   4   2.0000      -1.319984       -35.9186
   5   2.0000      -1.020508       -27.7694
   6   2.0000      -0.769379       -20.9359
   7   2.0000      -0.667715       -18.1694
   8   2.0000      -0.560111       -15.2414
   9   2.0000      -0.554574       -15.0907
  10   2.0000      -0.505415       -13.7531
  11   2.0000      -0.449792       -12.2395
  12   2.0000      -0.436547       -11.8790
  13   2.0000      -0.406406       -11.0589
  14   2.0000      -0.354914        -9.6577
  15   2.0000      -0.298198        -8.1144
  16   0.0000      -0.040647        -1.1061
  17   0.0000       0.009269         0.2522
  18   0.0000       0.055956         1.5226
  19   0.0000       0.084119         2.2890
  20   0.0000       0.085861         2.3364

MULLIKEN ATOMIC CHARGES
-----------------------
   0 C :    0.627557
   1 C :    0.386171
   2 O :   -0.471721
   3 F :   -0.323581
   4 H :   -0.114091
   5 H :   -0.050346
   6 H :   -0.053988
Sum of atomic charges:    0.0000000

LOEWDIN ATOMIC CHARGES
----------------------
   0 C :    0.224790
   1 C :   -0.035354
   2 O :   -0.145691
   3 F :   -0.028557
   4 H :   -0.017351
   5 H :    0.001574
   6 H :    0.000589

  Mayer bond orders larger than 0.100000
B(  0-C ,  1-C ) :   1.2387 B(  0-C ,  4-H ) :   0.8514 B(  0-C ,  5-H ) :   0.7796
B(  0-C ,  6-H ) :   0.7710 B(  1-C ,  2-O ) :   1.8096 B(  1-C ,  3-F ) :   0.8337
B(  1-C ,  4-H ) :   0.1763 B(  1-C ,  5-H ) :   0.1620 B(  1-C ,  6-H ) :   0.1724

Dispersion correction           -0.005730229
FINAL SINGLE POINT ENERGY      -252.790430064357

DIPOLE MOMENT
-------------
                                X             Y             Z
Electronic contribution:      3.06214      -2.18478      -3.38003
Nuclear contribution   :     -3.12947       3.39716       3.55645
                        -----------------------------------------
Total Dipole Moment    :     -0.06732       1.21239       0.17642
                        -----------------------------------------
Magnitude (a.u.)       :      1.22700
Magnitude (Debye)      :      3.11879

Rotational constants in cm-1:     0.366922     0.321471     0.176896
Rotational constants in MHz : 11000.056350  9637.461211  5303.212706

                             ****ORCA TERMINATED NORMALLY****
TOTAL RUN TIME: 0 days 0 hours 0 minutes 7 seconds 479 msec
