                         Program Version 5.0.0 -  RELEASE  -
|  1> !B3LYP D3BJ RIJCOSX def2-SVPD def2/J TightSCF
|  2> *xyz 0 1
|  3> C          2.48645       -2.67712       -2.56345
|  4> C          3.03764       -2.36672       -3.92351
|  5> N          2.28036       -2.45441       -4.96769
|  6> C          4.32174       -2.01793       -4.01664
|  7> H          4.87994       -1.91167       -3.17382
|  8> H          4.71015       -1.67088       -4.88356
|  9> H          1.27042       -2.41265       -4.86614
| 10> H          2.58183       -2.05528       -5.84688
| 11> H          1.45238       -2.93848       -2.64882
| 12> H          2.58636       -1.81799       -1.93352
| 13> H          3.02742       -3.49632       -2.13781
| 14> *
| 15>
| 16> %MaxCore 64000
| 17>
| 18> %pal nprocs 4
| 19> end
| 20>
| 21> %scf
| 22>   MaxIter 150
| 23> end
| 24>
| 25>
| 26>                          ****END OF INPUT****

CARTESIAN COORDINATES (ANGSTROEM)
---------------------------------
  C      2.486450   -2.677120   -2.563450
  C      3.037640   -2.366720   -3.923510
  N      2.280360   -2.454410   -4.967690
  C      4.321740   -2.017930   -4.016640
  H      4.879940   -1.911670   -3.173820
  H      4.710150   -1.670880   -4.883560
  H      1.270420   -2.412650   -4.866140
  H      2.581830   -2.055280   -5.846880
  H      1.452380   -2.938480   -2.648820
  H      2.586360   -1.817990   -1.933520
  H      3.027420   -3.496320   -2.137810

 Total Charge           Charge          ....    0
 Multiplicity           Mult            ....    1
 Number of Electrons    NEL             ....   32
 Basis Dimension        Dim             ....  136

ORBITAL ENERGIES
----------------

  NO   OCC          E(Eh)            E(eV)
   0   2.0000     -14.336166      -390.1069
   1   2.0000     -10.205312      -277.7007
   2   2.0000     -10.174579      -276.8644
   3   2.0000     -10.114265      -275.2231
   4   2.0000      -0.932369       -25.3711
   5   2.0000      -0.750376       -20.4188
   6   2.0000      -0.679888       -18.5007
   7   2.0000      -0.579262       -15.7625
   8   2.0000      -0.523510       -14.2454
   9   2.0000      -0.472838       -12.8666
  10   2.0000      -0.431578       -11.7438
  11   2.0000      -0.397602       -10.8193
  12   2.0000      -0.391462       -10.6522
  13   2.0000      -0.353995        -9.6327
  14   2.0000      -0.342671        -9.3245
  15   2.0000      -0.188022        -5.1163
  16   0.0000       0.015582         0.4240
  17   0.0000       0.039440         1.0732
  18   0.0000       0.053141         1.4460
  19   0.0000       0.060163         1.6371
  20   0.0000       0.085310         2.3214

MULLIKEN ATOMIC CHARGES
-----------------------
   0 C :    1.042310
   1 C :   -0.445341
   2 N :    0.284317
   3 C :    0.537481
   4 H :   -0.293691
   5 H :   -0.505689
   6 H :   -0.130476
   7 H :   -0.152459
   8 H :   -0.203069
   9 H :   -0.068243
  10 H :   -0.065141
Sum of atomic charges:    0.0000000

LOEWDIN ATOMIC CHARGES
----------------------
   0 C :    0.174519
   1 C :   -0.292209
   2 N :    0.166753
   3 C :    0.173267
   4 H :   -0.084863
   5 H :   -0.097156
   6 H :    0.000856
   7 H :    0.008290
   8 H :   -0.030388
   9 H :   -0.009984
  10 H :   -0.009086

  Mayer bond orders larger than 0.100000
B(  0-C ,  1-C ) :   1.1030 B(  0-C ,  2-N ) :   0.1059 B(  0-C ,  8-H ) :   0.6299
B(  0-C ,  9-H ) :   0.7078 B(  0-C , 10-H ) :   0.6662 B(  1-C ,  2-N ) :   1.1071
B(  1-C ,  3-C ) :   1.7287 B(  1-C ,  4-H ) :   0.1153 B(  1-C ,  5-H ) :   0.1614
B(  1-C ,  8-H ) :   0.3589 B(  1-C ,  9-H ) :   0.2081 B(  1-C , 10-H ) :   0.2319
B(  2-N ,  3-C ) :   0.2501 B(  2-N ,  6-H ) :   1.0432 B(  2-N ,  7-H ) :   1.1345
B(  3-C ,  4-H ) :   0.7876 B(  3-C ,  5-H ) :   0.7575 B(  6-H ,  7-H ) :  -0.1126

Dispersion correction           -0.012056746
FINAL SINGLE POINT ENERGY      -173.029468866835

DIPOLE MOMENT
-------------
                                X             Y             Z
Electronic contribution:     -0.37590      -0.13215      -1.73818
Nuclear contribution   :     -0.41717       0.30469       1.54910
                        -----------------------------------------
Total Dipole Moment    :     -0.79307       0.17254      -0.18908
                        -----------------------------------------
Magnitude (a.u.)       :      0.83335
Magnitude (Debye)      :      2.11822

Rotational constants in cm-1:     0.351587     0.304754     0.168726
Rotational constants in MHz : 10540.302868  9136.286689  5058.281984

                             ****ORCA TERMINATED NORMALLY****
TOTAL RUN TIME: 0 days 0 hours 0 minutes 10 seconds 768 msec
