                         Program Version 5.0.0 -  RELEASE  -
|  1> !B3LYP D3BJ RIJCOSX def2-SVPD def2/J TightSCF xyzfile
|  2>
|  3> *xyzfile 0 1 D2.xyz
|  4>
|  5> %MaxCore 64000
|  6>
|  7> %pal nprocs 4
|  8> end
|  9>
| 10> %scf
| 11>   MaxIter 150
| 12> end
| 13>
| 14>
| 15>                          ****END OF INPUT****

CARTESIAN COORDINATES (ANGSTROEM)
---------------------------------
  C      2.486452   -2.677121   -2.563447
  C     -0.870963    0.248043   -2.662804
  C     -0.477492    0.608191   -4.101052
  H      0.206773    1.458299   -4.118748
  H     -1.368442    0.929419   -4.647855
  C      0.184673   -0.506640   -4.916760
  C      3.037640   -2.366715   -3.923509
  N      2.280360   -2.454408   -4.967692
  C      4.321736   -2.017932   -4.016641
  H      4.879940   -1.911668   -3.173823
  H      4.710148   -1.670882   -4.883561
  H      1.270423   -2.412650   -4.866143
  H      2.581829   -2.055282   -5.846878
  F     -0.158685   -1.701088   -4.657981
  O      1.055938   -0.174410   -5.740373
  C      2.497991   -1.469464   -1.610303
  C      1.582841   -0.321986   -2.042619
  H      2.193083   -1.833912   -0.625420
  H      3.523356   -1.103982   -1.490392
  C      0.100160   -0.673551   -1.915815
  H      1.822311   -0.040361   -3.072834
  H      1.813180    0.557019   -1.433266
  H     -0.063284   -1.679120   -2.301112
  H     -0.168820   -0.691680   -0.853831
  H     -1.001048    1.181040   -2.104071
  H     -1.844645   -0.246592   -2.663281
  H      1.472592   -3.051527   -2.694366
  H      3.083201   -3.490638   -2.141472

 Total Charge           Charge          ....    0
 Multiplicity           Mult            ....    1
 Number of Electrons    NEL             ....   94
 Basis Dimension        Dim             ....  374

ORBITAL ENERGIES
----------------

  NO   OCC          E(Eh)            E(eV)
   0   2.0000     -24.795240      -674.7128
   1   2.0000     -19.167930      -521.5859
   2   2.0000     -14.308201      -389.3459
   3   2.0000     -10.383530      -282.5502
   4   2.0000     -10.224231      -278.2155
   5   2.0000     -10.204481      -277.6780
   6   2.0000     -10.190747      -277.3043
   7   2.0000     -10.190042      -277.2851
   8   2.0000     -10.183044      -277.0947
   9   2.0000     -10.179317      -276.9933
  10   2.0000     -10.176561      -276.9183
  11   2.0000     -10.102145      -274.8933
  12   2.0000      -1.332308       -36.2539
  13   2.0000      -1.052212       -28.6322
  14   2.0000      -0.915335       -24.9075
  15   2.0000      -0.828225       -22.5371
  16   2.0000      -0.788059       -21.4442
  17   2.0000      -0.748071       -20.3560
  18   2.0000      -0.703678       -19.1481
  19   2.0000      -0.688127       -18.7249
  20   2.0000      -0.663704       -18.0603
  21   2.0000      -0.622905       -16.9501
  22   2.0000      -0.593588       -16.1524
  23   2.0000      -0.583781       -15.8855
  24   2.0000      -0.568602       -15.4725
  25   2.0000      -0.538882       -14.6637
  26   2.0000      -0.511655       -13.9228
  27   2.0000      -0.497741       -13.5442
  28   2.0000      -0.482888       -13.1401
  29   2.0000      -0.476469       -12.9654
  30   2.0000      -0.471594       -12.8327
  31   2.0000      -0.445773       -12.1301
  32   2.0000      -0.430521       -11.7151
  33   2.0000      -0.422774       -11.5043
  34   2.0000      -0.410950       -11.1825
  35   2.0000      -0.394530       -10.7357
  36   2.0000      -0.389031       -10.5861
  37   2.0000      -0.378612       -10.3026
  38   2.0000      -0.368254       -10.0207
  39   2.0000      -0.359342        -9.7782
  40   2.0000      -0.347599        -9.4586
  41   2.0000      -0.340249        -9.2586
  42   2.0000      -0.325972        -8.8701
  43   2.0000      -0.325687        -8.8624
  44   2.0000      -0.316998        -8.6259
  45   2.0000      -0.305498        -8.3130
  46   2.0000      -0.173185        -4.7126
  47   0.0000      -0.052660        -1.4330
  48   0.0000       0.003516         0.0957
  49   0.0000       0.027251         0.7415
  50   0.0000       0.031509         0.8574
  51   0.0000       0.034933         0.9506

MULLIKEN ATOMIC CHARGES
-----------------------
   0 C :    0.785051
   1 C :    0.707640
   2 C :    0.379252
   3 H :    0.164484
   4 H :   -0.367603
   5 C :    0.515544
   6 C :   -0.178105
   7 N :    0.487176
   8 C :    0.532677
   9 H :   -0.218682
  10 H :   -0.482110
  11 H :   -0.426138
  12 H :   -0.045797
  13 F :   -0.560073
  14 O :   -0.425387
  15 C :    0.409112
  16 C :    0.333915
  17 H :   -0.168922
  18 H :   -0.143348
  19 C :    0.204361
  20 H :   -0.213433
  21 H :   -0.302972
  22 H :   -0.085740
  23 H :   -0.281405
  24 H :   -0.205368
  25 H :   -0.057912
  26 H :   -0.207490
  27 H :   -0.148725
Sum of atomic charges:   -0.0000000

LOEWDIN ATOMIC CHARGES
----------------------
   0 C :    0.028538
   1 C :   -0.010556
   2 C :    0.067459
   3 H :    0.037347
   4 H :    0.037639
   5 C :    0.000098
   6 C :   -0.242108
   7 N :    0.199862
   8 C :    0.183800
   9 H :   -0.092470
  10 H :   -0.093800
  11 H :   -0.082829
  12 H :    0.010528
  13 F :   -0.042109
  14 O :   -0.111512
  15 C :   -0.007732
  16 C :   -0.007147
  17 H :    0.018569
  18 H :    0.015060
  19 C :   -0.022474
  20 H :    0.004596
  21 H :    0.024900
  22 H :   -0.010821
  23 H :    0.026516
  24 H :    0.023703
  25 H :    0.020261
  26 H :   -0.002997
  27 H :    0.027680

  Mayer bond orders larger than 0.100000
B(  0-C ,  6-C ) :   0.9578 B(  0-C ,  7-N ) :   0.1279 B(  0-C , 10-H ) :   0.1212
B(  0-C , 15-C ) :   1.1393 B(  0-C , 16-C ) :   0.1203 B(  0-C , 17-H ) :   0.1628
B(  0-C , 18-H ) :   0.1824 B(  0-C , 26-H ) :   0.5140 B(  0-C , 27-H ) :   0.6612
B(  1-C ,  2-C ) :   1.1526 B(  1-C ,  4-H ) :   0.1428 B(  1-C , 19-C ) :   1.2587
B(  1-C , 22-H ) :   0.1035 B(  1-C , 23-H ) :   0.1052 B(  1-C , 24-H ) :   0.6862
B(  1-C , 25-H ) :   0.6099 B(  2-C ,  3-H ) :   0.7391 B(  2-C ,  4-H ) :   0.6644
B(  2-C ,  5-C ) :   1.1869 B(  2-C , 19-C ) :   0.1324 B(  2-C , 24-H ) :   0.1547
B(  3-H ,  4-H ) :  -0.1092 B(  3-H ,  5-C ) :   0.2548 B(  4-H ,  5-C ) :   0.3124
B(  5-C , 13-F ) :   0.5644 B(  5-C , 14-O ) :   1.8029 B(  6-C ,  7-N ) :   1.0814
B(  6-C ,  8-C ) :   1.6918 B(  6-C ,  9-H ) :   0.1551 B(  6-C , 10-H ) :   0.2158
B(  6-C , 26-H ) :   0.2817 B(  6-C , 27-H ) :   0.1803 B(  7-N ,  8-C ) :   0.3045
B(  7-N , 11-H ) :   0.8543 B(  7-N , 12-H ) :   0.9609 B(  8-C ,  9-H ) :   0.7872
B(  8-C , 10-H ) :   0.5675 B( 11-H , 12-H ) :  -0.1339 B( 11-H , 13-F ) :   0.1682
B( 11-H , 26-H ) :   0.1089 B( 13-F , 14-O ) :   0.1102 B( 15-C , 16-C ) :   1.2062
B( 15-C , 17-H ) :   0.7928 B( 15-C , 18-H ) :   0.6638 B( 15-C , 20-H ) :   0.1902
B( 15-C , 21-H ) :   0.1062 B( 15-C , 26-H ) :   0.2275 B( 15-C , 27-H ) :   0.1600
B( 16-C , 17-H ) :   0.1469 B( 16-C , 18-H ) :   0.2574 B( 16-C , 19-C ) :   1.1618
B( 16-C , 20-H ) :   0.7695 B( 16-C , 21-H ) :   0.7998 B( 16-C , 22-H ) :   0.1173
B( 16-C , 23-H ) :   0.2498 B( 16-C , 26-H ) :  -0.1022 B( 17-H , 18-H ) :  -0.1540
B( 19-C , 20-H ) :   0.1536 B( 19-C , 21-H ) :   0.1184 B( 19-C , 22-H ) :   0.8221
B( 19-C , 23-H ) :   0.7366 B( 19-C , 24-H ) :   0.2194 B( 19-C , 25-H ) :   0.2569
B( 22-H , 26-H ) :   0.1273 B( 24-H , 25-H ) :  -0.1318

Dispersion correction           -0.050931621
FINAL SINGLE POINT ENERGY      -581.673954427173

DIPOLE MOMENT
-------------
                                X             Y             Z
Electronic contribution:     -5.33992      -1.78982     -10.87691
Nuclear contribution   :      3.65024       2.44123      11.52670
                        -----------------------------------------
Total Dipole Moment    :     -1.68968       0.65141       0.64979
                        -----------------------------------------
Magnitude (a.u.)       :      1.92395
Magnitude (Debye)      :      4.89029

Rotational constants in cm-1:     0.040600     0.026409     0.019262
Rotational constants in MHz :  1217.142957   791.712481   577.449390

                             ****ORCA TERMINATED NORMALLY****
TOTAL RUN TIME: 0 days 0 hours 2 minutes 9 seconds 53 msec
