                         Program Version 5.0.0 -  RELEASE  -
|  1> !LC-PBE RIJCOSX def2-SVPD def2/J TightSCF
|  2> *xyz -1 1
|  3> C         -0.60249       -0.63071        0.49224
|  4> O         -1.71206       -1.37684        0.20253
|  5> H          0.27695       -1.19720        0.26733
|  6> H         -0.60598       -0.37494        1.53122
|  7> H         -0.61066        0.26355       -0.09525
|  8> *
|  9> %MaxCore 64000
| 10>
| 11> %pal nprocs 4
| 12> end
| 13> %scf
| 14>   MaxIter 150
| 15> end
| 16>
| 17>                          ****END OF INPUT****

CARTESIAN COORDINATES (ANGSTROEM)
---------------------------------
  C     -0.602490   -0.630710    0.492240
  O     -1.712060   -1.376840    0.202530
  H      0.276950   -1.197200    0.267330
  H     -0.605980   -0.374940    1.531220
  H     -0.610660    0.263550   -0.095250

 Total Charge           Charge          ....   -1
 Multiplicity           Mult            ....    1
 Number of Electrons    NEL             ....   18
 Basis Dimension        Dim             ....   67

ORBITAL ENERGIES
----------------

  NO   OCC          E(Eh)            E(eV)
   0   2.0000     -18.629002      -506.9209
   1   2.0000      -9.909390      -269.6482
   2   2.0000      -0.812402       -22.1066
   3   2.0000      -0.548264       -14.9190
   4   2.0000      -0.338096        -9.2001
   5   2.0000      -0.338089        -9.1999
   6   2.0000      -0.231878        -6.3097
   7   2.0000      -0.074561        -2.0289
   8   2.0000      -0.074557        -2.0288
   9   0.0000       0.262500         7.1430
  10   0.0000       0.340404         9.2629
  11   0.0000       0.340407         9.2630
  12   0.0000       0.350046         9.5252
  13   0.0000       0.387715        10.5503

MULLIKEN ATOMIC CHARGES
-----------------------
   0 C :    0.534928
   1 O :   -1.000743
   2 H :   -0.178128
   3 H :   -0.178010
   4 H :   -0.178048
Sum of atomic charges:   -1.0000000

LOEWDIN ATOMIC CHARGES
----------------------
   0 C :   -0.152171
   1 O :   -0.660217
   2 H :   -0.062530
   3 H :   -0.062539
   4 H :   -0.062543

  Mayer bond orders larger than 0.100000
B(  0-C ,  1-O ) :   1.2909 B(  0-C ,  2-H ) :   0.9436 B(  0-C ,  3-H ) :   0.9436
B(  0-C ,  4-H ) :   0.9435

FINAL SINGLE POINT ENERGY      -114.684614680884

DIPOLE MOMENT
-------------
                                X             Y             Z
Electronic contribution:     -1.41847      -0.95376      -0.37035
Nuclear contribution   :      2.33640       1.57111       0.61004
                        -----------------------------------------
Total Dipole Moment    :      0.91793       0.61735       0.23968
                        -----------------------------------------
Magnitude (a.u.)       :      1.13189
Magnitude (Debye)      :      2.87703

Rotational constants in cm-1:     5.477665     0.940945     0.940944
Rotational constants in MHz : 164216.266994 28208.811441 28208.799857

                             ****ORCA TERMINATED NORMALLY****
TOTAL RUN TIME: 0 days 0 hours 0 minutes 3 seconds 495 msec
