                         Program Version 5.0.0 -  RELEASE  -
|  1> !LC-PBE RIJCOSX def2-SVPD def2/J TightSCF
|  2> *xyz 1 1
|  3> C         -2.12050        0.88520        1.78951
|  4> N         -3.17690       -0.15948        1.61070
|  5> H         -4.06474        0.23127        1.28675
|  6> H         -3.34407       -0.67151        2.48493
|  7> H         -2.71686       -0.78189        0.93588
|  8> H         -1.96853        1.40078        0.86432
|  9> H         -1.20609        0.41954        2.09270
| 10> H         -2.43151        1.58226        2.53937
| 11> *
| 12> %MaxCore 64000
| 13>
| 14> %pal nprocs 4
| 15> end
| 16>
| 17> %scf
| 18>   MaxIter 150
| 19> end
| 20>
| 21>
| 22>                          ****END OF INPUT****

CARTESIAN COORDINATES (ANGSTROEM)
---------------------------------
  C     -2.120500    0.885200    1.789510
  N     -3.176900   -0.159480    1.610700
  H     -4.064740    0.231270    1.286750
  H     -3.344070   -0.671510    2.484930
  H     -2.716860   -0.781890    0.935880
  H     -1.968530    1.400780    0.864320
  H     -1.206090    0.419540    2.092700
  H     -2.431510    1.582260    2.539370

 Total Charge           Charge          ....    1
 Multiplicity           Mult            ....    1
 Number of Electrons    NEL             ....   18
 Basis Dimension        Dim             ....   88

ORBITAL ENERGIES
----------------

  NO   OCC          E(Eh)            E(eV)
   0   2.0000     -14.578452      -396.6998
   1   2.0000     -10.385593      -282.6063
   2   2.0000      -1.392525       -37.8925
   3   2.0000      -1.098775       -29.8992
   4   2.0000      -0.969201       -26.3733
   5   2.0000      -0.956893       -26.0384
   6   2.0000      -0.850868       -23.1533
   7   2.0000      -0.765301       -20.8249
   8   2.0000      -0.761868       -20.7315
   9   0.0000      -0.119402        -3.2491
  10   0.0000      -0.056050        -1.5252
  11   0.0000      -0.045314        -1.2331
  12   0.0000      -0.044115        -1.2004
  13   0.0000      -0.005275        -0.1435

MULLIKEN ATOMIC CHARGES
-----------------------
   0 C :    0.553410
   1 N :   -0.786982
   2 H :    0.365774
   3 H :    0.380593
   4 H :    0.422143
   5 H :    0.028475
   6 H :    0.034115
   7 H :    0.002472
Sum of atomic charges:    1.0000000

LOEWDIN ATOMIC CHARGES
----------------------
   0 C :    0.247770
   1 N :    0.302479
   2 H :    0.116386
   3 H :    0.117422
   4 H :    0.112137
   5 H :    0.035655
   6 H :    0.035865
   7 H :    0.032285

  Mayer bond orders larger than 0.100000
B(  0-C ,  1-N ) :   0.8746 B(  0-C ,  5-H ) :   0.9286 B(  0-C ,  6-H ) :   0.9206
B(  0-C ,  7-H ) :   0.9633 B(  1-N ,  2-H ) :   0.8138 B(  1-N ,  3-H ) :   0.7977
B(  1-N ,  4-H ) :   0.7421

FINAL SINGLE POINT ENERGY       -95.833707545315

DIPOLE MOMENT
-------------
                                X             Y             Z
Electronic contribution:     -0.84443      -0.77609      -0.13088
Nuclear contribution   :      0.30442       0.18283       0.03339
                        -----------------------------------------
Total Dipole Moment    :     -0.54000      -0.59326      -0.09749
                        -----------------------------------------
Magnitude (a.u.)       :      0.80812
Magnitude (Debye)      :      2.05409

Rotational constants in cm-1:     2.844840     0.686092     0.683099
Rotational constants in MHz : 85286.171795 20568.516729 20478.789944

                             ****ORCA TERMINATED NORMALLY****
TOTAL RUN TIME: 0 days 0 hours 0 minutes 4 seconds 940 msec
