                         Program Version 5.0.0 -  RELEASE  -
|  1> !LC-PBE RIJCOSX def2-SVPD def2/J TightSCF xyzfile
|  2>
|  3> *xyzfile 0 1 B.xyz
|  4>
|  5> %MaxCore 64000
|  6>
|  7> %pal nprocs 4
|  8> end
|  9>
| 10> %scf
| 11>   MaxIter 150
| 12> end
| 13>
| 14>
| 15>                          ****END OF INPUT****

CARTESIAN COORDINATES (ANGSTROEM)
---------------------------------
  C     -2.120502    0.885196    1.789506
  C     -0.778939    0.171966    1.804965
  H     -2.324193    1.472649    2.686078
  H     -2.187698    1.541272    0.919482
  N     -3.176900   -0.159484    1.610700
  H      0.015695    0.910767    1.939153
  H     -0.743553   -0.506827    2.665420
  C     -0.602493   -0.630712    0.492240
  H      0.313894   -1.240346    0.603498
  H     -0.363829    0.113322   -0.301169
  O     -1.712061   -1.376836    0.202535
  H     -4.064736    0.231272    1.286754
  H     -3.344073   -0.671511    2.484928
  H     -2.716861   -0.781886    0.935880

 Total Charge           Charge          ....    0
 Multiplicity           Mult            ....    1
 Number of Electrons    NEL             ....   42
 Basis Dimension        Dim             ....  175

ORBITAL ENERGIES
----------------

  NO   OCC          E(Eh)            E(eV)
   0   2.0000     -18.860103      -513.2095
   1   2.0000     -14.310049      -389.3962
   2   2.0000     -10.193991      -277.3926
   3   2.0000     -10.125564      -275.5306
   4   2.0000     -10.123252      -275.4677
   5   2.0000      -1.160786       -31.5866
   6   2.0000      -1.051010       -28.5994
   7   2.0000      -0.939644       -25.5690
   8   2.0000      -0.814659       -22.1680
   9   2.0000      -0.749137       -20.3850
  10   2.0000      -0.724198       -19.7064
  11   2.0000      -0.693366       -18.8674
  12   2.0000      -0.632293       -17.2056
  13   2.0000      -0.579105       -15.7583
  14   2.0000      -0.544648       -14.8206
  15   2.0000      -0.539748       -14.6873
  16   2.0000      -0.497961       -13.5502
  17   2.0000      -0.473487       -12.8842
  18   2.0000      -0.450928       -12.2704
  19   2.0000      -0.311656        -8.4806
  20   2.0000      -0.304755        -8.2928
  21   0.0000       0.063456         1.7267
  22   0.0000       0.099880         2.7179
  23   0.0000       0.105048         2.8585
  24   0.0000       0.125011         3.4017
  25   0.0000       0.152106         4.1390

MULLIKEN ATOMIC CHARGES
-----------------------
   0 C :    0.382091
   1 C :   -0.153409
   2 H :   -0.136650
   3 H :    0.061078
   4 N :   -0.456905
   5 H :   -0.012339
   6 H :    0.069172
   7 C :    0.364410
   8 H :   -0.068384
   9 H :    0.033840
  10 O :   -0.710609
  11 H :    0.275454
  12 H :    0.386768
  13 H :   -0.034516
Sum of atomic charges:    0.0000000

LOEWDIN ATOMIC CHARGES
----------------------
   0 C :    0.053062
   1 C :   -0.046756
   2 H :    0.034664
   3 H :    0.053730
   4 N :    0.290132
   5 H :    0.034886
   6 H :    0.036395
   7 C :   -0.099654
   8 H :    0.022283
   9 H :    0.023450
  10 O :   -0.401137
  11 H :    0.089416
  12 H :    0.096492
  13 H :   -0.186964

  Mayer bond orders larger than 0.100000
B(  0-C ,  1-C ) :   1.1436 B(  0-C ,  2-H ) :   0.9775 B(  0-C ,  3-H ) :   0.8971
B(  0-C ,  4-N ) :   0.8742 B(  1-C ,  5-H ) :   0.9635 B(  1-C ,  6-H ) :   0.9180
B(  1-C ,  7-C ) :   1.1337 B(  2-H ,  4-N ) :   0.1130 B(  4-N , 11-H ) :   0.8755
B(  4-N , 12-H ) :   0.7932 B(  4-N , 13-H ) :   0.9550 B(  5-H ,  7-C ) :   0.1007
B(  7-C ,  8-H ) :   0.9614 B(  7-C ,  9-H ) :   0.9371 B(  7-C , 10-O ) :   1.1277
B( 10-O , 13-H ) :   0.5720

FINAL SINGLE POINT ENERGY      -248.731010120571

DIPOLE MOMENT
-------------
                                X             Y             Z
Electronic contribution:     -1.48623      -1.35732      -0.72569
Nuclear contribution   :      0.08650       3.01678       2.47433
                        -----------------------------------------
Total Dipole Moment    :     -1.39973       1.65945       1.74864
                        -----------------------------------------
Magnitude (a.u.)       :      2.78761
Magnitude (Debye)      :      7.08554

Rotational constants in cm-1:     0.238796     0.156489     0.106146
Rotational constants in MHz :  7158.916762  4691.413084  3182.185740

                             ****ORCA TERMINATED NORMALLY****
TOTAL RUN TIME: 0 days 0 hours 0 minutes 26 seconds 109 msec
