                         Program Version 5.0.0 -  RELEASE  -
|  1> !LC-PBE RIJCOSX def2-SVPD def2/J TightSCF
|  2> *xyz 0 1
|  3> C         -0.60249       -0.63071        0.49224
|  4> F         -1.71206       -1.37684        0.20253
|  5> H          0.27695       -1.19720        0.26733
|  6> H         -0.60598       -0.37494        1.53122
|  7> H         -0.61066        0.26355       -0.09525
|  8> *
|  9> %MaxCore 64000
| 10>
| 11> %pal nprocs 4
| 12> end
| 13> %scf
| 14>   MaxIter 150
| 15> end
| 16>
| 17>                          ****END OF INPUT****

CARTESIAN COORDINATES (ANGSTROEM)
---------------------------------
  C     -0.602490   -0.630710    0.492240
  F     -1.712060   -1.376840    0.202530
  H      0.276950   -1.197200    0.267330
  H     -0.605980   -0.374940    1.531220
  H     -0.610660    0.263550   -0.095250

 Total Charge           Charge          ....    0
 Multiplicity           Mult            ....    1
 Number of Electrons    NEL             ....   18
 Basis Dimension        Dim             ....   67

ORBITAL ENERGIES
----------------

  NO   OCC          E(Eh)            E(eV)
   0   2.0000     -24.491206      -666.4396
   1   2.0000     -10.197379      -277.4848
   2   2.0000      -1.339845       -36.4590
   3   2.0000      -0.869358       -23.6564
   4   2.0000      -0.645486       -17.5646
   5   2.0000      -0.643764       -17.5177
   6   2.0000      -0.643756       -17.5175
   7   2.0000      -0.489405       -13.3174
   8   2.0000      -0.489400       -13.3173
   9   0.0000       0.091997         2.5034
  10   0.0000       0.147947         4.0258
  11   0.0000       0.175788         4.7834
  12   0.0000       0.175790         4.7835
  13   0.0000       0.213944         5.8217

MULLIKEN ATOMIC CHARGES
-----------------------
   0 C :    0.598717
   1 F :   -0.461105
   2 H :   -0.046030
   3 H :   -0.045744
   4 H :   -0.045838
Sum of atomic charges:    0.0000000

LOEWDIN ATOMIC CHARGES
----------------------
   0 C :    0.228556
   1 F :   -0.246918
   2 H :    0.006123
   3 H :    0.006118
   4 H :    0.006121

  Mayer bond orders larger than 0.100000
B(  0-C ,  1-F ) :   0.8913 B(  0-C ,  2-H ) :   0.9644 B(  0-C ,  3-H ) :   0.9642
B(  0-C ,  4-H ) :   0.9644

FINAL SINGLE POINT ENERGY      -139.286272426794

DIPOLE MOMENT
-------------
                                X             Y             Z
Electronic contribution:     -2.34247      -1.57512      -0.61174
Nuclear contribution   :      2.96306       1.99251       0.77366
                        -----------------------------------------
Total Dipole Moment    :      0.62059       0.41739       0.16192
                        -----------------------------------------
Magnitude (a.u.)       :      0.76522
Magnitude (Debye)      :      1.94503

Rotational constants in cm-1:     5.477665     0.875886     0.875886
Rotational constants in MHz : 164216.266994 26258.396768 26258.386731

                             ****ORCA TERMINATED NORMALLY****
TOTAL RUN TIME: 0 days 0 hours 0 minutes 3 seconds 288 msec
