                         Program Version 5.0.0 -  RELEASE  -
|  1> !LC-PBE RIJCOSX def2-SVPD def2/J TightSCF
|  2> *xyz 0 1
|  3> C         -2.12050        0.88520        1.78951
|  4> C         -3.17690       -0.15948        1.61070
|  5> H         -4.06474        0.23127        1.28675
|  6> H         -3.34407       -0.67151        2.48493
|  7> H         -2.71686       -0.78189        0.93588
|  8> H         -1.96853        1.40078        0.86432
|  9> H         -1.20609        0.41954        2.09270
| 10> H         -2.43151        1.58226        2.53937
| 11> *
| 12> %MaxCore 64000
| 13>
| 14> %pal nprocs 4
| 15> end
| 16>
| 17> %scf
| 18>   MaxIter 150
| 19> end
| 20>
| 21>
| 22>                          ****END OF INPUT****

CARTESIAN COORDINATES (ANGSTROEM)
---------------------------------
  C     -2.120500    0.885200    1.789510
  C     -3.176900   -0.159480    1.610700
  H     -4.064740    0.231270    1.286750
  H     -3.344070   -0.671510    2.484930
  H     -2.716860   -0.781890    0.935880
  H     -1.968530    1.400780    0.864320
  H     -1.206090    0.419540    2.092700
  H     -2.431510    1.582260    2.539370

 Total Charge           Charge          ....    0
 Multiplicity           Mult            ....    1
 Number of Electrons    NEL             ....   18
 Basis Dimension        Dim             ....   88

ORBITAL ENERGIES
----------------

  NO   OCC          E(Eh)            E(eV)
   0   2.0000     -10.102929      -274.9147
   1   2.0000     -10.089435      -274.5475
   2   2.0000      -0.941467       -25.6186
   3   2.0000      -0.775712       -21.1082
   4   2.0000      -0.601317       -16.3627
   5   2.0000      -0.592210       -16.1148
   6   2.0000      -0.501799       -13.6546
   7   2.0000      -0.478354       -13.0167
   8   2.0000      -0.469800       -12.7839
   9   0.0000       0.096365         2.6222
  10   0.0000       0.125969         3.4278
  11   0.0000       0.179720         4.8904
  12   0.0000       0.181594         4.9414
  13   0.0000       0.199593         5.4312

MULLIKEN ATOMIC CHARGES
-----------------------
   0 C :   -0.028785
   1 C :    0.349744
   2 H :   -0.132560
   3 H :   -0.097600
   4 H :   -0.060498
   5 H :   -0.006434
   6 H :   -0.000219
   7 H :   -0.023648
Sum of atomic charges:   -0.0000000

LOEWDIN ATOMIC CHARGES
----------------------
   0 C :    0.038833
   1 C :    0.054611
   2 H :   -0.024115
   3 H :   -0.023567
   4 H :   -0.025569
   5 H :   -0.005387
   6 H :   -0.004737
   7 H :   -0.010069

  Mayer bond orders larger than 0.100000
B(  0-C ,  1-C ) :   1.4278 B(  0-C ,  2-H ) :   0.1195 B(  0-C ,  3-H ) :   0.1179
B(  0-C ,  4-H ) :   0.1650 B(  0-C ,  5-H ) :   0.9058 B(  0-C ,  6-H ) :   0.8989
B(  0-C ,  7-H ) :   0.9439 B(  1-C ,  2-H ) :   0.8737 B(  1-C ,  3-H ) :   0.8583
B(  1-C ,  4-H ) :   0.8446 B(  1-C ,  5-H ) :   0.1104 B(  1-C ,  6-H ) :   0.1132

FINAL SINGLE POINT ENERGY       -79.463381631015

DIPOLE MOMENT
-------------
                                X             Y             Z
Electronic contribution:     -0.11809      -0.01613      -0.00190
Nuclear contribution   :      0.12022       0.00247       0.00249
                        -----------------------------------------
Total Dipole Moment    :      0.00213      -0.01366       0.00059
                        -----------------------------------------
Magnitude (a.u.)       :      0.01384
Magnitude (Debye)      :      0.03517

Rotational constants in cm-1:     2.844858     0.716988     0.713720
Rotational constants in MHz : 85286.697487 21494.771942 21396.773512

                             ****ORCA TERMINATED NORMALLY****
TOTAL RUN TIME: 0 days 0 hours 0 minutes 4 seconds 707 msec
