                         Program Version 5.0.0 -  RELEASE  -
|  1> !LC-PBE RIJCOSX def2-SVPD def2/J TightSCF xyzfile
|  2>
|  3> *xyzfile 0 1 D.xyz
|  4>
|  5> %MaxCore 64000
|  6>
|  7> %pal nprocs 4
|  8> end
|  9>
| 10> %scf
| 11>   MaxIter 150
| 12> end
| 13>
| 14>
| 15>                          ****END OF INPUT****

CARTESIAN COORDINATES (ANGSTROEM)
---------------------------------
  C     -2.120502    0.885196    1.789506
  C     -0.778939    0.171966    1.804965
  H     -2.324193    1.472649    2.686078
  H     -2.187698    1.541272    0.919482
  C     -3.176900   -0.159484    1.610700
  H      0.015695    0.910767    1.939153
  H     -0.743553   -0.506827    2.665420
  C     -0.602493   -0.630712    0.492240
  H      0.313894   -1.240346    0.603498
  H     -0.363829    0.113322   -0.301169
  F     -1.712061   -1.376836    0.202535
  H     -4.064736    0.231272    1.286754
  H     -3.344073   -0.671511    2.484928
  H     -2.716861   -0.781886    0.935880

 Total Charge           Charge          ....    0
 Multiplicity           Mult            ....    1
 Number of Electrons    NEL             ....   42
 Basis Dimension        Dim             ....  175

ORBITAL ENERGIES
----------------

  NO   OCC          E(Eh)            E(eV)
   0   2.0000     -24.514124      -667.0632
   1   2.0000     -10.218362      -278.0558
   2   2.0000     -10.134107      -275.7631
   3   2.0000     -10.113177      -275.1935
   4   2.0000     -10.049402      -273.4581
   5   2.0000      -1.374754       -37.4089
   6   2.0000      -0.982047       -26.7229
   7   2.0000      -0.902673       -24.5630
   8   2.0000      -0.795929       -21.6583
   9   2.0000      -0.750614       -20.4252
  10   2.0000      -0.686599       -18.6833
  11   2.0000      -0.680242       -18.5103
  12   2.0000      -0.639205       -17.3936
  13   2.0000      -0.584157       -15.8957
  14   2.0000      -0.556428       -15.1412
  15   2.0000      -0.545799       -14.8519
  16   2.0000      -0.515711       -14.0332
  17   2.0000      -0.478896       -13.0314
  18   2.0000      -0.459133       -12.4936
  19   2.0000      -0.450698       -12.2641
  20   2.0000      -0.403131       -10.9697
  21   0.0000       0.089846         2.4448
  22   0.0000       0.115429         3.1410
  23   0.0000       0.118492         3.2243
  24   0.0000       0.125004         3.4015
  25   0.0000       0.158668         4.3176

MULLIKEN ATOMIC CHARGES
-----------------------
   0 C :   -0.357108
   1 C :   -0.161981
   2 H :   -0.159007
   3 H :    0.057622
   4 C :    1.507905
   5 H :   -0.049172
   6 H :    0.087041
   7 C :    0.569197
   8 H :    0.019501
   9 H :    0.074964
  10 F :   -0.555479
  11 H :   -0.076065
  12 H :   -0.030282
  13 H :   -0.927134
Sum of atomic charges:    0.0000000

LOEWDIN ATOMIC CHARGES
----------------------
   0 C :   -0.084010
   1 C :   -0.043275
   2 H :    0.029346
   3 H :    0.037409
   4 C :    0.115401
   5 H :    0.036878
   6 H :    0.043096
   7 C :    0.129265
   8 H :    0.046448
   9 H :    0.055550
  10 F :   -0.179830
  11 H :   -0.018689
  12 H :   -0.011153
  13 H :   -0.156434

  Mayer bond orders larger than 0.100000
B(  0-C ,  1-C ) :   1.1166 B(  0-C ,  2-H ) :   1.0685 B(  0-C ,  3-H ) :   0.9130
B(  0-C ,  4-C ) :   1.0584 B(  0-C , 11-H ) :   0.1408 B(  0-C , 12-H ) :   0.1892
B(  0-C , 13-H ) :   0.3520 B(  1-C ,  5-H ) :   0.9877 B(  1-C ,  6-H ) :   0.9151
B(  1-C ,  7-C ) :   1.2081 B(  1-C , 10-F ) :   0.1052 B(  4-C , 10-F ) :  -0.1187
B(  4-C , 11-H ) :   0.6189 B(  4-C , 12-H ) :   0.4365 B(  7-C ,  8-H ) :   0.9112
B(  7-C ,  9-H ) :   0.9036 B(  7-C , 10-F ) :   0.7265 B( 10-F , 13-H ) :   0.3012
B( 11-H , 13-H ) :   0.2109 B( 12-H , 13-H ) :   0.4157

FINAL SINGLE POINT ENERGY      -256.678706165221

DIPOLE MOMENT
-------------
                                X             Y             Z
Electronic contribution:      0.94349      -4.16548      -3.72482
Nuclear contribution   :     -0.20666       4.43855       3.76066
                        -----------------------------------------
Total Dipole Moment    :      0.73683       0.27307       0.03584
                        -----------------------------------------
Magnitude (a.u.)       :      0.78662
Magnitude (Debye)      :      1.99942

Rotational constants in cm-1:     0.236353     0.155239     0.105045
Rotational constants in MHz :  7085.692869  4653.957069  3149.180346

                             ****ORCA TERMINATED NORMALLY****
TOTAL RUN TIME: 0 days 0 hours 0 minutes 24 seconds 370 msec
