                         Program Version 5.0.0 -  RELEASE  -
|  1> !PBE D3BJ RIJCOSX def2-SVP def2/J TightSCF
|  2> *xyz -1 1
|  3> C         -5.57236       -5.80780       -0.81644
|  4> S         -6.90318       -4.61903       -0.52846
|  5> O         -8.11485       -5.25093       -0.95701
|  6> O         -6.53271       -3.42684       -1.31485
|  7> O         -6.86563       -4.29496        0.91412
|  8> C         -4.45780       -5.94187        0.22919
|  9> H         -5.17735       -5.54257       -1.79771
| 10> H         -6.07420       -6.76889       -0.92127
| 11> H         -3.75515       -6.68239       -0.09144
| 12> H         -4.88182       -6.23486        1.16689
| 13> H         -3.95908       -5.00189        0.34143
| 14> *
| 15> %MaxCore 64000
| 16>
| 17> %pal nprocs 4
| 18> end
| 19>
| 20> %scf
| 21>   MaxIter 150
| 22> end
| 23>
| 24>                          ****END OF INPUT****

CARTESIAN COORDINATES (ANGSTROEM)
---------------------------------
  C     -5.572360   -5.807800   -0.816440
  S     -6.903180   -4.619030   -0.528460
  O     -8.114850   -5.250930   -0.957010
  O     -6.532710   -3.426840   -1.314850
  O     -6.865630   -4.294960    0.914120
  C     -4.457800   -5.941870    0.229190
  H     -5.177350   -5.542570   -1.797710
  H     -6.074200   -6.768890   -0.921270
  H     -3.755150   -6.682390   -0.091440
  H     -4.881820   -6.234860    1.166890
  H     -3.959080   -5.001890    0.341430

 Total Charge           Charge          ....   -1
 Multiplicity           Mult            ....    1
 Number of Electrons    NEL             ....   58
 Basis Dimension        Dim             ....  113

ORBITAL ENERGIES
----------------

  NO   OCC          E(Eh)            E(eV)
   0   2.0000     -88.007782     -2394.8135
   1   2.0000     -18.507361      -503.6109
   2   2.0000     -18.493711      -503.2395
   3   2.0000     -18.490811      -503.1605
   4   2.0000      -9.745759      -265.1956
   5   2.0000      -9.736415      -264.9413
   6   2.0000      -7.619341      -207.3328
   7   2.0000      -5.645761      -153.6290
   8   2.0000      -5.645699      -153.6273
   9   2.0000      -5.645456      -153.6207
  10   2.0000      -0.803288       -21.8586
  11   2.0000      -0.666664       -18.1408
  12   2.0000      -0.642682       -17.4883
  13   2.0000      -0.540459       -14.7066
  14   2.0000      -0.425878       -11.5887
  15   2.0000      -0.298748        -8.1293
  16   2.0000      -0.255386        -6.9494
  17   2.0000      -0.236970        -6.4483
  18   2.0000      -0.208050        -5.6613
  19   2.0000      -0.185046        -5.0354
  20   2.0000      -0.179150        -4.8749
  21   2.0000      -0.159814        -4.3488
  22   2.0000      -0.154993        -4.2176
  23   2.0000      -0.064312        -1.7500
  24   2.0000      -0.062638        -1.7045
  25   2.0000      -0.038652        -1.0518
  26   2.0000      -0.026817        -0.7297
  27   2.0000      -0.016855        -0.4586
  28   2.0000       0.019794         0.5386
  29   0.0000       0.180948         4.9238
  30   0.0000       0.234864         6.3910
  31   0.0000       0.237617         6.4659
  32   0.0000       0.243208         6.6180
  33   0.0000       0.263016         7.1570

MULLIKEN ATOMIC CHARGES
-----------------------
   0 C :   -0.111442
   1 S :    0.747529
   2 O :   -0.514558
   3 O :   -0.565116
   4 O :   -0.556870
   5 C :    0.029702
   6 H :    0.000700
   7 H :   -0.006696
   8 H :   -0.034253
   9 H :    0.004356
  10 H :    0.006649
Sum of atomic charges:   -1.0000000

LOEWDIN ATOMIC CHARGES
----------------------
   0 C :   -0.201781
   1 S :    1.031660
   2 O :   -0.567638
   3 O :   -0.617118
   4 O :   -0.612958
   5 C :   -0.077569
   6 H :    0.007548
   7 H :    0.004216
   8 H :    0.001681
   9 H :    0.015223
  10 H :    0.016737

  Mayer bond orders larger than 0.100000
B(  0-C ,  1-S ) :   0.8508 B(  0-C ,  5-C ) :   1.0885 B(  0-C ,  6-H ) :   0.9345
B(  0-C ,  7-H ) :   0.9341 B(  1-S ,  2-O ) :   1.6601 B(  1-S ,  3-O ) :   1.6104
B(  1-S ,  4-O ) :   1.6193 B(  5-C ,  8-H ) :   0.9494 B(  5-C ,  9-H ) :   0.9602
B(  5-C , 10-H ) :   0.9636

Dispersion correction           -0.009519763
FINAL SINGLE POINT ENERGY      -702.218429116764

DIPOLE MOMENT
-------------
                                X             Y             Z
Electronic contribution:     -6.91569       4.51389      -0.90019
Nuclear contribution   :      8.13140      -5.68016       0.80206
                        -----------------------------------------
Total Dipole Moment    :      1.21571      -1.16627      -0.09813
                        -----------------------------------------
Magnitude (a.u.)       :      1.68753
Magnitude (Debye)      :      4.28936

Rotational constants in cm-1:     0.162101     0.080498     0.079099
Rotational constants in MHz :  4859.669771  2413.267251  2371.338602

                             ****ORCA TERMINATED NORMALLY****
TOTAL RUN TIME: 0 days 0 hours 0 minutes 7 seconds 310 msec
