                         Program Version 5.0.0 -  RELEASE  -
|  1> !PBE D3BJ RIJCOSX def2-SVP def2/J TightSCF
|  2> *xyz 1 1
|  3> C         -4.38262       -1.67089        1.21620
|  4> N         -5.76354       -1.91517        0.70501
|  5> C         -3.28173       -2.19127        0.29436
|  6> H         -5.84081       -2.11520       -0.30065
|  7> H         -6.40882       -1.14866        0.93612
|  8> H         -6.17478       -2.79061        1.05143
|  9> H         -4.32862       -2.13922        2.19810
| 10> H         -4.26158       -0.59740        1.35725
| 11> H         -3.36057       -1.71407       -0.66008
| 12> H         -3.38775       -3.24919        0.17403
| 13> H         -2.32559       -1.97514        0.72329
| 14> *
| 15> %MaxCore 64000
| 16>
| 17> %pal nprocs 4
| 18> end
| 19>
| 20> %scf
| 21>   MaxIter 150
| 22> end
| 23>
| 24>                          ****END OF INPUT****

CARTESIAN COORDINATES (ANGSTROEM)
---------------------------------
  C     -4.382620   -1.670890    1.216200
  N     -5.763540   -1.915170    0.705010
  C     -3.281730   -2.191270    0.294360
  H     -5.840810   -2.115200   -0.300650
  H     -6.408820   -1.148660    0.936120
  H     -6.174780   -2.790610    1.051430
  H     -4.328620   -2.139220    2.198100
  H     -4.261580   -0.597400    1.357250
  H     -3.360570   -1.714070   -0.660080
  H     -3.387750   -3.249190    0.174030
  H     -2.325590   -1.975140    0.723290

 Total Charge           Charge          ....    1
 Multiplicity           Mult            ....    1
 Number of Electrons    NEL             ....   26
 Basis Dimension        Dim             ....   82

ORBITAL ENERGIES
----------------

  NO   OCC          E(Eh)            E(eV)
   0   2.0000     -14.336439      -390.1143
   1   2.0000     -10.148777      -276.1623
   2   2.0000     -10.071199      -274.0513
   3   2.0000      -1.130485       -30.7621
   4   2.0000      -0.892993       -24.2996
   5   2.0000      -0.787047       -21.4166
   6   2.0000      -0.746399       -20.3105
   7   2.0000      -0.726315       -19.7640
   8   2.0000      -0.655204       -17.8290
   9   2.0000      -0.592028       -16.1099
  10   2.0000      -0.539500       -14.6805
  11   2.0000      -0.522654       -14.2221
  12   2.0000      -0.503565       -13.7027
  13   0.0000      -0.208453        -5.6723
  14   0.0000      -0.158721        -4.3190
  15   0.0000      -0.152996        -4.1632
  16   0.0000      -0.116121        -3.1598
  17   0.0000      -0.078796        -2.1441

MULLIKEN ATOMIC CHARGES
-----------------------
   0 C :   -0.053492
   1 N :    0.038457
   2 C :   -0.044273
   3 H :    0.194415
   4 H :    0.215043
   5 H :    0.202690
   6 H :    0.104806
   7 H :    0.105207
   8 H :    0.070151
   9 H :    0.066326
  10 H :    0.100671
Sum of atomic charges:    1.0000000

LOEWDIN ATOMIC CHARGES
----------------------
   0 C :    0.041196
   1 N :    0.296549
   2 C :   -0.044920
   3 H :    0.141919
   4 H :    0.149031
   5 H :    0.146264
   6 H :    0.057980
   7 H :    0.058296
   8 H :    0.043527
   9 H :    0.042187
  10 H :    0.067971

  Mayer bond orders larger than 0.100000
B(  0-C ,  1-N ) :   0.9289 B(  0-C ,  2-C ) :   1.1223 B(  0-C ,  6-H ) :   0.9461
B(  0-C ,  7-H ) :   0.9481 B(  1-N ,  3-H ) :   0.9330 B(  1-N ,  4-H ) :   0.9329
B(  1-N ,  5-H ) :   0.9358 B(  2-C ,  8-H ) :   0.9616 B(  2-C ,  9-H ) :   0.9666
B(  2-C , 10-H ) :   0.9494

Dispersion correction           -0.006098973
FINAL SINGLE POINT ENERGY      -135.243685513302

DIPOLE MOMENT
-------------
                                X             Y             Z
Electronic contribution:     -1.84872       0.23666       0.29767
Nuclear contribution   :      0.19437      -0.25358      -0.32106
                        -----------------------------------------
Total Dipole Moment    :     -1.65435      -0.01692      -0.02339
                        -----------------------------------------
Magnitude (a.u.)       :      1.65460
Magnitude (Debye)      :      4.20566

Rotational constants in cm-1:     1.030014     0.272489     0.242697
Rotational constants in MHz : 30879.030706  8169.007780  7275.865152

                             ****ORCA TERMINATED NORMALLY****
TOTAL RUN TIME: 0 days 0 hours 0 minutes 6 seconds 547 msec
