                         Program Version 5.0.0 -  RELEASE  -
|  1> !PBE D3BJ RIJCOSX def2-TZVP def2/J TightSCF xyzfile
|  2>
|  3> *xyzfile 0 1 B.xyz
|  4>
|  5> %MaxCore 64000
|  6>
|  7> %pal nprocs 18
|  8> end
|  9>
| 10> %scf
| 11>   MaxIter 150
| 12> end
| 13>
| 14>
| 15>                          ****END OF INPUT****

CARTESIAN COORDINATES (ANGSTROEM)
---------------------------------
  C     -4.382623   -1.670889    1.216201
  N     -5.763539   -1.915170    0.705012
  C     -3.281728   -2.191272    0.294361
  C     -5.572364   -5.807798   -0.816445
  S     -6.903179   -4.619033   -0.528458
  H     -5.840812   -2.115205   -0.300646
  H     -6.408823   -1.148656    0.936124
  H     -6.174781   -2.790606    1.051433
  O     -8.114853   -5.250932   -0.957007
  O     -6.532715   -3.426838   -1.314848
  H     -4.328618   -2.139223    2.198103
  H     -4.261583   -0.597399    1.357248
  O     -6.865632   -4.294957    0.914118
  C     -3.474641   -3.605898   -0.259608
  H     -2.354548   -2.127602    0.871433
  H     -3.166611   -1.499693   -0.545037
  C     -3.827078   -4.661097    0.786174
  H     -2.560559   -3.889391   -0.788050
  H     -4.255932   -3.570040   -1.019300
  C     -4.457800   -5.941875    0.229195
  H     -5.177347   -5.542575   -1.797714
  H     -6.074202   -6.768894   -0.921272
  H     -4.530506   -4.253640    1.511979
  H     -2.933400   -4.932302    1.356825
  H     -3.681064   -6.562236   -0.229885
  H     -4.843942   -6.512728    1.075805

 Total Charge           Charge          ....    0
 Multiplicity           Mult            ....    1
 Number of Electrons    NEL             ....   98
 Basis Dimension        Dim             ....  437

ORBITAL ENERGIES
----------------

  NO   OCC          E(Eh)            E(eV)
   0   2.0000     -88.178752     -2399.4658
   1   2.0000     -18.703678      -508.9529
   2   2.0000     -18.699522      -508.8399
   3   2.0000     -18.687199      -508.5045
   4   2.0000     -14.086776      -383.3207
   5   2.0000      -9.966254      -271.1956
   6   2.0000      -9.915281      -269.8085
   7   2.0000      -9.889597      -269.1096
   8   2.0000      -9.884072      -268.9593
   9   2.0000      -9.883755      -268.9506
  10   2.0000      -9.883521      -268.9443
  11   2.0000      -7.774279      -211.5489
  12   2.0000      -5.795232      -157.6963
  13   2.0000      -5.794561      -157.6780
  14   2.0000      -5.793302      -157.6438
  15   2.0000      -1.003787       -27.3144
  16   2.0000      -0.925487       -25.1838
  17   2.0000      -0.871719       -23.7207
  18   2.0000      -0.868311       -23.6279
  19   2.0000      -0.757566       -20.6144
  20   2.0000      -0.718896       -19.5622
  21   2.0000      -0.672649       -18.3037
  22   2.0000      -0.625042       -17.0083
  23   2.0000      -0.575519       -15.6607
  24   2.0000      -0.546669       -14.8756
  25   2.0000      -0.527957       -14.3665
  26   2.0000      -0.520835       -14.1726
  27   2.0000      -0.482052       -13.1173
  28   2.0000      -0.460684       -12.5358
  29   2.0000      -0.438716       -11.9381
  30   2.0000      -0.433212       -11.7883
  31   2.0000      -0.417638       -11.3645
  32   2.0000      -0.398300       -10.8383
  33   2.0000      -0.388381       -10.5684
  34   2.0000      -0.381750       -10.3879
  35   2.0000      -0.374976       -10.2036
  36   2.0000      -0.364851        -9.9281
  37   2.0000      -0.344046        -9.3620
  38   2.0000      -0.332356        -9.0439
  39   2.0000      -0.328092        -8.9278
  40   2.0000      -0.304367        -8.2823
  41   2.0000      -0.295722        -8.0470
  42   2.0000      -0.289412        -7.8753
  43   2.0000      -0.276254        -7.5173
  44   2.0000      -0.267764        -7.2862
  45   2.0000      -0.233832        -6.3629
  46   2.0000      -0.230571        -6.2742
  47   2.0000      -0.224106        -6.0982
  48   2.0000      -0.198397        -5.3986
  49   0.0000      -0.034537        -0.9398
  50   0.0000       0.006105         0.1661
  51   0.0000       0.016507         0.4492
  52   0.0000       0.019753         0.5375
  53   0.0000       0.033044         0.8992

MULLIKEN ATOMIC CHARGES
-----------------------
   0 C :   -0.228597
   1 N :   -0.219808
   2 C :   -0.160608
   3 C :   -0.305273
   4 S :    0.729714
   5 H :    0.276142
   6 H :    0.260482
   7 H :    0.268884
   8 O :   -0.416962
   9 O :   -0.530175
  10 H :    0.161482
  11 H :    0.142160
  12 O :   -0.517493
  13 C :   -0.262981
  14 H :    0.107659
  15 H :    0.120319
  16 C :   -0.230590
  17 H :    0.098088
  18 H :    0.154049
  19 C :   -0.120610
  20 H :    0.132776
  21 H :    0.139040
  22 H :    0.114252
  23 H :    0.089302
  24 H :    0.092899
  25 H :    0.105850
Sum of atomic charges:   -0.0000000

LOEWDIN ATOMIC CHARGES
----------------------
   0 C :   -0.284852
   1 N :    0.140455
   2 C :   -0.273013
   3 C :   -0.392705
   4 S :    0.401416
   5 H :    0.178441
   6 H :    0.194110
   7 H :    0.157738
   8 O :   -0.271287
   9 O :   -0.358344
  10 H :    0.141039
  11 H :    0.137469
  12 O :   -0.339853
  13 C :   -0.275773
  14 H :    0.149419
  15 H :    0.144164
  16 C :   -0.280479
  17 H :    0.141768
  18 H :    0.145082
  19 C :   -0.286275
  20 H :    0.134456
  21 H :    0.140051
  22 H :    0.134779
  23 H :    0.136543
  24 H :    0.140943
  25 H :    0.144707

  Mayer bond orders larger than 0.100000
B(  0-C ,  1-N ) :   0.9206 B(  0-C ,  2-C ) :   1.0032 B(  0-C , 10-H ) :   0.9633
B(  0-C , 11-H ) :   0.9551 B(  1-N ,  5-H ) :   0.8184 B(  1-N ,  6-H ) :   0.9016
B(  1-N ,  7-H ) :   0.7821 B(  2-C , 13-C ) :   1.0030 B(  2-C , 14-H ) :   0.9470
B(  2-C , 15-H ) :   0.9503 B(  3-C ,  4-S ) :   0.8856 B(  3-C , 19-C ) :   0.9892
B(  3-C , 20-H ) :   0.9468 B(  3-C , 21-H ) :   0.9378 B(  4-S ,  8-O ) :   1.9889
B(  4-S ,  9-O ) :   1.6188 B(  4-S , 12-O ) :   1.5806 B(  5-H ,  9-O ) :   0.1292
B(  7-H , 12-O ) :   0.2036 B( 13-C , 16-C ) :   0.9786 B( 13-C , 17-H ) :   0.9495
B( 13-C , 18-H ) :   0.9530 B( 16-C , 19-C ) :   1.0039 B( 16-C , 22-H ) :   0.9524
B( 16-C , 23-H ) :   0.9389 B( 19-C , 24-H ) :   0.9374 B( 19-C , 25-H ) :   0.9493

Dispersion correction           -0.031108572
FINAL SINGLE POINT ENERGY      -915.746016643493

DIPOLE MOMENT
-------------
                                X             Y             Z
Electronic contribution:    -13.70377      -2.95168      -3.71606
Nuclear contribution   :     16.18863       5.15617       4.97370
                        -----------------------------------------
Total Dipole Moment    :      2.48486       2.20449       1.25764
                        -----------------------------------------
Magnitude (a.u.)       :      3.55189
Magnitude (Debye)      :      9.02820

Rotational constants in cm-1:     0.048546     0.025588     0.020102
Rotational constants in MHz :  1455.374030   767.095631   602.645620

                             ****ORCA TERMINATED NORMALLY****
TOTAL RUN TIME: 0 days 0 hours 0 minutes 17 seconds 295 msec
