                         Program Version 5.0.0 -  RELEASE  -
|  1> !PBE D3BJ RIJCOSX def2-SVP def2/J TightSCF
|  2> *xyz 0 1
|  3> C         -5.57236       -5.80780       -0.81644
|  4> S         -6.90318       -4.61903       -0.52846
|  5> F         -8.11485       -5.25093       -0.95701
|  6> O         -6.53271       -3.42684       -1.31485
|  7> O         -6.86563       -4.29496        0.91412
|  8> C         -4.45780       -5.94187        0.22919
|  9> H         -5.17735       -5.54257       -1.79771
| 10> H         -6.07420       -6.76889       -0.92127
| 11> H         -3.75515       -6.68239       -0.09144
| 12> H         -4.88182       -6.23486        1.16689
| 13> H         -3.95908       -5.00189        0.34143
| 14> *
| 15> %MaxCore 64000
| 16>
| 17> %pal nprocs 4
| 18> end
| 19>
| 20> %scf
| 21>   MaxIter 150
| 22> end
| 23>
| 24>                          ****END OF INPUT****

CARTESIAN COORDINATES (ANGSTROEM)
---------------------------------
  C     -5.572360   -5.807800   -0.816440
  S     -6.903180   -4.619030   -0.528460
  F     -8.114850   -5.250930   -0.957010
  O     -6.532710   -3.426840   -1.314850
  O     -6.865630   -4.294960    0.914120
  C     -4.457800   -5.941870    0.229190
  H     -5.177350   -5.542570   -1.797710
  H     -6.074200   -6.768890   -0.921270
  H     -3.755150   -6.682390   -0.091440
  H     -4.881820   -6.234860    1.166890
  H     -3.959080   -5.001890    0.341430

 Total Charge           Charge          ....    0
 Multiplicity           Mult            ....    1
 Number of Electrons    NEL             ....   58
 Basis Dimension        Dim             ....  113

ORBITAL ENERGIES
----------------

  NO   OCC          E(Eh)            E(eV)
   0   2.0000     -88.280515     -2402.2349
   1   2.0000     -24.372922      -663.2209
   2   2.0000     -18.745139      -510.0812
   3   2.0000     -18.744097      -510.0528
   4   2.0000      -9.948922      -270.7239
   5   2.0000      -9.913955      -269.7724
   6   2.0000      -7.894545      -214.8215
   7   2.0000      -5.925298      -161.2356
   8   2.0000      -5.918469      -161.0497
   9   2.0000      -5.917357      -161.0195
  10   2.0000      -1.266968       -34.4760
  11   2.0000      -0.991475       -26.9794
  12   2.0000      -0.892021       -24.2731
  13   2.0000      -0.738953       -20.1079
  14   2.0000      -0.660347       -17.9690
  15   2.0000      -0.606824       -16.5125
  16   2.0000      -0.520278       -14.1575
  17   2.0000      -0.514709       -14.0060
  18   2.0000      -0.484935       -13.1957
  19   2.0000      -0.437705       -11.9106
  20   2.0000      -0.416027       -11.3207
  21   2.0000      -0.386169       -10.5082
  22   2.0000      -0.370118       -10.0714
  23   2.0000      -0.355919        -9.6851
  24   2.0000      -0.341041        -9.2802
  25   2.0000      -0.316585        -8.6147
  26   2.0000      -0.265926        -7.2362
  27   2.0000      -0.259560        -7.0630
  28   2.0000      -0.236034        -6.4228
  29   0.0000      -0.001277        -0.0347
  30   0.0000       0.017582         0.4784
  31   0.0000       0.045352         1.2341
  32   0.0000       0.053063         1.4439
  33   0.0000       0.072543         1.9740

MULLIKEN ATOMIC CHARGES
-----------------------
   0 C :   -0.157654
   1 S :    0.831055
   2 F :   -0.122869
   3 O :   -0.423397
   4 O :   -0.420682
   5 C :    0.019913
   6 H :    0.078879
   7 H :    0.053999
   8 H :    0.040184
   9 H :    0.046318
  10 H :    0.054254
Sum of atomic charges:   -0.0000000

LOEWDIN ATOMIC CHARGES
----------------------
   0 C :   -0.165251
   1 S :    1.086672
   2 F :   -0.088070
   3 O :   -0.481603
   4 O :   -0.481969
   5 C :   -0.051156
   6 H :    0.041758
   7 H :    0.028903
   8 H :    0.038391
   9 H :    0.034631
  10 H :    0.037694

  Mayer bond orders larger than 0.100000
B(  0-C ,  1-S ) :   0.8881 B(  0-C ,  5-C ) :   1.0989 B(  0-C ,  6-H ) :   0.9260
B(  0-C ,  7-H ) :   0.9255 B(  1-S ,  2-F ) :   1.0583 B(  1-S ,  3-O ) :   1.7596
B(  1-S ,  4-O ) :   1.7670 B(  5-C ,  8-H ) :   0.9524 B(  5-C ,  9-H ) :   0.9630
B(  5-C , 10-H ) :   0.9681

Dispersion correction           -0.009110558
FINAL SINGLE POINT ENERGY      -726.707454796406

DIPOLE MOMENT
-------------
                                X             Y             Z
Electronic contribution:     -9.49937       3.70338      -1.83224
Nuclear contribution   :      9.80704      -5.24335       1.35017
                        -----------------------------------------
Total Dipole Moment    :      0.30767      -1.53997      -0.48206
                        -----------------------------------------
Magnitude (a.u.)       :      1.64273
Magnitude (Debye)      :      4.17549

Rotational constants in cm-1:     0.156316     0.078308     0.076228
Rotational constants in MHz :  4686.224999  2347.601204  2285.245115

                             ****ORCA TERMINATED NORMALLY****
TOTAL RUN TIME: 0 days 0 hours 0 minutes 7 seconds 830 msec
