                         Program Version 5.0.0 -  RELEASE  -
|  1> !PBE D3BJ RIJCOSX def2-SVP def2/J TightSCF
|  2> *xyz 0 1
|  3> C         -4.38262       -1.67089        1.21620
|  4> C         -5.76354       -1.91517        0.70501
|  5> C         -3.28173       -2.19127        0.29436
|  6> H         -5.84081       -2.11520       -0.30065
|  7> H         -6.40882       -1.14866        0.93612
|  8> H         -6.17478       -2.79061        1.05143
|  9> H         -4.32862       -2.13922        2.19810
| 10> H         -4.26158       -0.59740        1.35725
| 11> H         -3.36057       -1.71407       -0.66008
| 12> H         -3.38775       -3.24919        0.17403
| 13> H         -2.32559       -1.97514        0.72329
| 14> *
| 15> %MaxCore 64000
| 16>
| 17> %pal nprocs 4
| 18> end
| 19>
| 20> %scf
| 21>   MaxIter 150
| 22> end
| 23>
| 24>                          ****END OF INPUT****

CARTESIAN COORDINATES (ANGSTROEM)
---------------------------------
  C     -4.382620   -1.670890    1.216200
  C     -5.763540   -1.915170    0.705010
  C     -3.281730   -2.191270    0.294360
  H     -5.840810   -2.115200   -0.300650
  H     -6.408820   -1.148660    0.936120
  H     -6.174780   -2.790610    1.051430
  H     -4.328620   -2.139220    2.198100
  H     -4.261580   -0.597400    1.357250
  H     -3.360570   -1.714070   -0.660080
  H     -3.387750   -3.249190    0.174030
  H     -2.325590   -1.975140    0.723290

 Total Charge           Charge          ....    0
 Multiplicity           Mult            ....    1
 Number of Electrons    NEL             ....   26
 Basis Dimension        Dim             ....   82

ORBITAL ENERGIES
----------------

  NO   OCC          E(Eh)            E(eV)
   0   2.0000      -9.882345      -268.9123
   1   2.0000      -9.874242      -268.6918
   2   2.0000      -9.857127      -268.2261
   3   2.0000      -0.706678       -19.2297
   4   2.0000      -0.616420       -16.7736
   5   2.0000      -0.522255       -14.2113
   6   2.0000      -0.410003       -11.1567
   7   2.0000      -0.390633       -10.6297
   8   2.0000      -0.361597        -9.8395
   9   2.0000      -0.336958        -9.1691
  10   2.0000      -0.296472        -8.0674
  11   2.0000      -0.290073        -7.8933
  12   2.0000      -0.276038        -7.5114
  13   0.0000       0.044166         1.2018
  14   0.0000       0.088185         2.3996
  15   0.0000       0.091548         2.4911
  16   0.0000       0.093667         2.5488
  17   0.0000       0.125164         3.4059

MULLIKEN ATOMIC CHARGES
-----------------------
   0 C :   -0.091440
   1 C :    0.059345
   2 C :   -0.008859
   3 H :   -0.019343
   4 H :   -0.002524
   5 H :   -0.012756
   6 H :    0.014656
   7 H :    0.012660
   8 H :    0.018113
   9 H :    0.015704
  10 H :    0.014445
Sum of atomic charges:   -0.0000000

LOEWDIN ATOMIC CHARGES
----------------------
   0 C :   -0.047040
   1 C :   -0.059688
   2 C :   -0.058697
   3 H :    0.016286
   4 H :    0.019076
   5 H :    0.018865
   6 H :    0.023611
   7 H :    0.022145
   8 H :    0.021883
   9 H :    0.020915
  10 H :    0.022644

  Mayer bond orders larger than 0.100000
B(  0-C ,  1-C ) :   1.1183 B(  0-C ,  2-C ) :   1.1219 B(  0-C ,  6-H ) :   0.9508
B(  0-C ,  7-H ) :   0.9542 B(  1-C ,  3-H ) :   0.9598 B(  1-C ,  4-H ) :   0.9620
B(  1-C ,  5-H ) :   0.9568 B(  2-C ,  8-H ) :   0.9682 B(  2-C ,  9-H ) :   0.9723
B(  2-C , 10-H ) :   0.9646

Dispersion correction           -0.006097765
FINAL SINGLE POINT ENERGY      -118.851204406607

DIPOLE MOMENT
-------------
                                X             Y             Z
Electronic contribution:      0.18281       0.23450       0.33337
Nuclear contribution   :     -0.21528      -0.24783      -0.32864
                        -----------------------------------------
Total Dipole Moment    :     -0.03247      -0.01333       0.00472
                        -----------------------------------------
Magnitude (a.u.)       :      0.03541
Magnitude (Debye)      :      0.09001

Rotational constants in cm-1:     1.037566     0.286459     0.254172
Rotational constants in MHz : 31105.431429  8587.814531  7619.871198

                             ****ORCA TERMINATED NORMALLY****
TOTAL RUN TIME: 0 days 0 hours 0 minutes 5 seconds 942 msec
