                         Program Version 5.0.0 -  RELEASE  -
|  1> !PBE D3BJ RIJCOSX def2-SVP def2/J TightSCF
|  2> *xyz 0 1
|  3> C         -5.57236       -5.80780       -0.81644
|  4> S         -6.90318       -4.61903       -0.52846
|  5> O         -8.11485       -5.25093       -0.95701
|  6> F         -6.53271       -3.42684       -1.31485
|  7> O         -6.86563       -4.29496        0.91412
|  8> C         -4.45780       -5.94187        0.22919
|  9> H         -5.17735       -5.54257       -1.79771
| 10> H         -6.07420       -6.76889       -0.92127
| 11> H         -3.75515       -6.68239       -0.09144
| 12> H         -4.88182       -6.23486        1.16689
| 13> H         -3.95908       -5.00189        0.34143
| 14> *
| 15> %MaxCore 64000
| 16>
| 17> %pal nprocs 4
| 18> end
| 19>
| 20> %scf
| 21>   MaxIter 150
| 22> end
| 23>
| 24>                          ****END OF INPUT****

CARTESIAN COORDINATES (ANGSTROEM)
---------------------------------
  C     -5.572360   -5.807800   -0.816440
  S     -6.903180   -4.619030   -0.528460
  O     -8.114850   -5.250930   -0.957010
  F     -6.532710   -3.426840   -1.314850
  O     -6.865630   -4.294960    0.914120
  C     -4.457800   -5.941870    0.229190
  H     -5.177350   -5.542570   -1.797710
  H     -6.074200   -6.768890   -0.921270
  H     -3.755150   -6.682390   -0.091440
  H     -4.881820   -6.234860    1.166890
  H     -3.959080   -5.001890    0.341430

 Total Charge           Charge          ....    0
 Multiplicity           Mult            ....    1
 Number of Electrons    NEL             ....   58
 Basis Dimension        Dim             ....  113

ORBITAL ENERGIES
----------------

  NO   OCC          E(Eh)            E(eV)
   0   2.0000     -88.278930     -2402.1918
   1   2.0000     -24.350851      -662.6203
   2   2.0000     -18.759778      -510.4795
   3   2.0000     -18.745784      -510.0987
   4   2.0000      -9.948372      -270.7090
   5   2.0000      -9.913570      -269.7620
   6   2.0000      -7.892969      -214.7786
   7   2.0000      -5.923443      -161.1851
   8   2.0000      -5.917179      -161.0146
   9   2.0000      -5.916003      -160.9826
  10   2.0000      -1.230023       -33.4706
  11   2.0000      -1.008469       -27.4418
  12   2.0000      -0.908577       -24.7236
  13   2.0000      -0.738875       -20.1058
  14   2.0000      -0.647887       -17.6299
  15   2.0000      -0.598583       -16.2883
  16   2.0000      -0.509029       -13.8514
  17   2.0000      -0.488492       -13.2925
  18   2.0000      -0.478407       -13.0181
  19   2.0000      -0.435410       -11.8481
  20   2.0000      -0.417447       -11.3593
  21   2.0000      -0.392975       -10.6934
  22   2.0000      -0.374078       -10.1792
  23   2.0000      -0.353925        -9.6308
  24   2.0000      -0.346815        -9.4373
  25   2.0000      -0.324074        -8.8185
  26   2.0000      -0.279522        -7.6062
  27   2.0000      -0.265905        -7.2356
  28   2.0000      -0.249844        -6.7986
  29   0.0000       0.000752         0.0205
  30   0.0000       0.018460         0.5023
  31   0.0000       0.048928         1.3314
  32   0.0000       0.053079         1.4443
  33   0.0000       0.073983         2.0132

MULLIKEN ATOMIC CHARGES
-----------------------
   0 C :   -0.165126
   1 S :    0.841338
   2 O :   -0.379779
   3 F :   -0.168307
   4 O :   -0.425107
   5 C :    0.016348
   6 H :    0.062341
   7 H :    0.086254
   8 H :    0.038347
   9 H :    0.054807
  10 H :    0.038883
Sum of atomic charges:   -0.0000000

LOEWDIN ATOMIC CHARGES
----------------------
   0 C :   -0.166902
   1 S :    1.094307
   2 O :   -0.438253
   3 F :   -0.133248
   4 O :   -0.484738
   5 C :   -0.057522
   6 H :    0.032398
   7 H :    0.048101
   8 H :    0.037285
   9 H :    0.037007
  10 H :    0.031564

  Mayer bond orders larger than 0.100000
B(  0-C ,  1-S ) :   0.8869 B(  0-C ,  5-C ) :   1.0868 B(  0-C ,  6-H ) :   0.9262
B(  0-C ,  7-H ) :   0.9317 B(  1-S ,  2-O ) :   1.8099 B(  1-S ,  3-F ) :   1.0079
B(  1-S ,  4-O ) :   1.7733 B(  5-C ,  8-H ) :   0.9516 B(  5-C ,  9-H ) :   0.9648
B(  5-C , 10-H ) :   0.9684

Dispersion correction           -0.009096535
FINAL SINGLE POINT ENERGY      -726.727180728669

DIPOLE MOMENT
-------------
                                X             Y             Z
Electronic contribution:     -6.86152       6.75675      -2.44719
Nuclear contribution   :      8.15840      -7.14411       1.72305
                        -----------------------------------------
Total Dipole Moment    :      1.29688      -0.38735      -0.72414
                        -----------------------------------------
Magnitude (a.u.)       :      1.53503
Magnitude (Debye)      :      3.90173

Rotational constants in cm-1:     0.153926     0.078297     0.077402
Rotational constants in MHz :  4614.585804  2347.272644  2320.438903

                             ****ORCA TERMINATED NORMALLY****
TOTAL RUN TIME: 0 days 0 hours 0 minutes 6 seconds 993 msec
