                         Program Version 5.0.0 -  RELEASE  -
|  1> !PBE D3BJ RIJCOSX def2-SVP def2/J TightSCF
|  2> *xyz 0 1
|  3> C         -5.57236       -5.80780       -0.81644
|  4> S         -6.90318       -4.61903       -0.52846
|  5> O         -8.11485       -5.25093       -0.95701
|  6> O         -6.53271       -3.42684       -1.31485
|  7> F         -6.86563       -4.29496        0.91412
|  8> C         -4.45780       -5.94187        0.22919
|  9> H         -5.17735       -5.54257       -1.79771
| 10> H         -6.07420       -6.76889       -0.92127
| 11> H         -3.75515       -6.68239       -0.09144
| 12> H         -4.88182       -6.23486        1.16689
| 13> H         -3.95908       -5.00189        0.34143
| 14> *
| 15> %MaxCore 64000
| 16>
| 17> %pal nprocs 4
| 18> end
| 19>
| 20> %scf
| 21>   MaxIter 150
| 22> end
| 23>
| 24>                          ****END OF INPUT****

CARTESIAN COORDINATES (ANGSTROEM)
---------------------------------
  C     -5.572360   -5.807800   -0.816440
  S     -6.903180   -4.619030   -0.528460
  O     -8.114850   -5.250930   -0.957010
  O     -6.532710   -3.426840   -1.314850
  F     -6.865630   -4.294960    0.914120
  C     -4.457800   -5.941870    0.229190
  H     -5.177350   -5.542570   -1.797710
  H     -6.074200   -6.768890   -0.921270
  H     -3.755150   -6.682390   -0.091440
  H     -4.881820   -6.234860    1.166890
  H     -3.959080   -5.001890    0.341430

 Total Charge           Charge          ....    0
 Multiplicity           Mult            ....    1
 Number of Electrons    NEL             ....   58
 Basis Dimension        Dim             ....  113

ORBITAL ENERGIES
----------------

  NO   OCC          E(Eh)            E(eV)
   0   2.0000     -88.278003     -2402.1666
   1   2.0000     -24.350612      -662.6138
   2   2.0000     -18.759236      -510.4648
   3   2.0000     -18.743513      -510.0369
   4   2.0000      -9.947515      -270.6857
   5   2.0000      -9.920618      -269.9537
   6   2.0000      -7.892106      -214.7551
   7   2.0000      -5.922655      -161.1636
   8   2.0000      -5.916330      -160.9915
   9   2.0000      -5.915058      -160.9569
  10   2.0000      -1.227791       -33.4099
  11   2.0000      -1.008601       -27.4454
  12   2.0000      -0.908409       -24.7191
  13   2.0000      -0.741763       -20.1844
  14   2.0000      -0.645246       -17.5580
  15   2.0000      -0.603260       -16.4155
  16   2.0000      -0.514255       -13.9936
  17   2.0000      -0.488306       -13.2875
  18   2.0000      -0.470079       -12.7915
  19   2.0000      -0.440496       -11.9865
  20   2.0000      -0.411923       -11.2090
  21   2.0000      -0.396457       -10.7881
  22   2.0000      -0.379348       -10.3226
  23   2.0000      -0.362128        -9.8540
  24   2.0000      -0.347194        -9.4476
  25   2.0000      -0.325484        -8.8569
  26   2.0000      -0.279917        -7.6169
  27   2.0000      -0.262947        -7.1552
  28   2.0000      -0.248594        -6.7646
  29   0.0000      -0.007763        -0.2113
  30   0.0000       0.032437         0.8826
  31   0.0000       0.051360         1.3976
  32   0.0000       0.052374         1.4252
  33   0.0000       0.071836         1.9547

MULLIKEN ATOMIC CHARGES
-----------------------
   0 C :   -0.152967
   1 S :    0.841579
   2 O :   -0.379290
   3 O :   -0.429017
   4 F :   -0.168727
   5 C :   -0.013034
   6 H :    0.092403
   7 H :    0.074051
   8 H :    0.047192
   9 H :    0.039722
  10 H :    0.048087
Sum of atomic charges:    0.0000000

LOEWDIN ATOMIC CHARGES
----------------------
   0 C :   -0.162233
   1 S :    1.095185
   2 O :   -0.438277
   3 O :   -0.487049
   4 F :   -0.134217
   5 C :   -0.065199
   6 H :    0.050626
   7 H :    0.039283
   8 H :    0.040435
   9 H :    0.029224
  10 H :    0.032222

  Mayer bond orders larger than 0.100000
B(  0-C ,  1-S ) :   0.8995 B(  0-C ,  5-C ) :   1.0797 B(  0-C ,  6-H ) :   0.9286
B(  0-C ,  7-H ) :   0.9303 B(  1-S ,  2-O ) :   1.8084 B(  1-S ,  3-O ) :   1.7660
B(  1-S ,  4-F ) :   1.0092 B(  5-C ,  8-H ) :   0.9553 B(  5-C ,  9-H ) :   0.9694
B(  5-C , 10-H ) :   0.9683

Dispersion correction           -0.009057189
FINAL SINGLE POINT ENERGY      -726.726722695642

DIPOLE MOMENT
-------------
                                X             Y             Z
Electronic contribution:     -7.38998       5.28120       1.27811
Nuclear contribution   :      8.50531      -6.23950      -0.59960
                        -----------------------------------------
Total Dipole Moment    :      1.11533      -0.95830       0.67851
                        -----------------------------------------
Magnitude (a.u.)       :      1.61947
Magnitude (Debye)      :      4.11636

Rotational constants in cm-1:     0.152799     0.080212     0.076962
Rotational constants in MHz :  4580.804531  2404.707790  2307.252710

                             ****ORCA TERMINATED NORMALLY****
TOTAL RUN TIME: 0 days 0 hours 0 minutes 7 seconds 318 msec
