                         Program Version 5.0.0 -  RELEASE  -
|  1> !PBE D3BJ RIJCOSX def2-TZVP def2/J TightSCF xyzfile
|  2>
|  3> *xyzfile 0 1 D2.xyz
|  4>
|  5> %MaxCore 64000
|  6>
|  7> %pal nprocs 18
|  8> end
|  9>
| 10> %scf
| 11>   MaxIter 150
| 12> end
| 13>
| 14>
| 15>                          ****END OF INPUT****

CARTESIAN COORDINATES (ANGSTROEM)
---------------------------------
  C     -4.382623   -1.670889    1.216201
  C     -5.763539   -1.915170    0.705012
  C     -3.281728   -2.191272    0.294361
  C     -5.572364   -5.807798   -0.816445
  S     -6.903179   -4.619033   -0.528458
  H     -5.840812   -2.115205   -0.300646
  H     -6.408823   -1.148656    0.936124
  H     -6.174781   -2.790606    1.051433
  O     -8.114853   -5.250932   -0.957007
  F     -6.532715   -3.426838   -1.314848
  H     -4.328618   -2.139223    2.198103
  H     -4.261583   -0.597399    1.357248
  O     -6.865632   -4.294957    0.914118
  C     -3.474641   -3.605898   -0.259608
  H     -2.354548   -2.127602    0.871433
  H     -3.166611   -1.499693   -0.545037
  C     -3.827078   -4.661097    0.786174
  H     -2.560559   -3.889391   -0.788050
  H     -4.255932   -3.570040   -1.019300
  C     -4.457800   -5.941875    0.229195
  H     -5.177347   -5.542575   -1.797714
  H     -6.074202   -6.768894   -0.921272
  H     -4.530506   -4.253640    1.511979
  H     -2.933400   -4.932302    1.356825
  H     -3.681064   -6.562236   -0.229885
  H     -4.843942   -6.512728    1.075805

 Total Charge           Charge          ....    0
 Multiplicity           Mult            ....    1
 Number of Electrons    NEL             ....   98
 Basis Dimension        Dim             ....  437

ORBITAL ENERGIES
----------------

  NO   OCC          E(Eh)            E(eV)
   0   2.0000     -88.270664     -2401.9669
   1   2.0000     -24.360111      -662.8723
   2   2.0000     -18.767896      -510.7004
   3   2.0000     -18.756258      -510.3837
   4   2.0000      -9.940812      -270.5033
   5   2.0000      -9.907944      -269.6089
   6   2.0000      -9.883844      -268.9531
   7   2.0000      -9.882291      -268.9108
   8   2.0000      -9.872190      -268.6360
   9   2.0000      -9.859819      -268.2993
  10   2.0000      -9.809849      -266.9396
  11   2.0000      -7.866499      -214.0583
  12   2.0000      -5.890827      -160.2975
  13   2.0000      -5.884499      -160.1253
  14   2.0000      -5.883904      -160.1092
  15   2.0000      -1.257144       -34.2086
  16   2.0000      -1.024322       -27.8732
  17   2.0000      -0.933873       -25.4120
  18   2.0000      -0.762489       -20.7484
  19   2.0000      -0.730343       -19.8736
  20   2.0000      -0.685644       -18.6573
  21   2.0000      -0.661421       -17.9982
  22   2.0000      -0.627441       -17.0735
  23   2.0000      -0.591868       -16.1056
  24   2.0000      -0.554676       -15.0935
  25   2.0000      -0.518439       -14.1075
  26   2.0000      -0.507233       -13.8025
  27   2.0000      -0.496336       -13.5060
  28   2.0000      -0.495804       -13.4915
  29   2.0000      -0.446037       -12.1373
  30   2.0000      -0.438547       -11.9335
  31   2.0000      -0.419051       -11.4029
  32   2.0000      -0.411248       -11.1906
  33   2.0000      -0.407243       -11.0817
  34   2.0000      -0.389429       -10.5969
  35   2.0000      -0.378173       -10.2906
  36   2.0000      -0.357387        -9.7250
  37   2.0000      -0.350098        -9.5266
  38   2.0000      -0.346195        -9.4204
  39   2.0000      -0.341264        -9.2863
  40   2.0000      -0.316138        -8.6026
  41   2.0000      -0.310010        -8.4358
  42   2.0000      -0.307786        -8.3753
  43   2.0000      -0.291923        -7.9436
  44   2.0000      -0.286841        -7.8053
  45   2.0000      -0.278092        -7.5673
  46   2.0000      -0.271148        -7.3783
  47   2.0000      -0.269682        -7.3384
  48   2.0000      -0.234772        -6.3885
  49   0.0000      -0.016671        -0.4536
  50   0.0000      -0.005473        -0.1489
  51   0.0000       0.012859         0.3499
  52   0.0000       0.024995         0.6802
  53   0.0000       0.029687         0.8078

MULLIKEN ATOMIC CHARGES
-----------------------
   0 C :   -0.161789
   1 C :   -0.426595
   2 C :   -0.172141
   3 C :   -0.329626
   4 S :    0.758905
   5 H :    0.090784
   6 H :    0.106740
   7 H :    0.169338
   8 O :   -0.348921
   9 F :   -0.076452
  10 H :    0.096345
  11 H :    0.088039
  12 O :   -0.383682
  13 C :   -0.174272
  14 H :    0.084811
  15 H :    0.092493
  16 C :   -0.262005
  17 H :    0.093400
  18 H :    0.082969
  19 C :   -0.116598
  20 H :    0.153897
  21 H :    0.168353
  22 H :    0.148513
  23 H :    0.095064
  24 H :    0.104158
  25 H :    0.118272
Sum of atomic charges:   -0.0000000

LOEWDIN ATOMIC CHARGES
----------------------
   0 C :   -0.306887
   1 C :   -0.340901
   2 C :   -0.271945
   3 C :   -0.377981
   4 S :    0.502012
   5 H :    0.097509
   6 H :    0.107021
   7 H :    0.097447
   8 O :   -0.219069
   9 F :    0.090021
  10 H :    0.134755
  11 H :    0.136032
  12 O :   -0.237687
  13 C :   -0.275039
  14 H :    0.136923
  15 H :    0.138026
  16 C :   -0.272083
  17 H :    0.137545
  18 H :    0.129663
  19 C :   -0.279493
  20 H :    0.139154
  21 H :    0.151641
  22 H :    0.147917
  23 H :    0.140396
  24 H :    0.147369
  25 H :    0.147654

  Mayer bond orders larger than 0.100000
B(  0-C ,  1-C ) :   0.9658 B(  0-C ,  2-C ) :   1.0204 B(  0-C , 10-H ) :   0.9659
B(  0-C , 11-H ) :   0.9475 B(  1-C ,  5-H ) :   0.9849 B(  1-C ,  6-H ) :   0.9511
B(  1-C ,  7-H ) :   0.9621 B(  2-C , 13-C ) :   1.0137 B(  2-C , 14-H ) :   0.9539
B(  2-C , 15-H ) :   0.9481 B(  3-C ,  4-S ) :   0.9066 B(  3-C , 19-C ) :   0.9757
B(  3-C , 20-H ) :   0.9357 B(  3-C , 21-H ) :   0.9313 B(  4-S ,  8-O ) :   2.0238
B(  4-S ,  9-F ) :   1.1207 B(  4-S , 12-O ) :   1.8302 B( 13-C , 16-C ) :   0.9926
B( 13-C , 17-H ) :   0.9502 B( 13-C , 18-H ) :   0.9573 B( 16-C , 19-C ) :   0.9952
B( 16-C , 22-H ) :   0.9622 B( 16-C , 23-H ) :   0.9408 B( 19-C , 24-H ) :   0.9294
B( 19-C , 25-H ) :   0.9507

Dispersion correction           -0.030379386
FINAL SINGLE POINT ENERGY      -923.635367937493

DIPOLE MOMENT
-------------
                                X             Y             Z
Electronic contribution:    -16.08595      -5.34587      -7.18764
Nuclear contribution   :     17.25367       4.78608       6.55647
                        -----------------------------------------
Total Dipole Moment    :      1.16772      -0.55979      -0.63118
                        -----------------------------------------
Magnitude (a.u.)       :      1.44059
Magnitude (Debye)      :      3.66170

Rotational constants in cm-1:     0.048508     0.025517     0.020225
Rotational constants in MHz :  1454.219007   764.979652   606.316599

                             ****ORCA TERMINATED NORMALLY****
TOTAL RUN TIME: 0 days 0 hours 0 minutes 14 seconds 792 msec
