                         Program Version 5.0.0 -  RELEASE  -
|  1> !PBE D3BJ RIJCOSX def2-TZVP def2/J TightSCF xyzfile
|  2>
|  3> *xyzfile 0 1 D3.xyz
|  4>
|  5> %MaxCore 64000
|  6>
|  7> %pal nprocs 18
|  8> end
|  9>
| 10> %scf
| 11>   MaxIter 150
| 12> end
| 13>
| 14>
| 15>                          ****END OF INPUT****

CARTESIAN COORDINATES (ANGSTROEM)
---------------------------------
  C     -4.382623   -1.670889    1.216201
  C     -5.763539   -1.915170    0.705012
  C     -3.281728   -2.191272    0.294361
  C     -5.572364   -5.807798   -0.816445
  S     -6.903179   -4.619033   -0.528458
  H     -5.840812   -2.115205   -0.300646
  H     -6.408823   -1.148656    0.936124
  H     -6.174781   -2.790606    1.051433
  O     -8.114853   -5.250932   -0.957007
  O     -6.532715   -3.426838   -1.314848
  H     -4.328618   -2.139223    2.198103
  H     -4.261583   -0.597399    1.357248
  F     -6.865632   -4.294957    0.914118
  C     -3.474641   -3.605898   -0.259608
  H     -2.354548   -2.127602    0.871433
  H     -3.166611   -1.499693   -0.545037
  C     -3.827078   -4.661097    0.786174
  H     -2.560559   -3.889391   -0.788050
  H     -4.255932   -3.570040   -1.019300
  C     -4.457800   -5.941875    0.229195
  H     -5.177347   -5.542575   -1.797714
  H     -6.074202   -6.768894   -0.921272
  H     -4.530506   -4.253640    1.511979
  H     -2.933400   -4.932302    1.356825
  H     -3.681064   -6.562236   -0.229885
  H     -4.843942   -6.512728    1.075805

 Total Charge           Charge          ....    0
 Multiplicity           Mult            ....    1
 Number of Electrons    NEL             ....   98
 Basis Dimension        Dim             ....  437

ORBITAL ENERGIES
----------------

  NO   OCC          E(Eh)            E(eV)
   0   2.0000     -88.269967     -2401.9479
   1   2.0000     -24.360488      -662.8826
   2   2.0000     -18.767568      -510.6915
   3   2.0000     -18.754198      -510.3277
   4   2.0000      -9.940053      -270.4826
   5   2.0000      -9.912367      -269.7292
   6   2.0000      -9.890204      -269.1261
   7   2.0000      -9.875932      -268.7378
   8   2.0000      -9.869536      -268.5637
   9   2.0000      -9.860195      -268.3095
  10   2.0000      -9.811545      -266.9857
  11   2.0000      -7.865873      -214.0413
  12   2.0000      -5.890348      -160.2845
  13   2.0000      -5.883640      -160.1020
  14   2.0000      -5.883352      -160.0941
  15   2.0000      -1.256911       -34.2023
  16   2.0000      -1.024430       -27.8762
  17   2.0000      -0.932663       -25.3790
  18   2.0000      -0.765162       -20.8211
  19   2.0000      -0.729276       -19.8446
  20   2.0000      -0.685463       -18.6524
  21   2.0000      -0.661121       -17.9900
  22   2.0000      -0.628449       -17.1010
  23   2.0000      -0.591844       -16.1049
  24   2.0000      -0.558387       -15.1945
  25   2.0000      -0.520462       -14.1625
  26   2.0000      -0.515474       -14.0268
  27   2.0000      -0.493707       -13.4344
  28   2.0000      -0.487167       -13.2565
  29   2.0000      -0.445074       -12.1111
  30   2.0000      -0.438669       -11.9368
  31   2.0000      -0.421472       -11.4688
  32   2.0000      -0.407749       -11.0954
  33   2.0000      -0.402474       -10.9519
  34   2.0000      -0.398240       -10.8366
  35   2.0000      -0.379791       -10.3346
  36   2.0000      -0.356814        -9.7094
  37   2.0000      -0.350698        -9.5430
  38   2.0000      -0.345091        -9.3904
  39   2.0000      -0.342665        -9.3244
  40   2.0000      -0.316747        -8.6191
  41   2.0000      -0.309746        -8.4286
  42   2.0000      -0.304263        -8.2794
  43   2.0000      -0.291014        -7.9189
  44   2.0000      -0.287448        -7.8219
  45   2.0000      -0.281139        -7.6502
  46   2.0000      -0.265819        -7.2333
  47   2.0000      -0.262804        -7.1512
  48   2.0000      -0.245112        -6.6698
  49   0.0000      -0.025473        -0.6931
  50   0.0000       0.006077         0.1654
  51   0.0000       0.018379         0.5001
  52   0.0000       0.021735         0.5914
  53   0.0000       0.028963         0.7881

MULLIKEN ATOMIC CHARGES
-----------------------
   0 C :   -0.164304
   1 C :   -0.422996
   2 C :   -0.167810
   3 C :   -0.299670
   4 S :    0.755786
   5 H :    0.165586
   6 H :    0.108824
   7 H :    0.091187
   8 O :   -0.347640
   9 O :   -0.388615
  10 H :    0.089193
  11 H :    0.090324
  12 F :   -0.077429
  13 C :   -0.176316
  14 H :    0.081637
  15 H :    0.093859
  16 C :   -0.260030
  17 H :    0.087699
  18 H :    0.128373
  19 C :   -0.167898
  20 H :    0.168587
  21 H :    0.160717
  22 H :    0.119912
  23 H :    0.101269
  24 H :    0.108570
  25 H :    0.121186
Sum of atomic charges:    0.0000000

LOEWDIN ATOMIC CHARGES
----------------------
   0 C :   -0.308545
   1 C :   -0.341469
   2 C :   -0.271017
   3 C :   -0.371452
   4 S :    0.501911
   5 H :    0.111268
   6 H :    0.107362
   7 H :    0.090392
   8 O :   -0.219224
   9 O :   -0.247464
  10 H :    0.131286
  11 H :    0.137087
  12 F :    0.093176
  13 C :   -0.274741
  14 H :    0.135280
  15 H :    0.140011
  16 C :   -0.274418
  17 H :    0.136612
  18 H :    0.141318
  19 C :   -0.288471
  20 H :    0.151591
  21 H :    0.146230
  22 H :    0.139603
  23 H :    0.141679
  24 H :    0.148718
  25 H :    0.143276

  Mayer bond orders larger than 0.100000
B(  0-C ,  1-C ) :   0.9640 B(  0-C ,  2-C ) :   1.0253 B(  0-C , 10-H ) :   0.9632
B(  0-C , 11-H ) :   0.9476 B(  1-C ,  5-H ) :   0.9724 B(  1-C ,  6-H ) :   0.9521
B(  1-C ,  7-H ) :   0.9870 B(  2-C , 13-C ) :   1.0149 B(  2-C , 14-H ) :   0.9557
B(  2-C , 15-H ) :   0.9458 B(  3-C ,  4-S ) :   0.9079 B(  3-C , 19-C ) :   0.9864
B(  3-C , 20-H ) :   0.9329 B(  3-C , 21-H ) :   0.9311 B(  4-S ,  8-O ) :   2.0244
B(  4-S ,  9-O ) :   1.8515 B(  4-S , 12-F ) :   1.1102 B( 13-C , 16-C ) :   0.9720
B( 13-C , 17-H ) :   0.9465 B( 13-C , 18-H ) :   0.9503 B( 16-C , 19-C ) :   0.9879
B( 16-C , 22-H ) :   0.9738 B( 16-C , 23-H ) :   0.9434 B( 19-C , 24-H ) :   0.9310
B( 19-C , 25-H ) :   0.9608

Dispersion correction           -0.030347526
FINAL SINGLE POINT ENERGY      -923.634418746414

DIPOLE MOMENT
-------------
                                X             Y             Z
Electronic contribution:    -16.63634      -6.80220      -3.48512
Nuclear contribution   :     17.63907       5.79106       3.97609
                        -----------------------------------------
Total Dipole Moment    :      1.00273      -1.01114       0.49098
                        -----------------------------------------
Magnitude (a.u.)       :      1.50630
Magnitude (Debye)      :      3.82870

Rotational constants in cm-1:     0.048663     0.025472     0.020259
Rotational constants in MHz :  1458.892793   763.621130   607.350055

                             ****ORCA TERMINATED NORMALLY****
TOTAL RUN TIME: 0 days 0 hours 0 minutes 13 seconds 462 msec
