                         Program Version 5.0.0 -  RELEASE  -
|  1> !M062X D3Zero RIJCOSX def2-TZVPD def2/J TightSCF
|  2> *xyz -1 1
|  3> C         -0.77894        0.17197        1.80496
|  4> C         -0.60249       -0.63071        0.49224
|  5> H          0.31389       -1.24035        0.60350
|  6> H         -0.36383        0.11332       -0.30117
|  7> O         -1.71206       -1.37684        0.20253
|  8> H         -1.65864        0.77733        1.73736
|  9> H          0.07466        0.79896        1.95712
| 10> H         -0.87474       -0.50584        2.62734
| 11> *
| 12> %MaxCore 64000
| 13>
| 14> %pal nprocs 4
| 15> end
| 16>
| 17> %scf
| 18>   MaxIter 150
| 19> end
| 20>
| 21>
| 22>                          ****END OF INPUT****

CARTESIAN COORDINATES (ANGSTROEM)
---------------------------------
  C     -0.778940    0.171970    1.804960
  C     -0.602490   -0.630710    0.492240
  H      0.313890   -1.240350    0.603500
  H     -0.363830    0.113320   -0.301170
  O     -1.712060   -1.376840    0.202530
  H     -1.658640    0.777330    1.737360
  H      0.074660    0.798960    1.957120
  H     -0.874740   -0.505840    2.627340

 Total Charge           Charge          ....   -1
 Multiplicity           Mult            ....    1
 Number of Electrons    NEL             ....   26
 Basis Dimension        Dim             ....  159

ORBITAL ENERGIES
----------------

  NO   OCC          E(Eh)            E(eV)
   0   2.0000     -19.288410      -524.8643
   1   2.0000     -10.346522      -281.5432
   2   2.0000     -10.321053      -280.8501
   3   2.0000      -0.792897       -21.5758
   4   2.0000      -0.617133       -16.7930
   5   2.0000      -0.455502       -12.3948
   6   2.0000      -0.316802        -8.6206
   7   2.0000      -0.292315        -7.9543
   8   2.0000      -0.233062        -6.3420
   9   2.0000      -0.220225        -5.9926
  10   2.0000      -0.178336        -4.8528
  11   2.0000      -0.034393        -0.9359
  12   2.0000      -0.033842        -0.9209
  13   0.0000       0.168536         4.5861
  14   0.0000       0.187498         5.1021
  15   0.0000       0.218546         5.9469
  16   0.0000       0.219051         5.9607
  17   0.0000       0.240715         6.5502

MULLIKEN ATOMIC CHARGES
-----------------------
   0 C :   -0.999296
   1 C :   -0.259345
   2 H :    0.214044
   3 H :    0.212552
   4 O :   -0.975987
   5 H :    0.248324
   6 H :    0.308667
   7 H :    0.251040
Sum of atomic charges:   -1.0000000

LOEWDIN ATOMIC CHARGES
----------------------
   0 C :   -0.173184
   1 C :   -0.619001
   2 H :    0.059030
   3 H :    0.060605
   4 O :   -0.433745
   5 H :    0.040177
   6 H :    0.027332
   7 H :    0.038786

  Mayer bond orders larger than 0.100000
B(  0-C ,  1-C ) :   0.7039 B(  0-C ,  4-O ) :   0.3539 B(  0-C ,  5-H ) :   1.0089
B(  0-C ,  6-H ) :   0.9778 B(  0-C ,  7-H ) :   1.0047 B(  1-C ,  2-H ) :   1.0497
B(  1-C ,  3-H ) :   1.0495 B(  1-C ,  4-O ) :   0.7959

Dispersion correction           -0.000014817
FINAL SINGLE POINT ENERGY      -154.409474992140

DIPOLE MOMENT
-------------
                                X             Y             Z
Electronic contribution:     -1.57247      -1.81617      -1.49284
Nuclear contribution   :      2.47835       2.80827       2.30058
                        -----------------------------------------
Total Dipole Moment    :      0.90588       0.99210       0.80774
                        -----------------------------------------
Magnitude (a.u.)       :      1.56759
Magnitude (Debye)      :      3.98449

Rotational constants in cm-1:     1.255775     0.327783     0.287473
Rotational constants in MHz : 37647.186859  9826.677683  8618.224821

                             ****ORCA TERMINATED NORMALLY****
TOTAL RUN TIME: 0 days 0 hours 0 minutes 17 seconds 952 msec
