                         Program Version 5.0.0 -  RELEASE  -
|  1> !M062X D3Zero RIJCOSX def2-TZVPD def2/J TightSCF
|  2> *xyz 1 1
|  3> C         -2.12050        0.88520        1.78951
|  4> C         -0.77894        0.17197        1.80496
|  5> H         -2.32419        1.47265        2.68608
|  6> H         -2.18770        1.54127        0.91948
|  7> N         -3.17690       -0.15948        1.61070
|  8> H         -4.06474        0.23127        1.28675
|  9> H         -3.34407       -0.67151        2.48493
| 10> H         -2.71686       -0.78189        0.93588
| 11> H         -0.65708       -0.37837        0.89547
| 12> H         -0.74207       -0.50050        2.63642
| 13> H          0.00707        0.89251        1.89389
| 14> *
| 15> %MaxCore 64000
| 16>
| 17> %pal nprocs 4
| 18> end
| 19>
| 20> %scf
| 21>   MaxIter 150
| 22> end
| 23>
| 24>
| 25>                          ****END OF INPUT****

CARTESIAN COORDINATES (ANGSTROEM)
---------------------------------
  C     -2.120500    0.885200    1.789510
  C     -0.778940    0.171970    1.804960
  H     -2.324190    1.472650    2.686080
  H     -2.187700    1.541270    0.919480
  N     -3.176900   -0.159480    1.610700
  H     -4.064740    0.231270    1.286750
  H     -3.344070   -0.671510    2.484930
  H     -2.716860   -0.781890    0.935880
  H     -0.657080   -0.378370    0.895470
  H     -0.742070   -0.500500    2.636420
  H      0.007070    0.892510    1.893890

 Total Charge           Charge          ....    1
 Multiplicity           Mult            ....    1
 Number of Electrons    NEL             ....   26
 Basis Dimension        Dim             ....  183

ORBITAL ENERGIES
----------------

  NO   OCC          E(Eh)            E(eV)
   0   2.0000     -15.078729      -410.3131
   1   2.0000     -10.792444      -293.6773
   2   2.0000     -10.714322      -291.5515
   3   2.0000      -1.325352       -36.0647
   4   2.0000      -1.064200       -28.9584
   5   2.0000      -0.931706       -25.3530
   6   2.0000      -0.879087       -23.9212
   7   2.0000      -0.868400       -23.6304
   8   2.0000      -0.760161       -20.6850
   9   2.0000      -0.713222       -19.4078
  10   2.0000      -0.648673       -17.6513
  11   2.0000      -0.640995       -17.4424
  12   2.0000      -0.620357       -16.8808
  13   0.0000      -0.175124        -4.7654
  14   0.0000      -0.120811        -3.2874
  15   0.0000      -0.117396        -3.1945
  16   0.0000      -0.116003        -3.1566
  17   0.0000      -0.082055        -2.2328

MULLIKEN ATOMIC CHARGES
-----------------------
   0 C :   -0.246298
   1 C :   -1.242160
   2 H :    0.340317
   3 H :    0.324432
   4 N :   -0.453387
   5 H :    0.390056
   6 H :    0.385416
   7 H :    0.370843
   8 H :    0.437981
   9 H :    0.374460
  10 H :    0.318340
Sum of atomic charges:    1.0000000

LOEWDIN ATOMIC CHARGES
----------------------
   0 C :   -0.194022
   1 C :   -0.059863
   2 H :    0.138182
   3 H :    0.136973
   4 N :    0.176874
   5 H :    0.180929
   6 H :    0.183681
   7 H :    0.169017
   8 H :    0.085177
   9 H :    0.087796
  10 H :    0.095257

  Mayer bond orders larger than 0.100000
B(  0-C ,  1-C ) :   0.4729 B(  0-C ,  2-H ) :   0.9214 B(  0-C ,  3-H ) :   0.9359
B(  0-C ,  4-N ) :   0.8081 B(  1-C ,  8-H ) :   0.8539 B(  1-C ,  9-H ) :   0.9362
B(  1-C , 10-H ) :   0.9881 B(  4-N ,  5-H ) :   0.8426 B(  4-N ,  6-H ) :   0.8513
B(  4-N ,  7-H ) :   0.8530

Dispersion correction           -0.000047288
FINAL SINGLE POINT ENERGY      -135.505865714000

DIPOLE MOMENT
-------------
                                X             Y             Z
Electronic contribution:     -1.80393      -0.14686      -0.05610
Nuclear contribution   :      0.50278      -0.30871      -0.06979
                        -----------------------------------------
Total Dipole Moment    :     -1.30115      -0.45558      -0.12589
                        -----------------------------------------
Magnitude (a.u.)       :      1.38434
Magnitude (Debye)      :      3.51871

Rotational constants in cm-1:     0.963746     0.295157     0.256910
Rotational constants in MHz : 28892.375247  8848.576767  7701.963879

                             ****ORCA TERMINATED NORMALLY****
TOTAL RUN TIME: 0 days 0 hours 0 minutes 21 seconds 220 msec
