                         Program Version 5.0.0 -  RELEASE  -
|  1> !M062X D3Zero RIJCOSX def2-TZVPD def2/J TightSCF xyzfile
|  2>
|  3> *xyzfile 0 1 B.xyz
|  4>
|  5> %MaxCore 64000
|  6>
|  7> %pal nprocs 4
|  8> end
|  9>
| 10> %scf
| 11>   MaxIter 150
| 12> end
| 13>
| 14>
| 15>                          ****END OF INPUT****

CARTESIAN COORDINATES (ANGSTROEM)
---------------------------------
  C     -2.120502    0.885196    1.789506
  C     -0.778939    0.171966    1.804965
  H     -2.324193    1.472649    2.686078
  H     -2.187698    1.541272    0.919482
  N     -3.176900   -0.159484    1.610700
  H      0.015695    0.910767    1.939153
  H     -0.743553   -0.506827    2.665420
  C     -0.602493   -0.630712    0.492240
  H      0.313894   -1.240346    0.603498
  H     -0.363829    0.113322   -0.301169
  O     -1.712061   -1.376836    0.202535
  H     -4.064736    0.231272    1.286754
  H     -3.344073   -0.671511    2.484928
  H     -2.716861   -0.781886    0.935880

 Total Charge           Charge          ....    0
 Multiplicity           Mult            ....    1
 Number of Electrons    NEL             ....   42
 Basis Dimension        Dim             ....  269

ORBITAL ENERGIES
----------------

  NO   OCC          E(Eh)            E(eV)
   0   2.0000     -19.496781      -530.5344
   1   2.0000     -14.825709      -403.4281
   2   2.0000     -10.600170      -288.4453
   3   2.0000     -10.532611      -286.6069
   4   2.0000     -10.528104      -286.4843
   5   2.0000      -1.101835       -29.9825
   6   2.0000      -1.011620       -27.5276
   7   2.0000      -0.868443       -23.6315
   8   2.0000      -0.744026       -20.2460
   9   2.0000      -0.673788       -18.3347
  10   2.0000      -0.648151       -17.6371
  11   2.0000      -0.622994       -16.9525
  12   2.0000      -0.555153       -15.1065
  13   2.0000      -0.504932       -13.7399
  14   2.0000      -0.472113       -12.8468
  15   2.0000      -0.467894       -12.7320
  16   2.0000      -0.424980       -11.5643
  17   2.0000      -0.405290       -11.0285
  18   2.0000      -0.385720       -10.4960
  19   2.0000      -0.252826        -6.8798
  20   2.0000      -0.247033        -6.7221
  21   0.0000      -0.008924        -0.2428
  22   0.0000       0.023845         0.6489
  23   0.0000       0.026105         0.7104
  24   0.0000       0.045609         1.2411
  25   0.0000       0.068606         1.8669

MULLIKEN ATOMIC CHARGES
-----------------------
   0 C :   -0.610698
   1 C :   -0.608871
   2 H :    0.310572
   3 H :    0.344733
   4 N :   -0.459667
   5 H :    0.338069
   6 H :    0.344059
   7 C :   -0.341221
   8 H :    0.275742
   9 H :    0.272247
  10 O :   -0.956990
  11 H :    0.344276
  12 H :    0.346535
  13 H :    0.401216
Sum of atomic charges:    0.0000000

LOEWDIN ATOMIC CHARGES
----------------------
   0 C :   -0.178096
   1 C :   -0.194299
   2 H :    0.115053
   3 H :    0.129432
   4 N :    0.123030
   5 H :    0.111182
   6 H :    0.112467
   7 C :   -0.421460
   8 H :    0.100584
   9 H :    0.102735
  10 O :   -0.295425
  11 H :    0.156677
  12 H :    0.161786
  13 H :   -0.023665

  Mayer bond orders larger than 0.100000
B(  0-C ,  1-C ) :   0.6928 B(  0-C ,  2-H ) :   0.9825 B(  0-C ,  3-H ) :   0.9129
B(  0-C ,  4-N ) :   0.8546 B(  1-C ,  5-H ) :   0.9801 B(  1-C ,  6-H ) :   0.9132
B(  1-C ,  7-C ) :   0.8466 B(  1-C , 10-O ) :   0.2000 B(  4-N , 10-O ) :  -0.1376
B(  4-N , 11-H ) :   0.8996 B(  4-N , 12-H ) :   0.8917 B(  4-N , 13-H ) :   0.5021
B(  7-C ,  8-H ) :   1.0285 B(  7-C ,  9-H ) :   1.0202 B(  7-C , 10-O ) :   0.5965
B( 10-O , 13-H ) :   0.4173

Dispersion correction           -0.000151311
FINAL SINGLE POINT ENERGY      -249.635391859507

DIPOLE MOMENT
-------------
                                X             Y             Z
Electronic contribution:     -1.47788      -1.43676      -0.79894
Nuclear contribution   :      0.08650       3.01678       2.47433
                        -----------------------------------------
Total Dipole Moment    :     -1.39138       1.58002       1.67540
                        -----------------------------------------
Magnitude (a.u.)       :      2.69060
Magnitude (Debye)      :      6.83897

Rotational constants in cm-1:     0.238796     0.156489     0.106146
Rotational constants in MHz :  7158.916762  4691.413084  3182.185740

                             ****ORCA TERMINATED NORMALLY****
TOTAL RUN TIME: 0 days 0 hours 0 minutes 48 seconds 485 msec
