                         Program Version 5.0.0 -  RELEASE  -
|  1> !M062X D3Zero RIJCOSX def2-TZVPD def2/J TightSCF
|  2> *xyz 0 1
|  3> C         -0.77894        0.17197        1.80496
|  4> C         -0.60249       -0.63071        0.49224
|  5> H          0.31389       -1.24035        0.60350
|  6> H         -0.36383        0.11332       -0.30117
|  7> F         -1.71206       -1.37684        0.20253
|  8> H         -1.65864        0.77733        1.73736
|  9> H          0.07466        0.79896        1.95712
| 10> H         -0.87474       -0.50584        2.62734
| 11> *
| 12> %MaxCore 64000
| 13>
| 14> %pal nprocs 4
| 15> end
| 16>
| 17> %scf
| 18>   MaxIter 150
| 19> end
| 20>
| 21>
| 22>                          ****END OF INPUT****

CARTESIAN COORDINATES (ANGSTROEM)
---------------------------------
  C     -0.778940    0.171970    1.804960
  C     -0.602490   -0.630710    0.492240
  H      0.313890   -1.240350    0.603500
  H     -0.363830    0.113320   -0.301170
  F     -1.712060   -1.376840    0.202530
  H     -1.658640    0.777330    1.737360
  H      0.074660    0.798960    1.957120
  H     -0.874740   -0.505840    2.627340

 Total Charge           Charge          ....    0
 Multiplicity           Mult            ....    1
 Number of Electrons    NEL             ....   26
 Basis Dimension        Dim             ....  159

ORBITAL ENERGIES
----------------

  NO   OCC          E(Eh)            E(eV)
   0   2.0000     -25.233649      -686.6425
   1   2.0000     -10.615630      -288.8660
   2   2.0000     -10.528484      -286.4946
   3   2.0000      -1.343976       -36.5714
   4   2.0000      -0.861039       -23.4301
   5   2.0000      -0.723553       -19.6889
   6   2.0000      -0.590943       -16.0804
   7   2.0000      -0.582581       -15.8528
   8   2.0000      -0.546494       -14.8709
   9   2.0000      -0.482241       -13.1224
  10   2.0000      -0.467716       -12.7272
  11   2.0000      -0.404173       -10.9981
  12   2.0000      -0.401399       -10.9226
  13   0.0000       0.019661         0.5350
  14   0.0000       0.043041         1.1712
  15   0.0000       0.065113         1.7718
  16   0.0000       0.065961         1.7949
  17   0.0000       0.094607         2.5744

MULLIKEN ATOMIC CHARGES
-----------------------
   0 C :   -0.995425
   1 C :   -0.098276
   2 H :    0.251705
   3 H :    0.247672
   4 F :   -0.312125
   5 H :    0.298874
   6 H :    0.318626
   7 H :    0.288949
Sum of atomic charges:   -0.0000000

LOEWDIN ATOMIC CHARGES
----------------------
   0 C :   -0.084502
   1 C :   -0.279627
   2 H :    0.111490
   3 H :    0.114048
   4 F :   -0.055971
   5 H :    0.065034
   6 H :    0.065712
   7 H :    0.063815

  Mayer bond orders larger than 0.100000
B(  0-C ,  1-C ) :   0.6998 B(  0-C ,  4-F ) :   0.1133 B(  0-C ,  5-H ) :   0.9521
B(  0-C ,  6-H ) :   0.9491 B(  0-C ,  7-H ) :   0.9579 B(  1-C ,  2-H ) :   0.9790
B(  1-C ,  3-H ) :   0.9844 B(  1-C ,  4-F ) :   0.6943

Dispersion correction           -0.000018803
FINAL SINGLE POINT ENERGY      -179.051905810649

DIPOLE MOMENT
-------------
                                X             Y             Z
Electronic contribution:     -2.72343      -3.28429      -2.82336
Nuclear contribution   :      3.27800       3.70743       3.04146
                        -----------------------------------------
Total Dipole Moment    :      0.55457       0.42315       0.21810
                        -----------------------------------------
Magnitude (a.u.)       :      0.73087
Magnitude (Debye)      :      1.85773

Rotational constants in cm-1:     1.234437     0.305084     0.268865
Rotational constants in MHz : 37007.496448  9146.194083  8060.380630

                             ****ORCA TERMINATED NORMALLY****
TOTAL RUN TIME: 0 days 0 hours 0 minutes 15 seconds 386 msec
