                         Program Version 5.0.0 -  RELEASE  -
|  1> !M062X D3Zero RIJCOSX def2-TZVPD def2/J TightSCF
|  2> *xyz 0 1
|  3> C         -2.12050        0.88520        1.78951
|  4> C         -0.77894        0.17197        1.80496
|  5> H         -2.32419        1.47265        2.68608
|  6> H         -2.18770        1.54127        0.91948
|  7> C         -3.17690       -0.15948        1.61070
|  8> H         -4.06474        0.23127        1.28675
|  9> H         -3.34407       -0.67151        2.48493
| 10> H         -2.71686       -0.78189        0.93588
| 11> H         -0.65708       -0.37837        0.89547
| 12> H         -0.74207       -0.50050        2.63642
| 13> H          0.00707        0.89251        1.89389
| 14> *
| 15> %MaxCore 64000
| 16>
| 17> %pal nprocs 4
| 18> end
| 19>
| 20> %scf
| 21>   MaxIter 150
| 22> end
| 23>
| 24>
| 25>                          ****END OF INPUT****

CARTESIAN COORDINATES (ANGSTROEM)
---------------------------------
  C     -2.120500    0.885200    1.789510
  C     -0.778940    0.171970    1.804960
  H     -2.324190    1.472650    2.686080
  H     -2.187700    1.541270    0.919480
  C     -3.176900   -0.159480    1.610700
  H     -4.064740    0.231270    1.286750
  H     -3.344070   -0.671510    2.484930
  H     -2.716860   -0.781890    0.935880
  H     -0.657080   -0.378370    0.895470
  H     -0.742070   -0.500500    2.636420
  H      0.007070    0.892510    1.893890

 Total Charge           Charge          ....    0
 Multiplicity           Mult            ....    1
 Number of Electrons    NEL             ....   26
 Basis Dimension        Dim             ....  183

ORBITAL ENERGIES
----------------

  NO   OCC          E(Eh)            E(eV)
   0   2.0000     -10.519301      -286.2447
   1   2.0000     -10.510925      -286.0168
   2   2.0000     -10.491266      -285.4818
   3   2.0000      -0.894831       -24.3496
   4   2.0000      -0.778110       -21.1735
   5   2.0000      -0.669264       -18.2116
   6   2.0000      -0.542422       -14.7600
   7   2.0000      -0.522349       -14.2138
   8   2.0000      -0.464909       -12.6508
   9   2.0000      -0.449648       -12.2355
  10   2.0000      -0.399918       -10.8823
  11   2.0000      -0.390694       -10.6313
  12   2.0000      -0.387700       -10.5498
  13   0.0000       0.024892         0.6773
  14   0.0000       0.043744         1.1903
  15   0.0000       0.046411         1.2629
  16   0.0000       0.074007         2.0138
  17   0.0000       0.093817         2.5529

MULLIKEN ATOMIC CHARGES
-----------------------
   0 C :   -0.110917
   1 C :   -1.196864
   2 H :    0.294836
   3 H :    0.287044
   4 C :   -1.222594
   5 H :    0.320057
   6 H :    0.336386
   7 H :    0.333086
   8 H :    0.341976
   9 H :    0.310583
  10 H :    0.306407
Sum of atomic charges:   -0.0000000

LOEWDIN ATOMIC CHARGES
----------------------
   0 C :   -0.318059
   1 C :   -0.126289
   2 H :    0.105031
   3 H :    0.105113
   4 C :   -0.124841
   5 H :    0.050880
   6 H :    0.057358
   7 H :    0.048445
   8 H :    0.067848
   9 H :    0.071912
  10 H :    0.062601

  Mayer bond orders larger than 0.100000
B(  0-C ,  1-C ) :   0.4990 B(  0-C ,  2-H ) :   0.9189 B(  0-C ,  3-H ) :   0.9644
B(  0-C ,  4-C ) :   0.4625 B(  1-C ,  4-C ) :   0.1588 B(  1-C ,  8-H ) :   0.9664
B(  1-C ,  9-H ) :   0.9837 B(  1-C , 10-H ) :   0.9839 B(  4-C ,  5-H ) :   0.9519
B(  4-C ,  6-H ) :   0.9827 B(  4-C ,  7-H ) :   0.9425

Dispersion correction           -0.000046052
FINAL SINGLE POINT ENERGY      -119.094682145188

DIPOLE MOMENT
-------------
                                X             Y             Z
Electronic contribution:     -0.14272       0.47216       0.11205
Nuclear contribution   :      0.13334      -0.45108      -0.10852
                        -----------------------------------------
Total Dipole Moment    :     -0.00938       0.02108       0.00353
                        -----------------------------------------
Magnitude (a.u.)       :      0.02334
Magnitude (Debye)      :      0.05933

Rotational constants in cm-1:     0.972269     0.310387     0.269029
Rotational constants in MHz : 29147.878530  9305.178981  8065.286472

                             ****ORCA TERMINATED NORMALLY****
TOTAL RUN TIME: 0 days 0 hours 0 minutes 19 seconds 630 msec
