                         Program Version 5.0.0 -  RELEASE  -
|  1> !M062X D3Zero RIJCOSX def2-TZVPD def2/J TightSCF xyzfile
|  2>
|  3> *xyzfile 0 1 D.xyz
|  4>
|  5> %MaxCore 64000
|  6>
|  7> %pal nprocs 4
|  8> end
|  9>
| 10> %scf
| 11>   MaxIter 150
| 12> end
| 13>
| 14>
| 15>                          ****END OF INPUT****

CARTESIAN COORDINATES (ANGSTROEM)
---------------------------------
  C     -2.120502    0.885196    1.789506
  C     -0.778939    0.171966    1.804965
  H     -2.324193    1.472649    2.686078
  H     -2.187698    1.541272    0.919482
  C     -3.176900   -0.159484    1.610700
  H      0.015695    0.910767    1.939153
  H     -0.743553   -0.506827    2.665420
  C     -0.602493   -0.630712    0.492240
  H      0.313894   -1.240346    0.603498
  H     -0.363829    0.113322   -0.301169
  F     -1.712061   -1.376836    0.202535
  H     -4.064736    0.231272    1.286754
  H     -3.344073   -0.671511    2.484928
  H     -2.716861   -0.781886    0.935880

 Total Charge           Charge          ....    0
 Multiplicity           Mult            ....    1
 Number of Electrons    NEL             ....   42
 Basis Dimension        Dim             ....  269

ORBITAL ENERGIES
----------------

  NO   OCC          E(Eh)            E(eV)
   0   2.0000     -25.251238      -687.1211
   1   2.0000     -10.623163      -289.0710
   2   2.0000     -10.538462      -286.7661
   3   2.0000     -10.517940      -286.2077
   4   2.0000     -10.456296      -284.5303
   5   2.0000      -1.377199       -37.4755
   6   2.0000      -0.906827       -24.6760
   7   2.0000      -0.832495       -22.6533
   8   2.0000      -0.728280       -19.8175
   9   2.0000      -0.679482       -18.4896
  10   2.0000      -0.618927       -16.8419
  11   2.0000      -0.608898       -16.5690
  12   2.0000      -0.575183       -15.6515
  13   2.0000      -0.510455       -13.8902
  14   2.0000      -0.488868       -13.3028
  15   2.0000      -0.476306       -12.9609
  16   2.0000      -0.442510       -12.0413
  17   2.0000      -0.413176       -11.2431
  18   2.0000      -0.386379       -10.5139
  19   2.0000      -0.383787       -10.4434
  20   2.0000      -0.340219        -9.2578
  21   0.0000       0.018761         0.5105
  22   0.0000       0.039043         1.0624
  23   0.0000       0.039980         1.0879
  24   0.0000       0.042394         1.1536
  25   0.0000       0.072896         1.9836

MULLIKEN ATOMIC CHARGES
-----------------------
   0 C :   -0.369582
   1 C :   -0.661548
   2 H :    0.283554
   3 H :    0.288868
   4 C :   -1.162553
   5 H :    0.317039
   6 H :    0.347424
   7 C :   -0.330376
   8 H :    0.300255
   9 H :    0.302535
  10 F :   -0.340892
  11 H :    0.329782
  12 H :    0.356646
  13 H :    0.338847
Sum of atomic charges:   -0.0000000

LOEWDIN ATOMIC CHARGES
----------------------
   0 C :   -0.260043
   1 C :   -0.191671
   2 H :    0.107006
   3 H :    0.113162
   4 C :   -0.103733
   5 H :    0.113392
   6 H :    0.117822
   7 C :   -0.194722
   8 H :    0.121110
   9 H :    0.129716
  10 F :   -0.052664
  11 H :    0.056874
  12 H :    0.063426
  13 H :   -0.019675

  Mayer bond orders larger than 0.100000
B(  0-C ,  1-C ) :   0.6680 B(  0-C ,  2-H ) :   0.9586 B(  0-C ,  3-H ) :   0.9855
B(  0-C ,  4-C ) :   0.4731 B(  1-C ,  4-C ) :   0.1005 B(  1-C ,  5-H ) :   0.9674
B(  1-C ,  6-H ) :   0.9426 B(  1-C ,  7-C ) :   0.8094 B(  4-C , 11-H ) :   1.0004
B(  4-C , 12-H ) :   1.0296 B(  4-C , 13-H ) :   0.9325 B(  7-C ,  8-H ) :   0.9768
B(  7-C ,  9-H ) :   0.9865 B(  7-C , 10-F ) :   0.7042

Dispersion correction           -0.000156662
FINAL SINGLE POINT ENERGY      -257.605229206591

DIPOLE MOMENT
-------------
                                X             Y             Z
Electronic contribution:      0.89319      -4.19424      -3.73466
Nuclear contribution   :     -0.20666       4.43855       3.76066
                        -----------------------------------------
Total Dipole Moment    :      0.68652       0.24431       0.02600
                        -----------------------------------------
Magnitude (a.u.)       :      0.72916
Magnitude (Debye)      :      1.85338

Rotational constants in cm-1:     0.236353     0.155239     0.105045
Rotational constants in MHz :  7085.692869  4653.957069  3149.180346

                             ****ORCA TERMINATED NORMALLY****
TOTAL RUN TIME: 0 days 0 hours 0 minutes 46 seconds 378 msec
