                         Program Version 5.0.0 -  RELEASE  -
|  1> !PBE0 D3BJ RIJCOSX def2-SVPD def2/J TightSCF
|  2> *xyz -1 1
|  3> C         -0.95121        1.33498       -0.97250
|  4> C         -0.77455        2.78833       -0.54394
|  5> H         -1.35261        3.45937       -1.19259
|  6> H         -1.17101        2.90233        0.46997
|  7> C          0.69721        3.22791       -0.52513
|  8> O          1.48929        2.37470        0.19919
|  9> H          0.71600        4.26403       -0.13077
| 10> H          1.03615        3.33092       -1.58367
| 11> H         -0.56808        1.20618       -1.96322
| 12> H         -1.99081        1.08225       -0.95647
| 13> H         -0.41866        0.69710       -0.29841
| 14> *
| 15>
| 16> %MaxCore 64000
| 17> %pal nprocs 4
| 18> end
| 19>
| 20> %scf
| 21>   MaxIter 150
| 22> end
| 23>
| 24>
| 25>                          ****END OF INPUT****

CARTESIAN COORDINATES (ANGSTROEM)
---------------------------------
  C     -0.951210    1.334980   -0.972500
  C     -0.774550    2.788330   -0.543940
  H     -1.352610    3.459370   -1.192590
  H     -1.171010    2.902330    0.469970
  C      0.697210    3.227910   -0.525130
  O      1.489290    2.374700    0.199190
  H      0.716000    4.264030   -0.130770
  H      1.036150    3.330920   -1.583670
  H     -0.568080    1.206180   -1.963220
  H     -1.990810    1.082250   -0.956470
  H     -0.418660    0.697100   -0.298410

 Total Charge           Charge          ....   -1
 Multiplicity           Mult            ....    1
 Number of Electrons    NEL             ....   34
 Basis Dimension        Dim             ....  139

ORBITAL ENERGIES
----------------

  NO   OCC          E(Eh)            E(eV)
   0   2.0000     -18.887672      -513.9597
   1   2.0000     -10.047777      -273.4139
   2   2.0000     -10.046503      -273.3792
   3   2.0000     -10.040815      -273.2245
   4   2.0000      -0.701419       -19.0866
   5   2.0000      -0.597364       -16.2551
   6   2.0000      -0.481088       -13.0911
   7   2.0000      -0.375809       -10.2263
   8   2.0000      -0.287277        -7.8172
   9   2.0000      -0.278116        -7.5679
  10   2.0000      -0.228839        -6.2270
  11   2.0000      -0.199739        -5.4352
  12   2.0000      -0.173432        -4.7193
  13   2.0000      -0.161167        -4.3856
  14   2.0000      -0.126007        -3.4288
  15   2.0000       0.014739         0.4011
  16   2.0000       0.018039         0.4909
  17   0.0000       0.173221         4.7136
  18   0.0000       0.197517         5.3747
  19   0.0000       0.214169         5.8278
  20   0.0000       0.240129         6.5343
  21   0.0000       0.259073         7.0497

MULLIKEN ATOMIC CHARGES
-----------------------
   0 C :    0.471657
   1 C :   -0.685949
   2 H :   -0.020843
   3 H :    0.002737
   4 C :    0.387614
   5 O :   -0.939940
   6 H :   -0.106556
   7 H :   -0.062333
   8 H :   -0.025519
   9 H :   -0.043510
  10 H :    0.022642
Sum of atomic charges:   -1.0000000

LOEWDIN ATOMIC CHARGES
----------------------
   0 C :    0.079651
   1 C :   -0.124081
   2 H :   -0.010193
   3 H :    0.002293
   4 C :   -0.217456
   5 O :   -0.560614
   6 H :   -0.032216
   7 H :   -0.026075
   8 H :   -0.030714
   9 H :   -0.048032
  10 H :   -0.032563

  Mayer bond orders larger than 0.100000
B(  0-C ,  1-C ) :   1.2701 B(  0-C ,  8-H ) :   0.8505 B(  0-C ,  9-H ) :   0.8269
B(  0-C , 10-H ) :   0.8500 B(  1-C ,  2-H ) :   1.0264 B(  1-C ,  3-H ) :   0.9867
B(  1-C ,  4-C ) :   1.0713 B(  1-C ,  5-O ) :   0.1257 B(  1-C ,  6-H ) :   0.1349
B(  1-C ,  7-H ) :   0.1246 B(  1-C ,  8-H ) :   0.1839 B(  1-C ,  9-H ) :   0.1751
B(  1-C , 10-H ) :   0.1927 B(  3-H ,  4-C ) :   0.1088 B(  4-C ,  5-O ) :   1.0834
B(  4-C ,  6-H ) :   0.9640 B(  4-C ,  7-H ) :   0.9635

Dispersion correction           -0.005488856
FINAL SINGLE POINT ENERGY      -193.384825719955

DIPOLE MOMENT
-------------
                                X             Y             Z
Electronic contribution:      2.53247       0.01170       1.45954
Nuclear contribution   :     -4.35230      -0.04018      -2.29108
                        -----------------------------------------
Total Dipole Moment    :     -1.81983      -0.02849      -0.83154
                        -----------------------------------------
Magnitude (a.u.)       :      2.00102
Magnitude (Debye)      :      5.08618

Rotational constants in cm-1:     0.489965     0.184028     0.151025
Rotational constants in MHz : 14688.769521  5517.006179  4527.605157

                             ****ORCA TERMINATED NORMALLY****
TOTAL RUN TIME: 0 days 0 hours 0 minutes 10 seconds 203 msec
