                         Program Version 5.0.0 -  RELEASE  -
|  1> !PBE0 D3BJ RIJCOSX def2-SVPD def2/J TightSCF
|  2> *xyz 1 1
|  3> C          3.95643        0.50147       -0.37910
|  4> H          3.16840        0.02920        0.20738
|  5> N          3.80389        1.96157       -0.15675
|  6> C          3.84232        0.14849       -1.85406
|  7> H          4.92323        0.17798        0.00937
|  8> H          4.62002        0.69450       -2.40215
|  9> H          4.09601       -0.91093       -1.95510
| 10> C          2.47562        0.41271       -2.48538
| 11> H          4.20643        2.24441        0.74536
| 12> H          2.80827        2.21132       -0.09610
| 13> H          4.28076        2.50155       -0.89104
| 14> H          2.49958        0.13290       -3.51787
| 15> H          2.23992        1.45318       -2.40319
| 16> H          1.73061       -0.16300       -1.97702
| 17> *
| 18>
| 19> %MaxCore 64000
| 20> %pal nprocs 4
| 21> end
| 22>
| 23> %scf
| 24>   MaxIter 150
| 25> end
| 26>
| 27>
| 28>                          ****END OF INPUT****

CARTESIAN COORDINATES (ANGSTROEM)
---------------------------------
  C      3.956430    0.501470   -0.379100
  H      3.168400    0.029200    0.207380
  N      3.803890    1.961570   -0.156750
  C      3.842320    0.148490   -1.854060
  H      4.923230    0.177980    0.009370
  H      4.620020    0.694500   -2.402150
  H      4.096010   -0.910930   -1.955100
  C      2.475620    0.412710   -2.485380
  H      4.206430    2.244410    0.745360
  H      2.808270    2.211320   -0.096100
  H      4.280760    2.501550   -0.891040
  H      2.499580    0.132900   -3.517870
  H      2.239920    1.453180   -2.403190
  H      1.730610   -0.163000   -1.977020

 Total Charge           Charge          ....    1
 Multiplicity           Mult            ....    1
 Number of Electrons    NEL             ....   34
 Basis Dimension        Dim             ....  160

ORBITAL ENERGIES
----------------

  NO   OCC          E(Eh)            E(eV)
   0   2.0000     -14.727650      -400.7597
   1   2.0000     -10.480410      -285.1865
   2   2.0000     -10.412730      -283.3448
   3   2.0000     -10.377598      -282.3888
   4   2.0000      -1.230871       -33.4937
   5   2.0000      -0.991291       -26.9744
   6   2.0000      -0.899282       -24.4707
   7   2.0000      -0.824379       -22.4325
   8   2.0000      -0.805045       -21.9064
   9   2.0000      -0.785713       -21.3803
  10   2.0000      -0.704759       -19.1775
  11   2.0000      -0.645487       -17.5646
  12   2.0000      -0.622630       -16.9426
  13   2.0000      -0.599704       -16.3188
  14   2.0000      -0.539057       -14.6685
  15   2.0000      -0.532730       -14.4963
  16   2.0000      -0.524794       -14.2804
  17   0.0000      -0.181407        -4.9363
  18   0.0000      -0.125777        -3.4226
  19   0.0000      -0.123134        -3.3506
  20   0.0000      -0.110132        -2.9968
  21   0.0000      -0.085286        -2.3208

MULLIKEN ATOMIC CHARGES
-----------------------
   0 C :    0.522173
   1 H :   -0.004437
   2 N :   -0.803743
   3 C :   -0.508772
   4 H :   -0.004248
   5 H :    0.014043
   6 H :    0.000367
   7 C :    0.582437
   8 H :    0.343581
   9 H :    0.399397
  10 H :    0.428038
  11 H :    0.016357
  12 H :   -0.041243
  13 H :    0.056050
Sum of atomic charges:    1.0000000

LOEWDIN ATOMIC CHARGES
----------------------
   0 C :    0.083680
   1 H :    0.056189
   2 N :    0.329246
   3 C :   -0.055891
   4 H :    0.055786
   5 H :    0.036538
   6 H :    0.048321
   7 C :    0.144388
   8 H :    0.106482
   9 H :    0.104080
  10 H :    0.106620
  11 H :    0.007065
  12 H :   -0.022554
  13 H :    0.000049

  Mayer bond orders larger than 0.100000
B(  0-C ,  1-H ) :   0.8833 B(  0-C ,  2-N ) :   0.7625 B(  0-C ,  3-C ) :   1.1613
B(  0-C ,  4-H ) :   0.9363 B(  0-C ,  6-H ) :   0.1016 B(  1-H ,  2-N ) :   0.1173
B(  2-N ,  8-H ) :   0.8005 B(  2-N ,  9-H ) :   0.7574 B(  2-N , 10-H ) :   0.6825
B(  3-C ,  5-H ) :   0.9501 B(  3-C ,  6-H ) :   0.9961 B(  3-C ,  7-C ) :   1.2997
B(  3-C , 11-H ) :   0.1766 B(  3-C , 12-H ) :   0.1704 B(  3-C , 13-H ) :   0.1664
B(  7-C , 11-H ) :   0.8236 B(  7-C , 12-H ) :   0.8526 B(  7-C , 13-H ) :   0.8256

Dispersion correction           -0.007771125
FINAL SINGLE POINT ENERGY      -174.527046502655

DIPOLE MOMENT
-------------
                                X             Y             Z
Electronic contribution:      1.01387       1.16924       1.82748
Nuclear contribution   :     -0.57302       0.26376      -0.39709
                        -----------------------------------------
Total Dipole Moment    :      0.44085       1.43300       1.43038
                        -----------------------------------------
Magnitude (a.u.)       :      2.07216
Magnitude (Debye)      :      5.26700

Rotational constants in cm-1:     0.449370     0.157244     0.134525
Rotational constants in MHz : 13471.775278  4714.062641  4032.958796

                             ****ORCA TERMINATED NORMALLY****
TOTAL RUN TIME: 0 days 0 hours 0 minutes 11 seconds 178 msec
