                         Program Version 5.0.0 -  RELEASE  -
|  1> !PBE0 D3BJ RIJCOSX def2-SVPD def2/J TightSCF xyzfile
|  2>
|  3> *xyzfile 0 1 B.xyz
|  4>
|  5> %MaxCore 64000
|  6>
|  7> %pal nprocs 4
|  8> end
|  9>
| 10> %scf
| 11>   MaxIter 150
| 12> end
| 13>
| 14>
| 15>                          ****END OF INPUT****

CARTESIAN COORDINATES (ANGSTROEM)
---------------------------------
  C      3.956426    0.501466   -0.379100
  H      3.168398    0.029201    0.207383
  N      3.803893    1.961572   -0.156747
  C      3.842322    0.148490   -1.854058
  H      4.923231    0.177982    0.009371
  H      4.620021    0.694502   -2.402150
  H      4.096015   -0.910930   -1.955103
  C      2.475619    0.412708   -2.485377
  H      2.174689    1.445076   -2.287971
  C      1.383931   -0.532740   -1.995203
  H      2.575613    0.318574   -3.571460
  H      1.264698   -0.412309   -0.915491
  H      1.705223   -1.566885   -2.164984
  C      0.031398   -0.317260   -2.677791
  C     -0.587292    1.060853   -2.436460
  H     -0.662815   -1.089530   -2.329985
  H      0.149465   -0.478040   -3.755648
  H      0.104376    1.828590   -2.793130
  C     -0.951213    1.334978   -0.972500
  H     -1.478832    1.161355   -3.062484
  H     -0.317007    0.741648   -0.311389
  H     -1.980916    1.012842   -0.788958
  C     -0.774550    2.788332   -0.543943
  H     -1.352609    3.459372   -1.192585
  H     -1.171014    2.902331    0.469968
  C      0.697208    3.227911   -0.525126
  O      1.489294    2.374703    0.199189
  H      0.715998    4.264030   -0.130774
  H      1.036148    3.330920   -1.583669
  H      4.206425    2.244406    0.745359
  H      2.808269    2.211323   -0.096097
  H      4.280757    2.501552   -0.891037

 Total Charge           Charge          ....    0
 Multiplicity           Mult            ....    1
 Number of Electrons    NEL             ....   90
 Basis Dimension        Dim             ....  391

ORBITAL ENERGIES
----------------

  NO   OCC          E(Eh)            E(eV)
   0   2.0000     -19.088823      -519.4333
   1   2.0000     -14.476853      -393.9352
   2   2.0000     -10.300902      -280.3018
   3   2.0000     -10.257311      -279.1156
   4   2.0000     -10.231466      -278.4123
   5   2.0000     -10.218996      -278.0730
   6   2.0000     -10.215819      -277.9866
   7   2.0000     -10.213150      -277.9139
   8   2.0000     -10.200786      -277.5775
   9   2.0000     -10.187725      -277.2221
  10   2.0000     -10.180465      -277.0245
  11   2.0000      -1.007931       -27.4272
  12   2.0000      -0.907151       -24.6848
  13   2.0000      -0.835540       -22.7362
  14   2.0000      -0.796010       -21.6605
  15   2.0000      -0.757457       -20.6114
  16   2.0000      -0.714037       -19.4299
  17   2.0000      -0.675850       -18.3908
  18   2.0000      -0.636735       -17.3264
  19   2.0000      -0.608298       -16.5526
  20   2.0000      -0.587452       -15.9854
  21   2.0000      -0.583738       -15.8843
  22   2.0000      -0.560488       -15.2517
  23   2.0000      -0.522891       -14.2286
  24   2.0000      -0.507878       -13.8201
  25   2.0000      -0.481796       -13.1103
  26   2.0000      -0.481304       -13.0969
  27   2.0000      -0.451078       -12.2745
  28   2.0000      -0.437077       -11.8935
  29   2.0000      -0.432292       -11.7633
  30   2.0000      -0.414296       -11.2736
  31   2.0000      -0.404335       -11.0025
  32   2.0000      -0.394756       -10.7418
  33   2.0000      -0.377411       -10.2699
  34   2.0000      -0.368271       -10.0212
  35   2.0000      -0.356874        -9.7110
  36   2.0000      -0.348701        -9.4886
  37   2.0000      -0.336794        -9.1646
  38   2.0000      -0.328160        -8.9297
  39   2.0000      -0.322314        -8.7706
  40   2.0000      -0.300835        -8.1861
  41   2.0000      -0.296256        -8.0615
  42   2.0000      -0.291678        -7.9370
  43   2.0000      -0.194850        -5.3021
  44   2.0000      -0.186673        -5.0796
  45   0.0000      -0.006116        -0.1664
  46   0.0000       0.027045         0.7359
  47   0.0000       0.032257         0.8778
  48   0.0000       0.046023         1.2523
  49   0.0000       0.059694         1.6244

MULLIKEN ATOMIC CHARGES
-----------------------
   0 C :    0.740742
   1 H :    0.080133
   2 N :   -0.150479
   3 C :    0.087633
   4 H :   -0.208994
   5 H :   -0.010818
   6 H :   -0.008236
   7 C :    0.237725
   8 H :   -0.389759
   9 C :   -0.212772
  10 H :   -0.028031
  11 H :    0.031023
  12 H :   -0.081831
  13 C :    0.427261
  14 C :   -0.014814
  15 H :   -0.127472
  16 H :    0.092730
  17 H :   -0.009602
  18 C :   -0.038253
  19 H :   -0.169580
  20 H :    0.020471
  21 H :   -0.083270
  22 C :    0.085216
  23 H :   -0.071437
  24 H :    0.104542
  25 C :    0.388058
  26 O :   -0.764399
  27 H :   -0.282176
  28 H :    0.113683
  29 H :    0.347642
  30 H :   -0.466150
  31 H :    0.361214
Sum of atomic charges:    0.0000000

LOEWDIN ATOMIC CHARGES
----------------------
   0 C :    0.085848
   1 H :    0.040239
   2 N :    0.313526
   3 C :   -0.022318
   4 H :    0.029581
   5 H :    0.023438
   6 H :    0.030636
   7 C :   -0.022804
   8 H :   -0.001484
   9 C :   -0.031569
  10 H :    0.031244
  11 H :    0.004774
  12 H :    0.024677
  13 C :   -0.035564
  14 C :   -0.025872
  15 H :    0.024626
  16 H :    0.020408
  17 H :   -0.004231
  18 C :   -0.030886
  19 H :    0.020056
  20 H :   -0.004387
  21 H :    0.018133
  22 C :   -0.036779
  23 H :    0.020522
  24 H :    0.022272
  25 C :   -0.077531
  26 O :   -0.391387
  27 H :    0.006662
  28 H :   -0.006800
  29 H :    0.088148
  30 H :   -0.197817
  31 H :    0.084641

  Mayer bond orders larger than 0.100000
B(  0-C ,  1-H ) :   0.7918 B(  0-C ,  2-N ) :   0.8108 B(  0-C ,  3-C ) :   1.1596
B(  0-C ,  4-H ) :   0.9086 B(  0-C ,  6-H ) :   0.1165 B(  1-H ,  2-N ) :   0.1113
B(  1-H ,  3-C ) :   0.1052 B(  1-H ,  4-H ) :  -0.1063 B(  2-N , 26-O ) :  -0.1305
B(  2-N , 29-H ) :   0.8073 B(  2-N , 30-H ) :   1.3955 B(  2-N , 31-H ) :   0.7732
B(  3-C ,  5-H ) :   0.7913 B(  3-C ,  6-H ) :   0.9016 B(  3-C ,  7-C ) :   1.1949
B(  5-H ,  7-C ) :   0.2000 B(  7-C ,  8-H ) :   0.9018 B(  7-C ,  9-C ) :   1.2072
B(  7-C , 10-H ) :   0.7308 B(  7-C , 11-H ) :   0.1112 B(  7-C , 12-H ) :   0.1448
B(  8-H ,  9-C ) :   0.2063 B(  8-H , 10-H ) :   0.1473 B(  9-C , 10-H ) :   0.1440
B(  9-C , 11-H ) :   0.8606 B(  9-C , 12-H ) :   0.9142 B(  9-C , 13-C ) :   1.2023
B(  9-C , 15-H ) :   0.2445 B(  9-C , 16-H ) :   0.1246 B( 11-H , 20-H ) :   0.1398
B( 13-C , 14-C ) :   1.1928 B( 13-C , 15-H ) :   0.7847 B( 13-C , 16-H ) :   0.7149
B( 13-C , 17-H ) :   0.1028 B( 14-C , 15-H ) :   0.1095 B( 14-C , 16-H ) :   0.1893
B( 14-C , 17-H ) :   0.8898 B( 14-C , 18-C ) :   1.2215 B( 14-C , 19-H ) :   0.8833
B( 14-C , 21-H ) :   0.1989 B( 15-H , 16-H ) :  -0.1005 B( 17-H , 18-C ) :   0.1028
B( 18-C , 19-H ) :   0.1793 B( 18-C , 20-H ) :   0.8491 B( 18-C , 21-H ) :   0.8383
B( 18-C , 22-C ) :   1.2662 B( 18-C , 23-H ) :   0.1158 B( 18-C , 24-H ) :   0.1856
B( 20-H , 22-C ) :   0.1238 B( 21-H , 22-C ) :   0.1082 B( 22-C , 23-H ) :   0.8836
B( 22-C , 24-H ) :   0.7115 B( 22-C , 25-C ) :   1.1856 B( 23-H , 25-C ) :   0.1603
B( 24-H , 25-C ) :   0.1132 B( 25-C , 26-O ) :   0.9119 B( 25-C , 27-H ) :   1.0492
B( 25-C , 28-H ) :   0.7961 B( 26-O , 30-H ) :   0.4002

Dispersion correction           -0.028718452
FINAL SINGLE POINT ENERGY      -484.672327517679

DIPOLE MOMENT
-------------
                                X             Y             Z
Electronic contribution:      2.11675       0.90481       2.55286
Nuclear contribution   :      0.61785      -1.47632      -2.91844
                        -----------------------------------------
Total Dipole Moment    :      2.73459      -0.57151      -0.36558
                        -----------------------------------------
Magnitude (a.u.)       :      2.81749
Magnitude (Debye)      :      7.16150

Rotational constants in cm-1:     0.040993     0.027400     0.018162
Rotational constants in MHz :  1228.944366   821.418004   544.476857

                             ****ORCA TERMINATED NORMALLY****
TOTAL RUN TIME: 0 days 0 hours 2 minutes 3 seconds 171 msec
