                         Program Version 5.0.0 -  RELEASE  -
|  1> !PBE0 D3BJ RIJCOSX def2-SVPD def2/J TightSCF
|  2> *xyz 0 1
|  3> C         -0.95121        1.33498       -0.97250
|  4> C         -0.77455        2.78833       -0.54394
|  5> H         -1.35261        3.45937       -1.19259
|  6> H         -1.17101        2.90233        0.46997
|  7> C          0.69721        3.22791       -0.52513
|  8> F          1.48929        2.37470        0.19919
|  9> H          0.71600        4.26403       -0.13077
| 10> H          1.03615        3.33092       -1.58367
| 11> H         -0.56808        1.20618       -1.96322
| 12> H         -1.99081        1.08225       -0.95647
| 13> H         -0.41866        0.69710       -0.29841
| 14> *
| 15>
| 16> %MaxCore 64000
| 17> %pal nprocs 4
| 18> end
| 19>
| 20> %scf
| 21>   MaxIter 150
| 22> end
| 23>
| 24>
| 25>                          ****END OF INPUT****

CARTESIAN COORDINATES (ANGSTROEM)
---------------------------------
  C     -0.951210    1.334980   -0.972500
  C     -0.774550    2.788330   -0.543940
  H     -1.352610    3.459370   -1.192590
  H     -1.171010    2.902330    0.469970
  C      0.697210    3.227910   -0.525130
  F      1.489290    2.374700    0.199190
  H      0.716000    4.264030   -0.130770
  H      1.036150    3.330920   -1.583670
  H     -0.568080    1.206180   -1.963220
  H     -1.990810    1.082250   -0.956470
  H     -0.418660    0.697100   -0.298410

 Total Charge           Charge          ....    0
 Multiplicity           Mult            ....    1
 Number of Electrons    NEL             ....   34
 Basis Dimension        Dim             ....  139

ORBITAL ENERGIES
----------------

  NO   OCC          E(Eh)            E(eV)
   0   2.0000     -24.773822      -674.1300
   1   2.0000     -10.311478      -280.5896
   2   2.0000     -10.239645      -278.6349
   3   2.0000     -10.218452      -278.0582
   4   2.0000      -1.216538       -33.1037
   5   2.0000      -0.806980       -21.9590
   6   2.0000      -0.706016       -19.2117
   7   2.0000      -0.610757       -16.6195
   8   2.0000      -0.528135       -14.3713
   9   2.0000      -0.510301       -13.8860
  10   2.0000      -0.488878       -13.3031
  11   2.0000      -0.451095       -12.2749
  12   2.0000      -0.414183       -11.2705
  13   2.0000      -0.389730       -10.6051
  14   2.0000      -0.367348        -9.9961
  15   2.0000      -0.340905        -9.2765
  16   2.0000      -0.337681        -9.1888
  17   0.0000       0.028430         0.7736
  18   0.0000       0.054402         1.4804
  19   0.0000       0.064430         1.7532
  20   0.0000       0.077121         2.0986
  21   0.0000       0.099069         2.6958

MULLIKEN ATOMIC CHARGES
-----------------------
   0 C :    0.484045
   1 C :   -0.660958
   2 H :   -0.011664
   3 H :    0.002262
   4 C :    0.675048
   5 F :   -0.483697
   6 H :   -0.019533
   7 H :    0.020073
   8 H :   -0.009340
   9 H :   -0.017847
  10 H :    0.021610
Sum of atomic charges:   -0.0000000

LOEWDIN ATOMIC CHARGES
----------------------
   0 C :    0.115938
   1 C :   -0.075182
   2 H :    0.029640
   3 H :    0.024023
   4 C :    0.098561
   5 F :   -0.216168
   6 H :    0.031249
   7 H :    0.038191
   8 H :   -0.014021
   9 H :   -0.017144
  10 H :   -0.015087

  Mayer bond orders larger than 0.100000
B(  0-C ,  1-C ) :   1.3010 B(  0-C ,  8-H ) :   0.8471 B(  0-C ,  9-H ) :   0.8460
B(  0-C , 10-H ) :   0.8489 B(  1-C ,  2-H ) :   0.9905 B(  1-C ,  3-H ) :   0.9734
B(  1-C ,  4-C ) :   1.1917 B(  1-C ,  8-H ) :   0.1640 B(  1-C ,  9-H ) :   0.1627
B(  1-C , 10-H ) :   0.1652 B(  4-C ,  5-F ) :   0.6702 B(  4-C ,  6-H ) :   0.9261
B(  4-C ,  7-H ) :   0.9149

Dispersion correction           -0.005171288
FINAL SINGLE POINT ENERGY      -217.983189312218

DIPOLE MOMENT
-------------
                                X             Y             Z
Electronic contribution:      5.50535       0.35097       2.74046
Nuclear contribution   :     -6.00193       0.02246      -3.08821
                        -----------------------------------------
Total Dipole Moment    :     -0.49658       0.37343      -0.34775
                        -----------------------------------------
Magnitude (a.u.)       :      0.71202
Magnitude (Debye)      :      1.80981

Rotational constants in cm-1:     0.475356     0.173608     0.142756
Rotational constants in MHz : 14250.818869  5204.623090  4279.716550

                             ****ORCA TERMINATED NORMALLY****
TOTAL RUN TIME: 0 days 0 hours 0 minutes 8 seconds 339 msec
