                         Program Version 5.0.0 -  RELEASE  -
|  1> !PBE0 D3BJ RIJCOSX def2-SVPD def2/J TightSCF
|  2> *xyz 0 1
|  3> C          3.95643        0.50147       -0.37910
|  4> H          3.16840        0.02920        0.20738
|  5> C          3.80389        1.96157       -0.15675
|  6> C          3.84232        0.14849       -1.85406
|  7> H          4.92323        0.17798        0.00937
|  8> H          4.62002        0.69450       -2.40215
|  9> H          4.09601       -0.91093       -1.95510
| 10> C          2.47562        0.41271       -2.48538
| 11> H          4.20643        2.24441        0.74536
| 12> H          2.80827        2.21132       -0.09610
| 13> H          4.28076        2.50155       -0.89104
| 14> H          2.49958        0.13290       -3.51787
| 15> H          2.23992        1.45318       -2.40319
| 16> H          1.73061       -0.16300       -1.97702
| 17> *
| 18>
| 19> %MaxCore 64000
| 20> %pal nprocs 4
| 21> end
| 22>
| 23> %scf
| 24>   MaxIter 150
| 25> end
| 26>
| 27>
| 28>                          ****END OF INPUT****

CARTESIAN COORDINATES (ANGSTROEM)
---------------------------------
  C      3.956430    0.501470   -0.379100
  H      3.168400    0.029200    0.207380
  C      3.803890    1.961570   -0.156750
  C      3.842320    0.148490   -1.854060
  H      4.923230    0.177980    0.009370
  H      4.620020    0.694500   -2.402150
  H      4.096010   -0.910930   -1.955100
  C      2.475620    0.412710   -2.485380
  H      4.206430    2.244410    0.745360
  H      2.808270    2.211320   -0.096100
  H      4.280760    2.501550   -0.891040
  H      2.499580    0.132900   -3.517870
  H      2.239920    1.453180   -2.403190
  H      1.730610   -0.163000   -1.977020

 Total Charge           Charge          ....    0
 Multiplicity           Mult            ....    1
 Number of Electrons    NEL             ....   34
 Basis Dimension        Dim             ....  160

ORBITAL ENERGIES
----------------

  NO   OCC          E(Eh)            E(eV)
   0   2.0000     -10.222374      -278.1650
   1   2.0000     -10.217810      -278.0408
   2   2.0000     -10.211945      -277.8812
   3   2.0000     -10.192581      -277.3542
   4   2.0000      -0.820181       -22.3183
   5   2.0000      -0.744818       -20.2675
   6   2.0000      -0.658348       -17.9146
   7   2.0000      -0.579306       -15.7637
   8   2.0000      -0.479250       -13.0410
   9   2.0000      -0.475918       -12.9504
  10   2.0000      -0.439719       -11.9654
  11   2.0000      -0.402395       -10.9497
  12   2.0000      -0.395834       -10.7712
  13   2.0000      -0.375061       -10.2059
  14   2.0000      -0.335173        -9.1205
  15   2.0000      -0.332124        -9.0375
  16   2.0000      -0.329993        -8.9796
  17   0.0000       0.032862         0.8942
  18   0.0000       0.059858         1.6288
  19   0.0000       0.060087         1.6350
  20   0.0000       0.069116         1.8807
  21   0.0000       0.102311         2.7840

MULLIKEN ATOMIC CHARGES
-----------------------
   0 C :   -0.356988
   1 H :   -0.006622
   2 C :    0.822107
   3 C :   -0.477148
   4 H :   -0.050956
   5 H :    0.055434
   6 H :   -0.056721
   7 C :    0.535408
   8 H :   -0.247643
   9 H :   -0.067576
  10 H :   -0.140206
  11 H :   -0.002759
  12 H :   -0.028126
  13 H :    0.021797
Sum of atomic charges:   -0.0000000

LOEWDIN ATOMIC CHARGES
----------------------
   0 C :   -0.085255
   1 H :    0.025697
   2 C :    0.111617
   3 C :   -0.092647
   4 H :    0.024184
   5 H :    0.023950
   6 H :    0.016445
   7 C :    0.121325
   8 H :   -0.033614
   9 H :   -0.029482
  10 H :   -0.026553
  11 H :   -0.018136
  12 H :   -0.022849
  13 H :   -0.014680

  Mayer bond orders larger than 0.100000
B(  0-C ,  1-H ) :   0.9030 B(  0-C ,  2-C ) :   1.2769 B(  0-C ,  3-C ) :   1.1548
B(  0-C ,  4-H ) :   0.9575 B(  0-C ,  6-H ) :   0.1229 B(  0-C ,  8-H ) :   0.2126
B(  0-C ,  9-H ) :   0.2346 B(  0-C , 10-H ) :   0.2229 B(  1-H ,  2-C ) :   0.1259
B(  1-H ,  3-C ) :   0.1168 B(  2-C ,  8-H ) :   0.7628 B(  2-C ,  9-H ) :   0.7221
B(  2-C , 10-H ) :   0.7709 B(  3-C ,  5-H ) :   0.9121 B(  3-C ,  6-H ) :   0.9918
B(  3-C ,  7-C ) :   1.3024 B(  3-C , 11-H ) :   0.1848 B(  3-C , 12-H ) :   0.1828
B(  3-C , 13-H ) :   0.1735 B(  7-C , 11-H ) :   0.7933 B(  7-C , 12-H ) :   0.8728
B(  7-C , 13-H ) :   0.8261

Dispersion correction           -0.007803547
FINAL SINGLE POINT ENERGY      -158.136759171224

DIPOLE MOMENT
-------------
                                X             Y             Z
Electronic contribution:      0.49749      -0.62634       0.09812
Nuclear contribution   :     -0.48267       0.62853      -0.07145
                        -----------------------------------------
Total Dipole Moment    :      0.01482       0.00219       0.02667
                        -----------------------------------------
Magnitude (a.u.)       :      0.03059
Magnitude (Debye)      :      0.07774

Rotational constants in cm-1:     0.457318     0.164089     0.140183
Rotational constants in MHz : 13710.038687  4919.250587  4202.581436

                             ****ORCA TERMINATED NORMALLY****
TOTAL RUN TIME: 0 days 0 hours 0 minutes 11 seconds 226 msec
