                         Program Version 5.0.0 -  RELEASE  -
|  1> !CAM-B3LYP RIJCOSX def2-SVPD def2/J TightSCF
|  2> *xyz -1 1
|  3> C          4.26524        2.50052       -0.79589
|  4> C          4.98224        1.65026        0.24742
|  5> O          4.36806        1.38927        1.31371
|  6> O          6.12892        1.23351       -0.04562
|  7> H          4.90412        2.63966       -1.64287
|  8> H          4.02079        3.45265       -0.37328
|  9> H          3.36773        2.00584       -1.10356
| 10> *
| 11> %MaxCore 64000
| 12> %pal nprocs 8
| 13> end
| 14> %scf
| 15>   MaxIter 150
| 16> end
| 17>
| 18>
| 19>                          ****END OF INPUT****

CARTESIAN COORDINATES (ANGSTROEM)
---------------------------------
  C      4.265240    2.500520   -0.795890
  C      4.982240    1.650260    0.247420
  O      4.368060    1.389270    1.313710
  O      6.128920    1.233510   -0.045620
  H      4.904120    2.639660   -1.642870
  H      4.020790    3.452650   -0.373280
  H      3.367730    2.005840   -1.103560

 Total Charge           Charge          ....   -1
 Multiplicity           Mult            ....    1
 Number of Electrons    NEL             ....   32
 Basis Dimension        Dim             ....  110

ORBITAL ENERGIES
----------------

  NO   OCC          E(Eh)            E(eV)
   0   2.0000     -18.949458      -515.6410
   1   2.0000     -18.948302      -515.6095
   2   2.0000     -10.147579      -276.1297
   3   2.0000     -10.072750      -274.0935
   4   2.0000      -0.891869       -24.2690
   5   2.0000      -0.796002       -21.6603
   6   2.0000      -0.621274       -16.9057
   7   2.0000      -0.375260       -10.2114
   8   2.0000      -0.332292        -9.0421
   9   2.0000      -0.316775        -8.6199
  10   2.0000      -0.297148        -8.0858
  11   2.0000      -0.254611        -6.9283
  12   2.0000      -0.235191        -6.3999
  13   2.0000      -0.111965        -3.0467
  14   2.0000      -0.109043        -2.9672
  15   2.0000      -0.093739        -2.5508
  16   0.0000       0.199390         5.4257
  17   0.0000       0.238433         6.4881
  18   0.0000       0.257097         6.9960
  19   0.0000       0.269874         7.3437
  20   0.0000       0.294296         8.0082

MULLIKEN ATOMIC CHARGES
-----------------------
   0 C :    0.676385
   1 C :   -0.002594
   2 O :   -0.653554
   3 O :   -0.626502
   4 H :   -0.146036
   5 H :   -0.123375
   6 H :   -0.124324
Sum of atomic charges:   -1.0000000

LOEWDIN ATOMIC CHARGES
----------------------
   0 C :    0.143722
   1 C :   -0.344437
   2 O :   -0.344559
   3 O :   -0.339869
   4 H :   -0.042931
   5 H :   -0.036580
   6 H :   -0.035345

  Mayer bond orders larger than 0.100000
B(  0-C ,  1-C ) :   1.1804 B(  0-C ,  4-H ) :   0.8298 B(  0-C ,  5-H ) :   0.7779
B(  0-C ,  6-H ) :   0.7837 B(  1-C ,  2-O ) :   1.5279 B(  1-C ,  3-O ) :   1.5255
B(  1-C ,  4-H ) :   0.2772 B(  1-C ,  5-H ) :   0.1891 B(  1-C ,  6-H ) :   0.1840

FINAL SINGLE POINT ENERGY      -228.282602737519

DIPOLE MOMENT
-------------
                                X             Y             Z
Electronic contribution:      1.67141      -1.97848       2.40393
Nuclear contribution   :     -2.34880       2.82033      -3.41655
                        -----------------------------------------
Total Dipole Moment    :     -0.67739       0.84184      -1.01262
                        -----------------------------------------
Magnitude (a.u.)       :      1.48087
Magnitude (Debye)      :      3.76406

Rotational constants in cm-1:     0.393413     0.334516     0.186969
Rotational constants in MHz : 11794.232386 10028.538646  5605.197050

                             ****ORCA TERMINATED NORMALLY****
TOTAL RUN TIME: 0 days 0 hours 0 minutes 6 seconds 780 msec
