                         Program Version 5.0.0 -  RELEASE  -
|  1> !CAM-B3LYP RIJCOSX def2-SVPD def2/J TightSCF
|  2> *xyz 1 1
|  3> C          3.91385       -1.65829        3.01513
|  4> N          5.03927       -0.90115        2.49282
|  5> C          6.21038       -1.41726        2.17824
|  6> N          6.53591       -2.67712        2.55608
|  7> N          7.07675       -0.70082        1.47891
|  8> H          7.95464       -1.12155        1.20755
|  9> H          6.75616        0.10664        0.96028
| 10> H          4.84217        0.01761        2.11519
| 11> H          5.99388       -3.12692        3.28278
| 12> H          7.49844       -2.97548        2.46878
| 13> H          3.08844       -0.99893        3.18495
| 14> H          4.19412       -2.12366        3.93697
| 15> H          3.63051       -2.40965        2.30798
| 16> *
| 17> %MaxCore 64000
| 18> %pal nprocs 8
| 19> end
| 20> %scf
| 21>   MaxIter 150
| 22> end
| 23>
| 24>
| 25>                          ****END OF INPUT****

CARTESIAN COORDINATES (ANGSTROEM)
---------------------------------
  C      3.913850   -1.658290    3.015130
  N      5.039270   -0.901150    2.492820
  C      6.210380   -1.417260    2.178240
  N      6.535910   -2.677120    2.556080
  N      7.076750   -0.700820    1.478910
  H      7.954640   -1.121550    1.207550
  H      6.756160    0.106640    0.960280
  H      4.842170    0.017610    2.115190
  H      5.993880   -3.126920    3.282780
  H      7.498440   -2.975480    2.468780
  H      3.088440   -0.998930    3.184950
  H      4.194120   -2.123660    3.936970
  H      3.630510   -2.409650    2.307980

 Total Charge           Charge          ....    1
 Multiplicity           Mult            ....    1
 Number of Electrons    NEL             ....   40
 Basis Dimension        Dim             ....  164

ORBITAL ENERGIES
----------------

  NO   OCC          E(Eh)            E(eV)
   0   2.0000     -14.638035      -398.3212
   1   2.0000     -14.634274      -398.2188
   2   2.0000     -14.633317      -398.1928
   3   2.0000     -10.604813      -288.5716
   4   2.0000     -10.466391      -284.8050
   5   2.0000      -1.299686       -35.3663
   6   2.0000      -1.187279       -32.3075
   7   2.0000      -1.170384       -31.8478
   8   2.0000      -0.986824       -26.8528
   9   2.0000      -0.904442       -24.6111
  10   2.0000      -0.865876       -23.5617
  11   2.0000      -0.831455       -22.6251
  12   2.0000      -0.768567       -20.9138
  13   2.0000      -0.762382       -20.7455
  14   2.0000      -0.731732       -19.9114
  15   2.0000      -0.717428       -19.5222
  16   2.0000      -0.664958       -18.0944
  17   2.0000      -0.650171       -17.6920
  18   2.0000      -0.550362       -14.9761
  19   2.0000      -0.525565       -14.3013
  20   0.0000      -0.130161        -3.5419
  21   0.0000      -0.124434        -3.3860
  22   0.0000      -0.085661        -2.3310
  23   0.0000      -0.083443        -2.2706
  24   0.0000      -0.054857        -1.4927

MULLIKEN ATOMIC CHARGES
-----------------------
   0 C :    1.258070
   1 N :   -0.426194
   2 C :    1.135753
   3 N :    0.056769
   4 N :    0.081561
   5 H :   -0.064969
   6 H :   -0.071403
   7 H :   -0.234080
   8 H :   -0.079796
   9 H :   -0.117498
  10 H :   -0.368731
  11 H :   -0.100200
  12 H :   -0.069283
Sum of atomic charges:    1.0000000

LOEWDIN ATOMIC CHARGES
----------------------
   0 C :    0.251718
   1 N :    0.020885
   2 C :   -0.040543
   3 N :    0.284006
   4 N :    0.265073
   5 H :    0.039882
   6 H :    0.041851
   7 H :    0.059605
   8 H :    0.017812
   9 H :    0.035422
  10 H :    0.014532
  11 H :   -0.000748
  12 H :    0.010504

  Mayer bond orders larger than 0.100000
B(  0-C ,  1-N ) :   0.9641 B(  0-C ,  7-H ) :  -0.1153 B(  0-C , 10-H ) :   0.7686
B(  0-C , 11-H ) :   0.7950 B(  0-C , 12-H ) :   0.8042 B(  1-N ,  2-C ) :   1.1020
B(  1-N ,  3-N ) :   0.2155 B(  1-N ,  4-N ) :   0.2104 B(  1-N ,  7-H ) :   1.2690
B(  1-N , 10-H ) :   0.1893 B(  1-N , 11-H ) :   0.1608 B(  1-N , 12-H ) :   0.1296
B(  2-C ,  3-N ) :   0.9893 B(  2-C ,  4-N ) :   0.9235 B(  2-C ,  5-H ) :  -0.1086
B(  2-C ,  6-H ) :  -0.1427 B(  2-C ,  7-H ) :  -0.2293 B(  2-C ,  8-H ) :  -0.1364
B(  2-C ,  9-H ) :  -0.1122 B(  3-N ,  4-N ) :   0.1332 B(  3-N ,  8-H ) :   1.1079
B(  3-N ,  9-H ) :   1.2015 B(  4-N ,  5-H ) :   1.1651 B(  4-N ,  6-H ) :   1.1809
B(  5-H ,  6-H ) :  -0.1601 B(  8-H ,  9-H ) :  -0.1718

FINAL SINGLE POINT ENERGY      -244.799942410719

DIPOLE MOMENT
-------------
                                X             Y             Z
Electronic contribution:      2.42856       0.85247      -0.96449
Nuclear contribution   :     -2.01473      -0.74897       0.69347
                        -----------------------------------------
Total Dipole Moment    :      0.41383       0.10351      -0.27102
                        -----------------------------------------
Magnitude (a.u.)       :      0.50540
Magnitude (Debye)      :      1.28462

Rotational constants in cm-1:     0.313249     0.134439     0.096258
Rotational constants in MHz :  9390.961986  4030.377472  2885.728233

                             ****ORCA TERMINATED NORMALLY****
TOTAL RUN TIME: 0 days 0 hours 0 minutes 13 seconds 601 msec
