                         Program Version 5.0.0 -  RELEASE  -
|  1> !CAM-B3LYP RIJCOSX def2-SVPD def2/J TightSCF
|  2> *xyz 0 1
|  3> C          4.26524        2.50052       -0.79589
|  4> C          4.98224        1.65026        0.24742
|  5> F          4.36806        1.38927        1.31371
|  6> O          6.12892        1.23351       -0.04562
|  7> H          4.90412        2.63966       -1.64287
|  8> H          4.02079        3.45265       -0.37328
|  9> H          3.36773        2.00584       -1.10356
| 10> *
| 11> %MaxCore 64000
| 12> %pal nprocs 8
| 13> end
| 14> %scf
| 15>   MaxIter 150
| 16> end
| 17>
| 18>
| 19>                          ****END OF INPUT****

CARTESIAN COORDINATES (ANGSTROEM)
---------------------------------
  C      4.265240    2.500520   -0.795890
  C      4.982240    1.650260    0.247420
  F      4.368060    1.389270    1.313710
  O      6.128920    1.233510   -0.045620
  H      4.904120    2.639660   -1.642870
  H      4.020790    3.452650   -0.373280
  H      3.367730    2.005840   -1.103560

 Total Charge           Charge          ....    0
 Multiplicity           Mult            ....    1
 Number of Electrons    NEL             ....   32
 Basis Dimension        Dim             ....  110

ORBITAL ENERGIES
----------------

  NO   OCC          E(Eh)            E(eV)
   0   2.0000     -24.850291      -676.2108
   1   2.0000     -19.228776      -523.2416
   2   2.0000     -10.453008      -284.4408
   3   2.0000     -10.289558      -279.9931
   4   2.0000      -1.393370       -37.9155
   5   2.0000      -1.113055       -30.2878
   6   2.0000      -0.853421       -23.2228
   7   2.0000      -0.739006       -20.1094
   8   2.0000      -0.631755       -17.1909
   9   2.0000      -0.625968       -17.0334
  10   2.0000      -0.579752       -15.7758
  11   2.0000      -0.518595       -14.1117
  12   2.0000      -0.507001       -13.7962
  13   2.0000      -0.479142       -13.0381
  14   2.0000      -0.429123       -11.6770
  15   2.0000      -0.368385       -10.0243
  16   0.0000       0.016902         0.4599
  17   0.0000       0.039593         1.0774
  18   0.0000       0.083072         2.2605
  19   0.0000       0.112400         3.0586
  20   0.0000       0.120646         3.2829

MULLIKEN ATOMIC CHARGES
-----------------------
   0 C :    0.619752
   1 C :    0.360378
   2 F :   -0.352238
   3 O :   -0.416106
   4 H :   -0.118525
   5 H :   -0.047579
   6 H :   -0.045682
Sum of atomic charges:    0.0000000

LOEWDIN ATOMIC CHARGES
----------------------
   0 C :    0.215616
   1 C :   -0.042191
   2 F :   -0.035176
   3 O :   -0.136499
   4 H :    0.000155
   5 H :   -0.001654
   6 H :   -0.000251

  Mayer bond orders larger than 0.100000
B(  0-C ,  1-C ) :   1.2137 B(  0-C ,  4-H ) :   0.8535 B(  0-C ,  5-H ) :   0.7775
B(  0-C ,  6-H ) :   0.7812 B(  1-C ,  2-F ) :   0.7967 B(  1-C ,  3-O ) :   1.8810
B(  1-C ,  4-H ) :   0.2359 B(  1-C ,  5-H ) :   0.1467 B(  1-C ,  6-H ) :   0.1436

FINAL SINGLE POINT ENERGY      -252.817084480824

DIPOLE MOMENT
-------------
                                X             Y             Z
Electronic contribution:      0.75352      -2.50029       4.30322
Nuclear contribution   :     -1.76261       3.13449      -4.58927
                        -----------------------------------------
Total Dipole Moment    :     -1.00909       0.63420      -0.28605
                        -----------------------------------------
Magnitude (a.u.)       :      1.22568
Magnitude (Debye)      :      3.11544

Rotational constants in cm-1:     0.370628     0.320375     0.177409
Rotational constants in MHz : 11111.155899  9604.607061  5318.597912

                             ****ORCA TERMINATED NORMALLY****
TOTAL RUN TIME: 0 days 0 hours 0 minutes 6 seconds 795 msec
