                         Program Version 5.0.0 -  RELEASE  -
|  1> !CAM-B3LYP RIJCOSX def2-SVPD def2/J TightSCF
|  2> *xyz 0 1
|  3> C          3.91385       -1.65829        3.01513
|  4> C          5.03927       -0.90115        2.49282
|  5> C          6.21038       -1.41726        2.17824
|  6> N          6.53591       -2.67712        2.55608
|  7> N          7.07675       -0.70082        1.47891
|  8> H          7.95464       -1.12155        1.20755
|  9> H          6.75616        0.10664        0.96028
| 10> H          4.84217        0.01761        2.11519
| 11> H          5.99388       -3.12692        3.28278
| 12> H          7.49844       -2.97548        2.46878
| 13> H          3.08844       -0.99893        3.18495
| 14> H          4.19412       -2.12366        3.93697
| 15> H          3.63051       -2.40965        2.30798
| 16> *
| 17> %MaxCore 64000
| 18> %pal nprocs 8
| 19> end
| 20> %scf
| 21>   MaxIter 150
| 22> end
| 23>
| 24>
| 25>                          ****END OF INPUT****

CARTESIAN COORDINATES (ANGSTROEM)
---------------------------------
  C      3.913850   -1.658290    3.015130
  C      5.039270   -0.901150    2.492820
  C      6.210380   -1.417260    2.178240
  N      6.535910   -2.677120    2.556080
  N      7.076750   -0.700820    1.478910
  H      7.954640   -1.121550    1.207550
  H      6.756160    0.106640    0.960280
  H      4.842170    0.017610    2.115190
  H      5.993880   -3.126920    3.282780
  H      7.498440   -2.975480    2.468780
  H      3.088440   -0.998930    3.184950
  H      4.194120   -2.123660    3.936970
  H      3.630510   -2.409650    2.307980

 Total Charge           Charge          ....    0
 Multiplicity           Mult            ....    1
 Number of Electrons    NEL             ....   40
 Basis Dimension        Dim             ....  164

ORBITAL ENERGIES
----------------

  NO   OCC          E(Eh)            E(eV)
   0   2.0000     -14.406723      -392.0269
   1   2.0000     -14.402597      -391.9146
   2   2.0000     -10.300481      -280.2903
   3   2.0000     -10.222542      -278.1695
   4   2.0000     -10.180493      -277.0253
   5   2.0000      -1.035002       -28.1638
   6   2.0000      -0.942202       -25.6386
   7   2.0000      -0.830122       -22.5888
   8   2.0000      -0.730826       -19.8868
   9   2.0000      -0.655980       -17.8501
  10   2.0000      -0.611299       -16.6343
  11   2.0000      -0.580168       -15.7872
  12   2.0000      -0.541708       -14.7406
  13   2.0000      -0.495027       -13.4704
  14   2.0000      -0.482785       -13.1372
  15   2.0000      -0.443843       -12.0776
  16   2.0000      -0.428407       -11.6575
  17   2.0000      -0.405941       -11.0462
  18   2.0000      -0.332915        -9.0591
  19   2.0000      -0.218035        -5.9330
  20   0.0000       0.046842         1.2746
  21   0.0000       0.073702         2.0055
  22   0.0000       0.085583         2.3288
  23   0.0000       0.111742         3.0407
  24   0.0000       0.114196         3.1074

MULLIKEN ATOMIC CHARGES
-----------------------
   0 C :    1.014213
   1 C :   -0.610825
   2 C :    0.774068
   3 N :    0.059505
   4 N :    0.163458
   5 H :   -0.188039
   6 H :   -0.089666
   7 H :   -0.407807
   8 H :   -0.086332
   9 H :   -0.267067
  10 H :   -0.160464
  11 H :   -0.079845
  12 H :   -0.121200
Sum of atomic charges:   -0.0000000

LOEWDIN ATOMIC CHARGES
----------------------
   0 C :    0.083972
   1 C :   -0.069917
   2 C :   -0.234160
   3 N :    0.204345
   4 N :    0.176529
   5 H :   -0.011971
   6 H :    0.005986
   7 H :   -0.054629
   8 H :   -0.014703
   9 H :   -0.015194
  10 H :   -0.019012
  11 H :   -0.031499
  12 H :   -0.019746

  Mayer bond orders larger than 0.100000
B(  0-C ,  1-C ) :   1.1682 B(  0-C ,  7-H ) :   0.2195 B(  0-C , 10-H ) :   0.6959
B(  0-C , 11-H ) :   0.6507 B(  0-C , 12-H ) :   0.6996 B(  1-C ,  2-C ) :   1.5478
B(  1-C ,  3-N ) :   0.2756 B(  1-C ,  4-N ) :   0.3153 B(  1-C ,  7-H ) :   0.9863
B(  1-C , 10-H ) :   0.3218 B(  1-C , 11-H ) :   0.3202 B(  1-C , 12-H ) :   0.1891
B(  2-C ,  3-N ) :   0.9217 B(  2-C ,  4-N ) :   0.9030 B(  2-C ,  7-H ) :   0.1417
B(  2-C ,  9-H ) :  -0.1295 B(  3-N ,  8-H ) :   1.0706 B(  3-N ,  9-H ) :   1.2631
B(  4-N ,  5-H ) :   1.1254 B(  4-N ,  6-H ) :   1.1680 B(  5-H ,  6-H ) :  -0.1540
B(  7-H , 10-H ) :  -0.1128 B(  8-H ,  9-H ) :  -0.1627 B( 10-H , 11-H ) :   0.1146

FINAL SINGLE POINT ENERGY      -228.333241950811

DIPOLE MOMENT
-------------
                                X             Y             Z
Electronic contribution:      2.96488       0.36669      -1.01016
Nuclear contribution   :     -2.16157      -0.63191       0.72436
                        -----------------------------------------
Total Dipole Moment    :      0.80331      -0.26522      -0.28580
                        -----------------------------------------
Magnitude (a.u.)       :      0.89293
Magnitude (Debye)      :      2.26965

Rotational constants in cm-1:     0.318470     0.135474     0.097247
Rotational constants in MHz :  9547.495553  4061.405016  2915.385882

                             ****ORCA TERMINATED NORMALLY****
TOTAL RUN TIME: 0 days 0 hours 0 minutes 13 seconds 976 msec
