                         Program Version 5.0.0 -  RELEASE  -
|  1> !CAM-B3LYP RIJCOSX def2-SVPD def2/J TightSCF
|  2> *xyz 0 1
|  3> C          4.26524        2.50052       -0.79589
|  4> C          4.98224        1.65026        0.24742
|  5> O          4.36806        1.38927        1.31371
|  6> F          6.12892        1.23351       -0.04562
|  7> H          4.90412        2.63966       -1.64287
|  8> H          4.02079        3.45265       -0.37328
|  9> H          3.36773        2.00584       -1.10356
| 10> *
| 11> %MaxCore 64000
| 12> %pal nprocs 8
| 13> end
| 14> %scf
| 15>   MaxIter 150
| 16> end
| 17>
| 18>
| 19>                          ****END OF INPUT****

CARTESIAN COORDINATES (ANGSTROEM)
---------------------------------
  C      4.265240    2.500520   -0.795890
  C      4.982240    1.650260    0.247420
  O      4.368060    1.389270    1.313710
  F      6.128920    1.233510   -0.045620
  H      4.904120    2.639660   -1.642870
  H      4.020790    3.452650   -0.373280
  H      3.367730    2.005840   -1.103560

 Total Charge           Charge          ....    0
 Multiplicity           Mult            ....    1
 Number of Electrons    NEL             ....   32
 Basis Dimension        Dim             ....  110

ORBITAL ENERGIES
----------------

  NO   OCC          E(Eh)            E(eV)
   0   2.0000     -24.850843      -676.2258
   1   2.0000     -19.228506      -523.2343
   2   2.0000     -10.453620      -284.4575
   3   2.0000     -10.289863      -280.0014
   4   2.0000      -1.395619       -37.9767
   5   2.0000      -1.110886       -30.2287
   6   2.0000      -0.854021       -23.2391
   7   2.0000      -0.740187       -20.1415
   8   2.0000      -0.632379       -17.2079
   9   2.0000      -0.627421       -17.0730
  10   2.0000      -0.580172       -15.7873
  11   2.0000      -0.519577       -14.1384
  12   2.0000      -0.506262       -13.7761
  13   2.0000      -0.478837       -13.0298
  14   2.0000      -0.425429       -11.5765
  15   2.0000      -0.369811       -10.0631
  16   0.0000       0.013085         0.3561
  17   0.0000       0.039430         1.0729
  18   0.0000       0.083193         2.2638
  19   0.0000       0.115567         3.1447
  20   0.0000       0.116998         3.1837

MULLIKEN ATOMIC CHARGES
-----------------------
   0 C :    0.601921
   1 C :    0.346703
   2 O :   -0.439324
   3 F :   -0.325302
   4 H :   -0.101197
   5 H :   -0.042618
   6 H :   -0.040183
Sum of atomic charges:    0.0000000

LOEWDIN ATOMIC CHARGES
----------------------
   0 C :    0.216394
   1 C :   -0.040881
   2 O :   -0.138515
   3 F :   -0.035206
   4 H :   -0.012434
   5 H :    0.004980
   6 H :    0.005662

  Mayer bond orders larger than 0.100000
B(  0-C ,  1-C ) :   1.2349 B(  0-C ,  4-H ) :   0.8521 B(  0-C ,  5-H ) :   0.7746
B(  0-C ,  6-H ) :   0.7807 B(  1-C ,  2-O ) :   1.8540 B(  1-C ,  3-F ) :   0.8401
B(  1-C ,  4-H ) :   0.1759 B(  1-C ,  5-H ) :   0.1665 B(  1-C ,  6-H ) :   0.1595

FINAL SINGLE POINT ENERGY      -252.816131499744

DIPOLE MOMENT
-------------
                                X             Y             Z
Electronic contribution:      3.63120      -2.75455       2.08197
Nuclear contribution   :     -3.58210       3.29544      -3.18468
                        -----------------------------------------
Total Dipole Moment    :      0.04910       0.54088      -1.10271
                        -----------------------------------------
Magnitude (a.u.)       :      1.22920
Magnitude (Debye)      :      3.12437

Rotational constants in cm-1:     0.368075     0.322590     0.177495
Rotational constants in MHz : 11034.605942  9670.991558  5321.154504

                             ****ORCA TERMINATED NORMALLY****
TOTAL RUN TIME: 0 days 0 hours 0 minutes 6 seconds 850 msec
