                         Program Version 5.0.0 -  RELEASE  -
|  1> !CAM-B3LYP RIJCOSX def2-SVPD def2/J TightSCF
|  2> *xyz 0 1
|  3> C          3.91385       -1.65829        3.01513
|  4> N          5.03927       -0.90115        2.49282
|  5> C          6.21038       -1.41726        2.17824
|  6> C          6.53591       -2.67712        2.55608
|  7> N          7.07675       -0.70082        1.47891
|  8> H          7.95464       -1.12155        1.20755
|  9> H          6.75616        0.10664        0.96028
| 10> H          4.84217        0.01761        2.11519
| 11> H          5.99388       -3.12692        3.28278
| 12> H          7.49844       -2.97548        2.46878
| 13> H          3.08844       -0.99893        3.18495
| 14> H          4.19412       -2.12366        3.93697
| 15> H          3.63051       -2.40965        2.30798
| 16> *
| 17> %MaxCore 64000
| 18> %pal nprocs 8
| 19> end
| 20> %scf
| 21>   MaxIter 150
| 22> end
| 23>
| 24>
| 25>                          ****END OF INPUT****

CARTESIAN COORDINATES (ANGSTROEM)
---------------------------------
  C      3.913850   -1.658290    3.015130
  N      5.039270   -0.901150    2.492820
  C      6.210380   -1.417260    2.178240
  C      6.535910   -2.677120    2.556080
  N      7.076750   -0.700820    1.478910
  H      7.954640   -1.121550    1.207550
  H      6.756160    0.106640    0.960280
  H      4.842170    0.017610    2.115190
  H      5.993880   -3.126920    3.282780
  H      7.498440   -2.975480    2.468780
  H      3.088440   -0.998930    3.184950
  H      4.194120   -2.123660    3.936970
  H      3.630510   -2.409650    2.307980

 Total Charge           Charge          ....    0
 Multiplicity           Mult            ....    1
 Number of Electrons    NEL             ....   40
 Basis Dimension        Dim             ....  164

ORBITAL ENERGIES
----------------

  NO   OCC          E(Eh)            E(eV)
   0   2.0000     -14.411376      -392.1535
   1   2.0000     -14.407326      -392.0433
   2   2.0000     -10.309444      -280.5342
   3   2.0000     -10.284105      -279.8447
   4   2.0000     -10.171586      -276.7829
   5   2.0000      -1.049681       -28.5633
   6   2.0000      -0.962213       -26.1831
   7   2.0000      -0.794454       -21.6182
   8   2.0000      -0.771478       -20.9930
   9   2.0000      -0.643592       -17.5130
  10   2.0000      -0.624692       -16.9987
  11   2.0000      -0.592322       -16.1179
  12   2.0000      -0.524337       -14.2679
  13   2.0000      -0.517445       -14.0804
  14   2.0000      -0.485089       -13.1999
  15   2.0000      -0.453793       -12.3483
  16   2.0000      -0.440861       -11.9964
  17   2.0000      -0.432491       -11.7687
  18   2.0000      -0.317689        -8.6448
  19   2.0000      -0.224836        -6.1181
  20   0.0000       0.045596         1.2407
  21   0.0000       0.067182         1.8281
  22   0.0000       0.083685         2.2772
  23   0.0000       0.112315         3.0562
  24   0.0000       0.115948         3.1551

MULLIKEN ATOMIC CHARGES
-----------------------
   0 C :    1.250172
   1 N :   -0.388050
   2 C :    0.516600
   3 C :    0.568009
   4 N :    0.131317
   5 H :   -0.070994
   6 H :   -0.193389
   7 H :   -0.382586
   8 H :   -0.228228
   9 H :   -0.639157
  10 H :   -0.455331
  11 H :   -0.014444
  12 H :   -0.093919
Sum of atomic charges:   -0.0000000

LOEWDIN ATOMIC CHARGES
----------------------
   0 C :    0.204911
   1 N :   -0.047341
   2 C :   -0.245492
   3 C :    0.158558
   4 N :    0.182961
   5 H :    0.007553
   6 H :   -0.008063
   7 H :    0.017920
   8 H :   -0.121428
   9 H :   -0.109964
  10 H :   -0.013656
  11 H :   -0.016057
  12 H :   -0.009902

  Mayer bond orders larger than 0.100000
B(  0-C ,  1-N ) :   0.9570 B(  0-C ,  7-H ) :  -0.1333 B(  0-C , 10-H ) :   0.7775
B(  0-C , 11-H ) :   0.7944 B(  0-C , 12-H ) :   0.8019 B(  1-N ,  2-C ) :   1.0696
B(  1-N ,  3-C ) :   0.3460 B(  1-N ,  4-N ) :   0.1238 B(  1-N ,  7-H ) :   1.3335
B(  1-N , 10-H ) :   0.1755 B(  1-N , 11-H ) :   0.1139 B(  1-N , 12-H ) :   0.1502
B(  2-C ,  3-C ) :   1.7034 B(  2-C ,  4-N ) :   0.9302 B(  2-C ,  7-H ) :  -0.2356
B(  2-C ,  8-H ) :   0.2815 B(  2-C ,  9-H ) :   0.1943 B(  3-C ,  4-N ) :   0.2263
B(  3-C ,  8-H ) :   0.6998 B(  3-C ,  9-H ) :   0.7434 B(  4-N ,  5-H ) :   1.1403
B(  4-N ,  6-H ) :   1.1974 B(  5-H ,  6-H ) :  -0.1551 B(  8-H ,  9-H ) :   0.1048

FINAL SINGLE POINT ENERGY      -228.323318543431

DIPOLE MOMENT
-------------
                                X             Y             Z
Electronic contribution:      1.47939       1.99918      -1.15620
Nuclear contribution   :     -1.85843      -0.99162       0.73717
                        -----------------------------------------
Total Dipole Moment    :     -0.37904       1.00756      -0.41903
                        -----------------------------------------
Magnitude (a.u.)       :      1.15518
Magnitude (Debye)      :      2.93623

Rotational constants in cm-1:     0.336495     0.135025     0.098658
Rotational constants in MHz : 10087.870488  4047.943278  2957.678786

                             ****ORCA TERMINATED NORMALLY****
TOTAL RUN TIME: 0 days 0 hours 0 minutes 13 seconds 711 msec
