                         Program Version 5.0.0 -  RELEASE  -
|  1> !CAM-B3LYP RIJCOSX def2-SVPD def2/J TightSCF
|  2> *xyz 0 1
|  3> C          3.91385       -1.65829        3.01513
|  4> N          5.03927       -0.90115        2.49282
|  5> C          6.21038       -1.41726        2.17824
|  6> N          6.53591       -2.67712        2.55608
|  7> C          7.07675       -0.70082        1.47891
|  8> H          7.95464       -1.12155        1.20755
|  9> H          6.75616        0.10664        0.96028
| 10> H          4.84217        0.01761        2.11519
| 11> H          5.99388       -3.12692        3.28278
| 12> H          7.49844       -2.97548        2.46878
| 13> H          3.08844       -0.99893        3.18495
| 14> H          4.19412       -2.12366        3.93697
| 15> H          3.63051       -2.40965        2.30798
| 16> *
| 17> %MaxCore 64000
| 18> %pal nprocs 8
| 19> end
| 20> %scf
| 21>   MaxIter 150
| 22> end
| 23>
| 24>
| 25>                          ****END OF INPUT****

CARTESIAN COORDINATES (ANGSTROEM)
---------------------------------
  C      3.913850   -1.658290    3.015130
  N      5.039270   -0.901150    2.492820
  C      6.210380   -1.417260    2.178240
  N      6.535910   -2.677120    2.556080
  C      7.076750   -0.700820    1.478910
  H      7.954640   -1.121550    1.207550
  H      6.756160    0.106640    0.960280
  H      4.842170    0.017610    2.115190
  H      5.993880   -3.126920    3.282780
  H      7.498440   -2.975480    2.468780
  H      3.088440   -0.998930    3.184950
  H      4.194120   -2.123660    3.936970
  H      3.630510   -2.409650    2.307980

 Total Charge           Charge          ....    0
 Multiplicity           Mult            ....    1
 Number of Electrons    NEL             ....   40
 Basis Dimension        Dim             ....  164

ORBITAL ENERGIES
----------------

  NO   OCC          E(Eh)            E(eV)
   0   2.0000     -14.406445      -392.0193
   1   2.0000     -14.405978      -392.0066
   2   2.0000     -10.306588      -280.4565
   3   2.0000     -10.292207      -280.0652
   4   2.0000     -10.168272      -276.6928
   5   2.0000      -1.044482       -28.4218
   6   2.0000      -0.955189       -25.9920
   7   2.0000      -0.821413       -22.3518
   8   2.0000      -0.742152       -20.1950
   9   2.0000      -0.674585       -18.3564
  10   2.0000      -0.606300       -16.4983
  11   2.0000      -0.563925       -15.3452
  12   2.0000      -0.545311       -14.8387
  13   2.0000      -0.529870       -14.4185
  14   2.0000      -0.475439       -12.9373
  15   2.0000      -0.460839       -12.5401
  16   2.0000      -0.449129       -12.2214
  17   2.0000      -0.428863       -11.6700
  18   2.0000      -0.323593        -8.8054
  19   2.0000      -0.221584        -6.0296
  20   0.0000       0.042581         1.1587
  21   0.0000       0.077193         2.1005
  22   0.0000       0.080833         2.1996
  23   0.0000       0.110875         3.0171
  24   0.0000       0.113620         3.0918

MULLIKEN ATOMIC CHARGES
-----------------------
   0 C :    1.271281
   1 N :   -0.385987
   2 C :    0.703232
   3 N :    0.111482
   4 C :    0.433674
   5 H :   -0.439768
   6 H :   -0.403125
   7 H :   -0.287647
   8 H :   -0.194343
   9 H :   -0.120609
  10 H :   -0.422935
  11 H :   -0.160401
  12 H :   -0.104854
Sum of atomic charges:    0.0000000

LOEWDIN ATOMIC CHARGES
----------------------
   0 C :    0.198653
   1 N :   -0.042744
   2 C :   -0.239127
   3 N :    0.201907
   4 C :    0.133892
   5 H :   -0.104614
   6 H :   -0.102745
   7 H :    0.032040
   8 H :   -0.027933
   9 H :    0.002876
  10 H :   -0.011904
  11 H :   -0.024610
  12 H :   -0.015691

  Mayer bond orders larger than 0.100000
B(  0-C ,  1-N ) :   0.9620 B(  0-C ,  7-H ) :  -0.1243 B(  0-C , 10-H ) :   0.7463
B(  0-C , 11-H ) :   0.7891 B(  0-C , 12-H ) :   0.8017 B(  1-N ,  2-C ) :   1.0901
B(  1-N ,  3-N ) :   0.1471 B(  1-N ,  4-C ) :   0.2271 B(  1-N ,  7-H ) :   1.2385
B(  1-N , 10-H ) :   0.1861 B(  1-N , 11-H ) :   0.1821 B(  1-N , 12-H ) :   0.1433
B(  2-C ,  3-N ) :   0.9305 B(  2-C ,  4-C ) :   1.4693 B(  2-C ,  5-H ) :   0.1741
B(  2-C ,  6-H ) :   0.1050 B(  2-C ,  7-H ) :  -0.1786 B(  3-N ,  4-C ) :   0.2056
B(  3-N ,  8-H ) :   1.1040 B(  3-N ,  9-H ) :   1.1699 B(  4-C ,  5-H ) :   0.7425
B(  4-C ,  6-H ) :   0.8167 B(  5-H ,  6-H ) :   0.1075 B(  8-H ,  9-H ) :  -0.1705

FINAL SINGLE POINT ENERGY      -228.321444511897

DIPOLE MOMENT
-------------
                                X             Y             Z
Electronic contribution:      0.95062       0.10582       0.01940
Nuclear contribution   :     -1.74889      -0.59133       0.51900
                        -----------------------------------------
Total Dipole Moment    :     -0.79827      -0.48551       0.53840
                        -----------------------------------------
Magnitude (a.u.)       :      1.07834
Magnitude (Debye)      :      2.74093

Rotational constants in cm-1:     0.319878     0.140238     0.099847
Rotational constants in MHz :  9589.703832  4204.215525  2993.343846

                             ****ORCA TERMINATED NORMALLY****
TOTAL RUN TIME: 0 days 0 hours 0 minutes 14 seconds 76 msec
