                         Program Version 5.0.0 -  RELEASE  -
|  1> !CAM-B3LYP RIJCOSX def2-SVPD def2/J TightSCF xyzfile
|  2>
|  3> *xyzfile 0 1 D1.xyz
|  4>
|  5> %MaxCore 64000
|  6>
|  7> %pal nprocs 4
|  8> end
|  9>
| 10> %scf
| 11>   MaxIter 150
| 12> end
| 13>
| 14>
| 15>                          ****END OF INPUT****

CARTESIAN COORDINATES (ANGSTROEM)
---------------------------------
  C      3.913853   -1.658291    3.015134
  C      5.039266   -0.901154    2.492821
  C      4.084215    1.742081   -2.114724
  C      4.265245    2.500518   -0.795890
  H      4.868534    3.392674   -0.981134
  H      3.307640    2.824571   -0.387809
  C      4.982240    1.650257    0.247422
  C      6.210384   -1.417261    2.178244
  N      6.535913   -2.677122    2.556078
  N      7.076754   -0.700820    1.478906
  H      7.954643   -1.121554    1.207554
  H      6.756161    0.106637    0.960278
  H      4.842168    0.017609    2.115191
  H      5.993876   -3.126918    3.282784
  H      7.498441   -2.975482    2.468776
  F      4.368065    1.389270    1.313706
  O      6.128919    1.233512   -0.045620
  C      3.139159   -2.376572    1.910609
  H      3.267235   -0.939401    3.520693
  H      4.247195   -2.355095    3.790065
  C      1.997274    0.430918   -1.399218
  C      3.412746    0.376886   -1.965497
  H      4.047407   -0.246590   -1.326706
  H      3.390774   -0.118719   -2.942839
  H      5.068475    1.598504   -2.565728
  H      3.503356    2.363939   -2.804565
  C      2.399946   -1.389579    1.009490
  H      2.440750   -3.087118    2.362976
  H      3.844475   -2.970462    1.318677
  C      2.070177   -1.936705   -0.372401
  H      1.481611   -1.061542    1.509912
  H      3.008628   -0.490001    0.897451
  C      1.322238   -0.935775   -1.256413
  H      1.472747   -2.850902   -0.283997
  H      3.003539   -2.234041   -0.862535
  H      1.376444    1.058920   -2.047420
  H      2.015341    0.929780   -0.426535
  H      0.316648   -0.787213   -0.848278
  H      1.185611   -1.379252   -2.248613

 Total Charge           Charge          ....    0
 Multiplicity           Mult            ....    1
 Number of Electrons    NEL             ....  126
 Basis Dimension        Dim             ....  510

ORBITAL ENERGIES
----------------

  NO   OCC          E(Eh)            E(eV)
   0   2.0000     -24.861684      -676.5208
   1   2.0000     -19.247801      -523.7593
   2   2.0000     -14.390148      -391.5758
   3   2.0000     -14.363410      -390.8483
   4   2.0000     -10.467320      -284.8303
   5   2.0000     -10.298169      -280.2274
   6   2.0000     -10.283356      -279.8243
   7   2.0000     -10.277510      -279.6653
   8   2.0000     -10.261479      -279.2290
   9   2.0000     -10.256217      -279.0858
  10   2.0000     -10.249776      -278.9106
  11   2.0000     -10.241952      -278.6977
  12   2.0000     -10.235346      -278.5179
  13   2.0000     -10.226798      -278.2853
  14   2.0000     -10.221661      -278.1455
  15   2.0000     -10.155305      -276.3399
  16   2.0000      -1.408652       -38.3314
  17   2.0000      -1.137837       -30.9621
  18   2.0000      -1.013070       -27.5670
  19   2.0000      -0.919929       -25.0325
  20   2.0000      -0.911518       -24.8037
  21   2.0000      -0.882075       -24.0025
  22   2.0000      -0.852600       -23.2004
  23   2.0000      -0.823320       -22.4037
  24   2.0000      -0.784753       -21.3542
  25   2.0000      -0.764821       -20.8118
  26   2.0000      -0.737755       -20.0753
  27   2.0000      -0.710639       -19.3375
  28   2.0000      -0.679553       -18.4916
  29   2.0000      -0.662367       -18.0239
  30   2.0000      -0.647519       -17.6199
  31   2.0000      -0.634791       -17.2735
  32   2.0000      -0.634099       -17.2547
  33   2.0000      -0.624652       -16.9976
  34   2.0000      -0.598922       -16.2975
  35   2.0000      -0.587774       -15.9942
  36   2.0000      -0.560673       -15.2567
  37   2.0000      -0.553661       -15.0659
  38   2.0000      -0.550023       -14.9669
  39   2.0000      -0.532523       -14.4907
  40   2.0000      -0.518132       -14.0991
  41   2.0000      -0.507748       -13.8165
  42   2.0000      -0.498680       -13.5698
  43   2.0000      -0.488448       -13.2914
  44   2.0000      -0.485620       -13.2144
  45   2.0000      -0.478533       -13.0215
  46   2.0000      -0.461476       -12.5574
  47   2.0000      -0.458053       -12.4643
  48   2.0000      -0.439966       -11.9721
  49   2.0000      -0.433751       -11.8030
  50   2.0000      -0.431430       -11.7398
  51   2.0000      -0.428441       -11.6585
  52   2.0000      -0.415962       -11.3189
  53   2.0000      -0.404464       -11.0060
  54   2.0000      -0.401759       -10.9324
  55   2.0000      -0.389919       -10.6102
  56   2.0000      -0.377665       -10.2768
  57   2.0000      -0.374270       -10.1844
  58   2.0000      -0.369072       -10.0430
  59   2.0000      -0.363857        -9.9011
  60   2.0000      -0.357529        -9.7289
  61   2.0000      -0.309347        -8.4178
  62   2.0000      -0.201027        -5.4702
  63   0.0000      -0.005179        -0.1409
  64   0.0000       0.044062         1.1990
  65   0.0000       0.058151         1.5824
  66   0.0000       0.060900         1.6572
  67   0.0000       0.064497         1.7551

MULLIKEN ATOMIC CHARGES
-----------------------
   0 C :    0.775241
   1 C :    0.422296
   2 C :    0.571945
   3 C :    0.434356
   4 H :   -0.183281
   5 H :    0.099892
   6 C :    0.427142
   7 C :    0.572126
   8 N :    0.105558
   9 N :    0.494534
  10 H :   -0.210782
  11 H :   -0.458878
  12 H :   -0.915097
  13 H :   -0.065013
  14 H :   -0.312684
  15 F :   -0.487471
  16 O :   -0.391962
  17 C :    0.555654
  18 H :   -0.033189
  19 H :   -0.326040
  20 C :    0.046018
  21 C :    0.055473
  22 H :   -0.119954
  23 H :   -0.229680
  24 H :   -0.055069
  25 H :   -0.183572
  26 C :    0.818795
  27 H :   -0.174224
  28 H :   -0.131238
  29 C :    0.142769
  30 H :    0.002223
  31 H :   -1.152173
  32 C :    0.845764
  33 H :   -0.496168
  34 H :    0.079640
  35 H :   -0.495366
  36 H :    0.103879
  37 H :   -0.056735
  38 H :   -0.074730
Sum of atomic charges:   -0.0000000

LOEWDIN ATOMIC CHARGES
----------------------
   0 C :   -0.049819
   1 C :   -0.021072
   2 C :   -0.010714
   3 C :    0.060708
   4 H :    0.044326
   5 H :    0.024552
   6 C :    0.054053
   7 C :   -0.198799
   8 N :    0.203232
   9 N :    0.208925
  10 H :   -0.008847
  11 H :   -0.123796
  12 H :   -0.111891
  13 H :   -0.020852
  14 H :   -0.016665
  15 F :   -0.031582
  16 O :   -0.097452
  17 C :   -0.027222
  18 H :    0.018305
  19 H :   -0.001144
  20 C :   -0.036078
  21 C :   -0.026427
  22 H :    0.015287
  23 H :    0.033510
  24 H :    0.029610
  25 H :    0.030069
  26 C :   -0.032899
  27 H :    0.016897
  28 H :    0.019419
  29 C :   -0.038667
  30 H :    0.035098
  31 H :   -0.024044
  32 C :   -0.030985
  33 H :    0.024789
  34 H :    0.018092
  35 H :    0.024981
  36 H :    0.003422
  37 H :    0.022680
  38 H :    0.021001

  Mayer bond orders larger than 0.100000
B(  0-C ,  1-C ) :   0.8259 B(  0-C ,  7-C ) :   0.1245 B(  0-C , 12-H ) :   0.8101
B(  0-C , 17-C ) :   1.0299 B(  0-C , 18-H ) :   0.6519 B(  0-C , 19-H ) :   0.4985
B(  0-C , 28-H ) :   0.1025 B(  1-C ,  7-C ) :   1.7608 B(  1-C ,  8-N ) :   0.2749
B(  1-C ,  9-N ) :   0.2347 B(  1-C , 12-H ) :  -0.6153 B(  1-C , 13-H ) :  -0.1278
B(  1-C , 15-F ) :  -0.1005 B(  1-C , 18-H ) :   0.3435 B(  1-C , 19-H ) :   0.3620
B(  2-C ,  3-C ) :   1.1276 B(  2-C ,  4-H ) :   0.1783 B(  2-C ,  5-H ) :   0.1033
B(  2-C ,  6-C ) :   0.1118 B(  2-C , 21-C ) :   1.2192 B(  2-C , 22-H ) :   0.1190
B(  2-C , 24-H ) :   0.6355 B(  2-C , 25-H ) :   0.7680 B(  3-C ,  4-H ) :   0.5730
B(  3-C ,  5-H ) :   0.7416 B(  3-C ,  6-C ) :   1.2628 B(  3-C , 21-C ) :   0.1236
B(  3-C , 24-H ) :   0.1131 B(  3-C , 25-H ) :   0.1668 B(  4-H ,  6-C ) :   0.3178
B(  5-H ,  6-C ) :   0.2337 B(  6-C , 15-F ) :   0.7629 B(  6-C , 16-O ) :   1.7052
B(  7-C ,  8-N ) :   0.8585 B(  7-C ,  9-N ) :   0.8332 B(  7-C , 11-H ) :  -0.2878
B(  7-C , 12-H ) :   0.5064 B(  7-C , 14-H ) :  -0.1578 B(  7-C , 19-H ) :  -0.1119
B(  8-N , 13-H ) :   1.0426 B(  8-N , 14-H ) :   1.2804 B(  9-N , 10-H ) :   1.1226
B(  9-N , 11-H ) :   1.1992 B( 10-H , 11-H ) :  -0.2098 B( 10-H , 12-H ) :  -0.1040
B( 12-H , 15-F ) :   0.2215 B( 12-H , 19-H ) :   0.1021 B( 13-H , 14-H ) :  -0.1942
B( 15-F , 31-H ) :   0.1196 B( 17-C , 19-H ) :   0.1283 B( 17-C , 26-C ) :   1.0986
B( 17-C , 27-H ) :   0.7956 B( 17-C , 28-H ) :   0.8580 B( 17-C , 30-H ) :   0.1805
B( 18-H , 19-H ) :  -0.1455 B( 20-C , 21-C ) :   1.1997 B( 20-C , 22-H ) :   0.1179
B( 20-C , 23-H ) :   0.1609 B( 20-C , 29-C ) :   0.1423 B( 20-C , 32-C ) :   1.1207
B( 20-C , 35-H ) :   0.9663 B( 20-C , 36-H ) :   0.8189 B( 20-C , 37-H ) :   0.3175
B( 20-C , 38-H ) :   0.1424 B( 21-C , 22-H ) :   0.9091 B( 21-C , 23-H ) :   0.8273
B( 21-C , 24-H ) :   0.2750 B( 21-C , 25-H ) :   0.1847 B( 21-C , 35-H ) :   0.1118
B( 21-C , 36-H ) :   0.1192 B( 24-H , 25-H ) :  -0.1461 B( 26-C , 27-H ) :   0.1971
B( 26-C , 28-H ) :   0.1392 B( 26-C , 29-C ) :   1.2083 B( 26-C , 30-H ) :   0.5823
B( 26-C , 31-H ) :  -0.1205 B( 26-C , 33-H ) :   0.1178 B( 26-C , 34-H ) :   0.1470
B( 27-H , 31-H ) :   0.1094 B( 28-H , 33-H ) :  -0.1099 B( 29-C , 30-H ) :   0.1014
B( 29-C , 31-H ) :   0.1639 B( 29-C , 32-C ) :   1.0844 B( 29-C , 33-H ) :   0.9577
B( 29-C , 34-H ) :   0.8215 B( 29-C , 37-H ) :   0.1199 B( 29-C , 38-H ) :   0.2751
B( 30-H , 31-H ) :   0.2417 B( 31-H , 36-H ) :   0.1085 B( 32-C , 37-H ) :   0.6061
B( 32-C , 38-H ) :   0.6222 B( 37-H , 38-H ) :  -0.1335

FINAL SINGLE POINT ENERGY      -754.779685317342

DIPOLE MOMENT
-------------
                                X             Y             Z
Electronic contribution:     11.26172       8.98077       5.89282
Nuclear contribution   :    -11.48003      -8.36271      -6.78621
                        -----------------------------------------
Total Dipole Moment    :     -0.21831       0.61805      -0.89340
                        -----------------------------------------
Magnitude (a.u.)       :      1.10807
Magnitude (Debye)      :      2.81648

Rotational constants in cm-1:     0.020055     0.013548     0.009477
Rotational constants in MHz :   601.234832   406.162779   284.104317

                             ****ORCA TERMINATED NORMALLY****
TOTAL RUN TIME: 0 days 0 hours 7 minutes 8 seconds 971 msec
