                         Program Version 5.0.0 -  RELEASE  -
|  1> !CAM-B3LYP RIJCOSX def2-SVPD def2/J TightSCF xyzfile
|  2>
|  3> *xyzfile 0 1 D2.xyz
|  4>
|  5> %MaxCore 64000
|  6>
|  7> %pal nprocs 4
|  8> end
|  9>
| 10> %scf
| 11>   MaxIter 150
| 12> end
| 13>
| 14>
| 15>                          ****END OF INPUT****

CARTESIAN COORDINATES (ANGSTROEM)
---------------------------------
  C      3.913853   -1.658291    3.015134
  N      5.039266   -0.901154    2.492821
  C      4.084215    1.742081   -2.114724
  C      4.265245    2.500518   -0.795890
  H      4.868534    3.392674   -0.981134
  H      3.307640    2.824571   -0.387809
  C      4.982240    1.650257    0.247422
  C      6.210384   -1.417261    2.178244
  C      6.535913   -2.677122    2.556078
  N      7.076754   -0.700820    1.478906
  H      7.954643   -1.121554    1.207554
  H      6.756161    0.106637    0.960278
  H      4.842168    0.017609    2.115191
  H      5.993876   -3.126918    3.282784
  H      7.498441   -2.975482    2.468776
  F      4.368065    1.389270    1.313706
  O      6.128919    1.233512   -0.045620
  C      3.139159   -2.376572    1.910609
  H      3.267235   -0.939401    3.520693
  H      4.247195   -2.355095    3.790065
  C      1.997274    0.430918   -1.399218
  C      3.412746    0.376886   -1.965497
  H      4.047407   -0.246590   -1.326706
  H      3.390774   -0.118719   -2.942839
  H      5.068475    1.598504   -2.565728
  H      3.503356    2.363939   -2.804565
  C      2.399946   -1.389579    1.009490
  H      2.440750   -3.087118    2.362976
  H      3.844475   -2.970462    1.318677
  C      2.070177   -1.936705   -0.372401
  H      1.481611   -1.061542    1.509912
  H      3.008628   -0.490001    0.897451
  C      1.322238   -0.935775   -1.256413
  H      1.472747   -2.850902   -0.283997
  H      3.003539   -2.234041   -0.862535
  H      1.376444    1.058920   -2.047420
  H      2.015341    0.929780   -0.426535
  H      0.316648   -0.787213   -0.848278
  H      1.185611   -1.379252   -2.248613

 Total Charge           Charge          ....    0
 Multiplicity           Mult            ....    1
 Number of Electrons    NEL             ....  126
 Basis Dimension        Dim             ....  510

ORBITAL ENERGIES
----------------

  NO   OCC          E(Eh)            E(eV)
   0   2.0000     -24.889643      -677.2816
   1   2.0000     -19.263139      -524.1767
   2   2.0000     -14.384590      -391.4246
   3   2.0000     -14.364338      -390.8735
   4   2.0000     -10.482957      -285.2558
   5   2.0000     -10.310122      -280.5527
   6   2.0000     -10.286983      -279.9230
   7   2.0000     -10.286245      -279.9029
   8   2.0000     -10.278143      -279.6825
   9   2.0000     -10.270936      -279.4864
  10   2.0000     -10.265853      -279.3481
  11   2.0000     -10.258993      -279.1614
  12   2.0000     -10.252707      -278.9903
  13   2.0000     -10.251195      -278.9492
  14   2.0000     -10.242155      -278.7032
  15   2.0000     -10.148648      -276.1588
  16   2.0000      -1.434929       -39.0464
  17   2.0000      -1.153128       -31.3782
  18   2.0000      -1.027000       -27.9461
  19   2.0000      -0.939380       -25.5618
  20   2.0000      -0.922727       -25.1087
  21   2.0000      -0.890676       -24.2365
  22   2.0000      -0.855137       -23.2695
  23   2.0000      -0.821172       -22.3452
  24   2.0000      -0.793314       -21.5872
  25   2.0000      -0.769024       -20.9262
  26   2.0000      -0.755823       -20.5670
  27   2.0000      -0.730811       -19.8864
  28   2.0000      -0.696355       -18.9488
  29   2.0000      -0.676421       -18.4064
  30   2.0000      -0.668054       -18.1787
  31   2.0000      -0.657287       -17.8857
  32   2.0000      -0.642451       -17.4820
  33   2.0000      -0.624556       -16.9950
  34   2.0000      -0.606557       -16.5053
  35   2.0000      -0.586584       -15.9618
  36   2.0000      -0.570875       -15.5343
  37   2.0000      -0.561626       -15.2826
  38   2.0000      -0.560325       -15.2472
  39   2.0000      -0.541121       -14.7247
  40   2.0000      -0.526713       -14.3326
  41   2.0000      -0.519059       -14.1243
  42   2.0000      -0.506722       -13.7886
  43   2.0000      -0.499976       -13.6050
  44   2.0000      -0.489865       -13.3299
  45   2.0000      -0.479677       -13.0527
  46   2.0000      -0.473523       -12.8852
  47   2.0000      -0.461312       -12.5529
  48   2.0000      -0.451192       -12.2776
  49   2.0000      -0.446099       -12.1390
  50   2.0000      -0.438335       -11.9277
  51   2.0000      -0.430640       -11.7183
  52   2.0000      -0.427212       -11.6250
  53   2.0000      -0.417800       -11.3689
  54   2.0000      -0.411320       -11.1926
  55   2.0000      -0.405479       -11.0336
  56   2.0000      -0.395229       -10.7547
  57   2.0000      -0.384714       -10.4686
  58   2.0000      -0.384018       -10.4497
  59   2.0000      -0.382009       -10.3950
  60   2.0000      -0.376783       -10.2528
  61   2.0000      -0.291882        -7.9425
  62   2.0000      -0.201985        -5.4963
  63   0.0000      -0.020535        -0.5588
  64   0.0000       0.033867         0.9216
  65   0.0000       0.052291         1.4229
  66   0.0000       0.054959         1.4955
  67   0.0000       0.060701         1.6518

MULLIKEN ATOMIC CHARGES
-----------------------
   0 C :    1.305884
   1 N :    0.483348
   2 C :    0.562178
   3 C :    0.433609
   4 H :   -0.180682
   5 H :    0.094484
   6 C :    0.472072
   7 C :    0.535155
   8 C :    0.734331
   9 N :    0.606763
  10 H :   -0.120134
  11 H :   -0.628269
  12 H :   -1.247219
  13 H :   -0.158131
  14 H :   -0.742790
  15 F :   -0.506520
  16 O :   -0.415150
  17 C :    0.499614
  18 H :   -0.445796
  19 H :   -0.218313
  20 C :    0.060247
  21 C :    0.051718
  22 H :   -0.123054
  23 H :   -0.230256
  24 H :   -0.050715
  25 H :   -0.180970
  26 C :    0.808200
  27 H :   -0.211861
  28 H :   -0.096081
  29 C :    0.176296
  30 H :   -0.085798
  31 H :   -1.068226
  32 C :    0.846016
  33 H :   -0.482342
  34 H :    0.061843
  35 H :   -0.482546
  36 H :    0.085013
  37 H :   -0.060221
  38 H :   -0.081697
Sum of atomic charges:   -0.0000000

LOEWDIN ATOMIC CHARGES
----------------------
   0 C :    0.062821
   1 N :    0.011656
   2 C :   -0.008563
   3 C :    0.062140
   4 H :    0.046168
   5 H :    0.024928
   6 C :    0.050942
   7 C :   -0.220079
   8 C :    0.149527
   9 N :    0.216855
  10 H :    0.009829
  11 H :   -0.133363
  12 H :   -0.060783
  13 H :   -0.128469
  14 H :   -0.112743
  15 F :   -0.023248
  16 O :   -0.092703
  17 C :   -0.011126
  18 H :    0.022970
  19 H :    0.012710
  20 C :   -0.036115
  21 C :   -0.025771
  22 H :    0.014791
  23 H :    0.035277
  24 H :    0.031212
  25 H :    0.031716
  26 C :   -0.038958
  27 H :    0.024580
  28 H :    0.019960
  29 C :   -0.035817
  30 H :    0.034442
  31 H :   -0.028329
  32 C :   -0.029138
  33 H :    0.027249
  34 H :    0.020737
  35 H :    0.026234
  36 H :    0.002139
  37 H :    0.023511
  38 H :    0.022813

  Mayer bond orders larger than 0.100000
B(  0-C ,  1-N ) :   0.9747 B(  0-C , 12-H ) :  -0.5145 B(  0-C , 17-C ) :   1.0260
B(  0-C , 18-H ) :   0.6043 B(  0-C , 19-H ) :   0.7013 B(  0-C , 26-C ) :   0.1741
B(  1-N ,  7-C ) :   0.9306 B(  1-N ,  8-C ) :   0.4325 B(  1-N , 12-H ) :   0.6020
B(  1-N , 18-H ) :   0.2245 B(  2-C ,  3-C ) :   1.1392 B(  2-C ,  4-H ) :   0.1836
B(  2-C ,  5-H ) :   0.1055 B(  2-C ,  6-C ) :   0.1098 B(  2-C , 21-C ) :   1.2246
B(  2-C , 22-H ) :   0.1092 B(  2-C , 24-H ) :   0.6408 B(  2-C , 25-H ) :   0.7714
B(  3-C ,  4-H ) :   0.5962 B(  3-C ,  5-H ) :   0.7400 B(  3-C ,  6-C ) :   1.2303
B(  3-C , 21-C ) :   0.1198 B(  3-C , 24-H ) :   0.1073 B(  3-C , 25-H ) :   0.1622
B(  4-H ,  6-C ) :   0.2956 B(  5-H ,  6-C ) :   0.2240 B(  6-C , 15-F ) :   0.7104
B(  6-C , 16-O ) :   1.7311 B(  7-C ,  8-C ) :   1.5714 B(  7-C ,  9-N ) :   0.9447
B(  7-C , 11-H ) :  -0.1321 B(  7-C , 12-H ) :  -0.5575 B(  7-C , 13-H ) :   0.3806
B(  7-C , 14-H ) :   0.3894 B(  8-C ,  9-N ) :   0.2422 B(  8-C , 12-H ) :  -0.1107
B(  8-C , 13-H ) :   0.5627 B(  8-C , 14-H ) :   0.4643 B(  9-N , 10-H ) :   1.1262
B(  9-N , 11-H ) :   0.9971 B( 10-H , 11-H ) :  -0.2616 B( 11-H , 12-H ) :   0.1237
B( 11-H , 16-O ) :   0.1129 B( 12-H , 15-F ) :   0.2998 B( 12-H , 18-H ) :   0.1502
B( 13-H , 18-H ) :  -0.1040 B( 13-H , 19-H ) :   0.1468 B( 15-F , 31-H ) :   0.1053
B( 17-C , 19-H ) :   0.1688 B( 17-C , 26-C ) :   1.1062 B( 17-C , 27-H ) :   0.8652
B( 17-C , 28-H ) :   0.8797 B( 17-C , 29-C ) :   0.1044 B( 17-C , 30-H ) :   0.1476
B( 18-H , 19-H ) :  -0.3002 B( 20-C , 21-C ) :   1.1951 B( 20-C , 22-H ) :   0.1169
B( 20-C , 23-H ) :   0.1607 B( 20-C , 29-C ) :   0.1403 B( 20-C , 32-C ) :   1.1372
B( 20-C , 35-H ) :   0.9428 B( 20-C , 36-H ) :   0.8219 B( 20-C , 37-H ) :   0.3183
B( 20-C , 38-H ) :   0.1485 B( 21-C , 22-H ) :   0.9138 B( 21-C , 23-H ) :   0.8327
B( 21-C , 24-H ) :   0.2700 B( 21-C , 25-H ) :   0.1858 B( 21-C , 35-H ) :   0.1194
B( 21-C , 36-H ) :   0.1191 B( 24-H , 25-H ) :  -0.1474 B( 26-C , 27-H ) :   0.1757
B( 26-C , 28-H ) :   0.1043 B( 26-C , 29-C ) :   1.2225 B( 26-C , 30-H ) :   0.5636
B( 26-C , 34-H ) :   0.1700 B( 27-H , 31-H ) :   0.1205 B( 28-H , 33-H ) :  -0.1035
B( 29-C , 31-H ) :   0.1629 B( 29-C , 32-C ) :   1.0859 B( 29-C , 33-H ) :   0.9623
B( 29-C , 34-H ) :   0.8154 B( 29-C , 37-H ) :   0.1181 B( 29-C , 38-H ) :   0.2613
B( 30-H , 31-H ) :   0.3078 B( 31-H , 36-H ) :   0.1098 B( 32-C , 37-H ) :   0.6029
B( 32-C , 38-H ) :   0.6400 B( 37-H , 38-H ) :  -0.1355

FINAL SINGLE POINT ENERGY      -754.776658572649

DIPOLE MOMENT
-------------
                                X             Y             Z
Electronic contribution:      9.72233      10.56570       5.51240
Nuclear contribution   :    -11.22009      -8.67117      -6.77523
                        -----------------------------------------
Total Dipole Moment    :     -1.49776       1.89453      -1.26282
                        -----------------------------------------
Magnitude (a.u.)       :      2.72530
Magnitude (Debye)      :      6.92716

Rotational constants in cm-1:     0.020086     0.013778     0.009581
Rotational constants in MHz :   602.172053   413.051122   287.243919

                             ****ORCA TERMINATED NORMALLY****
TOTAL RUN TIME: 0 days 0 hours 7 minutes 13 seconds 592 msec
