                         Program Version 5.0.0 -  RELEASE  -
|  1> !CAM-B3LYP RIJCOSX def2-SVPD def2/J TightSCF xyzfile
|  2>
|  3> *xyzfile 0 1 D3.xyz
|  4>
|  5> %MaxCore 64000
|  6>
|  7> %pal nprocs 4
|  8> end
|  9>
| 10> %scf
| 11>   MaxIter 150
| 12> end
| 13>
| 14>
| 15>                          ****END OF INPUT****

CARTESIAN COORDINATES (ANGSTROEM)
---------------------------------
  C      3.913853   -1.658291    3.015134
  N      5.039266   -0.901154    2.492821
  C      4.084215    1.742081   -2.114724
  C      4.265245    2.500518   -0.795890
  H      4.868534    3.392674   -0.981134
  H      3.307640    2.824571   -0.387809
  C      4.982240    1.650257    0.247422
  C      6.210384   -1.417261    2.178244
  N      6.535913   -2.677122    2.556078
  C      7.076754   -0.700820    1.478906
  H      7.954643   -1.121554    1.207554
  H      6.756161    0.106637    0.960278
  H      4.842168    0.017609    2.115191
  H      5.993876   -3.126918    3.282784
  H      7.498441   -2.975482    2.468776
  F      4.368065    1.389270    1.313706
  O      6.128919    1.233512   -0.045620
  C      3.139159   -2.376572    1.910609
  H      3.267235   -0.939401    3.520693
  H      4.247195   -2.355095    3.790065
  C      1.997274    0.430918   -1.399218
  C      3.412746    0.376886   -1.965497
  H      4.047407   -0.246590   -1.326706
  H      3.390774   -0.118719   -2.942839
  H      5.068475    1.598504   -2.565728
  H      3.503356    2.363939   -2.804565
  C      2.399946   -1.389579    1.009490
  H      2.440750   -3.087118    2.362976
  H      3.844475   -2.970462    1.318677
  C      2.070177   -1.936705   -0.372401
  H      1.481611   -1.061542    1.509912
  H      3.008628   -0.490001    0.897451
  C      1.322238   -0.935775   -1.256413
  H      1.472747   -2.850902   -0.283997
  H      3.003539   -2.234041   -0.862535
  H      1.376444    1.058920   -2.047420
  H      2.015341    0.929780   -0.426535
  H      0.316648   -0.787213   -0.848278
  H      1.185611   -1.379252   -2.248613

 Total Charge           Charge          ....    0
 Multiplicity           Mult            ....    1
 Number of Electrons    NEL             ....  126
 Basis Dimension        Dim             ....  510

ORBITAL ENERGIES
----------------

  NO   OCC          E(Eh)            E(eV)
   0   2.0000     -24.871383      -676.7847
   1   2.0000     -19.233542      -523.3713
   2   2.0000     -14.386516      -391.4770
   3   2.0000     -14.380296      -391.3077
   4   2.0000     -10.458527      -284.5910
   5   2.0000     -10.295703      -280.1603
   6   2.0000     -10.286031      -279.8971
   7   2.0000     -10.281796      -279.7819
   8   2.0000     -10.275910      -279.6217
   9   2.0000     -10.262726      -279.2630
  10   2.0000     -10.260501      -279.2024
  11   2.0000     -10.256598      -279.0962
  12   2.0000     -10.252768      -278.9920
  13   2.0000     -10.252546      -278.9859
  14   2.0000     -10.248661      -278.8802
  15   2.0000     -10.131525      -275.6928
  16   2.0000      -1.416655       -38.5491
  17   2.0000      -1.125310       -30.6212
  18   2.0000      -1.026120       -27.9221
  19   2.0000      -0.939937       -25.5770
  20   2.0000      -0.913048       -24.8453
  21   2.0000      -0.886298       -24.1174
  22   2.0000      -0.856084       -23.2952
  23   2.0000      -0.817957       -22.2577
  24   2.0000      -0.792308       -21.5598
  25   2.0000      -0.767828       -20.8936
  26   2.0000      -0.742799       -20.2126
  27   2.0000      -0.718868       -19.5614
  28   2.0000      -0.685478       -18.6528
  29   2.0000      -0.675491       -18.3811
  30   2.0000      -0.656944       -17.8763
  31   2.0000      -0.650078       -17.6895
  32   2.0000      -0.636873       -17.3302
  33   2.0000      -0.622538       -16.9401
  34   2.0000      -0.603874       -16.4323
  35   2.0000      -0.581669       -15.8280
  36   2.0000      -0.562939       -15.3183
  37   2.0000      -0.555820       -15.1246
  38   2.0000      -0.544940       -14.8286
  39   2.0000      -0.534118       -14.5341
  40   2.0000      -0.528587       -14.3836
  41   2.0000      -0.513723       -13.9791
  42   2.0000      -0.503237       -13.6938
  43   2.0000      -0.499183       -13.5834
  44   2.0000      -0.488765       -13.3000
  45   2.0000      -0.471332       -12.8256
  46   2.0000      -0.466877       -12.7044
  47   2.0000      -0.457649       -12.4533
  48   2.0000      -0.445979       -12.1357
  49   2.0000      -0.438120       -11.9219
  50   2.0000      -0.434778       -11.8309
  51   2.0000      -0.432213       -11.7611
  52   2.0000      -0.423164       -11.5149
  53   2.0000      -0.416226       -11.3261
  54   2.0000      -0.409834       -11.1522
  55   2.0000      -0.402404       -10.9500
  56   2.0000      -0.395114       -10.7516
  57   2.0000      -0.383453       -10.4343
  58   2.0000      -0.381162       -10.3719
  59   2.0000      -0.377820       -10.2810
  60   2.0000      -0.338690        -9.2162
  61   2.0000      -0.303584        -8.2609
  62   2.0000      -0.197847        -5.3837
  63   0.0000       0.000510         0.0139
  64   0.0000       0.042472         1.1557
  65   0.0000       0.055568         1.5121
  66   0.0000       0.056830         1.5464
  67   0.0000       0.061521         1.6741

MULLIKEN ATOMIC CHARGES
-----------------------
   0 C :    1.355841
   1 N :    0.409423
   2 C :    0.566948
   3 C :    0.464302
   4 H :   -0.186099
   5 H :    0.094015
   6 C :    0.408944
   7 C :    0.732000
   8 N :    0.243031
   9 C :    1.040338
  10 H :   -0.451807
  11 H :   -0.958786
  12 H :   -1.119661
  13 H :   -0.146324
  14 H :   -0.220021
  15 F :   -0.478253
  16 O :   -0.406719
  17 C :    0.467431
  18 H :   -0.418313
  19 H :   -0.330425
  20 C :    0.058391
  21 C :    0.043430
  22 H :   -0.119592
  23 H :   -0.227603
  24 H :   -0.054339
  25 H :   -0.181198
  26 C :    0.817715
  27 H :   -0.248910
  28 H :   -0.072377
  29 C :    0.174928
  30 H :   -0.063662
  31 H :   -1.084280
  32 C :    0.848995
  33 H :   -0.481620
  34 H :    0.056855
  35 H :   -0.484154
  36 H :    0.093335
  37 H :   -0.059740
  38 H :   -0.082039
Sum of atomic charges:    0.0000000

LOEWDIN ATOMIC CHARGES
----------------------
   0 C :    0.054917
   1 N :    0.010230
   2 C :   -0.009866
   3 C :    0.058490
   4 H :    0.044009
   5 H :    0.021489
   6 C :    0.047618
   7 C :   -0.218243
   8 N :    0.198377
   9 C :    0.173117
  10 H :   -0.096056
  11 H :   -0.199675
  12 H :   -0.051960
  13 H :   -0.036458
  14 H :   -0.000391
  15 F :   -0.027523
  16 O :   -0.099909
  17 C :   -0.017987
  18 H :    0.023663
  19 H :    0.005301
  20 C :   -0.036256
  21 C :   -0.025867
  22 H :    0.015776
  23 H :    0.033945
  24 H :    0.031283
  25 H :    0.029642
  26 C :   -0.036342
  27 H :    0.021958
  28 H :    0.021539
  29 C :   -0.036349
  30 H :    0.035519
  31 H :   -0.025062
  32 C :   -0.029522
  33 H :    0.025954
  34 H :    0.020795
  35 H :    0.025912
  36 H :    0.002407
  37 H :    0.022873
  38 H :    0.022653

  Mayer bond orders larger than 0.100000
B(  0-C ,  1-N ) :   0.9489 B(  0-C , 12-H ) :  -0.4861 B(  0-C , 17-C ) :   1.0351
B(  0-C , 18-H ) :   0.5201 B(  0-C , 19-H ) :   0.7159 B(  0-C , 26-C ) :   0.1749
B(  1-N ,  7-C ) :   1.1421 B(  1-N ,  8-N ) :   0.1784 B(  1-N ,  9-C ) :   0.1253
B(  1-N , 12-H ) :   0.7977 B(  1-N , 18-H ) :   0.2215 B(  1-N , 19-H ) :   0.1040
B(  2-C ,  3-C ) :   1.1329 B(  2-C ,  4-H ) :   0.1793 B(  2-C ,  5-H ) :   0.1032
B(  2-C ,  6-C ) :   0.1095 B(  2-C , 21-C ) :   1.2296 B(  2-C , 22-H ) :   0.1123
B(  2-C , 24-H ) :   0.6384 B(  2-C , 25-H ) :   0.7629 B(  3-C ,  4-H ) :   0.5867
B(  3-C ,  5-H ) :   0.7293 B(  3-C ,  6-C ) :   1.2264 B(  3-C , 21-C ) :   0.1296
B(  3-C , 24-H ) :   0.1148 B(  3-C , 25-H ) :   0.1648 B(  4-H ,  6-C ) :   0.3095
B(  5-H ,  6-C ) :   0.2231 B(  6-C , 15-F ) :   0.6924 B(  6-C , 16-O ) :   1.8420
B(  7-C ,  8-N ) :   0.8388 B(  7-C ,  9-C ) :   1.5127 B(  7-C , 10-H ) :   0.2982
B(  7-C , 12-H ) :  -0.6731 B(  7-C , 19-H ) :  -0.1059 B(  8-N ,  9-C ) :   0.2735
B(  8-N , 13-H ) :   1.0005 B(  8-N , 14-H ) :   1.2132 B(  8-N , 19-H ) :   0.1091
B(  9-C , 10-H ) :   0.4016 B(  9-C , 11-H ) :   0.2822 B( 10-H , 11-H ) :   0.2916
B( 12-H , 15-F ) :   0.1982 B( 12-H , 18-H ) :   0.1863 B( 13-H , 14-H ) :  -0.1976
B( 15-F , 31-H ) :   0.1008 B( 17-C , 19-H ) :   0.1944 B( 17-C , 26-C ) :   1.0838
B( 17-C , 27-H ) :   0.8735 B( 17-C , 28-H ) :   0.8440 B( 17-C , 29-C ) :   0.1040
B( 17-C , 30-H ) :   0.1548 B( 18-H , 19-H ) :  -0.2564 B( 20-C , 21-C ) :   1.1965
B( 20-C , 22-H ) :   0.1129 B( 20-C , 23-H ) :   0.1624 B( 20-C , 29-C ) :   0.1410
B( 20-C , 32-C ) :   1.1338 B( 20-C , 35-H ) :   0.9423 B( 20-C , 36-H ) :   0.8219
B( 20-C , 37-H ) :   0.3166 B( 20-C , 38-H ) :   0.1481 B( 21-C , 22-H ) :   0.9140
B( 21-C , 23-H ) :   0.8243 B( 21-C , 24-H ) :   0.2688 B( 21-C , 25-H ) :   0.1865
B( 21-C , 35-H ) :   0.1210 B( 21-C , 36-H ) :   0.1198 B( 24-H , 25-H ) :  -0.1476
B( 26-C , 27-H ) :   0.1754 B( 26-C , 29-C ) :   1.2199 B( 26-C , 30-H ) :   0.5879
B( 26-C , 31-H ) :  -0.1004 B( 26-C , 34-H ) :   0.1731 B( 27-H , 31-H ) :   0.1164
B( 28-H , 33-H ) :  -0.1015 B( 29-C , 31-H ) :   0.1660 B( 29-C , 32-C ) :   1.0839
B( 29-C , 33-H ) :   0.9599 B( 29-C , 34-H ) :   0.8143 B( 29-C , 37-H ) :   0.1183
B( 29-C , 38-H ) :   0.2594 B( 30-H , 31-H ) :   0.2556 B( 31-H , 36-H ) :   0.1060
B( 32-C , 37-H ) :   0.6037 B( 32-C , 38-H ) :   0.6425 B( 37-H , 38-H ) :  -0.1358

FINAL SINGLE POINT ENERGY      -754.755676437790

DIPOLE MOMENT
-------------
                                X             Y             Z
Electronic contribution:      9.43471       8.69508       6.68474
Nuclear contribution   :    -11.12616      -8.32792      -6.96231
                        -----------------------------------------
Total Dipole Moment    :     -1.69145       0.36716      -0.27757
                        -----------------------------------------
Magnitude (a.u.)       :      1.75295
Magnitude (Debye)      :      4.45566

Rotational constants in cm-1:     0.020226     0.013574     0.009520
Rotational constants in MHz :   606.360011   406.923773   285.390769

                             ****ORCA TERMINATED NORMALLY****
TOTAL RUN TIME: 0 days 0 hours 7 minutes 14 seconds 117 msec
