                         Program Version 5.0.0 -  RELEASE  -
|  1> !CAM-B3LYP RIJCOSX def2-SVPD def2/J TightSCF xyzfile
|  2>
|  3> *xyzfile 0 1 D5.xyz
|  4>
|  5> %MaxCore 64000
|  6>
|  7> %pal nprocs 4
|  8> end
|  9>
| 10> %scf
| 11>   MaxIter 150
| 12> end
| 13>
| 14>
| 15>                          ****END OF INPUT****

CARTESIAN COORDINATES (ANGSTROEM)
---------------------------------
  C      3.913853   -1.658291    3.015134
  N      5.039266   -0.901154    2.492821
  C      4.084215    1.742081   -2.114724
  C      4.265245    2.500518   -0.795890
  H      4.868534    3.392674   -0.981134
  H      3.307640    2.824571   -0.387809
  C      4.982240    1.650257    0.247422
  C      6.210384   -1.417261    2.178244
  C      6.535913   -2.677122    2.556078
  N      7.076754   -0.700820    1.478906
  H      7.954643   -1.121554    1.207554
  H      6.756161    0.106637    0.960278
  H      4.842168    0.017609    2.115191
  H      5.993876   -3.126918    3.282784
  H      7.498441   -2.975482    2.468776
  O      4.368065    1.389270    1.313706
  F      6.128919    1.233512   -0.045620
  C      3.139159   -2.376572    1.910609
  H      3.267235   -0.939401    3.520693
  H      4.247195   -2.355095    3.790065
  C      1.997274    0.430918   -1.399218
  C      3.412746    0.376886   -1.965497
  H      4.047407   -0.246590   -1.326706
  H      3.390774   -0.118719   -2.942839
  H      5.068475    1.598504   -2.565728
  H      3.503356    2.363939   -2.804565
  C      2.399946   -1.389579    1.009490
  H      2.440750   -3.087118    2.362976
  H      3.844475   -2.970462    1.318677
  C      2.070177   -1.936705   -0.372401
  H      1.481611   -1.061542    1.509912
  H      3.008628   -0.490001    0.897451
  C      1.322238   -0.935775   -1.256413
  H      1.472747   -2.850902   -0.283997
  H      3.003539   -2.234041   -0.862535
  H      1.376444    1.058920   -2.047420
  H      2.015341    0.929780   -0.426535
  H      0.316648   -0.787213   -0.848278
  H      1.185611   -1.379252   -2.248613

 Total Charge           Charge          ....    0
 Multiplicity           Mult            ....    1
 Number of Electrons    NEL             ....  126
 Basis Dimension        Dim             ....  510

ORBITAL ENERGIES
----------------

  NO   OCC          E(Eh)            E(eV)
   0   2.0000     -24.891797      -677.3402
   1   2.0000     -19.264393      -524.2108
   2   2.0000     -14.381853      -391.3501
   3   2.0000     -14.369666      -391.0185
   4   2.0000     -10.483875      -285.2807
   5   2.0000     -10.310654      -280.5672
   6   2.0000     -10.291172      -280.0370
   7   2.0000     -10.286884      -279.9203
   8   2.0000     -10.273006      -279.5427
   9   2.0000     -10.268918      -279.4315
  10   2.0000     -10.262058      -279.2448
  11   2.0000     -10.255025      -279.0534
  12   2.0000     -10.247277      -278.8426
  13   2.0000     -10.240314      -278.6531
  14   2.0000     -10.234965      -278.5076
  15   2.0000     -10.149190      -276.1735
  16   2.0000      -1.438436       -39.1418
  17   2.0000      -1.151986       -31.3471
  18   2.0000      -1.025116       -27.8948
  19   2.0000      -0.942047       -25.6344
  20   2.0000      -0.925243       -25.1771
  21   2.0000      -0.887646       -24.1541
  22   2.0000      -0.850230       -23.1359
  23   2.0000      -0.820400       -22.3242
  24   2.0000      -0.786184       -21.3931
  25   2.0000      -0.770461       -20.9653
  26   2.0000      -0.757153       -20.6032
  27   2.0000      -0.725932       -19.7536
  28   2.0000      -0.695013       -18.9123
  29   2.0000      -0.672751       -18.3065
  30   2.0000      -0.671059       -18.2605
  31   2.0000      -0.666696       -18.1417
  32   2.0000      -0.629467       -17.1287
  33   2.0000      -0.626089       -17.0368
  34   2.0000      -0.607180       -16.5222
  35   2.0000      -0.580331       -15.7916
  36   2.0000      -0.573858       -15.6155
  37   2.0000      -0.563997       -15.3471
  38   2.0000      -0.560359       -15.2481
  39   2.0000      -0.539256       -14.6739
  40   2.0000      -0.523619       -14.2484
  41   2.0000      -0.516686       -14.0597
  42   2.0000      -0.503998       -13.7145
  43   2.0000      -0.492984       -13.4148
  44   2.0000      -0.485383       -13.2079
  45   2.0000      -0.484036       -13.1713
  46   2.0000      -0.472247       -12.8505
  47   2.0000      -0.459978       -12.5166
  48   2.0000      -0.457050       -12.4370
  49   2.0000      -0.446393       -12.1470
  50   2.0000      -0.436676       -11.8826
  51   2.0000      -0.427847       -11.6423
  52   2.0000      -0.423761       -11.5311
  53   2.0000      -0.415834       -11.3154
  54   2.0000      -0.408917       -11.1272
  55   2.0000      -0.406766       -11.0687
  56   2.0000      -0.390182       -10.6174
  57   2.0000      -0.383244       -10.4286
  58   2.0000      -0.377203       -10.2642
  59   2.0000      -0.373956       -10.1759
  60   2.0000      -0.369285       -10.0487
  61   2.0000      -0.292057        -7.9473
  62   2.0000      -0.202165        -5.5012
  63   0.0000      -0.019022        -0.5176
  64   0.0000       0.030862         0.8398
  65   0.0000       0.052560         1.4302
  66   0.0000       0.055277         1.5042
  67   0.0000       0.061730         1.6798

MULLIKEN ATOMIC CHARGES
-----------------------
   0 C :    1.303305
   1 N :    0.413045
   2 C :    0.567925
   3 C :    0.441354
   4 H :   -0.170311
   5 H :    0.065067
   6 C :    0.570514
   7 C :    0.513141
   8 C :    0.716923
   9 N :    0.657716
  10 H :   -0.125428
  11 H :   -0.593338
  12 H :   -1.250192
  13 H :   -0.147732
  14 H :   -0.732877
  15 O :   -0.560484
  16 F :   -0.427328
  17 C :    0.498258
  18 H :   -0.428743
  19 H :   -0.222600
  20 C :    0.045569
  21 C :    0.059726
  22 H :   -0.117878
  23 H :   -0.238030
  24 H :   -0.092862
  25 H :   -0.180464
  26 C :    0.864972
  27 H :   -0.218842
  28 H :   -0.102585
  29 C :    0.183339
  30 H :   -0.101975
  31 H :   -1.092226
  32 C :    0.862694
  33 H :   -0.496906
  34 H :    0.061563
  35 H :   -0.485632
  36 H :    0.104228
  37 H :   -0.054494
  38 H :   -0.088409
Sum of atomic charges:    0.0000000

LOEWDIN ATOMIC CHARGES
----------------------
   0 C :    0.065136
   1 N :    0.015628
   2 C :   -0.015978
   3 C :    0.065792
   4 H :    0.041788
   5 H :    0.035559
   6 C :    0.050000
   7 C :   -0.219746
   8 C :    0.150137
   9 N :    0.213984
  10 H :    0.009689
  11 H :   -0.093646
  12 H :   -0.097698
  13 H :   -0.126401
  14 H :   -0.114913
  15 O :   -0.104718
  16 F :   -0.014198
  17 C :   -0.011951
  18 H :    0.025477
  19 H :    0.010539
  20 C :   -0.031572
  21 C :   -0.027202
  22 H :    0.013990
  23 H :    0.034272
  24 H :    0.025832
  25 H :    0.031799
  26 C :   -0.035009
  27 H :    0.022913
  28 H :    0.017867
  29 C :   -0.037646
  30 H :    0.035293
  31 H :   -0.028779
  32 C :   -0.029378
  33 H :    0.025883
  34 H :    0.018544
  35 H :    0.026002
  36 H :    0.007524
  37 H :    0.023844
  38 H :    0.021344

  Mayer bond orders larger than 0.100000
B(  0-C ,  1-N ) :   0.9693 B(  0-C , 12-H ) :  -0.5427 B(  0-C , 17-C ) :   1.0213
B(  0-C , 18-H ) :   0.6124 B(  0-C , 19-H ) :   0.6986 B(  0-C , 26-C ) :   0.1746
B(  1-N ,  7-C ) :   0.9230 B(  1-N ,  8-C ) :   0.4201 B(  1-N , 12-H ) :   0.7480
B(  1-N , 18-H ) :   0.2284 B(  2-C ,  3-C ) :   1.1439 B(  2-C ,  4-H ) :   0.1823
B(  2-C ,  6-C ) :   0.1109 B(  2-C , 21-C ) :   1.2059 B(  2-C , 22-H ) :   0.1014
B(  2-C , 24-H ) :   0.6355 B(  2-C , 25-H ) :   0.7801 B(  3-C ,  4-H ) :   0.6134
B(  3-C ,  5-H ) :   0.7537 B(  3-C ,  6-C ) :   1.1799 B(  3-C , 21-C ) :   0.1048
B(  3-C , 24-H ) :   0.1058 B(  3-C , 25-H ) :   0.1611 B(  4-H ,  6-C ) :   0.2784
B(  5-H ,  6-C ) :   0.2170 B(  6-C , 15-O ) :   1.7429 B(  6-C , 16-F ) :   0.5563
B(  7-C ,  8-C ) :   1.5815 B(  7-C ,  9-N ) :   0.9384 B(  7-C , 11-H ) :  -0.1162
B(  7-C , 12-H ) :  -0.5844 B(  7-C , 13-H ) :   0.3774 B(  7-C , 14-H ) :   0.4011
B(  8-C ,  9-N ) :   0.2375 B(  8-C , 12-H ) :  -0.1025 B(  8-C , 13-H ) :   0.5567
B(  8-C , 14-H ) :   0.4718 B(  9-N , 10-H ) :   1.1323 B(  9-N , 11-H ) :   0.9751
B( 10-H , 11-H ) :  -0.2354 B( 11-H , 12-H ) :   0.1299 B( 11-H , 16-F ) :   0.1219
B( 12-H , 15-O ) :   0.2330 B( 12-H , 18-H ) :   0.1477 B( 13-H , 18-H ) :  -0.1044
B( 13-H , 19-H ) :   0.1435 B( 15-O , 16-F ) :   0.1134 B( 17-C , 19-H ) :   0.1725
B( 17-C , 26-C ) :   1.1160 B( 17-C , 27-H ) :   0.8589 B( 17-C , 28-H ) :   0.8799
B( 17-C , 29-C ) :   0.1034 B( 17-C , 30-H ) :   0.1484 B( 18-H , 19-H ) :  -0.2988
B( 20-C , 21-C ) :   1.2132 B( 20-C , 22-H ) :   0.1302 B( 20-C , 23-H ) :   0.1569
B( 20-C , 29-C ) :   0.1374 B( 20-C , 32-C ) :   1.1298 B( 20-C , 35-H ) :   0.9441
B( 20-C , 36-H ) :   0.8210 B( 20-C , 37-H ) :   0.3150 B( 20-C , 38-H ) :   0.1474
B( 21-C , 22-H ) :   0.8931 B( 21-C , 23-H ) :   0.8423 B( 21-C , 24-H ) :   0.2764
B( 21-C , 25-H ) :   0.1760 B( 21-C , 35-H ) :   0.1202 B( 21-C , 36-H ) :   0.1241
B( 24-H , 25-H ) :  -0.1454 B( 26-C , 27-H ) :   0.1840 B( 26-C , 29-C ) :   1.2224
B( 26-C , 30-H ) :   0.5368 B( 26-C , 31-H ) :  -0.1935 B( 26-C , 34-H ) :   0.1702
B( 27-H , 31-H ) :   0.1184 B( 28-H , 33-H ) :  -0.1080 B( 29-C , 31-H ) :   0.1631
B( 29-C , 32-C ) :   1.0868 B( 29-C , 33-H ) :   0.9613 B( 29-C , 34-H ) :   0.8117
B( 29-C , 37-H ) :   0.1196 B( 29-C , 38-H ) :   0.2604 B( 30-H , 31-H ) :   0.3436
B( 31-H , 36-H ) :   0.1120 B( 32-C , 37-H ) :   0.6072 B( 32-C , 38-H ) :   0.6332
B( 33-H , 34-H ) :  -0.1020 B( 37-H , 38-H ) :  -0.1391

FINAL SINGLE POINT ENERGY      -754.776331815743

DIPOLE MOMENT
-------------
                                X             Y             Z
Electronic contribution:     12.75691      10.39892       3.22117
Nuclear contribution   :    -13.35170      -8.48261      -5.12969
                        -----------------------------------------
Total Dipole Moment    :     -0.59479       1.91631      -1.90852
                        -----------------------------------------
Magnitude (a.u.)       :      2.76920
Magnitude (Debye)      :      7.03874

Rotational constants in cm-1:     0.019886     0.013843     0.009504
Rotational constants in MHz :   596.157485   415.004628   284.931121

                             ****ORCA TERMINATED NORMALLY****
TOTAL RUN TIME: 0 days 0 hours 7 minutes 17 seconds 223 msec
