                         Program Version 5.0.0 -  RELEASE  -
|  1> !wB97X-D3 RIJCOSX def2-SVPD def2/J TightSCF CPCM(Water)
|  2> *xyz -1 1
|  3> C          0.13297        2.38587       -4.02462
|  4> C         -1.36646        2.47911       -4.31393
|  5> C         -2.35773        2.30686       -3.13675
|  6> H         -1.63680        1.72709       -5.06399
|  7> H         -1.58235        3.44561       -4.76869
|  8> O         -3.44376        2.84652       -3.25274
|  9> O         -1.97092        1.58304       -2.15123
| 10> H          0.68084        2.52514       -4.93310
| 11> H          0.35823        1.42282       -3.61633
| 12> H          0.40851        3.14443       -3.32208
| 13> *
| 14> %MaxCore 64000
| 15>
| 16> %pal nprocs 18
| 17> end
| 18>
| 19> %scf
| 20>   MaxIter 150
| 21> end
| 22>
| 23>
| 24>                          ****END OF INPUT****

CARTESIAN COORDINATES (ANGSTROEM)
---------------------------------
  C      0.132970    2.385870   -4.024620
  C     -1.366460    2.479110   -4.313930
  C     -2.357730    2.306860   -3.136750
  H     -1.636800    1.727090   -5.063990
  H     -1.582350    3.445610   -4.768690
  O     -3.443760    2.846520   -3.252740
  O     -1.970920    1.583040   -2.151230
  H      0.680840    2.525140   -4.933100
  H      0.358230    1.422820   -3.616330
  H      0.408510    3.144430   -3.322080

 Total Charge           Charge          ....   -1
 Multiplicity           Mult            ....    1
 Number of Electrons    NEL             ....   40
 Basis Dimension        Dim             ....  146

ORBITAL ENERGIES
----------------

  NO   OCC          E(Eh)            E(eV)
   0   2.0000     -19.182949      -521.9946
   1   2.0000     -19.173409      -521.7350
   2   2.0000     -10.366897      -282.0976
   3   2.0000     -10.270091      -279.4634
   4   2.0000     -10.262442      -279.2553
   5   2.0000      -1.130830       -30.7714
   6   2.0000      -1.028304       -27.9816
   7   2.0000      -0.861367       -23.4390
   8   2.0000      -0.730959       -19.8904
   9   2.0000      -0.586555       -15.9610
  10   2.0000      -0.548306       -14.9202
  11   2.0000      -0.537728       -14.6323
  12   2.0000      -0.509715       -13.8700
  13   2.0000      -0.488404       -13.2901
  14   2.0000      -0.473079       -12.8731
  15   2.0000      -0.437006       -11.8915
  16   2.0000      -0.421220       -11.4620
  17   2.0000      -0.344443        -9.3728
  18   2.0000      -0.328623        -8.9423
  19   2.0000      -0.323988        -8.8162
  20   0.0000       0.094145         2.5618
  21   0.0000       0.122423         3.3313
  22   0.0000       0.130891         3.5617
  23   0.0000       0.137311         3.7364
  24   0.0000       0.160518         4.3679

MULLIKEN ATOMIC CHARGES
-----------------------
   0 C :    0.607430
   1 C :   -0.432076
   2 C :    0.397507
   3 H :    0.029235
   4 H :   -0.016035
   5 O :   -0.657406
   6 O :   -0.787082
   7 H :   -0.028366
   8 H :   -0.063648
   9 H :   -0.049559
Sum of atomic charges:   -1.0000000

LOEWDIN ATOMIC CHARGES
----------------------
   0 C :    0.104753
   1 C :   -0.034743
   2 C :   -0.322986
   3 H :    0.027341
   4 H :    0.009322
   5 O :   -0.334104
   6 O :   -0.385381
   7 H :   -0.020411
   8 H :   -0.026887
   9 H :   -0.016903

  Mayer bond orders larger than 0.100000
B(  0-C ,  1-C ) :   1.2968 B(  0-C ,  7-H ) :   0.7923 B(  0-C ,  8-H ) :   0.8259
B(  0-C ,  9-H ) :   0.8412 B(  1-C ,  2-C ) :   1.0316 B(  1-C ,  3-H ) :   0.9134
B(  1-C ,  4-H ) :   0.9360 B(  1-C ,  7-H ) :   0.2074 B(  1-C ,  8-H ) :   0.1972
B(  1-C ,  9-H ) :   0.1747 B(  2-C ,  4-H ) :   0.1370 B(  2-C ,  5-O ) :   1.5460
B(  2-C ,  6-O ) :   1.4516 B(  5-O ,  6-O ) :   0.1467

Dispersion correction           -0.001941517
FINAL SINGLE POINT ENERGY      -267.690905753383

DIPOLE MOMENT
-------------
                                X             Y             Z
Electronic contribution:     -4.71039      -0.24431       2.62373
Nuclear contribution   :      6.75610       0.63068      -4.53972
                        -----------------------------------------
Total Dipole Moment    :      2.04570       0.38637      -1.91599
                        -----------------------------------------
Magnitude (a.u.)       :      2.82935
Magnitude (Debye)      :      7.19163

Rotational constants in cm-1:     0.335096     0.130241     0.099025
Rotational constants in MHz : 10045.924902  3904.536250  2968.708333

                             ****ORCA TERMINATED NORMALLY****
TOTAL RUN TIME: 0 days 0 hours 0 minutes 8 seconds 101 msec
