                         Program Version 5.0.0 -  RELEASE  -
|  1> !wB97X-D3 RIJCOSX def2-SVPD def2/J TightSCF CPCM(Water)
|  2> *xyz 1 1
|  3> C          0.64866        1.00359       -3.64560
|  4> N          0.28128        0.67645       -2.24018
|  5> C          0.13297        2.38587       -4.02462
|  6> H          0.39079       -0.31925       -2.02649
|  7> H         -0.69269        0.99010       -2.13812
|  8> H          0.85421        1.21221       -1.57528
|  9> H          0.19099        0.23965       -4.27575
| 10> H          1.73157        0.93173       -3.75075
| 11> H          0.40589        2.60338       -5.03610
| 12> H          0.56342        3.11797       -3.37374
| 13> H         -0.93265        2.40724       -3.93025
| 14> *
| 15> %MaxCore 64000
| 16>
| 17> %pal nprocs 18
| 18> end
| 19>
| 20> %scf
| 21>   MaxIter 150
| 22> end
| 23>
| 24>
| 25>                          ****END OF INPUT****

CARTESIAN COORDINATES (ANGSTROEM)
---------------------------------
  C      0.648660    1.003590   -3.645600
  N      0.281280    0.676450   -2.240180
  C      0.132970    2.385870   -4.024620
  H      0.390790   -0.319250   -2.026490
  H     -0.692690    0.990100   -2.138120
  H      0.854210    1.212210   -1.575280
  H      0.190990    0.239650   -4.275750
  H      1.731570    0.931730   -3.750750
  H      0.405890    2.603380   -5.036100
  H      0.563420    3.117970   -3.373740
  H     -0.932650    2.407240   -3.930250

 Total Charge           Charge          ....    1
 Multiplicity           Mult            ....    1
 Number of Electrons    NEL             ....   26
 Basis Dimension        Dim             ....  124

ORBITAL ENERGIES
----------------

  NO   OCC          E(Eh)            E(eV)
   0   2.0000     -14.555958      -396.0878
   1   2.0000     -10.351869      -281.6887
   2   2.0000     -10.290362      -280.0150
   3   2.0000      -1.109969       -30.2038
   4   2.0000      -0.885483       -24.0952
   5   2.0000      -0.759055       -20.6549
   6   2.0000      -0.688813       -18.7435
   7   2.0000      -0.681540       -18.5456
   8   2.0000      -0.596275       -16.2255
   9   2.0000      -0.553205       -15.0535
  10   2.0000      -0.501773       -13.6539
  11   2.0000      -0.483815       -13.1653
  12   2.0000      -0.464544       -12.6409
  13   0.0000       0.085792         2.3345
  14   0.0000       0.119571         3.2537
  15   0.0000       0.127922         3.4809
  16   0.0000       0.148559         4.0425
  17   0.0000       0.166145         4.5210

MULLIKEN ATOMIC CHARGES
-----------------------
   0 C :    0.107818
   1 N :   -0.912189
   2 C :    0.415870
   3 H :    0.403801
   4 H :    0.501033
   5 H :    0.446448
   6 H :   -0.007093
   7 H :   -0.037764
   8 H :    0.006169
   9 H :    0.052691
  10 H :    0.023216
Sum of atomic charges:    1.0000000

LOEWDIN ATOMIC CHARGES
----------------------
   0 C :    0.053656
   1 N :    0.351516
   2 C :    0.150628
   3 H :    0.117394
   4 H :    0.109552
   5 H :    0.120009
   6 H :    0.050860
   7 H :    0.049697
   8 H :    0.001177
   9 H :   -0.001490
  10 H :   -0.003000

  Mayer bond orders larger than 0.100000
B(  0-C ,  1-N ) :   0.7571 B(  0-C ,  2-C ) :   1.2889 B(  0-C ,  6-H ) :   0.9618
B(  0-C ,  7-H ) :   0.9788 B(  0-C ,  8-H ) :   0.1680 B(  0-C ,  9-H ) :   0.1229
B(  0-C , 10-H ) :   0.1325 B(  1-N ,  3-H ) :   0.7245 B(  1-N ,  4-H ) :   0.5868
B(  1-N ,  5-H ) :   0.6976 B(  2-C ,  8-H ) :   0.8557 B(  2-C ,  9-H ) :   0.8538
B(  2-C , 10-H ) :   0.8696

Dispersion correction           -0.001486574
FINAL SINGLE POINT ENERGY      -135.520947615221

DIPOLE MOMENT
-------------
                                X             Y             Z
Electronic contribution:      0.14068      -1.51947       1.67052
Nuclear contribution   :     -0.22655       0.48066      -0.09136
                        -----------------------------------------
Total Dipole Moment    :     -0.08587      -1.03882       1.57917
                        -----------------------------------------
Magnitude (a.u.)       :      1.89216
Magnitude (Debye)      :      4.80950

Rotational constants in cm-1:     0.998155     0.284845     0.251232
Rotational constants in MHz : 29923.943568  8539.431565  7531.732866

                             ****ORCA TERMINATED NORMALLY****
TOTAL RUN TIME: 0 days 0 hours 0 minutes 6 seconds 365 msec
