                         Program Version 5.0.0 -  RELEASE  -
|  1> !wB97X-D3 RIJCOSX def2-SVPD def2/J TightSCF CPCM(Water)
|  2> *xyz 0 1
|  3> C          0.13297        2.38587       -4.02462
|  4> C         -1.36646        2.47911       -4.31393
|  5> C         -2.35773        2.30686       -3.13675
|  6> H         -1.63680        1.72709       -5.06399
|  7> H         -1.58235        3.44561       -4.76869
|  8> F         -3.44376        2.84652       -3.25274
|  9> O         -1.97092        1.58304       -2.15123
| 10> H          0.68084        2.52514       -4.93310
| 11> H          0.35823        1.42282       -3.61633
| 12> H          0.40851        3.14443       -3.32208
| 13> *
| 14> %MaxCore 64000
| 15>
| 16> %pal nprocs 18
| 17> end
| 18>
| 19> %scf
| 20>   MaxIter 150
| 21> end
| 22>
| 23>
| 24>                          ****END OF INPUT****

CARTESIAN COORDINATES (ANGSTROEM)
---------------------------------
  C      0.132970    2.385870   -4.024620
  C     -1.366460    2.479110   -4.313930
  C     -2.357730    2.306860   -3.136750
  H     -1.636800    1.727090   -5.063990
  H     -1.582350    3.445610   -4.768690
  F     -3.443760    2.846520   -3.252740
  O     -1.970920    1.583040   -2.151230
  H      0.680840    2.525140   -4.933100
  H      0.358230    1.422820   -3.616330
  H      0.408510    3.144430   -3.322080

 Total Charge           Charge          ....    0
 Multiplicity           Mult            ....    1
 Number of Electrons    NEL             ....   40
 Basis Dimension        Dim             ....  146

ORBITAL ENERGIES
----------------

  NO   OCC          E(Eh)            E(eV)
   0   2.0000     -24.889864      -677.2876
   1   2.0000     -19.259110      -524.0670
   2   2.0000     -10.484942      -285.3098
   3   2.0000     -10.312057      -280.6053
   4   2.0000     -10.280425      -279.7446
   5   2.0000      -1.454480       -39.5784
   6   2.0000      -1.134394       -30.8684
   7   2.0000      -0.898613       -24.4525
   8   2.0000      -0.804706       -21.8972
   9   2.0000      -0.749537       -20.3959
  10   2.0000      -0.674683       -18.3591
  11   2.0000      -0.653127       -17.7725
  12   2.0000      -0.613945       -16.7063
  13   2.0000      -0.557471       -15.1695
  14   2.0000      -0.531213       -14.4550
  15   2.0000      -0.483510       -13.1570
  16   2.0000      -0.466223       -12.6866
  17   2.0000      -0.462980       -12.5983
  18   2.0000      -0.442050       -12.0288
  19   2.0000      -0.395669       -10.7667
  20   0.0000       0.051289         1.3957
  21   0.0000       0.090559         2.4642
  22   0.0000       0.119756         3.2587
  23   0.0000       0.133872         3.6428
  24   0.0000       0.151257         4.1159

MULLIKEN ATOMIC CHARGES
-----------------------
   0 C :    0.547822
   1 C :   -0.574898
   2 C :    0.781112
   3 H :    0.126370
   4 H :    0.082995
   5 F :   -0.332763
   6 O :   -0.585370
   7 H :    0.000134
   8 H :   -0.029641
   9 H :   -0.015761
Sum of atomic charges:    0.0000000

LOEWDIN ATOMIC CHARGES
----------------------
   0 C :    0.132827
   1 C :    0.009748
   2 C :    0.006868
   3 H :    0.051404
   4 H :    0.032447
   5 F :   -0.001780
   6 O :   -0.203713
   7 H :   -0.006649
   8 H :   -0.014559
   9 H :   -0.006593

  Mayer bond orders larger than 0.100000
B(  0-C ,  1-C ) :   1.3379 B(  0-C ,  7-H ) :   0.8057 B(  0-C ,  8-H ) :   0.8347
B(  0-C ,  9-H ) :   0.8537 B(  1-C ,  2-C ) :   1.1043 B(  1-C ,  3-H ) :   0.8933
B(  1-C ,  4-H ) :   0.9193 B(  1-C ,  7-H ) :   0.1963 B(  1-C ,  8-H ) :   0.1854
B(  1-C ,  9-H ) :   0.1704 B(  2-C ,  5-F ) :   0.8016 B(  2-C ,  6-O ) :   1.7789

Dispersion correction           -0.001917193
FINAL SINGLE POINT ENERGY      -292.113552066759

DIPOLE MOMENT
-------------
                                X             Y             Z
Electronic contribution:     -8.39625       0.67959       3.19256
Nuclear contribution   :      8.54799       0.05434      -4.66633
                        -----------------------------------------
Total Dipole Moment    :      0.15174       0.73393      -1.47376
                        -----------------------------------------
Magnitude (a.u.)       :      1.65338
Magnitude (Debye)      :      4.20255

Rotational constants in cm-1:     0.325803     0.123345     0.094275
Rotational constants in MHz :  9767.324172  3697.779805  2826.305733

                             ****ORCA TERMINATED NORMALLY****
TOTAL RUN TIME: 0 days 0 hours 0 minutes 8 seconds 423 msec
