                         Program Version 5.0.0 -  RELEASE  -
|  1> !wB97X-D3 RIJCOSX def2-SVPD def2/J TightSCF CPCM(Water)
|  2> *xyz 0 1
|  3> C          0.64866        1.00359       -3.64560
|  4> C          0.28128        0.67645       -2.24018
|  5> C          0.13297        2.38587       -4.02462
|  6> H          0.39079       -0.31925       -2.02649
|  7> H         -0.69269        0.99010       -2.13812
|  8> H          0.85421        1.21221       -1.57528
|  9> H          0.19099        0.23965       -4.27575
| 10> H          1.73157        0.93173       -3.75075
| 11> H          0.40589        2.60338       -5.03610
| 12> H          0.56342        3.11797       -3.37374
| 13> H         -0.93265        2.40724       -3.93025
| 14> *
| 15> %MaxCore 64000
| 16>
| 17> %pal nprocs 18
| 18> end
| 19>
| 20> %scf
| 21>   MaxIter 150
| 22> end
| 23>
| 24>
| 25>                          ****END OF INPUT****

CARTESIAN COORDINATES (ANGSTROEM)
---------------------------------
  C      0.648660    1.003590   -3.645600
  C      0.281280    0.676450   -2.240180
  C      0.132970    2.385870   -4.024620
  H      0.390790   -0.319250   -2.026490
  H     -0.692690    0.990100   -2.138120
  H      0.854210    1.212210   -1.575280
  H      0.190990    0.239650   -4.275750
  H      1.731570    0.931730   -3.750750
  H      0.405890    2.603380   -5.036100
  H      0.563420    3.117970   -3.373740
  H     -0.932650    2.407240   -3.930250

 Total Charge           Charge          ....    0
 Multiplicity           Mult            ....    1
 Number of Electrons    NEL             ....   26
 Basis Dimension        Dim             ....  124

ORBITAL ENERGIES
----------------

  NO   OCC          E(Eh)            E(eV)
   0   2.0000     -10.271895      -279.5125
   1   2.0000     -10.263889      -279.2946
   2   2.0000     -10.245179      -278.7855
   3   2.0000      -0.900042       -24.4914
   4   2.0000      -0.792359       -21.5612
   5   2.0000      -0.686225       -18.6731
   6   2.0000      -0.566590       -15.4177
   7   2.0000      -0.547236       -14.8911
   8   2.0000      -0.496778       -13.5180
   9   2.0000      -0.479459       -13.0467
  10   2.0000      -0.428711       -11.6658
  11   2.0000      -0.424785       -11.5590
  12   2.0000      -0.416139       -11.3237
  13   0.0000       0.102595         2.7917
  14   0.0000       0.127326         3.4647
  15   0.0000       0.134727         3.6661
  16   0.0000       0.168659         4.5894
  17   0.0000       0.185738         5.0542

MULLIKEN ATOMIC CHARGES
-----------------------
   0 C :   -0.641551
   1 C :    0.862409
   2 C :    0.517384
   3 H :   -0.195316
   4 H :   -0.153114
   5 H :   -0.139479
   6 H :   -0.048176
   7 H :   -0.094920
   8 H :   -0.074938
   9 H :   -0.021191
  10 H :   -0.011109
Sum of atomic charges:   -0.0000000

LOEWDIN ATOMIC CHARGES
----------------------
   0 C :   -0.123050
   1 C :    0.109499
   2 C :    0.108702
   3 H :   -0.031314
   4 H :   -0.032453
   5 H :   -0.026575
   6 H :    0.022142
   7 H :    0.020813
   8 H :   -0.020656
   9 H :   -0.012431
  10 H :   -0.014677

  Mayer bond orders larger than 0.100000
B(  0-C ,  1-C ) :   1.2360 B(  0-C ,  2-C ) :   1.2325 B(  0-C ,  3-H ) :   0.1806
B(  0-C ,  4-H ) :   0.2296 B(  0-C ,  5-H ) :   0.2092 B(  0-C ,  6-H ) :   0.9538
B(  0-C ,  7-H ) :   0.9952 B(  0-C ,  8-H ) :   0.1640 B(  0-C ,  9-H ) :   0.1594
B(  0-C , 10-H ) :   0.1446 B(  1-C ,  3-H ) :   0.7842 B(  1-C ,  4-H ) :   0.7564
B(  1-C ,  5-H ) :   0.7363 B(  2-C ,  8-H ) :   0.8659 B(  2-C ,  9-H ) :   0.8513
B(  2-C , 10-H ) :   0.8586 B(  4-H ,  5-H ) :   0.1117

Dispersion correction           -0.001434332
FINAL SINGLE POINT ENERGY      -119.013195152445

DIPOLE MOMENT
-------------
                                X             Y             Z
Electronic contribution:      0.25596      -0.28406      -0.23806
Nuclear contribution   :     -0.24754       0.26111       0.24628
                        -----------------------------------------
Total Dipole Moment    :      0.00842      -0.02295       0.00822
                        -----------------------------------------
Magnitude (a.u.)       :      0.02579
Magnitude (Debye)      :      0.06556

Rotational constants in cm-1:     1.006509     0.299509     0.263145
Rotational constants in MHz : 30174.379724  8979.049324  7888.875355

                             ****ORCA TERMINATED NORMALLY****
TOTAL RUN TIME: 0 days 0 hours 0 minutes 7 seconds 182 msec
