                         Program Version 5.0.0 -  RELEASE  -
|  1> !wB97X-D3 RIJCOSX def2-SVPD def2/J TightSCF CPCM(Water)
|  2> *xyz 0 1
|  3> C          0.13297        2.38587       -4.02462
|  4> C         -1.36646        2.47911       -4.31393
|  5> C         -2.35773        2.30686       -3.13675
|  6> H         -1.63680        1.72709       -5.06399
|  7> H         -1.58235        3.44561       -4.76869
|  8> O         -3.44376        2.84652       -3.25274
|  9> F         -1.97092        1.58304       -2.15123
| 10> H          0.68084        2.52514       -4.93310
| 11> H          0.35823        1.42282       -3.61633
| 12> H          0.40851        3.14443       -3.32208
| 13> *
| 14> %MaxCore 64000
| 15>
| 16> %pal nprocs 18
| 17> end
| 18>
| 19> %scf
| 20>   MaxIter 150
| 21> end
| 22>
| 23>
| 24>                          ****END OF INPUT****

CARTESIAN COORDINATES (ANGSTROEM)
---------------------------------
  C      0.132970    2.385870   -4.024620
  C     -1.366460    2.479110   -4.313930
  C     -2.357730    2.306860   -3.136750
  H     -1.636800    1.727090   -5.063990
  H     -1.582350    3.445610   -4.768690
  O     -3.443760    2.846520   -3.252740
  F     -1.970920    1.583040   -2.151230
  H      0.680840    2.525140   -4.933100
  H      0.358230    1.422820   -3.616330
  H      0.408510    3.144430   -3.322080

 Total Charge           Charge          ....    0
 Multiplicity           Mult            ....    1
 Number of Electrons    NEL             ....   40
 Basis Dimension        Dim             ....  146

ORBITAL ENERGIES
----------------

  NO   OCC          E(Eh)            E(eV)
   0   2.0000     -24.867900      -676.6900
   1   2.0000     -19.267801      -524.3035
   2   2.0000     -10.478776      -285.1420
   3   2.0000     -10.311053      -280.5780
   4   2.0000     -10.279644      -279.7233
   5   2.0000      -1.407388       -38.2970
   6   2.0000      -1.173649       -31.9366
   7   2.0000      -0.898747       -24.4562
   8   2.0000      -0.782618       -21.2961
   9   2.0000      -0.742632       -20.2080
  10   2.0000      -0.649120       -17.6635
  11   2.0000      -0.642305       -17.4780
  12   2.0000      -0.607224       -16.5234
  13   2.0000      -0.556276       -15.1370
  14   2.0000      -0.526078       -14.3153
  15   2.0000      -0.504110       -13.7175
  16   2.0000      -0.488655       -13.2970
  17   2.0000      -0.459691       -12.5088
  18   2.0000      -0.445184       -12.1141
  19   2.0000      -0.402600       -10.9553
  20   0.0000       0.057142         1.5549
  21   0.0000       0.089841         2.4447
  22   0.0000       0.120619         3.2822
  23   0.0000       0.133466         3.6318
  24   0.0000       0.152009         4.1364

MULLIKEN ATOMIC CHARGES
-----------------------
   0 C :    0.548180
   1 C :   -0.581413
   2 C :    0.773855
   3 H :    0.121494
   4 H :    0.057611
   5 O :   -0.479078
   6 F :   -0.425168
   7 H :    0.000371
   8 H :   -0.011017
   9 H :   -0.004835
Sum of atomic charges:    0.0000000

LOEWDIN ATOMIC CHARGES
----------------------
   0 C :    0.126991
   1 C :    0.015415
   2 C :    0.008386
   3 H :    0.050816
   4 H :    0.035357
   5 O :   -0.157928
   6 F :   -0.050887
   7 H :   -0.007867
   8 H :   -0.012508
   9 H :   -0.007775

  Mayer bond orders larger than 0.100000
B(  0-C ,  1-C ) :   1.3218 B(  0-C ,  7-H ) :   0.7967 B(  0-C ,  8-H ) :   0.8381
B(  0-C ,  9-H ) :   0.8533 B(  1-C ,  2-C ) :   1.0643 B(  1-C ,  3-H ) :   0.8940
B(  1-C ,  4-H ) :   0.9592 B(  1-C ,  7-H ) :   0.2086 B(  1-C ,  8-H ) :   0.1729
B(  1-C ,  9-H ) :   0.1628 B(  2-C ,  4-H ) :   0.1049 B(  2-C ,  5-O ) :   1.8468
B(  2-C ,  6-F ) :   0.7265

Dispersion correction           -0.001886654
FINAL SINGLE POINT ENERGY      -292.129485165368

DIPOLE MOMENT
-------------
                                X             Y             Z
Electronic contribution:     -5.62056      -1.70522       5.27686
Nuclear contribution   :      6.94213       1.43193      -5.86732
                        -----------------------------------------
Total Dipole Moment    :      1.32157      -0.27329      -0.59046
                        -----------------------------------------
Magnitude (a.u.)       :      1.47305
Magnitude (Debye)      :      3.74419

Rotational constants in cm-1:     0.306336     0.129048     0.095707
Rotational constants in MHz :  9183.725605  3868.769583  2869.236577

                             ****ORCA TERMINATED NORMALLY****
TOTAL RUN TIME: 0 days 0 hours 0 minutes 9 seconds 168 msec
