                         Program Version 5.0.0 -  RELEASE  -
|  1> !M062X D3Zero RIJCOSX def2-TZVPD def2/J TightSCF
|  2> *xyz -1 1
|  3> C         -0.90349       -0.87394       -1.98739
|  4> C         -0.96015       -0.52236       -0.48987
|  5> H         -1.69039       -1.20813       -0.02168
|  6> H         -1.41449        0.48633       -0.40668
|  7> O          0.26170       -0.58031        0.13861
|  8> H         -1.88568       -0.80774       -2.40670
|  9> H         -0.53143       -1.87013       -2.10605
| 10> H         -0.25399       -0.18836       -2.49039
| 11> *
| 12>
| 13> %MaxCore 64000
| 14>
| 15> %pal nprocs 4
| 16> end
| 17>
| 18> %scf
| 19>   MaxIter 150
| 20> end
| 21>
| 22>
| 23>                          ****END OF INPUT****

CARTESIAN COORDINATES (ANGSTROEM)
---------------------------------
  C     -0.903490   -0.873940   -1.987390
  C     -0.960150   -0.522360   -0.489870
  H     -1.690390   -1.208130   -0.021680
  H     -1.414490    0.486330   -0.406680
  O      0.261700   -0.580310    0.138610
  H     -1.885680   -0.807740   -2.406700
  H     -0.531430   -1.870130   -2.106050
  H     -0.253990   -0.188360   -2.490390

 Total Charge           Charge          ....   -1
 Multiplicity           Mult            ....    1
 Number of Electrons    NEL             ....   26
 Basis Dimension        Dim             ....  159

ORBITAL ENERGIES
----------------

  NO   OCC          E(Eh)            E(eV)
   0   2.0000     -19.287987      -524.8528
   1   2.0000     -10.345354      -281.5114
   2   2.0000     -10.322679      -280.8944
   3   2.0000      -0.789636       -21.4871
   4   2.0000      -0.620484       -16.8842
   5   2.0000      -0.455439       -12.3931
   6   2.0000      -0.318286        -8.6610
   7   2.0000      -0.294638        -8.0175
   8   2.0000      -0.234773        -6.3885
   9   2.0000      -0.220277        -5.9940
  10   2.0000      -0.175937        -4.7875
  11   2.0000      -0.034499        -0.9388
  12   2.0000      -0.032711        -0.8901
  13   0.0000       0.167833         4.5670
  14   0.0000       0.187434         5.1004
  15   0.0000       0.218940         5.9577
  16   0.0000       0.219441         5.9713
  17   0.0000       0.240005         6.5309

MULLIKEN ATOMIC CHARGES
-----------------------
   0 C :   -0.996825
   1 C :   -0.272829
   2 H :    0.219183
   3 H :    0.219661
   4 O :   -0.979185
   5 H :    0.306656
   6 H :    0.251723
   7 H :    0.251615
Sum of atomic charges:   -1.0000000

LOEWDIN ATOMIC CHARGES
----------------------
   0 C :   -0.173109
   1 C :   -0.618529
   2 H :    0.059329
   3 H :    0.060743
   4 O :   -0.439872
   5 H :    0.029795
   6 H :    0.040837
   7 H :    0.040806

  Mayer bond orders larger than 0.100000
B(  0-C ,  1-C ) :   0.6908 B(  0-C ,  4-O ) :   0.3606 B(  0-C ,  5-H ) :   0.9780
B(  0-C ,  6-H ) :   1.0079 B(  0-C ,  7-H ) :   1.0078 B(  1-C ,  2-H ) :   1.0485
B(  1-C ,  3-H ) :   1.0461 B(  1-C ,  4-O ) :   0.7885

Dispersion correction           -0.000015280
FINAL SINGLE POINT ENERGY      -154.409165307010

DIPOLE MOMENT
-------------
                                X             Y             Z
Electronic contribution:      1.82639       0.17716       2.11166
Nuclear contribution   :     -2.90669      -0.27617      -3.31210
                        -----------------------------------------
Total Dipole Moment    :     -1.08030      -0.09901      -1.20044
                        -----------------------------------------
Magnitude (a.u.)       :      1.61800
Magnitude (Debye)      :      4.11262

Rotational constants in cm-1:     1.291883     0.321656     0.284469
Rotational constants in MHz : 38729.676116  9643.011620  8528.167295

                             ****ORCA TERMINATED NORMALLY****
TOTAL RUN TIME: 0 days 0 hours 0 minutes 17 seconds 88 msec
