                         Program Version 5.0.0 -  RELEASE  -
|  1> !M062X D3Zero RIJCOSX def2-TZVPD def2/J TightSCF
|  2> *xyz 1 1
|  3> C          4.36645       -0.13321       -1.41606
|  4> C          4.50829       -0.93187       -2.72425
|  5> C          3.05650       -0.32080       -0.70738
|  6> N          2.38983        0.71129       -0.24391
|  7> N          2.51600       -1.50772       -0.55023
|  8> H          2.96768       -2.32291       -0.95631
|  9> H          1.54987       -1.49063       -0.24988
| 10> H          2.74307        1.64947       -0.41280
| 11> H          1.44036        0.50278        0.03703
| 12> H          4.48784        0.93300       -1.61157
| 13> H          5.16967       -0.41443       -0.72982
| 14> H          5.46700       -0.73824       -3.15818
| 15> H          3.74074       -0.63528       -3.40821
| 16> H          4.41574       -1.97727       -2.51573
| 17> *
| 18>
| 19> %MaxCore 64000
| 20>
| 21> %pal nprocs 4
| 22> end
| 23>
| 24> %scf
| 25>   MaxIter 150
| 26> end
| 27>
| 28>
| 29>                          ****END OF INPUT****

CARTESIAN COORDINATES (ANGSTROEM)
---------------------------------
  C      4.366450   -0.133210   -1.416060
  C      4.508290   -0.931870   -2.724250
  C      3.056500   -0.320800   -0.707380
  N      2.389830    0.711290   -0.243910
  N      2.516000   -1.507720   -0.550230
  H      2.967680   -2.322910   -0.956310
  H      1.549870   -1.490630   -0.249880
  H      2.743070    1.649470   -0.412800
  H      1.440360    0.502780    0.037030
  H      4.487840    0.933000   -1.611570
  H      5.169670   -0.414430   -0.729820
  H      5.467000   -0.738240   -3.158180
  H      3.740740   -0.635280   -3.408210
  H      4.415740   -1.977270   -2.515730

 Total Charge           Charge          ....    1
 Multiplicity           Mult            ....    1
 Number of Electrons    NEL             ....   40
 Basis Dimension        Dim             ....  266

ORBITAL ENERGIES
----------------

  NO   OCC          E(Eh)            E(eV)
   0   2.0000     -14.994908      -408.0322
   1   2.0000     -14.993516      -407.9943
   2   2.0000     -10.862797      -295.5917
   3   2.0000     -10.737780      -292.1898
   4   2.0000     -10.693979      -290.9980
   5   2.0000      -1.325387       -36.0656
   6   2.0000      -1.212219       -32.9862
   7   2.0000      -1.068872       -29.0855
   8   2.0000      -0.950190       -25.8560
   9   2.0000      -0.901213       -24.5233
  10   2.0000      -0.846526       -23.0351
  11   2.0000      -0.832474       -22.6528
  12   2.0000      -0.773215       -21.0402
  13   2.0000      -0.734884       -19.9972
  14   2.0000      -0.696320       -18.9478
  15   2.0000      -0.672154       -18.2902
  16   2.0000      -0.617918       -16.8144
  17   2.0000      -0.604847       -16.4587
  18   2.0000      -0.591052       -16.0833
  19   2.0000      -0.556941       -15.1551
  20   0.0000      -0.175169        -4.7666
  21   0.0000      -0.149659        -4.0724
  22   0.0000      -0.110936        -3.0187
  23   0.0000      -0.107894        -2.9359
  24   0.0000      -0.080193        -2.1822

MULLIKEN ATOMIC CHARGES
-----------------------
   0 C :   -0.638103
   1 C :   -1.182804
   2 C :    1.090294
   3 N :   -0.519532
   4 N :   -0.519915
   5 H :    0.281697
   6 H :    0.234954
   7 H :    0.294196
   8 H :    0.237639
   9 H :    0.330750
  10 H :    0.362215
  11 H :    0.329529
  12 H :    0.336394
  13 H :    0.362687
Sum of atomic charges:    1.0000000

LOEWDIN ATOMIC CHARGES
----------------------
   0 C :   -0.138958
   1 C :   -0.056453
   2 C :   -0.356756
   3 N :    0.219305
   4 N :    0.223938
   5 H :    0.148623
   6 H :    0.147315
   7 H :    0.155690
   8 H :    0.145989
   9 H :    0.125108
  10 H :    0.142577
  11 H :    0.088032
  12 H :    0.086801
  13 H :    0.068790

  Mayer bond orders larger than 0.100000
B(  0-C ,  1-C ) :   0.5518 B(  0-C ,  2-C ) :   0.7064 B(  0-C ,  9-H ) :   0.9093
B(  0-C , 10-H ) :   0.9296 B(  1-C , 11-H ) :   0.9817 B(  1-C , 12-H ) :   0.9668
B(  1-C , 13-H ) :   0.9043 B(  2-C ,  3-N ) :   1.0655 B(  2-C ,  4-N ) :   1.0420
B(  3-N ,  4-N ) :   0.1156 B(  3-N ,  7-H ) :   0.9122 B(  3-N ,  8-H ) :   0.9969
B(  4-N ,  5-H ) :   0.9107 B(  4-N ,  6-H ) :   1.0033

Dispersion correction           -0.000199306
FINAL SINGLE POINT ENERGY      -228.999120874768

DIPOLE MOMENT
-------------
                                X             Y             Z
Electronic contribution:     -2.64876       0.62648       3.09912
Nuclear contribution   :      1.78847      -0.48174      -2.67127
                        -----------------------------------------
Total Dipole Moment    :     -0.86029       0.14474       0.42784
                        -----------------------------------------
Magnitude (a.u.)       :      0.97165
Magnitude (Debye)      :      2.46973

Rotational constants in cm-1:     0.286883     0.123210     0.094446
Rotational constants in MHz :  8600.540572  3693.747366  2831.415242

                             ****ORCA TERMINATED NORMALLY****
TOTAL RUN TIME: 0 days 0 hours 0 minutes 43 seconds 280 msec
