                         Program Version 5.0.0 -  RELEASE  -
|  1> !M062X D3Zero RIJCOSX def2-TZVPD def2/J TightSCF xyzfile
|  2>
|  3> *xyzfile 0 1 B.xyz
|  4>
|  5> %MaxCore 64000
|  6>
|  7> %pal nprocs 4
|  8> end
|  9>
| 10> %scf
| 11>   MaxIter 150
| 12> end
| 13>
| 14>
| 15>                          ****END OF INPUT****

CARTESIAN COORDINATES (ANGSTROEM)
---------------------------------
  C      4.366454   -0.133215   -1.416062
  C      4.508292   -0.931872   -2.724249
  H      4.753716   -1.972051   -2.488408
  C      3.294164   -0.918214   -3.656570
  H      5.385637   -0.536236   -3.242640
  H      2.483463   -1.477378   -3.185764
  H      3.553092   -1.478495   -4.560331
  C      2.772335    0.460100   -4.051448
  H      2.608762    1.065107   -3.155194
  C      1.465354    0.410537   -4.853644
  H      3.532940    0.988848   -4.635671
  C      0.326171   -0.375613   -4.192580
  H      1.666704   -0.022269   -5.839323
  H      1.138198    1.439246   -5.035449
  C     -0.017405    0.080588   -2.778406
  H      0.585573   -1.439385   -4.168057
  H     -0.560005   -0.311425   -4.831461
  H      0.902090    0.201296   -2.206729
  C     -0.903495   -0.873945   -1.987388
  H     -0.479549    1.074657   -2.811915
  H     -0.502554   -1.892096   -2.081204
  H     -1.917039   -0.895427   -2.406277
  C     -0.960148   -0.522365   -0.489867
  H     -1.690392   -1.208130   -0.021677
  H     -1.414490    0.486329   -0.406677
  O      0.261703   -0.580307    0.138611
  C      3.056503   -0.320797   -0.707384
  N      2.389825    0.711285   -0.243909
  N      2.515999   -1.507721   -0.550229
  H      2.967683   -2.322915   -0.956305
  H      1.549872   -1.490634   -0.249876
  H      2.743071    1.649471   -0.412802
  H      1.440364    0.502778    0.037031
  H      4.487835    0.932997   -1.611569
  H      5.169672   -0.414432   -0.729817

 Total Charge           Charge          ....    0
 Multiplicity           Mult            ....    1
 Number of Electrons    NEL             ....  104
 Basis Dimension        Dim             ....  682

ORBITAL ENERGIES
----------------

  NO   OCC          E(Eh)            E(eV)
   0   2.0000     -19.496900      -530.5376
   1   2.0000     -14.777013      -402.1030
   2   2.0000     -14.776785      -402.0968
   3   2.0000     -10.665605      -290.2259
   4   2.0000     -10.581385      -287.9341
   5   2.0000     -10.565623      -287.5052
   6   2.0000     -10.544110      -286.9198
   7   2.0000     -10.537401      -286.7373
   8   2.0000     -10.528432      -286.4932
   9   2.0000     -10.517437      -286.1940
  10   2.0000     -10.515491      -286.1411
  11   2.0000     -10.504028      -285.8291
  12   2.0000     -10.490430      -285.4591
  13   2.0000      -1.120882       -30.5007
  14   2.0000      -1.006669       -27.3929
  15   2.0000      -1.005609       -27.3640
  16   2.0000      -0.935238       -25.4491
  17   2.0000      -0.897528       -24.4230
  18   2.0000      -0.856047       -23.2942
  19   2.0000      -0.813698       -22.1419
  20   2.0000      -0.773245       -21.0411
  21   2.0000      -0.725712       -19.7476
  22   2.0000      -0.708027       -19.2664
  23   2.0000      -0.693415       -18.8688
  24   2.0000      -0.648555       -17.6481
  25   2.0000      -0.633718       -17.2443
  26   2.0000      -0.627790       -17.0830
  27   2.0000      -0.606786       -16.5115
  28   2.0000      -0.575657       -15.6644
  29   2.0000      -0.571909       -15.5624
  30   2.0000      -0.555073       -15.1043
  31   2.0000      -0.533168       -14.5083
  32   2.0000      -0.517314       -14.0768
  33   2.0000      -0.496564       -13.5122
  34   2.0000      -0.487179       -13.2568
  35   2.0000      -0.480298       -13.0696
  36   2.0000      -0.474439       -12.9102
  37   2.0000      -0.469657       -12.7800
  38   2.0000      -0.446043       -12.1375
  39   2.0000      -0.435771       -11.8579
  40   2.0000      -0.424753       -11.5581
  41   2.0000      -0.415756       -11.3133
  42   2.0000      -0.404634       -11.0106
  43   2.0000      -0.400802       -10.9064
  44   2.0000      -0.382276       -10.4023
  45   2.0000      -0.373773       -10.1709
  46   2.0000      -0.362977        -9.8771
  47   2.0000      -0.359578        -9.7846
  48   2.0000      -0.356000        -9.6873
  49   2.0000      -0.345853        -9.4111
  50   2.0000      -0.249603        -6.7920
  51   2.0000      -0.245600        -6.6831
  52   0.0000      -0.004697        -0.1278
  53   0.0000       0.005611         0.1527
  54   0.0000       0.011947         0.3251
  55   0.0000       0.022273         0.6061
  56   0.0000       0.029387         0.7997

MULLIKEN ATOMIC CHARGES
-----------------------
   0 C :   -0.763002
   1 C :   -1.039475
   2 H :    0.407461
   3 C :   -0.359984
   4 H :    0.399264
   5 H :    0.198777
   6 H :    0.429319
   7 C :   -0.464584
   8 H :    0.259842
   9 C :   -1.128995
  10 H :    0.381786
  11 C :   -0.604984
  12 H :    0.383331
  13 H :    0.379034
  14 C :    0.409743
  15 H :    0.278101
  16 H :    0.423973
  17 H :   -0.551856
  18 C :   -0.581281
  19 H :    0.413409
  20 H :    0.295795
  21 H :    0.392304
  22 C :   -0.757227
  23 H :    0.342589
  24 H :    0.331545
  25 O :   -1.161358
  26 C :    0.539573
  27 N :   -0.519570
  28 N :   -0.523475
  29 H :    0.302461
  30 H :    0.448505
  31 H :    0.275498
  32 H :    0.475395
  33 H :    0.366325
  34 H :    0.321761
Sum of atomic charges:   -0.0000000

LOEWDIN ATOMIC CHARGES
----------------------
   0 C :   -0.115631
   1 C :   -0.194520
   2 H :    0.109446
   3 C :   -0.214385
   4 H :    0.116080
   5 H :    0.093583
   6 H :    0.123845
   7 C :   -0.216134
   8 H :    0.095779
   9 C :   -0.210315
  10 H :    0.117622
  11 C :   -0.224102
  12 H :    0.110415
  13 H :    0.111945
  14 C :   -0.227071
  15 H :    0.104085
  16 H :    0.114375
  17 H :    0.072631
  18 C :   -0.208622
  19 H :    0.127067
  20 H :    0.109938
  21 H :    0.110184
  22 C :   -0.399168
  23 H :    0.098392
  24 H :    0.103743
  25 O :   -0.347711
  26 C :   -0.394428
  27 N :    0.193071
  28 N :    0.209239
  29 H :    0.135744
  30 H :    0.059402
  31 H :    0.136842
  32 H :    0.053080
  33 H :    0.116313
  34 H :    0.129267

  Mayer bond orders larger than 0.100000
B(  0-C ,  1-C ) :   0.5972 B(  0-C ,  3-C ) :  -0.1676 B(  0-C ,  7-C ) :   0.1011
B(  0-C , 26-C ) :   0.7458 B(  0-C , 33-H ) :   0.9714 B(  0-C , 34-H ) :   0.9955
B(  1-C ,  2-H ) :   0.9291 B(  1-C ,  3-C ) :   0.5514 B(  1-C ,  4-H ) :   0.9359
B(  1-C ,  7-C ) :   0.2029 B(  3-C ,  5-H ) :   1.0952 B(  3-C ,  6-H ) :   0.8290
B(  3-C ,  7-C ) :   0.2869 B(  3-C ,  8-H ) :  -0.1235 B(  3-C ,  9-C ) :   0.1817
B(  3-C , 11-C ) :   0.1245 B(  5-H ,  7-C ) :  -0.1347 B(  7-C ,  8-H ) :   1.0365
B(  7-C ,  9-C ) :   0.6360 B(  7-C , 10-H ) :   0.8829 B(  7-C , 11-C ) :  -0.1280
B(  7-C , 14-C ) :   0.1059 B(  9-C , 11-C ) :   0.5566 B(  9-C , 12-H ) :   0.9462
B(  9-C , 13-H ) :   0.9682 B(  9-C , 14-C ) :   0.1218 B( 11-C , 14-C ) :   0.3505
B( 11-C , 15-H ) :   1.0347 B( 11-C , 16-H ) :   0.8587 B( 11-C , 17-H ) :  -0.1373
B( 11-C , 18-C ) :   0.2972 B( 14-C , 15-H ) :  -0.1387 B( 14-C , 17-H ) :   1.0914
B( 14-C , 18-C ) :   0.4200 B( 14-C , 19-H ) :   0.9535 B( 14-C , 22-C ) :   0.1728
B( 14-C , 25-O ) :   0.2301 B( 14-C , 27-N ) :  -0.1019 B( 17-H , 25-O ) :  -0.1512
B( 18-C , 20-H ) :   0.9911 B( 18-C , 21-H ) :   0.9344 B( 18-C , 22-C ) :   0.5930
B( 22-C , 23-H ) :   0.9953 B( 22-C , 24-H ) :   1.0012 B( 22-C , 25-O ) :   0.7304
B( 25-O , 26-C ) :  -0.1318 B( 25-O , 27-N ) :  -0.1014 B( 25-O , 30-H ) :   0.1939
B( 26-C , 27-N ) :   1.3525 B( 26-C , 28-N ) :   1.2513 B( 26-C , 33-H ) :  -0.1066
B( 27-N , 31-H ) :   0.9260 B( 27-N , 32-H ) :   0.6817 B( 28-N , 29-H ) :   0.8971
B( 28-N , 30-H ) :   0.6370

Dispersion correction           -0.002169401
FINAL SINGLE POINT ENERGY      -578.976635466334

DIPOLE MOMENT
-------------
                                X             Y             Z
Electronic contribution:      2.80384      -0.26674       7.52306
Nuclear contribution   :     -0.17996       0.53390      -8.68067
                        -----------------------------------------
Total Dipole Moment    :      2.62388       0.26717      -1.15760
                        -----------------------------------------
Magnitude (a.u.)       :      2.88031
Magnitude (Debye)      :      7.32117

Rotational constants in cm-1:     0.028240     0.022734     0.014600
Rotational constants in MHz :   846.611263   681.554306   437.693928

                             ****ORCA TERMINATED NORMALLY****
TOTAL RUN TIME: 0 days 0 hours 7 minutes 49 seconds 937 msec
