                         Program Version 5.0.0 -  RELEASE  -
|  1> !M062X D3Zero RIJCOSX def2-TZVPD def2/J TightSCF
|  2> *xyz 0 1
|  3> C         -0.90349       -0.87394       -1.98739
|  4> C         -0.96015       -0.52236       -0.48987
|  5> H         -1.69039       -1.20813       -0.02168
|  6> H         -1.41449        0.48633       -0.40668
|  7> F          0.26170       -0.58031        0.13861
|  8> H         -1.88568       -0.80774       -2.40670
|  9> H         -0.53143       -1.87013       -2.10605
| 10> H         -0.25399       -0.18836       -2.49039
| 11> *
| 12>
| 13> %MaxCore 64000
| 14>
| 15> %pal nprocs 4
| 16> end
| 17>
| 18> %scf
| 19>   MaxIter 150
| 20> end
| 21>
| 22>
| 23>                          ****END OF INPUT****

CARTESIAN COORDINATES (ANGSTROEM)
---------------------------------
  C     -0.903490   -0.873940   -1.987390
  C     -0.960150   -0.522360   -0.489870
  H     -1.690390   -1.208130   -0.021680
  H     -1.414490    0.486330   -0.406680
  F      0.261700   -0.580310    0.138610
  H     -1.885680   -0.807740   -2.406700
  H     -0.531430   -1.870130   -2.106050
  H     -0.253990   -0.188360   -2.490390

 Total Charge           Charge          ....    0
 Multiplicity           Mult            ....    1
 Number of Electrons    NEL             ....   26
 Basis Dimension        Dim             ....  159

ORBITAL ENERGIES
----------------

  NO   OCC          E(Eh)            E(eV)
   0   2.0000     -25.232143      -686.6015
   1   2.0000     -10.614780      -288.8428
   2   2.0000     -10.529613      -286.5253
   3   2.0000      -1.340268       -36.4705
   4   2.0000      -0.863788       -23.5049
   5   2.0000      -0.723457       -19.6863
   6   2.0000      -0.588227       -16.0065
   7   2.0000      -0.581467       -15.8225
   8   2.0000      -0.544905       -14.8276
   9   2.0000      -0.483304       -13.1514
  10   2.0000      -0.469234       -12.7685
  11   2.0000      -0.406479       -11.0608
  12   2.0000      -0.401313       -10.9203
  13   0.0000       0.019399         0.5279
  14   0.0000       0.043078         1.1722
  15   0.0000       0.065597         1.7850
  16   0.0000       0.066099         1.7987
  17   0.0000       0.094099         2.5606

MULLIKEN ATOMIC CHARGES
-----------------------
   0 C :   -0.987786
   1 C :   -0.098262
   2 H :    0.248286
   3 H :    0.249445
   4 F :   -0.314087
   5 H :    0.318952
   6 H :    0.291935
   7 H :    0.291517
Sum of atomic charges:   -0.0000000

LOEWDIN ATOMIC CHARGES
----------------------
   0 C :   -0.085156
   1 C :   -0.277523
   2 H :    0.111527
   3 H :    0.113333
   4 F :   -0.061118
   5 H :    0.067739
   6 H :    0.065618
   7 H :    0.065580

  Mayer bond orders larger than 0.100000
B(  0-C ,  1-C ) :   0.6923 B(  0-C ,  4-F ) :   0.1176 B(  0-C ,  5-H ) :   0.9503
B(  0-C ,  6-H ) :   0.9567 B(  0-C ,  7-H ) :   0.9571 B(  1-C ,  2-H ) :   0.9840
B(  1-C ,  3-H ) :   0.9819 B(  1-C ,  4-F ) :   0.6876

Dispersion correction           -0.000019428
FINAL SINGLE POINT ENERGY      -179.052635283961

DIPOLE MOMENT
-------------
                                X             Y             Z
Electronic contribution:      3.21195       0.37653       3.97608
Nuclear contribution   :     -3.84149      -0.36812      -4.38946
                        -----------------------------------------
Total Dipole Moment    :     -0.62954       0.00841      -0.41338
                        -----------------------------------------
Magnitude (a.u.)       :      0.75317
Magnitude (Debye)      :      1.91441

Rotational constants in cm-1:     1.270659     0.299196     0.265842
Rotational constants in MHz : 38093.410361  8969.665806  7969.741481

                             ****ORCA TERMINATED NORMALLY****
TOTAL RUN TIME: 0 days 0 hours 0 minutes 17 seconds 256 msec
