                         Program Version 5.0.0 -  RELEASE  -
|  1> !M062X D3Zero RIJCOSX def2-TZVPD def2/J TightSCF
|  2> *xyz 0 1
|  3> C          4.36645       -0.13321       -1.41606
|  4> C          4.50829       -0.93187       -2.72425
|  5> C          3.05650       -0.32080       -0.70738
|  6> C          2.38983        0.71129       -0.24391
|  7> N          2.51600       -1.50772       -0.55023
|  8> H          2.96768       -2.32291       -0.95631
|  9> H          1.54987       -1.49063       -0.24988
| 10> H          2.74307        1.64947       -0.41280
| 11> H          1.44036        0.50278        0.03703
| 12> H          4.48784        0.93300       -1.61157
| 13> H          5.16967       -0.41443       -0.72982
| 14> H          5.46700       -0.73824       -3.15818
| 15> H          3.74074       -0.63528       -3.40821
| 16> H          4.41574       -1.97727       -2.51573
| 17> *
| 18>
| 19> %MaxCore 64000
| 20>
| 21> %pal nprocs 4
| 22> end
| 23>
| 24> %scf
| 25>   MaxIter 150
| 26> end
| 27>
| 28>
| 29>                          ****END OF INPUT****

CARTESIAN COORDINATES (ANGSTROEM)
---------------------------------
  C      4.366450   -0.133210   -1.416060
  C      4.508290   -0.931870   -2.724250
  C      3.056500   -0.320800   -0.707380
  C      2.389830    0.711290   -0.243910
  N      2.516000   -1.507720   -0.550230
  H      2.967680   -2.322910   -0.956310
  H      1.549870   -1.490630   -0.249880
  H      2.743070    1.649470   -0.412800
  H      1.440360    0.502780    0.037030
  H      4.487840    0.933000   -1.611570
  H      5.169670   -0.414430   -0.729820
  H      5.467000   -0.738240   -3.158180
  H      3.740740   -0.635280   -3.408210
  H      4.415740   -1.977270   -2.515730

 Total Charge           Charge          ....    0
 Multiplicity           Mult            ....    1
 Number of Electrons    NEL             ....   40
 Basis Dimension        Dim             ....  266

ORBITAL ENERGIES
----------------

  NO   OCC          E(Eh)            E(eV)
   0   2.0000     -14.746066      -401.2609
   1   2.0000     -10.554273      -287.1964
   2   2.0000     -10.536152      -286.7033
   3   2.0000     -10.525456      -286.4122
   4   2.0000     -10.466631      -284.8115
   5   2.0000      -1.042702       -28.3734
   6   2.0000      -0.876115       -23.8403
   7   2.0000      -0.817814       -22.2538
   8   2.0000      -0.723670       -19.6921
   9   2.0000      -0.640906       -17.4399
  10   2.0000      -0.609242       -16.5783
  11   2.0000      -0.541747       -14.7417
  12   2.0000      -0.509134       -13.8542
  13   2.0000      -0.498214       -13.5571
  14   2.0000      -0.459950       -12.5159
  15   2.0000      -0.447176       -12.1683
  16   2.0000      -0.419694       -11.4204
  17   2.0000      -0.405411       -11.0318
  18   2.0000      -0.389858       -10.6086
  19   2.0000      -0.243735        -6.6324
  20   0.0000       0.014886         0.4051
  21   0.0000       0.038313         1.0425
  22   0.0000       0.041250         1.1225
  23   0.0000       0.054783         1.4907
  24   0.0000       0.071056         1.9335

MULLIKEN ATOMIC CHARGES
-----------------------
   0 C :   -0.631311
   1 C :   -1.125376
   2 C :    1.006641
   3 C :   -1.049240
   4 N :   -0.594170
   5 H :    0.245688
   6 H :    0.201582
   7 H :    0.208668
   8 H :    0.214890
   9 H :    0.280050
  10 H :    0.315652
  11 H :    0.327410
  12 H :    0.292714
  13 H :    0.306802
Sum of atomic charges:   -0.0000000

LOEWDIN ATOMIC CHARGES
----------------------
   0 C :   -0.194364
   1 C :   -0.096086
   2 C :   -0.502966
   3 C :    0.018179
   4 N :    0.089474
   5 H :    0.106527
   6 H :    0.113142
   7 H :    0.024072
   8 H :    0.022736
   9 H :    0.109676
  10 H :    0.116530
  11 H :    0.065113
  12 H :    0.074121
  13 H :    0.053845

  Mayer bond orders larger than 0.100000
B(  0-C ,  1-C ) :   0.5107 B(  0-C ,  2-C ) :   0.7093 B(  0-C ,  9-H ) :   0.9670
B(  0-C , 10-H ) :   0.8975 B(  0-C , 12-H ) :  -0.1118 B(  1-C , 11-H ) :   0.9801
B(  1-C , 12-H ) :   1.0196 B(  1-C , 13-H ) :   0.9506 B(  2-C ,  3-C ) :   1.1736
B(  2-C ,  4-N ) :   0.7941 B(  2-C ,  8-H ) :  -0.2215 B(  3-C ,  4-N ) :   0.1338
B(  3-C ,  7-H ) :   1.0238 B(  3-C ,  8-H ) :   1.1673 B(  4-N ,  5-H ) :   0.9628
B(  4-N ,  6-H ) :   1.0087

Dispersion correction           -0.000195866
FINAL SINGLE POINT ENERGY      -212.531605516583

DIPOLE MOMENT
-------------
                                X             Y             Z
Electronic contribution:     -1.48504      -0.40657       2.07027
Nuclear contribution   :      1.56827      -0.21459      -2.46657
                        -----------------------------------------
Total Dipole Moment    :      0.08322      -0.62116      -0.39630
                        -----------------------------------------
Magnitude (a.u.)       :      0.74150
Magnitude (Debye)      :      1.88474

Rotational constants in cm-1:     0.294070     0.127722     0.097792
Rotational constants in MHz :  8815.983970  3829.010547  2931.715816

                             ****ORCA TERMINATED NORMALLY****
TOTAL RUN TIME: 0 days 0 hours 0 minutes 46 seconds 219 msec
