                         Program Version 5.0.0 -  RELEASE  -
|  1> !M062X D3Zero RIJCOSX def2-TZVPD def2/J TightSCF
|  2> *xyz 0 1
|  3> C          4.36645       -0.13321       -1.41606
|  4> C          4.50829       -0.93187       -2.72425
|  5> C          3.05650       -0.32080       -0.70738
|  6> N          2.38983        0.71129       -0.24391
|  7> C          2.51600       -1.50772       -0.55023
|  8> H          2.96768       -2.32291       -0.95631
|  9> H          1.54987       -1.49063       -0.24988
| 10> H          2.74307        1.64947       -0.41280
| 11> H          1.44036        0.50278        0.03703
| 12> H          4.48784        0.93300       -1.61157
| 13> H          5.16967       -0.41443       -0.72982
| 14> H          5.46700       -0.73824       -3.15818
| 15> H          3.74074       -0.63528       -3.40821
| 16> H          4.41574       -1.97727       -2.51573
| 17> *
| 18>
| 19> %MaxCore 64000
| 20>
| 21> %pal nprocs 4
| 22> end
| 23>
| 24> %scf
| 25>   MaxIter 150
| 26> end
| 27>
| 28>
| 29>                          ****END OF INPUT****

CARTESIAN COORDINATES (ANGSTROEM)
---------------------------------
  C      4.366450   -0.133210   -1.416060
  C      4.508290   -0.931870   -2.724250
  C      3.056500   -0.320800   -0.707380
  N      2.389830    0.711290   -0.243910
  C      2.516000   -1.507720   -0.550230
  H      2.967680   -2.322910   -0.956310
  H      1.549870   -1.490630   -0.249880
  H      2.743070    1.649470   -0.412800
  H      1.440360    0.502780    0.037030
  H      4.487840    0.933000   -1.611570
  H      5.169670   -0.414430   -0.729820
  H      5.467000   -0.738240   -3.158180
  H      3.740740   -0.635280   -3.408210
  H      4.415740   -1.977270   -2.515730

 Total Charge           Charge          ....    0
 Multiplicity           Mult            ....    1
 Number of Electrons    NEL             ....   40
 Basis Dimension        Dim             ....  266

ORBITAL ENERGIES
----------------

  NO   OCC          E(Eh)            E(eV)
   0   2.0000     -14.746756      -401.2796
   1   2.0000     -10.554472      -287.2018
   2   2.0000     -10.537385      -286.7368
   3   2.0000     -10.519507      -286.2503
   4   2.0000     -10.464764      -284.7607
   5   2.0000      -1.043094       -28.3840
   6   2.0000      -0.877887       -23.8885
   7   2.0000      -0.806474       -21.9453
   8   2.0000      -0.733275       -19.9534
   9   2.0000      -0.631709       -17.1897
  10   2.0000      -0.606070       -16.4920
  11   2.0000      -0.550220       -14.9722
  12   2.0000      -0.520315       -14.1585
  13   2.0000      -0.474062       -12.8999
  14   2.0000      -0.457648       -12.4532
  15   2.0000      -0.446597       -12.1525
  16   2.0000      -0.420223       -11.4348
  17   2.0000      -0.403266       -10.9734
  18   2.0000      -0.391663       -10.6577
  19   2.0000      -0.242085        -6.5875
  20   0.0000       0.017541         0.4773
  21   0.0000       0.036162         0.9840
  22   0.0000       0.041804         1.1376
  23   0.0000       0.054267         1.4767
  24   0.0000       0.073118         1.9896

MULLIKEN ATOMIC CHARGES
-----------------------
   0 C :   -0.644859
   1 C :   -1.117898
   2 C :    1.030774
   3 N :   -0.591999
   4 C :   -1.075438
   5 H :    0.167946
   6 H :    0.210898
   7 H :    0.259683
   8 H :    0.207330
   9 H :    0.305187
  10 H :    0.326128
  11 H :    0.316568
  12 H :    0.310578
  13 H :    0.295102
Sum of atomic charges:   -0.0000000

LOEWDIN ATOMIC CHARGES
----------------------
   0 C :   -0.193781
   1 C :   -0.094064
   2 C :   -0.499077
   3 N :    0.082961
   4 C :    0.017754
   5 H :    0.021096
   6 H :    0.024223
   7 H :    0.110778
   8 H :    0.111640
   9 H :    0.102724
  10 H :    0.118227
  11 H :    0.063544
  12 H :    0.074332
  13 H :    0.059643

  Mayer bond orders larger than 0.100000
B(  0-C ,  1-C ) :   0.5402 B(  0-C ,  2-C ) :   0.5075 B(  0-C ,  9-H ) :   0.9915
B(  0-C , 10-H ) :   0.9456 B(  1-C , 11-H ) :   0.9709 B(  1-C , 12-H ) :   1.0032
B(  1-C , 13-H ) :   0.9809 B(  2-C ,  3-N ) :   0.8654 B(  2-C ,  4-C ) :   1.1084
B(  2-C ,  6-H ) :  -0.2454 B(  2-C ,  9-H ) :  -0.1312 B(  3-N ,  4-C ) :   0.1328
B(  3-N ,  7-H ) :   0.9732 B(  3-N ,  8-H ) :   0.9967 B(  4-C ,  5-H ) :   1.0582
B(  4-C ,  6-H ) :   1.1854

Dispersion correction           -0.000196402
FINAL SINGLE POINT ENERGY      -212.530380607189

DIPOLE MOMENT
-------------
                                X             Y             Z
Electronic contribution:     -1.59255       1.43432       2.33804
Nuclear contribution   :      1.59749      -0.72853      -2.53752
                        -----------------------------------------
Total Dipole Moment    :      0.00494       0.70579      -0.19948
                        -----------------------------------------
Magnitude (a.u.)       :      0.73346
Magnitude (Debye)      :      1.86430

Rotational constants in cm-1:     0.304597     0.124127     0.096828
Rotational constants in MHz :  9131.600925  3721.227051  2902.830760

                             ****ORCA TERMINATED NORMALLY****
TOTAL RUN TIME: 0 days 0 hours 0 minutes 46 seconds 711 msec
