                         Program Version 5.0.0 -  RELEASE  -
|  1> !M062X D3Zero RIJCOSX def2-TZVPD def2/J TightSCF xyzfile
|  2>
|  3> *xyzfile 0 1 D1.xyz
|  4>
|  5> %MaxCore 64000
|  6>
|  7> %pal nprocs 4
|  8> end
|  9>
| 10> %scf
| 11>   MaxIter 150
| 12> end
| 13>
| 14>
| 15>                          ****END OF INPUT****

CARTESIAN COORDINATES (ANGSTROEM)
---------------------------------
  C      4.366454   -0.133215   -1.416062
  C      4.508292   -0.931872   -2.724249
  H      4.753716   -1.972051   -2.488408
  C      3.294164   -0.918214   -3.656570
  H      5.385637   -0.536236   -3.242640
  H      2.483463   -1.477378   -3.185764
  H      3.553092   -1.478495   -4.560331
  C      2.772335    0.460100   -4.051448
  H      2.608762    1.065107   -3.155194
  C      1.465354    0.410537   -4.853644
  H      3.532940    0.988848   -4.635671
  C      0.326171   -0.375613   -4.192580
  H      1.666704   -0.022269   -5.839323
  H      1.138198    1.439246   -5.035449
  C     -0.017405    0.080588   -2.778406
  H      0.585573   -1.439385   -4.168057
  H     -0.560005   -0.311425   -4.831461
  H      0.902090    0.201296   -2.206729
  C     -0.903495   -0.873945   -1.987388
  H     -0.479549    1.074657   -2.811915
  H     -0.502554   -1.892096   -2.081204
  H     -1.917039   -0.895427   -2.406277
  C     -0.960148   -0.522365   -0.489867
  H     -1.690392   -1.208130   -0.021677
  H     -1.414490    0.486329   -0.406677
  F      0.261703   -0.580307    0.138611
  C      3.056503   -0.320797   -0.707384
  C      2.389825    0.711285   -0.243909
  N      2.515999   -1.507721   -0.550229
  H      2.967683   -2.322915   -0.956305
  H      1.549872   -1.490634   -0.249876
  H      2.743071    1.649471   -0.412802
  H      1.440364    0.502778    0.037031
  H      4.487835    0.932997   -1.611569
  H      5.169672   -0.414432   -0.729817

 Total Charge           Charge          ....    0
 Multiplicity           Mult            ....    1
 Number of Electrons    NEL             ....  104
 Basis Dimension        Dim             ....  682

ORBITAL ENERGIES
----------------

  NO   OCC          E(Eh)            E(eV)
   0   2.0000     -25.262904      -687.4386
   1   2.0000     -14.722599      -400.6223
   2   2.0000     -10.627667      -289.1935
   3   2.0000     -10.546620      -286.9881
   4   2.0000     -10.537735      -286.7463
   5   2.0000     -10.527562      -286.4695
   6   2.0000     -10.527035      -286.4552
   7   2.0000     -10.525121      -286.4031
   8   2.0000     -10.524766      -286.3934
   9   2.0000     -10.523071      -286.3473
  10   2.0000     -10.520700      -286.2828
  11   2.0000     -10.518570      -286.2248
  12   2.0000     -10.442025      -284.1419
  13   2.0000      -1.382349       -37.6156
  14   2.0000      -1.025769       -27.9126
  15   2.0000      -0.919474       -25.0202
  16   2.0000      -0.896290       -24.3893
  17   2.0000      -0.868389       -23.6301
  18   2.0000      -0.829540       -22.5729
  19   2.0000      -0.800298       -21.7772
  20   2.0000      -0.777659       -21.1612
  21   2.0000      -0.727134       -19.7863
  22   2.0000      -0.701757       -19.0958
  23   2.0000      -0.669651       -18.2221
  24   2.0000      -0.637123       -17.3370
  25   2.0000      -0.623299       -16.9608
  26   2.0000      -0.619358       -16.8536
  27   2.0000      -0.609575       -16.5874
  28   2.0000      -0.601616       -16.3708
  29   2.0000      -0.561617       -15.2824
  30   2.0000      -0.547226       -14.8908
  31   2.0000      -0.532435       -14.4883
  32   2.0000      -0.513479       -13.9725
  33   2.0000      -0.507060       -13.7978
  34   2.0000      -0.497242       -13.5307
  35   2.0000      -0.489340       -13.3156
  36   2.0000      -0.467627       -12.7248
  37   2.0000      -0.457608       -12.4522
  38   2.0000      -0.445232       -12.1154
  39   2.0000      -0.436749       -11.8845
  40   2.0000      -0.429256       -11.6807
  41   2.0000      -0.423047       -11.5117
  42   2.0000      -0.413671       -11.2566
  43   2.0000      -0.403918       -10.9912
  44   2.0000      -0.401443       -10.9238
  45   2.0000      -0.391683       -10.6582
  46   2.0000      -0.374325       -10.1859
  47   2.0000      -0.372238       -10.1291
  48   2.0000      -0.363676        -9.8961
  49   2.0000      -0.360374        -9.8063
  50   2.0000      -0.357260        -9.7215
  51   2.0000      -0.226396        -6.1606
  52   0.0000       0.012243         0.3331
  53   0.0000       0.020550         0.5592
  54   0.0000       0.025233         0.6866
  55   0.0000       0.028294         0.7699
  56   0.0000       0.043225         1.1762

MULLIKEN ATOMIC CHARGES
-----------------------
   0 C :   -0.935513
   1 C :   -0.985546
   2 H :    0.398236
   3 C :   -0.342005
   4 H :    0.394669
   5 H :    0.188060
   6 H :    0.390872
   7 C :   -0.435740
   8 H :    0.197878
   9 C :   -1.128762
  10 H :    0.381579
  11 C :   -0.634466
  12 H :    0.388157
  13 H :    0.375815
  14 C :    0.492086
  15 H :    0.309523
  16 H :    0.424077
  17 H :   -0.548109
  18 C :   -0.785925
  19 H :    0.377683
  20 H :    0.335359
  21 H :    0.392533
  22 C :   -0.549372
  23 H :    0.335296
  24 H :    0.338145
  25 F :   -0.448874
  26 C :    0.688544
  27 C :   -1.081566
  28 N :   -0.642219
  29 H :    0.271859
  30 H :    0.482823
  31 H :    0.292737
  32 H :    0.399186
  33 H :    0.341192
  34 H :    0.321787
Sum of atomic charges:    0.0000000

LOEWDIN ATOMIC CHARGES
----------------------
   0 C :   -0.145915
   1 C :   -0.202418
   2 H :    0.104531
   3 C :   -0.217361
   4 H :    0.109990
   5 H :    0.089978
   6 H :    0.118609
   7 C :   -0.212116
   8 H :    0.100485
   9 C :   -0.209265
  10 H :    0.117659
  11 C :   -0.220488
  12 H :    0.110500
  13 H :    0.111283
  14 C :   -0.220296
  15 H :    0.105819
  16 H :    0.113248
  17 H :    0.077093
  18 C :   -0.183257
  19 H :    0.130176
  20 H :    0.118134
  21 H :    0.121968
  22 C :   -0.184477
  23 H :    0.122307
  24 H :    0.131446
  25 F :   -0.101609
  26 C :   -0.490445
  27 C :    0.020954
  28 N :    0.115220
  29 H :    0.116061
  30 H :    0.079399
  31 H :    0.036265
  32 H :    0.004907
  33 H :    0.112777
  34 H :    0.118838

  Mayer bond orders larger than 0.100000
B(  0-C ,  1-C ) :   0.5836 B(  0-C ,  3-C ) :  -0.1518 B(  0-C ,  7-C ) :   0.1707
B(  0-C , 26-C ) :   0.5869 B(  0-C , 27-C ) :   0.1893 B(  0-C , 33-H ) :   0.9933
B(  0-C , 34-H ) :   0.9611 B(  1-C ,  2-H ) :   0.9398 B(  1-C ,  3-C ) :   0.5749
B(  1-C ,  4-H ) :   0.9408 B(  1-C ,  7-C ) :   0.1911 B(  3-C ,  5-H ) :   1.0700
B(  3-C ,  6-H ) :   0.8634 B(  3-C ,  7-C ) :   0.3398 B(  3-C ,  8-H ) :  -0.1120
B(  3-C ,  9-C ) :   0.1686 B(  3-C , 11-C ) :   0.1467 B(  3-C , 26-C ) :   0.1050
B(  5-H ,  7-C ) :  -0.1267 B(  7-C ,  8-H ) :   1.1048 B(  7-C ,  9-C ) :   0.5894
B(  7-C , 10-H ) :   0.8697 B(  7-C , 11-C ) :  -0.1302 B(  9-C , 11-C ) :   0.5942
B(  9-C , 12-H ) :   0.9458 B(  9-C , 13-H ) :   0.9661 B(  9-C , 14-C ) :   0.1334
B( 11-C , 14-C ) :   0.3725 B( 11-C , 15-H ) :   1.0078 B( 11-C , 16-H ) :   0.8569
B( 11-C , 18-C ) :   0.3042 B( 14-C , 17-H ) :   1.0170 B( 14-C , 18-C ) :   0.3143
B( 14-C , 19-H ) :   0.9543 B( 14-C , 22-C ) :   0.1201 B( 18-C , 20-H ) :   0.9769
B( 18-C , 21-H ) :   0.9014 B( 18-C , 22-C ) :   0.6878 B( 18-C , 25-F ) :   0.1009
B( 22-C , 23-H ) :   0.9676 B( 22-C , 24-H ) :   0.9663 B( 22-C , 25-F ) :   0.6517
B( 25-F , 32-H ) :  -0.1037 B( 26-C , 27-C ) :   1.6117 B( 26-C , 28-N ) :   0.7029
B( 26-C , 32-H ) :  -0.1477 B( 27-C , 31-H ) :   1.0354 B( 27-C , 32-H ) :   1.0593
B( 28-N , 29-H ) :   0.9185 B( 28-N , 30-H ) :   0.7438

Dispersion correction           -0.002139516
FINAL SINGLE POINT ENERGY      -586.908332406683

DIPOLE MOMENT
-------------
                                X             Y             Z
Electronic contribution:     -2.69670      -1.57884      10.44262
Nuclear contribution   :      1.82572       1.04089     -11.09065
                        -----------------------------------------
Total Dipole Moment    :     -0.87099      -0.53795      -0.64802
                        -----------------------------------------
Magnitude (a.u.)       :      1.21158
Magnitude (Debye)      :      3.07960

Rotational constants in cm-1:     0.028436     0.022359     0.014416
Rotational constants in MHz :   852.496561   670.291843   432.183951

                             ****ORCA TERMINATED NORMALLY****
TOTAL RUN TIME: 0 days 0 hours 7 minutes 6 seconds 741 msec
