                         Program Version 5.0.0 -  RELEASE  -
|  1> !M062X D3Zero RIJCOSX def2-TZVPD def2/J TightSCF xyzfile
|  2>
|  3> *xyzfile 0 1 D2.xyz
|  4>
|  5> %MaxCore 64000
|  6>
|  7> %pal nprocs 4
|  8> end
|  9>
| 10> %scf
| 11>   MaxIter 150
| 12> end
| 13>
| 14>
| 15>                          ****END OF INPUT****

CARTESIAN COORDINATES (ANGSTROEM)
---------------------------------
  C      4.366454   -0.133215   -1.416062
  C      4.508292   -0.931872   -2.724249
  H      4.753716   -1.972051   -2.488408
  C      3.294164   -0.918214   -3.656570
  H      5.385637   -0.536236   -3.242640
  H      2.483463   -1.477378   -3.185764
  H      3.553092   -1.478495   -4.560331
  C      2.772335    0.460100   -4.051448
  H      2.608762    1.065107   -3.155194
  C      1.465354    0.410537   -4.853644
  H      3.532940    0.988848   -4.635671
  C      0.326171   -0.375613   -4.192580
  H      1.666704   -0.022269   -5.839323
  H      1.138198    1.439246   -5.035449
  C     -0.017405    0.080588   -2.778406
  H      0.585573   -1.439385   -4.168057
  H     -0.560005   -0.311425   -4.831461
  H      0.902090    0.201296   -2.206729
  C     -0.903495   -0.873945   -1.987388
  H     -0.479549    1.074657   -2.811915
  H     -0.502554   -1.892096   -2.081204
  H     -1.917039   -0.895427   -2.406277
  C     -0.960148   -0.522365   -0.489867
  H     -1.690392   -1.208130   -0.021677
  H     -1.414490    0.486329   -0.406677
  F      0.261703   -0.580307    0.138611
  C      3.056503   -0.320797   -0.707384
  N      2.389825    0.711285   -0.243909
  C      2.515999   -1.507721   -0.550229
  H      2.967683   -2.322915   -0.956305
  H      1.549872   -1.490634   -0.249876
  H      2.743071    1.649471   -0.412802
  H      1.440364    0.502778    0.037031
  H      4.487835    0.932997   -1.611569
  H      5.169672   -0.414432   -0.729817

 Total Charge           Charge          ....    0
 Multiplicity           Mult            ....    1
 Number of Electrons    NEL             ....  104
 Basis Dimension        Dim             ....  682

ORBITAL ENERGIES
----------------

  NO   OCC          E(Eh)            E(eV)
   0   2.0000     -25.263041      -687.4423
   1   2.0000     -14.722330      -400.6150
   2   2.0000     -10.627885      -289.1994
   3   2.0000     -10.545113      -286.9471
   4   2.0000     -10.537555      -286.7414
   5   2.0000     -10.527456      -286.4666
   6   2.0000     -10.526799      -286.4488
   7   2.0000     -10.525274      -286.4073
   8   2.0000     -10.524535      -286.3872
   9   2.0000     -10.523328      -286.3543
  10   2.0000     -10.520337      -286.2729
  11   2.0000     -10.514659      -286.1184
  12   2.0000     -10.440489      -284.1002
  13   2.0000      -1.382423       -37.6177
  14   2.0000      -1.025734       -27.9116
  15   2.0000      -0.919294       -25.0153
  16   2.0000      -0.895870       -24.3779
  17   2.0000      -0.869295       -23.6547
  18   2.0000      -0.825787       -22.4708
  19   2.0000      -0.793259       -21.5857
  20   2.0000      -0.779188       -21.2028
  21   2.0000      -0.730577       -19.8800
  22   2.0000      -0.703459       -19.1421
  23   2.0000      -0.670958       -18.2577
  24   2.0000      -0.635218       -17.2852
  25   2.0000      -0.628418       -17.1001
  26   2.0000      -0.611719       -16.6457
  27   2.0000      -0.608271       -16.5519
  28   2.0000      -0.595013       -16.1911
  29   2.0000      -0.560973       -15.2649
  30   2.0000      -0.548579       -14.9276
  31   2.0000      -0.532788       -14.4979
  32   2.0000      -0.522369       -14.2144
  33   2.0000      -0.504753       -13.7350
  34   2.0000      -0.498178       -13.5561
  35   2.0000      -0.481078       -13.0908
  36   2.0000      -0.466904       -12.7051
  37   2.0000      -0.456536       -12.4230
  38   2.0000      -0.446222       -12.1423
  39   2.0000      -0.432649       -11.7730
  40   2.0000      -0.427005       -11.6194
  41   2.0000      -0.424147       -11.5416
  42   2.0000      -0.413469       -11.2511
  43   2.0000      -0.411434       -11.1957
  44   2.0000      -0.395613       -10.7652
  45   2.0000      -0.387606       -10.5473
  46   2.0000      -0.374426       -10.1886
  47   2.0000      -0.369938       -10.0665
  48   2.0000      -0.365679        -9.9506
  49   2.0000      -0.358902        -9.7662
  50   2.0000      -0.356776        -9.7084
  51   2.0000      -0.224960        -6.1215
  52   0.0000       0.013024         0.3544
  53   0.0000       0.021198         0.5768
  54   0.0000       0.024727         0.6728
  55   0.0000       0.029253         0.7960
  56   0.0000       0.041017         1.1161

MULLIKEN ATOMIC CHARGES
-----------------------
   0 C :   -1.072238
   1 C :   -0.908282
   2 H :    0.406774
   3 C :   -0.355933
   4 H :    0.417624
   5 H :    0.155655
   6 H :    0.409883
   7 C :   -0.438971
   8 H :    0.220670
   9 C :   -1.159585
  10 H :    0.382958
  11 C :   -0.649174
  12 H :    0.382118
  13 H :    0.373245
  14 C :    0.451081
  15 H :    0.319240
  16 H :    0.418125
  17 H :   -0.489765
  18 C :   -0.725769
  19 H :    0.392826
  20 H :    0.320801
  21 H :    0.438025
  22 C :   -0.598306
  23 H :    0.321784
  24 H :    0.355902
  25 F :   -0.460182
  26 C :    0.592032
  27 N :   -0.643312
  28 C :   -1.097503
  29 H :    0.367414
  30 H :    0.441944
  31 H :    0.266473
  32 H :    0.455612
  33 H :    0.371062
  34 H :    0.337777
Sum of atomic charges:   -0.0000000

LOEWDIN ATOMIC CHARGES
----------------------
   0 C :   -0.145283
   1 C :   -0.198453
   2 H :    0.109499
   3 C :   -0.217069
   4 H :    0.109329
   5 H :    0.089814
   6 H :    0.119252
   7 C :   -0.214260
   8 H :    0.097399
   9 C :   -0.209635
  10 H :    0.117090
  11 C :   -0.218538
  12 H :    0.111170
  13 H :    0.110380
  14 C :   -0.222411
  15 H :    0.108095
  16 H :    0.113571
  17 H :    0.077512
  18 C :   -0.181226
  19 H :    0.127879
  20 H :    0.121309
  21 H :    0.122298
  22 C :   -0.184573
  23 H :    0.123605
  24 H :    0.128707
  25 F :   -0.100940
  26 C :   -0.488070
  27 N :    0.098508
  28 C :    0.030611
  29 H :    0.038181
  30 H :    0.008411
  31 H :    0.115791
  32 H :    0.074928
  33 H :    0.106503
  34 H :    0.120616

  Mayer bond orders larger than 0.100000
B(  0-C ,  1-C ) :   0.7099 B(  0-C ,  3-C ) :  -0.1182 B(  0-C ,  7-C ) :   0.1135
B(  0-C , 26-C ) :   0.4939 B(  0-C , 33-H ) :   1.0005 B(  0-C , 34-H ) :   0.9756
B(  1-C ,  2-H ) :   0.9090 B(  1-C ,  3-C ) :   0.6386 B(  1-C ,  4-H ) :   0.9199
B(  1-C ,  7-C ) :   0.1951 B(  3-C ,  5-H ) :   1.1270 B(  3-C ,  6-H ) :   0.8242
B(  3-C ,  7-C ) :   0.2882 B(  3-C ,  8-H ) :  -0.1218 B(  3-C ,  9-C ) :   0.1902
B(  3-C , 11-C ) :   0.1385 B(  5-H ,  7-C ) :  -0.1477 B(  7-C ,  8-H ) :   1.0598
B(  7-C ,  9-C ) :   0.5973 B(  7-C , 10-H ) :   0.8838 B(  7-C , 11-C ) :  -0.1255
B(  9-C , 11-C ) :   0.5948 B(  9-C , 12-H ) :   0.9482 B(  9-C , 13-H ) :   0.9721
B(  9-C , 14-C ) :   0.1438 B( 11-C , 14-C ) :   0.3562 B( 11-C , 15-H ) :   0.9990
B( 11-C , 16-H ) :   0.8654 B( 11-C , 18-C ) :   0.2991 B( 14-C , 15-H ) :  -0.1078
B( 14-C , 17-H ) :   1.0605 B( 14-C , 18-C ) :   0.3462 B( 14-C , 19-H ) :   0.9563
B( 14-C , 22-C ) :   0.1263 B( 14-C , 27-N ) :  -0.1644 B( 18-C , 20-H ) :   0.9932
B( 18-C , 21-H ) :   0.8616 B( 18-C , 22-C ) :   0.6325 B( 22-C , 23-H ) :   0.9830
B( 22-C , 24-H ) :   0.9455 B( 22-C , 25-F ) :   0.6764 B( 26-C , 27-N ) :   0.8460
B( 26-C , 28-C ) :   1.5165 B( 26-C , 30-H ) :  -0.2025 B( 26-C , 33-H ) :  -0.1368
B( 27-N , 31-H ) :   0.9396 B( 27-N , 32-H ) :   0.8118 B( 28-C , 29-H ) :   0.9696
B( 28-C , 30-H ) :   0.9725

Dispersion correction           -0.002138619
FINAL SINGLE POINT ENERGY      -586.907766532071

DIPOLE MOMENT
-------------
                                X             Y             Z
Electronic contribution:     -2.78617      -0.01305      10.66704
Nuclear contribution   :      1.85154       0.58682     -11.15333
                        -----------------------------------------
Total Dipole Moment    :     -0.93464       0.57377      -0.48628
                        -----------------------------------------
Magnitude (a.u.)       :      1.19968
Magnitude (Debye)      :      3.04935

Rotational constants in cm-1:     0.028379     0.022321     0.014415
Rotational constants in MHz :   850.785777   669.176075   432.155504

                             ****ORCA TERMINATED NORMALLY****
TOTAL RUN TIME: 0 days 0 hours 7 minutes 29 seconds 482 msec
