                         Program Version 5.0.0 -  RELEASE  -
|  1> !LC-PBE RIJCOSX def2-SVPD def2/J TightSCF
|  2> *xyz -1 1
|  3> C         -0.71189        0.84252       -4.21834
|  4> C         -0.39762       -0.20587       -5.28802
|  5> O          0.61717       -0.00535       -5.99827
|  6> O         -1.13317       -1.22138       -5.34147
|  7> H         -0.00939        1.64646       -4.28960
|  8> H         -0.64409        0.39449       -3.24902
|  9> H         -1.70192        1.21961       -4.36851
| 10> *
| 11>
| 12> %MaxCore 64000
| 13>
| 14> %pal nprocs 4
| 15> end
| 16>
| 17> %scf
| 18>   MaxIter 150
| 19> end
| 20>
| 21>
| 22>                          ****END OF INPUT****

CARTESIAN COORDINATES (ANGSTROEM)
---------------------------------
  C     -0.711890    0.842520   -4.218340
  C     -0.397620   -0.205870   -5.288020
  O      0.617170   -0.005350   -5.998270
  O     -1.133170   -1.221380   -5.341470
  H     -0.009390    1.646460   -4.289600
  H     -0.644090    0.394490   -3.249020
  H     -1.701920    1.219610   -4.368510

 Total Charge           Charge          ....   -1
 Multiplicity           Mult            ....    1
 Number of Electrons    NEL             ....   32
 Basis Dimension        Dim             ....  110

ORBITAL ENERGIES
----------------

  NO   OCC          E(Eh)            E(eV)
   0   2.0000     -18.724060      -509.5076
   1   2.0000     -18.723502      -509.4924
   2   2.0000     -10.017886      -272.6005
   3   2.0000      -9.939477      -270.4669
   4   2.0000      -0.978090       -26.6152
   5   2.0000      -0.874550       -23.7977
   6   2.0000      -0.711173       -19.3520
   7   2.0000      -0.450609       -12.2617
   8   2.0000      -0.406554       -11.0629
   9   2.0000      -0.388278       -10.5656
  10   2.0000      -0.372851       -10.1458
  11   2.0000      -0.324832        -8.8391
  12   2.0000      -0.308824        -8.4035
  13   2.0000      -0.176505        -4.8030
  14   2.0000      -0.173389        -4.7181
  15   2.0000      -0.160917        -4.3788
  16   0.0000       0.237314         6.4577
  17   0.0000       0.270272         7.3545
  18   0.0000       0.297379         8.0921
  19   0.0000       0.306881         8.3506
  20   0.0000       0.333141         9.0652

MULLIKEN ATOMIC CHARGES
-----------------------
   0 C :    0.242426
   1 C :   -0.045876
   2 O :   -0.602347
   3 O :   -0.617244
   4 H :   -0.000516
   5 H :    0.011231
   6 H :    0.012327
Sum of atomic charges:   -1.0000000

LOEWDIN ATOMIC CHARGES
----------------------
   0 C :    0.108375
   1 C :   -0.359255
   2 O :   -0.336875
   3 O :   -0.338656
   4 H :   -0.029401
   5 H :   -0.021089
   6 H :   -0.023099

  Mayer bond orders larger than 0.100000
B(  0-C ,  1-C ) :   1.2011 B(  0-C ,  4-H ) :   0.8969 B(  0-C ,  5-H ) :   0.8565
B(  0-C ,  6-H ) :   0.8477 B(  1-C ,  2-O ) :   1.5714 B(  1-C ,  3-O ) :   1.5742
B(  1-C ,  4-H ) :   0.2021 B(  1-C ,  5-H ) :   0.1250 B(  1-C ,  6-H ) :   0.1316

FINAL SINGLE POINT ENERGY      -227.726375175672

DIPOLE MOMENT
-------------
                                X             Y             Z
Electronic contribution:      0.73426      -2.40199      -2.44386
Nuclear contribution   :     -1.06347       3.45957       3.47855
                        -----------------------------------------
Total Dipole Moment    :     -0.32920       1.05758       1.03470
                        -----------------------------------------
Magnitude (a.u.)       :      1.51574
Magnitude (Debye)      :      3.85270

Rotational constants in cm-1:     0.393276     0.333956     0.186777
Rotational constants in MHz : 11790.103634 10011.747201  5599.422324

                             ****ORCA TERMINATED NORMALLY****
TOTAL RUN TIME: 0 days 0 hours 0 minutes 7 seconds 196 msec
