                         Program Version 5.0.0 -  RELEASE  -
|  1> !LC-PBE RIJCOSX def2-SVPD def2/J TightSCF
|  2> *xyz 1 1
|  3> C          2.23447       -2.98975       -2.39762
|  4> N          2.75680       -2.94555       -3.76503
|  5> C          1.98721       -2.59045       -4.81898
|  6> N          0.74322       -3.01749       -4.91352
|  7> N          2.49964       -1.84860       -5.80324
|  8> H          3.30978       -1.29282       -5.55895
|  9> H          1.80103       -1.30430       -6.28913
| 10> H          3.71612       -2.62880       -3.82953
| 11> H          0.39583       -3.62775       -4.18502
| 12> H          0.03920       -2.45438       -5.37137
| 13> H          1.22098       -3.33251       -2.41386
| 14> H          2.27280       -2.00995       -1.96933
| 15> H          2.82798       -3.65908       -1.81056
| 16> *
| 17>
| 18> %MaxCore 64000
| 19>
| 20> %pal nprocs 4
| 21> end
| 22>
| 23> %scf
| 24>   MaxIter 150
| 25> end
| 26>
| 27>
| 28>                          ****END OF INPUT****

CARTESIAN COORDINATES (ANGSTROEM)
---------------------------------
  C      2.234470   -2.989750   -2.397620
  N      2.756800   -2.945550   -3.765030
  C      1.987210   -2.590450   -4.818980
  N      0.743220   -3.017490   -4.913520
  N      2.499640   -1.848600   -5.803240
  H      3.309780   -1.292820   -5.558950
  H      1.801030   -1.304300   -6.289130
  H      3.716120   -2.628800   -3.829530
  H      0.395830   -3.627750   -4.185020
  H      0.039200   -2.454380   -5.371370
  H      1.220980   -3.332510   -2.413860
  H      2.272800   -2.009950   -1.969330
  H      2.827980   -3.659080   -1.810560

 Total Charge           Charge          ....    1
 Multiplicity           Mult            ....    1
 Number of Electrons    NEL             ....   40
 Basis Dimension        Dim             ....  164

ORBITAL ENERGIES
----------------

  NO   OCC          E(Eh)            E(eV)
   0   2.0000     -14.466000      -393.6399
   1   2.0000     -14.463791      -393.5798
   2   2.0000     -14.461549      -393.5187
   3   2.0000     -10.484642      -285.3016
   4   2.0000     -10.334926      -281.2276
   5   2.0000      -1.401036       -38.1241
   6   2.0000      -1.277489       -34.7622
   7   2.0000      -1.270753       -34.5789
   8   2.0000      -1.069975       -29.1155
   9   2.0000      -0.989199       -26.9175
  10   2.0000      -0.945986       -25.7416
  11   2.0000      -0.905740       -24.6464
  12   2.0000      -0.853994       -23.2384
  13   2.0000      -0.832614       -22.6566
  14   2.0000      -0.798424       -21.7262
  15   2.0000      -0.785046       -21.3622
  16   2.0000      -0.740656       -20.1543
  17   2.0000      -0.719848       -19.5881
  18   2.0000      -0.628665       -17.1068
  19   2.0000      -0.590504       -16.0684
  20   0.0000      -0.109518        -2.9801
  21   0.0000      -0.080977        -2.2035
  22   0.0000      -0.042607        -1.1594
  23   0.0000      -0.033981        -0.9247
  24   0.0000      -0.006258        -0.1703

MULLIKEN ATOMIC CHARGES
-----------------------
   0 C :    0.861939
   1 N :   -0.580711
   2 C :    0.870772
   3 N :    0.004019
   4 N :   -0.107090
   5 H :    0.061896
   6 H :    0.101218
   7 H :   -0.099704
   8 H :    0.031765
   9 H :    0.032239
  10 H :   -0.120620
  11 H :    0.007415
  12 H :   -0.063137
Sum of atomic charges:    1.0000000

LOEWDIN ATOMIC CHARGES
----------------------
   0 C :    0.228268
   1 N :    0.013070
   2 C :   -0.042934
   3 N :    0.266551
   4 N :    0.254354
   5 H :    0.045700
   6 H :    0.045120
   7 H :    0.059104
   8 H :    0.034984
   9 H :    0.058301
  10 H :   -0.005048
  11 H :    0.020077
  12 H :    0.022454

  Mayer bond orders larger than 0.100000
B(  0-C ,  1-N ) :   0.9011 B(  0-C , 10-H ) :   0.8736 B(  0-C , 11-H ) :   0.8621
B(  0-C , 12-H ) :   0.8587 B(  1-N ,  2-C ) :   1.0891 B(  1-N ,  4-N ) :   0.1157
B(  1-N ,  7-H ) :   1.2009 B(  1-N , 10-H ) :   0.1276 B(  1-N , 12-H ) :   0.1601
B(  2-C ,  3-N ) :   1.0758 B(  2-C ,  4-N ) :   1.0403 B(  2-C ,  7-H ) :  -0.1437
B(  3-N ,  4-N ) :   0.1340 B(  3-N ,  8-H ) :   0.9957 B(  3-N ,  9-H ) :   1.1756
B(  4-N ,  5-H ) :   0.9937 B(  4-N ,  6-H ) :   0.9851 B(  8-H ,  9-H ) :  -0.1422

FINAL SINGLE POINT ENERGY      -244.146565449746

DIPOLE MOMENT
-------------
                                X             Y             Z
Electronic contribution:      0.25696      -0.03158      -3.01002
Nuclear contribution   :     -0.61773       0.88991       3.03801
                        -----------------------------------------
Total Dipole Moment    :     -0.36077       0.85833       0.02799
                        -----------------------------------------
Magnitude (a.u.)       :      0.93149
Magnitude (Debye)      :      2.36766

Rotational constants in cm-1:     0.302561     0.133407     0.098295
Rotational constants in MHz :  9070.558660  3999.431512  2946.819102

                             ****ORCA TERMINATED NORMALLY****
TOTAL RUN TIME: 0 days 0 hours 0 minutes 16 seconds 373 msec
