                         Program Version 5.0.0 -  RELEASE  -
|  1> !LC-PBE RIJCOSX def2-SVPD def2/J TightSCF
|  2> *xyz 0 1
|  3> C         -0.71189        0.84252       -4.21834
|  4> C         -0.39762       -0.20587       -5.28802
|  5> F          0.61717       -0.00535       -5.99827
|  6> O         -1.13317       -1.22138       -5.34147
|  7> H         -0.00939        1.64646       -4.28960
|  8> H         -0.64409        0.39449       -3.24902
|  9> H         -1.70192        1.21961       -4.36851
| 10> *
| 11>
| 12> %MaxCore 64000
| 13>
| 14> %pal nprocs 4
| 15> end
| 16>
| 17> %scf
| 18>   MaxIter 150
| 19> end
| 20>
| 21>
| 22>                          ****END OF INPUT****

CARTESIAN COORDINATES (ANGSTROEM)
---------------------------------
  C     -0.711890    0.842520   -4.218340
  C     -0.397620   -0.205870   -5.288020
  F      0.617170   -0.005350   -5.998270
  O     -1.133170   -1.221380   -5.341470
  H     -0.009390    1.646460   -4.289600
  H     -0.644090    0.394490   -3.249020
  H     -1.701920    1.219610   -4.368510

 Total Charge           Charge          ....    0
 Multiplicity           Mult            ....    1
 Number of Electrons    NEL             ....   32
 Basis Dimension        Dim             ....  110

ORBITAL ENERGIES
----------------

  NO   OCC          E(Eh)            E(eV)
   0   2.0000     -24.584925      -668.9898
   1   2.0000     -19.006240      -517.1861
   2   2.0000     -10.325784      -280.9789
   3   2.0000     -10.156878      -276.3827
   4   2.0000      -1.471861       -40.0514
   5   2.0000      -1.195944       -32.5433
   6   2.0000      -0.944698       -25.7065
   7   2.0000      -0.819346       -22.2955
   8   2.0000      -0.713269       -19.4090
   9   2.0000      -0.706314       -19.2198
  10   2.0000      -0.655698       -17.8424
  11   2.0000      -0.589434       -16.0393
  12   2.0000      -0.576150       -15.6778
  13   2.0000      -0.548290       -14.9197
  14   2.0000      -0.495775       -13.4907
  15   2.0000      -0.438297       -11.9267
  16   0.0000       0.063339         1.7235
  17   0.0000       0.080012         2.1772
  18   0.0000       0.118692         3.2298
  19   0.0000       0.155591         4.2338
  20   0.0000       0.158233         4.3057

MULLIKEN ATOMIC CHARGES
-----------------------
   0 C :    0.127148
   1 C :    0.318748
   2 F :   -0.292267
   3 O :   -0.419736
   4 H :    0.058326
   5 H :    0.105897
   6 H :    0.101884
Sum of atomic charges:    0.0000000

LOEWDIN ATOMIC CHARGES
----------------------
   0 C :    0.180969
   1 C :   -0.051421
   2 F :   -0.026027
   3 O :   -0.136391
   4 H :   -0.000554
   5 H :    0.017279
   6 H :    0.016145

  Mayer bond orders larger than 0.100000
B(  0-C ,  1-C ) :   1.2521 B(  0-C ,  4-H ) :   0.9052 B(  0-C ,  5-H ) :   0.8435
B(  0-C ,  6-H ) :   0.8371 B(  1-C ,  2-F ) :   0.8726 B(  1-C ,  3-O ) :   1.8922
B(  1-C ,  4-H ) :   0.1191 B(  1-C ,  5-H ) :   0.1027 B(  1-C ,  6-H ) :   0.1111

FINAL SINGLE POINT ENERGY      -252.232163714181

DIPOLE MOMENT
-------------
                                X             Y             Z
Electronic contribution:      2.42074      -2.22064      -3.78648
Nuclear contribution   :     -2.12043       3.31297       4.29327
                        -----------------------------------------
Total Dipole Moment    :      0.30031       1.09234       0.50679
                        -----------------------------------------
Magnitude (a.u.)       :      1.24106
Magnitude (Debye)      :      3.15451

Rotational constants in cm-1:     0.368089     0.321934     0.177312
Rotational constants in MHz : 11035.034199  9651.332398  5315.666874

                             ****ORCA TERMINATED NORMALLY****
TOTAL RUN TIME: 0 days 0 hours 0 minutes 7 seconds 494 msec
