                         Program Version 5.0.0 -  RELEASE  -
|  1> !LC-PBE RIJCOSX def2-SVPD def2/J TightSCF
|  2> *xyz 0 1
|  3> C          2.23447       -2.98975       -2.39762
|  4> C          2.75680       -2.94555       -3.76503
|  5> C          1.98721       -2.59045       -4.81898
|  6> N          0.74322       -3.01749       -4.91352
|  7> N          2.49964       -1.84860       -5.80324
|  8> H          3.30978       -1.29282       -5.55895
|  9> H          1.80103       -1.30430       -6.28913
| 10> H          3.71612       -2.62880       -3.82953
| 11> H          0.39583       -3.62775       -4.18502
| 12> H          0.03920       -2.45438       -5.37137
| 13> H          1.22098       -3.33251       -2.41386
| 14> H          2.27280       -2.00995       -1.96933
| 15> H          2.82798       -3.65908       -1.81056
| 16> *
| 17>
| 18> %MaxCore 64000
| 19>
| 20> %pal nprocs 4
| 21> end
| 22>
| 23> %scf
| 24>   MaxIter 150
| 25> end
| 26>
| 27>
| 28>                          ****END OF INPUT****

CARTESIAN COORDINATES (ANGSTROEM)
---------------------------------
  C      2.234470   -2.989750   -2.397620
  C      2.756800   -2.945550   -3.765030
  C      1.987210   -2.590450   -4.818980
  N      0.743220   -3.017490   -4.913520
  N      2.499640   -1.848600   -5.803240
  H      3.309780   -1.292820   -5.558950
  H      1.801030   -1.304300   -6.289130
  H      3.716120   -2.628800   -3.829530
  H      0.395830   -3.627750   -4.185020
  H      0.039200   -2.454380   -5.371370
  H      1.220980   -3.332510   -2.413860
  H      2.272800   -2.009950   -1.969330
  H      2.827980   -3.659080   -1.810560

 Total Charge           Charge          ....    0
 Multiplicity           Mult            ....    1
 Number of Electrons    NEL             ....   40
 Basis Dimension        Dim             ....  164

ORBITAL ENERGIES
----------------

  NO   OCC          E(Eh)            E(eV)
   0   2.0000     -14.234916      -387.3518
   1   2.0000     -14.230481      -387.2311
   2   2.0000     -10.180929      -277.0372
   3   2.0000     -10.093544      -274.6593
   4   2.0000     -10.054580      -273.5990
   5   2.0000      -1.141293       -31.0562
   6   2.0000      -1.039990       -28.2996
   7   2.0000      -0.922341       -25.0982
   8   2.0000      -0.814090       -22.1525
   9   2.0000      -0.741694       -20.1825
  10   2.0000      -0.692969       -18.8566
  11   2.0000      -0.652975       -17.7684
  12   2.0000      -0.609941       -16.5973
  13   2.0000      -0.583867       -15.8878
  14   2.0000      -0.545294       -14.8382
  15   2.0000      -0.518513       -14.1095
  16   2.0000      -0.494632       -13.4596
  17   2.0000      -0.469491       -12.7755
  18   2.0000      -0.410827       -11.1792
  19   2.0000      -0.275401        -7.4940
  20   0.0000       0.086803         2.3620
  21   0.0000       0.113139         3.0787
  22   0.0000       0.124806         3.3962
  23   0.0000       0.142204         3.8696
  24   0.0000       0.154097         4.1932

MULLIKEN ATOMIC CHARGES
-----------------------
   0 C :    0.595319
   1 C :   -0.449519
   2 C :    0.262953
   3 N :   -0.044249
   4 N :   -0.103955
   5 H :    0.082522
   6 H :    0.030698
   7 H :   -0.198678
   8 H :    0.017471
   9 H :   -0.068312
  10 H :   -0.175322
  11 H :   -0.019734
  12 H :    0.070807
Sum of atomic charges:    0.0000000

LOEWDIN ATOMIC CHARGES
----------------------
   0 C :    0.058900
   1 C :   -0.075080
   2 C :   -0.248323
   3 N :    0.176266
   4 N :    0.168499
   5 H :    0.011652
   6 H :   -0.001671
   7 H :   -0.049529
   8 H :    0.004229
   9 H :    0.008591
  10 H :   -0.033665
  11 H :   -0.007705
  12 H :   -0.012164

  Mayer bond orders larger than 0.100000
B(  0-C ,  1-C ) :   1.1291 B(  0-C ,  7-H ) :   0.1652 B(  0-C , 10-H ) :   0.8068
B(  0-C , 11-H ) :   0.8616 B(  0-C , 12-H ) :   0.7564 B(  1-C ,  2-C ) :   1.9118
B(  1-C ,  3-N ) :   0.1654 B(  1-C ,  4-N ) :   0.1893 B(  1-C ,  7-H ) :   0.8882
B(  1-C , 10-H ) :   0.2511 B(  1-C , 12-H ) :   0.1830 B(  2-C ,  3-N ) :   1.0543
B(  2-C ,  4-N ) :   1.0252 B(  2-C ,  7-H ) :   0.2250 B(  3-N ,  4-N ) :   0.1114
B(  3-N ,  8-H ) :   0.9971 B(  3-N ,  9-H ) :   1.1971 B(  4-N ,  5-H ) :   0.9473
B(  4-N ,  6-H ) :   0.9367 B(  8-H ,  9-H ) :  -0.1262 B( 10-H , 12-H ) :   0.1194

FINAL SINGLE POINT ENERGY      -227.703198602139

DIPOLE MOMENT
-------------
                                X             Y             Z
Electronic contribution:     -0.30806       0.07717      -3.40949
Nuclear contribution   :     -0.47056       0.83150       3.15332
                        -----------------------------------------
Total Dipole Moment    :     -0.77862       0.90867      -0.25617
                        -----------------------------------------
Magnitude (a.u.)       :      1.22375
Magnitude (Debye)      :      3.11052

Rotational constants in cm-1:     0.307275     0.134774     0.099280
Rotational constants in MHz :  9211.860934  4040.421317  2976.324646

                             ****ORCA TERMINATED NORMALLY****
TOTAL RUN TIME: 0 days 0 hours 0 minutes 18 seconds 574 msec
