                         Program Version 5.0.0 -  RELEASE  -
|  1> !LC-PBE RIJCOSX def2-SVPD def2/J TightSCF
|  2> *xyz 0 1
|  3> C         -0.71189        0.84252       -4.21834
|  4> C         -0.39762       -0.20587       -5.28802
|  5> O          0.61717       -0.00535       -5.99827
|  6> F         -1.13317       -1.22138       -5.34147
|  7> H         -0.00939        1.64646       -4.28960
|  8> H         -0.64409        0.39449       -3.24902
|  9> H         -1.70192        1.21961       -4.36851
| 10> *
| 11>
| 12> %MaxCore 64000
| 13>
| 14> %pal nprocs 4
| 15> end
| 16>
| 17> %scf
| 18>   MaxIter 150
| 19> end
| 20>
| 21>
| 22>                          ****END OF INPUT****

CARTESIAN COORDINATES (ANGSTROEM)
---------------------------------
  C     -0.711890    0.842520   -4.218340
  C     -0.397620   -0.205870   -5.288020
  O      0.617170   -0.005350   -5.998270
  F     -1.133170   -1.221380   -5.341470
  H     -0.009390    1.646460   -4.289600
  H     -0.644090    0.394490   -3.249020
  H     -1.701920    1.219610   -4.368510

 Total Charge           Charge          ....    0
 Multiplicity           Mult            ....    1
 Number of Electrons    NEL             ....   32
 Basis Dimension        Dim             ....  110

ORBITAL ENERGIES
----------------

  NO   OCC          E(Eh)            E(eV)
   0   2.0000     -24.585384      -669.0023
   1   2.0000     -19.006096      -517.1822
   2   2.0000     -10.325414      -280.9688
   3   2.0000     -10.156595      -276.3750
   4   2.0000      -1.471753       -40.0484
   5   2.0000      -1.196310       -32.5532
   6   2.0000      -0.944217       -25.6934
   7   2.0000      -0.819335       -22.2952
   8   2.0000      -0.713915       -19.4266
   9   2.0000      -0.705848       -19.2071
  10   2.0000      -0.655078       -17.8256
  11   2.0000      -0.588334       -16.0094
  12   2.0000      -0.576921       -15.6988
  13   2.0000      -0.548172       -14.9165
  14   2.0000      -0.498508       -13.5651
  15   2.0000      -0.436263       -11.8713
  16   0.0000       0.066785         1.8173
  17   0.0000       0.080131         2.1805
  18   0.0000       0.118461         3.2235
  19   0.0000       0.152987         4.1630
  20   0.0000       0.160299         4.3619

MULLIKEN ATOMIC CHARGES
-----------------------
   0 C :    0.144236
   1 C :    0.331794
   2 O :   -0.403455
   3 F :   -0.313123
   4 H :    0.043884
   5 H :    0.099748
   6 H :    0.096914
Sum of atomic charges:   -0.0000000

LOEWDIN ATOMIC CHARGES
----------------------
   0 C :    0.180295
   1 C :   -0.052522
   2 O :   -0.136544
   3 F :   -0.023928
   4 H :    0.011231
   5 H :    0.011875
   6 H :    0.009594

  Mayer bond orders larger than 0.100000
B(  0-C ,  1-C ) :   1.2317 B(  0-C ,  4-H ) :   0.9217 B(  0-C ,  5-H ) :   0.8392
B(  0-C ,  6-H ) :   0.8351 B(  1-C ,  2-O ) :   1.9164 B(  1-C ,  3-F ) :   0.8380
B(  1-C ,  4-H ) :   0.1616

FINAL SINGLE POINT ENERGY      -252.232262499688

DIPOLE MOMENT
-------------
                                X             Y             Z
Electronic contribution:     -0.46220      -4.22398      -2.70410
Nuclear contribution   :     -0.31181       4.56949       3.61460
                        -----------------------------------------
Total Dipole Moment    :     -0.77400       0.34551       0.91051
                        -----------------------------------------
Magnitude (a.u.)       :      1.24398
Magnitude (Debye)      :      3.16194

Rotational constants in cm-1:     0.370228     0.320104     0.177247
Rotational constants in MHz : 11099.151631  9596.483000  5313.726171

                             ****ORCA TERMINATED NORMALLY****
TOTAL RUN TIME: 0 days 0 hours 0 minutes 7 seconds 417 msec
