                         Program Version 5.0.0 -  RELEASE  -
|  1> !LC-PBE RIJCOSX def2-SVPD def2/J TightSCF
|  2> *xyz 0 1
|  3> C          2.23447       -2.98975       -2.39762
|  4> N          2.75680       -2.94555       -3.76503
|  5> C          1.98721       -2.59045       -4.81898
|  6> C          0.74322       -3.01749       -4.91352
|  7> N          2.49964       -1.84860       -5.80324
|  8> H          3.30978       -1.29282       -5.55895
|  9> H          1.80103       -1.30430       -6.28913
| 10> H          3.71612       -2.62880       -3.82953
| 11> H          0.39583       -3.62775       -4.18502
| 12> H          0.03920       -2.45438       -5.37137
| 13> H          1.22098       -3.33251       -2.41386
| 14> H          2.27280       -2.00995       -1.96933
| 15> H          2.82798       -3.65908       -1.81056
| 16> *
| 17>
| 18> %MaxCore 64000
| 19>
| 20> %pal nprocs 4
| 21> end
| 22>
| 23> %scf
| 24>   MaxIter 150
| 25> end
| 26>
| 27>
| 28>                          ****END OF INPUT****

CARTESIAN COORDINATES (ANGSTROEM)
---------------------------------
  C      2.234470   -2.989750   -2.397620
  N      2.756800   -2.945550   -3.765030
  C      1.987210   -2.590450   -4.818980
  C      0.743220   -3.017490   -4.913520
  N      2.499640   -1.848600   -5.803240
  H      3.309780   -1.292820   -5.558950
  H      1.801030   -1.304300   -6.289130
  H      3.716120   -2.628800   -3.829530
  H      0.395830   -3.627750   -4.185020
  H      0.039200   -2.454380   -5.371370
  H      1.220980   -3.332510   -2.413860
  H      2.272800   -2.009950   -1.969330
  H      2.827980   -3.659080   -1.810560

 Total Charge           Charge          ....    0
 Multiplicity           Mult            ....    1
 Number of Electrons    NEL             ....   40
 Basis Dimension        Dim             ....  164

ORBITAL ENERGIES
----------------

  NO   OCC          E(Eh)            E(eV)
   0   2.0000     -14.234922      -387.3519
   1   2.0000     -14.230320      -387.2267
   2   2.0000     -10.180626      -277.0289
   3   2.0000     -10.150504      -276.2093
   4   2.0000     -10.044928      -273.3364
   5   2.0000      -1.139788       -31.0152
   6   2.0000      -1.051115       -28.6023
   7   2.0000      -0.889491       -24.2043
   8   2.0000      -0.858700       -23.3664
   9   2.0000      -0.716991       -19.5103
  10   2.0000      -0.696234       -18.9455
  11   2.0000      -0.660704       -17.9787
  12   2.0000      -0.599449       -16.3118
  13   2.0000      -0.580360       -15.7924
  14   2.0000      -0.559269       -15.2185
  15   2.0000      -0.530583       -14.4379
  16   2.0000      -0.511706       -13.9242
  17   2.0000      -0.496369       -13.5069
  18   2.0000      -0.385873       -10.5001
  19   2.0000      -0.296336        -8.0637
  20   0.0000       0.086816         2.3624
  21   0.0000       0.112315         3.0563
  22   0.0000       0.124418         3.3856
  23   0.0000       0.139984         3.8091
  24   0.0000       0.155592         4.2339

MULLIKEN ATOMIC CHARGES
-----------------------
   0 C :    0.899301
   1 N :   -0.496292
   2 C :    0.349651
   3 C :    0.192523
   4 N :   -0.073428
   5 H :   -0.027546
   6 H :    0.086837
   7 H :   -0.220678
   8 H :   -0.107993
   9 H :   -0.307531
  10 H :   -0.134295
  11 H :   -0.050536
  12 H :   -0.110014
Sum of atomic charges:    0.0000000

LOEWDIN ATOMIC CHARGES
----------------------
   0 C :    0.181844
   1 N :   -0.051936
   2 C :   -0.253850
   3 C :    0.127467
   4 N :    0.166457
   5 H :   -0.002820
   6 H :    0.010893
   7 H :    0.020081
   8 H :   -0.091548
   9 H :   -0.078460
  10 H :   -0.018706
  11 H :   -0.004565
  12 H :   -0.004857

  Mayer bond orders larger than 0.100000
B(  0-C ,  1-N ) :   0.8973 B(  0-C , 10-H ) :   0.8786 B(  0-C , 11-H ) :   0.8439
B(  0-C , 12-H ) :   0.8340 B(  1-N ,  2-C ) :   1.0428 B(  1-N ,  3-C ) :   0.2032
B(  1-N ,  7-H ) :   1.1693 B(  1-N , 10-H ) :   0.1198 B(  1-N , 11-H ) :   0.1258
B(  1-N , 12-H ) :   0.1569 B(  2-C ,  3-C ) :   1.8507 B(  2-C ,  4-N ) :   0.9814
B(  2-C ,  8-H ) :   0.2166 B(  3-C ,  4-N ) :   0.2036 B(  3-C ,  8-H ) :   0.6224
B(  3-C ,  9-H ) :   0.9504 B(  4-N ,  5-H ) :   0.9645 B(  4-N ,  6-H ) :   0.9669
B(  8-H ,  9-H ) :   0.1306

FINAL SINGLE POINT ENERGY      -227.693570359043

DIPOLE MOMENT
-------------
                                X             Y             Z
Electronic contribution:      1.53732       0.14979      -2.34321
Nuclear contribution   :     -0.87840       0.81693       2.92070
                        -----------------------------------------
Total Dipole Moment    :      0.65892       0.96672       0.57749
                        -----------------------------------------
Magnitude (a.u.)       :      1.30469
Magnitude (Debye)      :      3.31626

Rotational constants in cm-1:     0.323282     0.134248     0.100848
Rotational constants in MHz :  9691.753357  4024.663509  3023.338831

                             ****ORCA TERMINATED NORMALLY****
TOTAL RUN TIME: 0 days 0 hours 0 minutes 18 seconds 64 msec
