                         Program Version 5.0.0 -  RELEASE  -
|  1> !LC-PBE RIJCOSX def2-SVPD def2/J TightSCF
|  2> *xyz 0 1
|  3> C          2.23447       -2.98975       -2.39762
|  4> N          2.75680       -2.94555       -3.76503
|  5> C          1.98721       -2.59045       -4.81898
|  6> N          0.74322       -3.01749       -4.91352
|  7> C          2.49964       -1.84860       -5.80324
|  8> H          3.30978       -1.29282       -5.55895
|  9> H          1.80103       -1.30430       -6.28913
| 10> H          3.71612       -2.62880       -3.82953
| 11> H          0.39583       -3.62775       -4.18502
| 12> H          0.03920       -2.45438       -5.37137
| 13> H          1.22098       -3.33251       -2.41386
| 14> H          2.27280       -2.00995       -1.96933
| 15> H          2.82798       -3.65908       -1.81056
| 16> *
| 17>
| 18> %MaxCore 64000
| 19>
| 20> %pal nprocs 4
| 21> end
| 22>
| 23> %scf
| 24>   MaxIter 150
| 25> end
| 26>
| 27>
| 28>                          ****END OF INPUT****

CARTESIAN COORDINATES (ANGSTROEM)
---------------------------------
  C      2.234470   -2.989750   -2.397620
  N      2.756800   -2.945550   -3.765030
  C      1.987210   -2.590450   -4.818980
  N      0.743220   -3.017490   -4.913520
  C      2.499640   -1.848600   -5.803240
  H      3.309780   -1.292820   -5.558950
  H      1.801030   -1.304300   -6.289130
  H      3.716120   -2.628800   -3.829530
  H      0.395830   -3.627750   -4.185020
  H      0.039200   -2.454380   -5.371370
  H      1.220980   -3.332510   -2.413860
  H      2.272800   -2.009950   -1.969330
  H      2.827980   -3.659080   -1.810560

 Total Charge           Charge          ....    0
 Multiplicity           Mult            ....    1
 Number of Electrons    NEL             ....   40
 Basis Dimension        Dim             ....  164

ORBITAL ENERGIES
----------------

  NO   OCC          E(Eh)            E(eV)
   0   2.0000     -14.234506      -387.3406
   1   2.0000     -14.233739      -387.3197
   2   2.0000     -10.185052      -277.1494
   3   2.0000     -10.160276      -276.4752
   4   2.0000     -10.039558      -273.1902
   5   2.0000      -1.142443       -31.0875
   6   2.0000      -1.050868       -28.5956
   7   2.0000      -0.910214       -24.7682
   8   2.0000      -0.834187       -22.6994
   9   2.0000      -0.755913       -20.5694
  10   2.0000      -0.690262       -18.7830
  11   2.0000      -0.636775       -17.3275
  12   2.0000      -0.628188       -17.0939
  13   2.0000      -0.596338       -16.2272
  14   2.0000      -0.542689       -14.7673
  15   2.0000      -0.528497       -14.3811
  16   2.0000      -0.513240       -13.9660
  17   2.0000      -0.497566       -13.5395
  18   2.0000      -0.388551       -10.5730
  19   2.0000      -0.291464        -7.9311
  20   0.0000       0.082745         2.2516
  21   0.0000       0.118137         3.2147
  22   0.0000       0.122682         3.3384
  23   0.0000       0.138496         3.7687
  24   0.0000       0.154949         4.2164

MULLIKEN ATOMIC CHARGES
-----------------------
   0 C :    0.875538
   1 N :   -0.607654
   2 C :    0.230760
   3 N :    0.104714
   4 C :    0.313804
   5 H :   -0.097065
   6 H :   -0.305835
   7 H :   -0.104720
   8 H :   -0.077109
   9 H :   -0.035691
  10 H :   -0.148794
  11 H :   -0.030434
  12 H :   -0.117516
Sum of atomic charges:    0.0000000

LOEWDIN ATOMIC CHARGES
----------------------
   0 C :    0.176385
   1 N :   -0.048386
   2 C :   -0.248037
   3 N :    0.177753
   4 C :    0.109536
   5 H :   -0.091777
   6 H :   -0.091939
   7 H :    0.033081
   8 H :   -0.008618
   9 H :    0.023628
  10 H :   -0.022996
  11 H :   -0.003831
  12 H :   -0.004801

  Mayer bond orders larger than 0.100000
B(  0-C ,  1-N ) :   0.9023 B(  0-C , 10-H ) :   0.8644 B(  0-C , 11-H ) :   0.8512
B(  0-C , 12-H ) :   0.8488 B(  1-N ,  2-C ) :   1.0439 B(  1-N ,  4-C ) :   0.1623
B(  1-N ,  7-H ) :   1.1723 B(  1-N , 10-H ) :   0.1239 B(  1-N , 12-H ) :   0.1624
B(  2-C ,  3-N ) :   1.0784 B(  2-C ,  4-C ) :   1.9904 B(  2-C ,  5-H ) :   0.1740
B(  2-C ,  6-H ) :   0.2039 B(  2-C ,  7-H ) :  -0.1066 B(  3-N ,  4-C ) :   0.1896
B(  3-N ,  8-H ) :   1.0125 B(  3-N ,  9-H ) :   1.1493 B(  4-C ,  5-H ) :   0.7888
B(  4-C ,  6-H ) :   0.7752 B(  5-H ,  6-H ) :   0.2412 B(  8-H ,  9-H ) :  -0.1406

FINAL SINGLE POINT ENERGY      -227.688800683180

DIPOLE MOMENT
-------------
                                X             Y             Z
Electronic contribution:     -0.09646      -1.01749      -1.45969
Nuclear contribution   :     -0.52265       1.05368       2.74049
                        -----------------------------------------
Total Dipole Moment    :     -0.61910       0.03619       1.28081
                        -----------------------------------------
Magnitude (a.u.)       :      1.42305
Magnitude (Debye)      :      3.61710

Rotational constants in cm-1:     0.310125     0.138772     0.101978
Rotational constants in MHz :  9297.312912  4160.277024  3057.230514

                             ****ORCA TERMINATED NORMALLY****
TOTAL RUN TIME: 0 days 0 hours 0 minutes 18 seconds 444 msec
