                         Program Version 5.0.0 -  RELEASE  -
|  1> !LC-PBE RIJCOSX def2-SVPD def2/J TightSCF xyzfile
|  2>
|  3> *xyzfile 0 1 D3.xyz
|  4>
|  5> %MaxCore 64000
|  6>
|  7> %pal nprocs 4
|  8> end
|  9>
| 10> %scf
| 11>   MaxIter 150
| 12> end
| 13>
| 14>
| 15>                          ****END OF INPUT****

CARTESIAN COORDINATES (ANGSTROEM)
---------------------------------
  C      2.234473   -2.989754   -2.397622
  N      2.756799   -2.945553   -3.765029
  C     -1.104325    0.251374   -2.860056
  C     -0.711893    0.842517   -4.218344
  H      0.154626    1.499800   -4.130909
  H     -1.538134    1.459222   -4.582671
  C     -0.397624   -0.205875   -5.288018
  C      1.987208   -2.590451   -4.818975
  N      0.743221   -3.017493   -4.913524
  C      2.499636   -1.848598   -5.803241
  H      3.309780   -1.292818   -5.558947
  H      1.801025   -1.304298   -6.289129
  H      3.716116   -2.628797   -3.829533
  H      0.395828   -3.627747   -4.185024
  H      0.039201   -2.454383   -5.371367
  F      0.617165   -0.005348   -5.998273
  O     -1.133173   -1.221380   -5.341465
  C      2.191199   -1.619503   -1.715492
  H      2.872783   -3.666368   -1.828014
  H      1.246188   -3.447444   -2.407842
  C      1.298729   -0.554314   -2.359773
  H      1.872917   -1.787955   -0.681310
  H      3.216809   -1.238432   -1.654428
  C     -0.196255   -0.863365   -2.325763
  H      1.612531   -0.371346   -3.393065
  H      1.480944    0.388638   -1.834444
  H     -0.404105   -1.761825   -2.909448
  H     -0.490439   -1.087880   -1.294131
  H     -1.143842    1.066711   -2.129680
  H     -2.114401   -0.156834   -2.930323

 Total Charge           Charge          ....    0
 Multiplicity           Mult            ....    1
 Number of Electrons    NEL             ....  102
 Basis Dimension        Dim             ....  402

ORBITAL ENERGIES
----------------

  NO   OCC          E(Eh)            E(eV)
   0   2.0000     -24.595020      -669.2645
   1   2.0000     -19.025882      -517.7206
   2   2.0000     -14.224614      -387.0714
   3   2.0000     -14.205381      -386.5481
   4   2.0000     -10.339798      -281.3602
   5   2.0000     -10.172592      -276.8103
   6   2.0000     -10.171273      -276.7744
   7   2.0000     -10.164114      -276.5796
   8   2.0000     -10.150094      -276.1981
   9   2.0000     -10.134062      -275.7619
  10   2.0000     -10.133838      -275.7557
  11   2.0000     -10.133675      -275.7513
  12   2.0000     -10.025570      -272.8096
  13   2.0000      -1.483556       -40.3696
  14   2.0000      -1.220852       -33.2211
  15   2.0000      -1.130337       -30.7580
  16   2.0000      -1.040757       -28.3204
  17   2.0000      -1.007766       -27.4227
  18   2.0000      -0.964208       -26.2374
  19   2.0000      -0.913812       -24.8661
  20   2.0000      -0.876168       -23.8417
  21   2.0000      -0.851423       -23.1684
  22   2.0000      -0.813627       -22.1399
  23   2.0000      -0.777946       -21.1690
  24   2.0000      -0.754636       -20.5347
  25   2.0000      -0.736828       -20.0501
  26   2.0000      -0.721165       -19.6239
  27   2.0000      -0.698142       -18.9974
  28   2.0000      -0.683956       -18.6114
  29   2.0000      -0.675967       -18.3940
  30   2.0000      -0.645908       -17.5760
  31   2.0000      -0.630652       -17.1609
  32   2.0000      -0.620549       -16.8860
  33   2.0000      -0.607889       -16.5415
  34   2.0000      -0.595215       -16.1966
  35   2.0000      -0.578667       -15.7463
  36   2.0000      -0.559236       -15.2176
  37   2.0000      -0.550497       -14.9798
  38   2.0000      -0.530387       -14.4326
  39   2.0000      -0.522407       -14.2154
  40   2.0000      -0.515497       -14.0274
  41   2.0000      -0.503508       -13.7011
  42   2.0000      -0.498917       -13.5762
  43   2.0000      -0.495284       -13.4774
  44   2.0000      -0.479286       -13.0420
  45   2.0000      -0.465232       -12.6596
  46   2.0000      -0.462720       -12.5912
  47   2.0000      -0.453912       -12.3516
  48   2.0000      -0.444388       -12.0924
  49   2.0000      -0.371788       -10.1169
  50   2.0000      -0.278705        -7.5840
  51   0.0000       0.043178         1.1749
  52   0.0000       0.078837         2.1453
  53   0.0000       0.091322         2.4850
  54   0.0000       0.095795         2.6067
  55   0.0000       0.104284         2.8377

MULLIKEN ATOMIC CHARGES
-----------------------
   0 C :    0.622752
   1 N :   -0.505963
   2 C :    0.358776
   3 C :   -0.068069
   4 H :    0.257913
   5 H :   -0.093168
   6 C :    0.578829
   7 C :    0.174329
   8 N :    0.281210
   9 C :    0.618510
  10 H :   -0.037238
  11 H :   -0.559596
  12 H :   -0.070563
  13 H :    0.018869
  14 H :   -0.310121
  15 F :   -0.354321
  16 O :   -0.510848
  17 C :    0.175764
  18 H :   -0.242742
  19 H :    0.042329
  20 C :   -0.166637
  21 H :    0.096053
  22 H :   -0.012384
  23 C :   -0.172372
  24 H :   -0.025667
  25 H :   -0.120645
  26 H :   -0.083399
  27 H :   -0.056422
  28 H :    0.011436
  29 H :    0.153383
Sum of atomic charges:   -0.0000000

LOEWDIN ATOMIC CHARGES
----------------------
   0 C :    0.028817
   1 N :   -0.004205
   2 C :   -0.033377
   3 C :    0.034575
   4 H :    0.040759
   5 H :    0.055209
   6 C :    0.024152
   7 C :   -0.237520
   8 N :    0.218728
   9 C :    0.121995
  10 H :   -0.083661
  11 H :   -0.136980
  12 H :    0.034995
  13 H :    0.001059
  14 H :   -0.085418
  15 F :   -0.016552
  16 O :   -0.116135
  17 C :   -0.040892
  18 H :    0.029626
  19 H :    0.012493
  20 C :   -0.045084
  21 H :    0.033440
  22 H :    0.033714
  23 C :   -0.047061
  24 H :    0.015996
  25 H :    0.037621
  26 H :    0.002381
  27 H :    0.040387
  28 H :    0.040107
  29 H :    0.040829

  Mayer bond orders larger than 0.100000
B(  0-C ,  1-N ) :   0.9538 B(  0-C , 12-H ) :  -0.1042 B(  0-C , 17-C ) :   1.1215
B(  0-C , 18-H ) :   0.8933 B(  0-C , 19-H ) :   0.8006 B(  0-C , 21-H ) :   0.1142
B(  0-C , 22-H ) :   0.1220 B(  1-N ,  7-C ) :   1.0321 B(  1-N ,  9-C ) :   0.2019
B(  1-N , 12-H ) :   1.1322 B(  1-N , 18-H ) :   0.1948 B(  1-N , 19-H ) :   0.1147
B(  2-C ,  3-C ) :   1.2175 B(  2-C ,  5-H ) :   0.1434 B(  2-C , 23-C ) :   1.2728
B(  2-C , 28-H ) :   0.8410 B(  2-C , 29-H ) :   0.6868 B(  3-C ,  4-H ) :   0.8265
B(  3-C ,  5-H ) :   0.8471 B(  3-C ,  6-C ) :   1.2109 B(  3-C , 28-H ) :   0.1204
B(  4-H ,  6-C ) :   0.1442 B(  5-H ,  6-C ) :   0.1580 B(  6-C , 15-F ) :   0.7499
B(  6-C , 16-O ) :   1.7428 B(  7-C ,  8-N ) :   1.0142 B(  7-C ,  9-C ) :   2.1012
B(  7-C , 10-H ) :   0.2805 B(  7-C , 11-H ) :   0.2940 B(  7-C , 12-H ) :  -0.1215
B(  8-N ,  9-C ) :   0.1921 B(  8-N , 13-H ) :   0.9222 B(  8-N , 14-H ) :   1.0824
B(  9-C , 10-H ) :   0.5244 B(  9-C , 11-H ) :   0.3328 B( 10-H , 11-H ) :   0.2887
B( 11-H , 15-F ) :   0.1613 B( 13-H , 14-H ) :  -0.2180 B( 14-H , 16-O ) :   0.1427
B( 15-F , 16-O ) :   0.1030 B( 17-C , 19-H ) :   0.1195 B( 17-C , 20-C ) :   1.2532
B( 17-C , 21-H ) :   0.8462 B( 17-C , 22-H ) :   0.7783 B( 18-H , 19-H ) :  -0.1164
B( 20-C , 21-H ) :   0.1311 B( 20-C , 22-H ) :   0.2137 B( 20-C , 23-C ) :   1.3016
B( 20-C , 24-H ) :   0.9624 B( 20-C , 25-H ) :   0.8934 B( 20-C , 26-H ) :   0.1339
B( 20-C , 27-H ) :   0.1846 B( 23-C , 24-H ) :   0.1231 B( 23-C , 25-H ) :   0.1709
B( 23-C , 26-H ) :   0.9882 B( 23-C , 27-H ) :   0.8175 B( 23-C , 28-H ) :   0.1422
B( 23-C , 29-H ) :   0.2187 B( 26-H , 27-H ) :   0.1028

FINAL SINGLE POINT ENERGY      -635.328566730519

DIPOLE MOMENT
-------------
                                X             Y             Z
Electronic contribution:     -2.86547       1.41247     -12.66257
Nuclear contribution   :      2.27881      -0.10762      14.43322
                        -----------------------------------------
Total Dipole Moment    :     -0.58667       1.30485       1.77065
                        -----------------------------------------
Magnitude (a.u.)       :      2.27640
Magnitude (Debye)      :      5.78615

Rotational constants in cm-1:     0.033336     0.023673     0.017062
Rotational constants in MHz :   999.388459   709.685364   511.514310

                             ****ORCA TERMINATED NORMALLY****
TOTAL RUN TIME: 0 days 0 hours 3 minutes 2 seconds 303 msec
