                         Program Version 5.0.0 -  RELEASE  -
|  1> !LC-PBE RIJCOSX def2-SVPD def2/J TightSCF xyzfile
|  2>
|  3> *xyzfile 0 1 D6.xyz
|  4>
|  5> %MaxCore 64000
|  6>
|  7> %pal nprocs 4
|  8> end
|  9>
| 10> %scf
| 11>   MaxIter 150
| 12> end
| 13>
| 14>
| 15>                          ****END OF INPUT****

CARTESIAN COORDINATES (ANGSTROEM)
---------------------------------
  C      2.234473   -2.989754   -2.397622
  N      2.756799   -2.945553   -3.765029
  C     -1.104325    0.251374   -2.860056
  C     -0.711893    0.842517   -4.218344
  H      0.154626    1.499800   -4.130909
  H     -1.538134    1.459222   -4.582671
  C     -0.397624   -0.205875   -5.288018
  C      1.987208   -2.590451   -4.818975
  N      0.743221   -3.017493   -4.913524
  C      2.499636   -1.848598   -5.803241
  H      3.309780   -1.292818   -5.558947
  H      1.801025   -1.304298   -6.289129
  H      3.716116   -2.628797   -3.829533
  H      0.395828   -3.627747   -4.185024
  H      0.039201   -2.454383   -5.371367
  O      0.617165   -0.005348   -5.998273
  F     -1.133173   -1.221380   -5.341465
  C      2.191199   -1.619503   -1.715492
  H      2.872783   -3.666368   -1.828014
  H      1.246188   -3.447444   -2.407842
  C      1.298729   -0.554314   -2.359773
  H      1.872917   -1.787955   -0.681310
  H      3.216809   -1.238432   -1.654428
  C     -0.196255   -0.863365   -2.325763
  H      1.612531   -0.371346   -3.393065
  H      1.480944    0.388638   -1.834444
  H     -0.404105   -1.761825   -2.909448
  H     -0.490439   -1.087880   -1.294131
  H     -1.143842    1.066711   -2.129680
  H     -2.114401   -0.156834   -2.930323

 Total Charge           Charge          ....    0
 Multiplicity           Mult            ....    1
 Number of Electrons    NEL             ....  102
 Basis Dimension        Dim             ....  402

ORBITAL ENERGIES
----------------

  NO   OCC          E(Eh)            E(eV)
   0   2.0000     -24.605873      -669.5598
   1   2.0000     -19.016627      -517.4687
   2   2.0000     -14.221941      -386.9987
   3   2.0000     -14.217234      -386.8706
   4   2.0000     -10.330798      -281.1153
   5   2.0000     -10.167937      -276.6836
   6   2.0000     -10.167349      -276.6676
   7   2.0000     -10.163526      -276.5636
   8   2.0000     -10.152627      -276.2670
   9   2.0000     -10.139057      -275.8978
  10   2.0000     -10.132695      -275.7247
  11   2.0000     -10.131589      -275.6946
  12   2.0000     -10.015950      -272.5479
  13   2.0000      -1.493898       -40.6510
  14   2.0000      -1.208869       -32.8950
  15   2.0000      -1.131154       -30.7803
  16   2.0000      -1.044484       -28.4218
  17   2.0000      -1.010824       -27.5059
  18   2.0000      -0.963690       -26.2233
  19   2.0000      -0.911031       -24.7904
  20   2.0000      -0.875333       -23.8190
  21   2.0000      -0.845065       -22.9954
  22   2.0000      -0.825123       -22.4527
  23   2.0000      -0.777513       -21.1572
  24   2.0000      -0.764965       -20.8158
  25   2.0000      -0.739642       -20.1267
  26   2.0000      -0.724275       -19.7085
  27   2.0000      -0.715531       -19.4706
  28   2.0000      -0.680560       -18.5190
  29   2.0000      -0.660051       -17.9609
  30   2.0000      -0.644865       -17.5477
  31   2.0000      -0.630415       -17.1545
  32   2.0000      -0.616615       -16.7789
  33   2.0000      -0.606490       -16.5034
  34   2.0000      -0.591610       -16.0985
  35   2.0000      -0.581096       -15.8124
  36   2.0000      -0.558719       -15.2035
  37   2.0000      -0.551082       -14.9957
  38   2.0000      -0.531862       -14.4727
  39   2.0000      -0.522054       -14.2058
  40   2.0000      -0.518552       -14.1105
  41   2.0000      -0.507248       -13.8029
  42   2.0000      -0.502710       -13.6794
  43   2.0000      -0.496055       -13.4984
  44   2.0000      -0.473544       -12.8858
  45   2.0000      -0.463384       -12.6093
  46   2.0000      -0.460597       -12.5335
  47   2.0000      -0.452849       -12.3227
  48   2.0000      -0.422018       -11.4837
  49   2.0000      -0.375469       -10.2170
  50   2.0000      -0.272843        -7.4244
  51   0.0000       0.051287         1.3956
  52   0.0000       0.075560         2.0561
  53   0.0000       0.091053         2.4777
  54   0.0000       0.094170         2.5625
  55   0.0000       0.105011         2.8575

MULLIKEN ATOMIC CHARGES
-----------------------
   0 C :    0.626919
   1 N :   -0.510167
   2 C :    0.351008
   3 C :   -0.021599
   4 H :    0.262723
   5 H :   -0.105721
   6 C :    0.470152
   7 C :    0.147923
   8 N :    0.281545
   9 C :    0.600736
  10 H :   -0.040667
  11 H :   -0.497749
  12 H :   -0.066201
  13 H :    0.016423
  14 H :   -0.295763
  15 O :   -0.387617
  16 F :   -0.398797
  17 C :    0.189347
  18 H :   -0.245779
  19 H :    0.033601
  20 C :   -0.147174
  21 H :    0.089796
  22 H :   -0.010847
  23 C :   -0.140151
  24 H :   -0.024986
  25 H :   -0.129952
  26 H :   -0.123323
  27 H :   -0.043398
  28 H :    0.003289
  29 H :    0.116431
Sum of atomic charges:    0.0000000

LOEWDIN ATOMIC CHARGES
----------------------
   0 C :    0.026837
   1 N :   -0.006288
   2 C :   -0.043674
   3 C :    0.039288
   4 H :    0.049621
   5 H :    0.052175
   6 C :    0.011625
   7 C :   -0.239725
   8 N :    0.215593
   9 C :    0.131132
  10 H :   -0.077854
  11 H :   -0.155141
  12 H :    0.035419
  13 H :   -0.001145
  14 H :   -0.054478
  15 O :   -0.109993
  16 F :   -0.020181
  17 C :   -0.041166
  18 H :    0.029241
  19 H :    0.010566
  20 C :   -0.041523
  21 H :    0.032434
  22 H :    0.034472
  23 C :   -0.051189
  24 H :    0.020326
  25 H :    0.038660
  26 H :   -0.000432
  27 H :    0.039962
  28 H :    0.039797
  29 H :    0.035640

  Mayer bond orders larger than 0.100000
B(  0-C ,  1-N ) :   0.9584 B(  0-C , 12-H ) :  -0.1017 B(  0-C , 17-C ) :   1.1180
B(  0-C , 18-H ) :   0.8942 B(  0-C , 19-H ) :   0.8005 B(  0-C , 21-H ) :   0.1155
B(  0-C , 22-H ) :   0.1225 B(  1-N ,  7-C ) :   1.0252 B(  1-N ,  9-C ) :   0.2074
B(  1-N , 12-H ) :   1.1261 B(  1-N , 18-H ) :   0.1950 B(  1-N , 19-H ) :   0.1154
B(  2-C ,  3-C ) :   1.1890 B(  2-C ,  5-H ) :   0.1403 B(  2-C , 23-C ) :   1.2594
B(  2-C , 28-H ) :   0.8532 B(  2-C , 29-H ) :   0.6990 B(  3-C ,  4-H ) :   0.8370
B(  3-C ,  5-H ) :   0.8541 B(  3-C ,  6-C ) :   1.1942 B(  3-C , 28-H ) :   0.1130
B(  4-H ,  6-C ) :   0.1699 B(  5-H ,  6-C ) :   0.1602 B(  6-C , 15-O ) :   1.8354
B(  6-C , 16-F ) :   0.6721 B(  7-C ,  8-N ) :   1.0030 B(  7-C ,  9-C ) :   2.1224
B(  7-C , 10-H ) :   0.2862 B(  7-C , 11-H ) :   0.2998 B(  7-C , 12-H ) :  -0.1252
B(  8-N ,  9-C ) :   0.1999 B(  8-N , 13-H ) :   0.9361 B(  8-N , 14-H ) :   1.0763
B(  9-C , 10-H ) :   0.5130 B(  9-C , 11-H ) :   0.3842 B( 10-H , 11-H ) :   0.3144
B( 11-H , 15-O ) :   0.1770 B( 13-H , 14-H ) :  -0.2085 B( 17-C , 19-H ) :   0.1208
B( 17-C , 20-C ) :   1.2474 B( 17-C , 21-H ) :   0.8450 B( 17-C , 22-H ) :   0.7764
B( 18-H , 19-H ) :  -0.1171 B( 20-C , 21-H ) :   0.1301 B( 20-C , 22-H ) :   0.2169
B( 20-C , 23-C ) :   1.3070 B( 20-C , 24-H ) :   0.9576 B( 20-C , 25-H ) :   0.9001
B( 20-C , 26-H ) :   0.1455 B( 20-C , 27-H ) :   0.1861 B( 23-C , 24-H ) :   0.1231
B( 23-C , 25-H ) :   0.1701 B( 23-C , 26-H ) :   0.9591 B( 23-C , 27-H ) :   0.8253
B( 23-C , 28-H ) :   0.1421 B( 23-C , 29-H ) :   0.2166

FINAL SINGLE POINT ENERGY      -635.318161502451

DIPOLE MOMENT
-------------
                                X             Y             Z
Electronic contribution:     -5.75521      -0.64059     -11.61761
Nuclear contribution   :      4.34606       1.32859      13.65749
                        -----------------------------------------
Total Dipole Moment    :     -1.40914       0.68800       2.03988
                        -----------------------------------------
Magnitude (a.u.)       :      2.57296
Magnitude (Debye)      :      6.53994

Rotational constants in cm-1:     0.033551     0.023540     0.017085
Rotational constants in MHz :  1005.818710   705.725032   512.192443

                             ****ORCA TERMINATED NORMALLY****
TOTAL RUN TIME: 0 days 0 hours 3 minutes 0 seconds 529 msec
