                         Program Version 5.0.0 -  RELEASE  -
|  1> !TPSS D3BJ RIJCOSX def2-SVPD def2/J TightSCF
|  2> *xyz -1 1
|  3> C          3.84189       -6.95161       -3.63283
|  4> S          4.31812       -6.91593       -5.36869
|  5> O          5.40615       -5.89948       -5.51297
|  6> O          3.11191       -6.44508       -6.04379
|  7> O          4.76340       -8.23942       -5.69863
|  8> H          3.06224       -7.67071       -3.49159
|  9> H          3.49217       -5.98401       -3.33897
| 10> H          4.68822       -7.22131       -3.03626
| 11> *
| 12>
| 13> %MaxCore 64000
| 14>
| 15> %pal nprocs 8
| 16> end
| 17>
| 18> %scf
| 19>   MaxIter 150
| 20> end
| 21>
| 22>
| 23>                          ****END OF INPUT****

CARTESIAN COORDINATES (ANGSTROEM)
---------------------------------
  C      3.841890   -6.951610   -3.632830
  S      4.318120   -6.915930   -5.368690
  O      5.406150   -5.899480   -5.512970
  O      3.111910   -6.445080   -6.043790
  O      4.763400   -8.239420   -5.698630
  H      3.062240   -7.670710   -3.491590
  H      3.492170   -5.984010   -3.338970
  H      4.688220   -7.221310   -3.036260

 Total Charge           Charge          ....   -1
 Multiplicity           Mult            ....    1
 Number of Electrons    NEL             ....   50
 Basis Dimension        Dim             ....  140

ORBITAL ENERGIES
----------------

  NO   OCC          E(Eh)            E(eV)
   0   2.0000     -88.366569     -2404.5766
   1   2.0000     -18.682196      -508.3684
   2   2.0000     -18.672496      -508.1045
   3   2.0000     -18.666406      -507.9387
   4   2.0000      -9.854827      -268.1635
   5   2.0000      -7.726275      -210.2426
   6   2.0000      -5.712290      -155.4393
   7   2.0000      -5.712091      -155.4339
   8   2.0000      -5.711496      -155.4177
   9   2.0000      -0.849677       -23.1209
  10   2.0000      -0.719819       -19.5873
  11   2.0000      -0.690724       -18.7955
  12   2.0000      -0.524233       -14.2651
  13   2.0000      -0.336711        -9.1624
  14   2.0000      -0.251479        -6.8431
  15   2.0000      -0.247934        -6.7466
  16   2.0000      -0.245924        -6.6919
  17   2.0000      -0.201623        -5.4864
  18   2.0000      -0.199237        -5.4215
  19   2.0000      -0.103591        -2.8188
  20   2.0000      -0.102558        -2.7907
  21   2.0000      -0.073843        -2.0094
  22   2.0000      -0.066187        -1.8010
  23   2.0000      -0.054865        -1.4930
  24   2.0000      -0.018267        -0.4971
  25   0.0000       0.141784         3.8582
  26   0.0000       0.175968         4.7883
  27   0.0000       0.176203         4.7947
  28   0.0000       0.179576         4.8865
  29   0.0000       0.203195         5.5292

MULLIKEN ATOMIC CHARGES
-----------------------
   0 C :    0.426856
   1 S :    1.009031
   2 O :   -0.784833
   3 O :   -0.757749
   4 O :   -0.727018
   5 H :   -0.046946
   6 H :   -0.051452
   7 H :   -0.067890
Sum of atomic charges:   -1.0000000

LOEWDIN ATOMIC CHARGES
----------------------
   0 C :    0.060310
   1 S :    0.820806
   2 O :   -0.595154
   3 O :   -0.584825
   4 O :   -0.568111
   5 H :   -0.044252
   6 H :   -0.042965
   7 H :   -0.045809

  Mayer bond orders larger than 0.100000
B(  0-C ,  1-S ) :   0.9149 B(  0-C ,  5-H ) :   0.9272 B(  0-C ,  6-H ) :   0.9344
B(  0-C ,  7-H ) :   0.9378 B(  1-S ,  2-O ) :   1.3176 B(  1-S ,  3-O ) :   1.3509
B(  1-S ,  4-O ) :   1.3676 B(  1-S ,  5-H ) :   0.1055 B(  1-S ,  6-H ) :   0.1165
B(  1-S ,  7-H ) :   0.1124

Dispersion correction           -0.007870928
FINAL SINGLE POINT ENERGY      -663.551878345353

DIPOLE MOMENT
-------------
                                X             Y             Z
Electronic contribution:      1.10665      -0.05408      -4.19228
Nuclear contribution   :     -1.53523      -0.17928       5.57610
                        -----------------------------------------
Total Dipole Moment    :     -0.42858      -0.23336       1.38382
                        -----------------------------------------
Magnitude (a.u.)       :      1.46735
Magnitude (Debye)      :      3.72970

Rotational constants in cm-1:     0.172657     0.156250     0.152500
Rotational constants in MHz :  5176.120042  4684.252187  4571.835124

                             ****ORCA TERMINATED NORMALLY****
TOTAL RUN TIME: 0 days 0 hours 0 minutes 4 seconds 538 msec
