                         Program Version 5.0.0 -  RELEASE  -
|  1> !TPSS D3BJ RIJCOSX def2-SVPD def2/J TightSCF
|  2> *xyz 0 1
|  3> C          3.84189       -6.95161       -3.63283
|  4> S          4.31812       -6.91593       -5.36869
|  5> F          5.40615       -5.89948       -5.51297
|  6> O          3.11191       -6.44508       -6.04379
|  7> O          4.76340       -8.23942       -5.69863
|  8> H          3.06224       -7.67071       -3.49159
|  9> H          3.49217       -5.98401       -3.33897
| 10> H          4.68822       -7.22131       -3.03626
| 11> *
| 12>
| 13> %MaxCore 64000
| 14>
| 15> %pal nprocs 8
| 16> end
| 17>
| 18> %scf
| 19>   MaxIter 150
| 20> end
| 21>
| 22>
| 23>                          ****END OF INPUT****

CARTESIAN COORDINATES (ANGSTROEM)
---------------------------------
  C      3.841890   -6.951610   -3.632830
  S      4.318120   -6.915930   -5.368690
  F      5.406150   -5.899480   -5.512970
  O      3.111910   -6.445080   -6.043790
  O      4.763400   -8.239420   -5.698630
  H      3.062240   -7.670710   -3.491590
  H      3.492170   -5.984010   -3.338970
  H      4.688220   -7.221310   -3.036260

 Total Charge           Charge          ....    0
 Multiplicity           Mult            ....    1
 Number of Electrons    NEL             ....   50
 Basis Dimension        Dim             ....  140

ORBITAL ENERGIES
----------------

  NO   OCC          E(Eh)            E(eV)
   0   2.0000     -88.626219     -2411.6420
   1   2.0000     -24.523279      -667.3124
   2   2.0000     -18.920370      -514.8494
   3   2.0000     -18.910294      -514.5753
   4   2.0000     -10.063558      -273.8433
   5   2.0000      -7.986952      -217.3360
   6   2.0000      -5.976914      -162.6401
   7   2.0000      -5.970810      -162.4740
   8   2.0000      -5.969432      -162.4365
   9   2.0000      -1.255549       -34.1652
  10   2.0000      -1.045193       -28.4411
  11   2.0000      -0.953187       -25.9375
  12   2.0000      -0.742004       -20.1910
  13   2.0000      -0.644339       -17.5334
  14   2.0000      -0.538121       -14.6430
  15   2.0000      -0.504921       -13.7396
  16   2.0000      -0.500673       -13.6240
  17   2.0000      -0.438652       -11.9363
  18   2.0000      -0.435087       -11.8393
  19   2.0000      -0.425430       -11.5765
  20   2.0000      -0.401093       -10.9143
  21   2.0000      -0.350119        -9.5272
  22   2.0000      -0.306365        -8.3366
  23   2.0000      -0.295460        -8.0399
  24   2.0000      -0.279954        -7.6179
  25   0.0000      -0.030499        -0.8299
  26   0.0000       0.003411         0.0928
  27   0.0000       0.018234         0.4962
  28   0.0000       0.035533         0.9669
  29   0.0000       0.036612         0.9963

MULLIKEN ATOMIC CHARGES
-----------------------
   0 C :    0.417096
   1 S :    1.198451
   2 F :   -0.380361
   3 O :   -0.634267
   4 O :   -0.607427
   5 H :    0.007364
   6 H :    0.007369
   7 H :   -0.008225
Sum of atomic charges:   -0.0000000

LOEWDIN ATOMIC CHARGES
----------------------
   0 C :    0.131361
   1 S :    1.090855
   2 F :   -0.271475
   3 O :   -0.464274
   4 O :   -0.448429
   5 H :   -0.003122
   6 H :   -0.016101
   7 H :   -0.018814

  Mayer bond orders larger than 0.100000
B(  0-C ,  1-S ) :   0.9726 B(  0-C ,  5-H ) :   0.9148 B(  0-C ,  6-H ) :   0.9226
B(  0-C ,  7-H ) :   0.9254 B(  1-S ,  2-F ) :   0.6540 B(  1-S ,  3-O ) :   1.5441
B(  1-S ,  4-O ) :   1.5593 B(  1-S ,  5-H ) :   0.1023 B(  3-O ,  4-O ) :   0.1003

Dispersion correction           -0.007383769
FINAL SINGLE POINT ENERGY      -688.059074147876

DIPOLE MOMENT
-------------
                                X             Y             Z
Electronic contribution:      2.88073       1.58427      -4.35837
Nuclear contribution   :     -2.64549      -1.17311       5.81218
                        -----------------------------------------
Total Dipole Moment    :      0.23524       0.41117       1.45381
                        -----------------------------------------
Magnitude (a.u.)       :      1.52904
Magnitude (Debye)      :      3.88652

Rotational constants in cm-1:     0.165958     0.149400     0.146699
Rotational constants in MHz :  4975.281722  4478.884828  4397.931002

                             ****ORCA TERMINATED NORMALLY****
TOTAL RUN TIME: 0 days 0 hours 0 minutes 4 seconds 562 msec
