                         Program Version 5.0.0 -  RELEASE  -
|  1> !TPSS D3BJ RIJCOSX def2-SVPD def2/J TightSCF
|  2> *xyz 0 1
|  3> C          5.55821       -1.99291       -6.21505
|  4> C          4.18188       -2.58967       -6.29891
|  5> C          3.14587       -1.76843       -6.48675
|  6> N          4.01910       -3.86431       -6.22743
|  7> H          4.76849       -4.59115       -5.99077
|  8> H          3.12241       -4.33339       -6.31462
|  9> H          3.28164       -0.77779       -6.56655
| 10> H          2.21255       -2.13419       -6.56225
| 11> H          5.49055       -0.92791       -6.29315
| 12> H          6.16046       -2.37160       -7.01429
| 13> H          6.00378       -2.25423       -5.27799
| 14> *
| 15>
| 16> %MaxCore 64000
| 17>
| 18> %pal nprocs 8
| 19> end
| 20>
| 21> %scf
| 22>   MaxIter 150
| 23> end
| 24>
| 25>
| 26>                          ****END OF INPUT****

CARTESIAN COORDINATES (ANGSTROEM)
---------------------------------
  C      5.558210   -1.992910   -6.215050
  C      4.181880   -2.589670   -6.298910
  C      3.145870   -1.768430   -6.486750
  N      4.019100   -3.864310   -6.227430
  H      4.768490   -4.591150   -5.990770
  H      3.122410   -4.333390   -6.314620
  H      3.281640   -0.777790   -6.566550
  H      2.212550   -2.134190   -6.562250
  H      5.490550   -0.927910   -6.293150
  H      6.160460   -2.371600   -7.014290
  H      6.003780   -2.254230   -5.277990

 Total Charge           Charge          ....    0
 Multiplicity           Mult            ....    1
 Number of Electrons    NEL             ....   32
 Basis Dimension        Dim             ....  136

ORBITAL ENERGIES
----------------

  NO   OCC          E(Eh)            E(eV)
   0   2.0000     -14.127747      -384.4355
   1   2.0000     -10.017415      -272.5877
   2   2.0000      -9.991870      -271.8926
   3   2.0000      -9.930187      -270.2141
   4   2.0000      -0.861370       -23.4391
   5   2.0000      -0.691881       -18.8270
   6   2.0000      -0.624817       -17.0021
   7   2.0000      -0.536378       -14.5956
   8   2.0000      -0.468757       -12.7555
   9   2.0000      -0.428353       -11.6561
  10   2.0000      -0.390602       -10.6288
  11   2.0000      -0.358433        -9.7535
  12   2.0000      -0.350948        -9.5498
  13   2.0000      -0.310859        -8.4589
  14   2.0000      -0.299538        -8.1508
  15   2.0000      -0.155740        -4.2379
  16   0.0000       0.004234         0.1152
  17   0.0000       0.026455         0.7199
  18   0.0000       0.041536         1.1303
  19   0.0000       0.049939         1.3589
  20   0.0000       0.073756         2.0070

MULLIKEN ATOMIC CHARGES
-----------------------
   0 C :    0.752794
   1 C :   -0.383248
   2 C :    0.438912
   3 N :    0.132276
   4 H :   -0.078315
   5 H :   -0.213945
   6 H :   -0.164319
   7 H :   -0.436269
   8 H :    0.024985
   9 H :   -0.039770
  10 H :   -0.033100
Sum of atomic charges:   -0.0000000

LOEWDIN ATOMIC CHARGES
----------------------
   0 C :    0.175259
   1 C :   -0.296867
   2 C :    0.179387
   3 N :    0.135675
   4 H :    0.047948
   5 H :    0.005865
   6 H :   -0.096222
   7 H :   -0.095774
   8 H :   -0.018763
   9 H :   -0.017395
  10 H :   -0.019112

  Mayer bond orders larger than 0.100000
B(  0-C ,  1-C ) :   1.2784 B(  0-C ,  8-H ) :   0.8171 B(  0-C ,  9-H ) :   0.7065
B(  0-C , 10-H ) :   0.6927 B(  1-C ,  2-C ) :   1.5940 B(  1-C ,  3-N ) :   1.1917
B(  1-C ,  7-H ) :   0.1481 B(  1-C ,  8-H ) :   0.1936 B(  1-C ,  9-H ) :   0.2631
B(  1-C , 10-H ) :   0.2660 B(  2-C ,  3-N ) :   0.2638 B(  2-C ,  6-H ) :   1.0028
B(  2-C ,  7-H ) :   0.8040 B(  3-N ,  4-H ) :   1.2135 B(  3-N ,  5-H ) :   1.2405
B(  4-H ,  5-H ) :  -0.1273 B(  8-H ,  9-H ) :   0.1077 B(  8-H , 10-H ) :   0.1127

Dispersion correction           -0.008814383
FINAL SINGLE POINT ENERGY      -173.162255508815

DIPOLE MOMENT
-------------
                                X             Y             Z
Electronic contribution:     -0.91496      -1.47369       0.03573
Nuclear contribution   :      1.24351       0.69391       0.08872
                        -----------------------------------------
Total Dipole Moment    :      0.32855      -0.77978       0.12445
                        -----------------------------------------
Magnitude (a.u.)       :      0.85527
Magnitude (Debye)      :      2.17393

Rotational constants in cm-1:     0.350694     0.303314     0.167659
Rotational constants in MHz : 10513.535482  9093.138449  5026.287342

                             ****ORCA TERMINATED NORMALLY****
TOTAL RUN TIME: 0 days 0 hours 0 minutes 4 seconds 856 msec
