                         Program Version 5.0.0 -  RELEASE  -
|  1> !TPSS D3BJ RIJCOSX def2-SVPD def2/J TightSCF
|  2> *xyz 0 1
|  3> C          3.84189       -6.95161       -3.63283
|  4> S          4.31812       -6.91593       -5.36869
|  5> O          5.40615       -5.89948       -5.51297
|  6> F          3.11191       -6.44508       -6.04379
|  7> O          4.76340       -8.23942       -5.69863
|  8> H          3.06224       -7.67071       -3.49159
|  9> H          3.49217       -5.98401       -3.33897
| 10> H          4.68822       -7.22131       -3.03626
| 11> *
| 12>
| 13> %MaxCore 64000
| 14>
| 15> %pal nprocs 8
| 16> end
| 17>
| 18> %scf
| 19>   MaxIter 150
| 20> end
| 21>
| 22>
| 23>                          ****END OF INPUT****

CARTESIAN COORDINATES (ANGSTROEM)
---------------------------------
  C      3.841890   -6.951610   -3.632830
  S      4.318120   -6.915930   -5.368690
  O      5.406150   -5.899480   -5.512970
  F      3.111910   -6.445080   -6.043790
  O      4.763400   -8.239420   -5.698630
  H      3.062240   -7.670710   -3.491590
  H      3.492170   -5.984010   -3.338970
  H      4.688220   -7.221310   -3.036260

 Total Charge           Charge          ....    0
 Multiplicity           Mult            ....    1
 Number of Electrons    NEL             ....   50
 Basis Dimension        Dim             ....  140

ORBITAL ENERGIES
----------------

  NO   OCC          E(Eh)            E(eV)
   0   2.0000     -88.628209     -2411.6962
   1   2.0000     -24.536620      -667.6754
   2   2.0000     -18.920179      -514.8442
   3   2.0000     -18.903947      -514.4026
   4   2.0000     -10.064389      -273.8659
   5   2.0000      -7.988885      -217.3886
   6   2.0000      -5.979114      -162.7000
   7   2.0000      -5.972616      -162.5231
   8   2.0000      -5.971120      -162.4824
   9   2.0000      -1.281981       -34.8845
  10   2.0000      -1.039380       -28.2830
  11   2.0000      -0.935305       -25.4510
  12   2.0000      -0.746183       -20.3047
  13   2.0000      -0.655615       -17.8402
  14   2.0000      -0.546757       -14.8780
  15   2.0000      -0.522940       -14.2299
  16   2.0000      -0.506183       -13.7740
  17   2.0000      -0.440052       -11.9744
  18   2.0000      -0.436567       -11.8796
  19   2.0000      -0.424205       -11.5432
  20   2.0000      -0.397879       -10.8268
  21   2.0000      -0.347494        -9.4558
  22   2.0000      -0.305331        -8.3085
  23   2.0000      -0.287489        -7.8230
  24   2.0000      -0.267530        -7.2799
  25   0.0000      -0.025463        -0.6929
  26   0.0000       0.010368         0.2821
  27   0.0000       0.016614         0.4521
  28   0.0000       0.034066         0.9270
  29   0.0000       0.035769         0.9733

MULLIKEN ATOMIC CHARGES
-----------------------
   0 C :    0.415338
   1 S :    1.188514
   2 O :   -0.648827
   3 F :   -0.364640
   4 O :   -0.597482
   5 H :    0.014555
   6 H :    0.005078
   7 H :   -0.012537
Sum of atomic charges:   -0.0000000

LOEWDIN ATOMIC CHARGES
----------------------
   0 C :    0.130880
   1 S :    1.090992
   2 O :   -0.472463
   3 F :   -0.263325
   4 O :   -0.448586
   5 H :   -0.016772
   6 H :   -0.016539
   7 H :   -0.004187

  Mayer bond orders larger than 0.100000
B(  0-C ,  1-S ) :   0.9700 B(  0-C ,  5-H ) :   0.9142 B(  0-C ,  6-H ) :   0.9223
B(  0-C ,  7-H ) :   0.9264 B(  1-S ,  2-O ) :   1.5140 B(  1-S ,  3-F ) :   0.7017
B(  1-S ,  4-O ) :   1.5640 B(  1-S ,  7-H ) :   0.1095

Dispersion correction           -0.007377117
FINAL SINGLE POINT ENERGY      -688.048537653211

DIPOLE MOMENT
-------------
                                X             Y             Z
Electronic contribution:     -0.88264       0.68203      -5.23715
Nuclear contribution   :     -0.35339      -0.62802       6.34251
                        -----------------------------------------
Total Dipole Moment    :     -1.23603       0.05401       1.10536
                        -----------------------------------------
Magnitude (a.u.)       :      1.65907
Magnitude (Debye)      :      4.21701

Rotational constants in cm-1:     0.162638     0.154373     0.145390
Rotational constants in MHz :  4875.774584  4627.990015  4358.691210

                             ****ORCA TERMINATED NORMALLY****
TOTAL RUN TIME: 0 days 0 hours 0 minutes 4 seconds 756 msec
