                         Program Version 5.0.0 -  RELEASE  -
|  1> !TPSS D3BJ RIJCOSX def2-SVPD def2/J TightSCF
|  2> *xyz 0 1
|  3> C          5.55821       -1.99291       -6.21505
|  4> C          4.18188       -2.58967       -6.29891
|  5> N          3.14587       -1.76843       -6.48675
|  6> C          4.01910       -3.86431       -6.22743
|  7> H          4.76849       -4.59115       -5.99077
|  8> H          3.12241       -4.33339       -6.31462
|  9> H          3.28164       -0.77779       -6.56655
| 10> H          2.21255       -2.13419       -6.56225
| 11> H          5.49055       -0.92791       -6.29315
| 12> H          6.16046       -2.37160       -7.01429
| 13> H          6.00378       -2.25423       -5.27799
| 14> *
| 15>
| 16> %MaxCore 64000
| 17>
| 18> %pal nprocs 8
| 19> end
| 20>
| 21> %scf
| 22>   MaxIter 150
| 23> end
| 24>
| 25>
| 26>                          ****END OF INPUT****

CARTESIAN COORDINATES (ANGSTROEM)
---------------------------------
  C      5.558210   -1.992910   -6.215050
  C      4.181880   -2.589670   -6.298910
  N      3.145870   -1.768430   -6.486750
  C      4.019100   -3.864310   -6.227430
  H      4.768490   -4.591150   -5.990770
  H      3.122410   -4.333390   -6.314620
  H      3.281640   -0.777790   -6.566550
  H      2.212550   -2.134190   -6.562250
  H      5.490550   -0.927910   -6.293150
  H      6.160460   -2.371600   -7.014290
  H      6.003780   -2.254230   -5.277990

 Total Charge           Charge          ....    0
 Multiplicity           Mult            ....    1
 Number of Electrons    NEL             ....   32
 Basis Dimension        Dim             ....  136

ORBITAL ENERGIES
----------------

  NO   OCC          E(Eh)            E(eV)
   0   2.0000     -14.117777      -384.1643
   1   2.0000     -10.014842      -272.5177
   2   2.0000      -9.992921      -271.9212
   3   2.0000      -9.935075      -270.3471
   4   2.0000      -0.852582       -23.1999
   5   2.0000      -0.694991       -18.9117
   6   2.0000      -0.630557       -17.1583
   7   2.0000      -0.519302       -14.1309
   8   2.0000      -0.481604       -13.1051
   9   2.0000      -0.433094       -11.7851
  10   2.0000      -0.388987       -10.5849
  11   2.0000      -0.357441        -9.7265
  12   2.0000      -0.352739        -9.5985
  13   2.0000      -0.307644        -8.3714
  14   2.0000      -0.294160        -8.0045
  15   2.0000      -0.160679        -4.3723
  16   0.0000       0.009395         0.2556
  17   0.0000       0.025251         0.6871
  18   0.0000       0.045719         1.2441
  19   0.0000       0.051857         1.4111
  20   0.0000       0.075825         2.0633

MULLIKEN ATOMIC CHARGES
-----------------------
   0 C :    0.736185
   1 C :   -0.024299
   2 N :    0.108624
   3 C :   -0.053019
   4 H :   -0.027776
   5 H :   -0.345203
   6 H :   -0.142692
   7 H :   -0.168268
   8 H :   -0.117008
   9 H :   -0.000494
  10 H :    0.033950
Sum of atomic charges:    0.0000000

LOEWDIN ATOMIC CHARGES
----------------------
   0 C :    0.177643
   1 C :   -0.285377
   2 N :    0.173086
   3 C :    0.140010
   4 H :   -0.042420
   5 H :   -0.091300
   6 H :   -0.015842
   7 H :   -0.000842
   8 H :   -0.032613
   9 H :   -0.010863
  10 H :   -0.011481

  Mayer bond orders larger than 0.100000
B(  0-C ,  1-C ) :   1.0883 B(  0-C ,  2-N ) :   0.1167 B(  0-C ,  8-H ) :   0.7454
B(  0-C ,  9-H ) :   0.7900 B(  0-C , 10-H ) :   0.7455 B(  1-C ,  2-N ) :   0.9809
B(  1-C ,  3-C ) :   1.4670 B(  1-C ,  7-H ) :  -0.1482 B(  1-C ,  8-H ) :   0.2524
B(  1-C ,  9-H ) :   0.1592 B(  1-C , 10-H ) :   0.1804 B(  2-N ,  3-C ) :   0.3043
B(  2-N ,  6-H ) :   1.1499 B(  2-N ,  7-H ) :   1.3026 B(  3-C ,  4-H ) :   0.9389
B(  3-C ,  5-H ) :   0.9029 B(  4-H ,  5-H ) :   0.1088 B(  6-H ,  7-H ) :  -0.1603

Dispersion correction           -0.008816596
FINAL SINGLE POINT ENERGY      -173.170112015013

DIPOLE MOMENT
-------------
                                X             Y             Z
Electronic contribution:     -1.65111       0.42435      -0.21305
Nuclear contribution   :      1.43935       0.22387       0.14687
                        -----------------------------------------
Total Dipole Moment    :     -0.21176       0.64822      -0.06618
                        -----------------------------------------
Magnitude (a.u.)       :      0.68513
Magnitude (Debye)      :      1.74147

Rotational constants in cm-1:     0.350137     0.303099     0.167465
Rotational constants in MHz : 10496.847516  9086.685989  5020.487860

                             ****ORCA TERMINATED NORMALLY****
TOTAL RUN TIME: 0 days 0 hours 0 minutes 4 seconds 596 msec
