                         Program Version 5.0.0 -  RELEASE  -
|  1> !TPSS D3BJ RIJCOSX def2-SVPD def2/J TightSCF
|  2> *xyz 0 1
|  3> C          3.84189       -6.95161       -3.63283
|  4> S          4.31812       -6.91593       -5.36869
|  5> O          5.40615       -5.89948       -5.51297
|  6> O          3.11191       -6.44508       -6.04379
|  7> F          4.76340       -8.23942       -5.69863
|  8> H          3.06224       -7.67071       -3.49159
|  9> H          3.49217       -5.98401       -3.33897
| 10> H          4.68822       -7.22131       -3.03626
| 11> *
| 12>
| 13> %MaxCore 64000
| 14>
| 15> %pal nprocs 8
| 16> end
| 17>
| 18> %scf
| 19>   MaxIter 150
| 20> end
| 21>
| 22>
| 23>                          ****END OF INPUT****

CARTESIAN COORDINATES (ANGSTROEM)
---------------------------------
  C      3.841890   -6.951610   -3.632830
  S      4.318120   -6.915930   -5.368690
  O      5.406150   -5.899480   -5.512970
  O      3.111910   -6.445080   -6.043790
  F      4.763400   -8.239420   -5.698630
  H      3.062240   -7.670710   -3.491590
  H      3.492170   -5.984010   -3.338970
  H      4.688220   -7.221310   -3.036260

 Total Charge           Charge          ....    0
 Multiplicity           Mult            ....    1
 Number of Electrons    NEL             ....   50
 Basis Dimension        Dim             ....  140

ORBITAL ENERGIES
----------------

  NO   OCC          E(Eh)            E(eV)
   0   2.0000     -88.629582     -2411.7335
   1   2.0000     -24.550367      -668.0494
   2   2.0000     -18.910612      -514.5839
   3   2.0000     -18.904484      -514.4172
   4   2.0000     -10.064851      -273.8785
   5   2.0000      -7.990239      -217.4255
   6   2.0000      -5.980672      -162.7423
   7   2.0000      -5.973739      -162.5537
   8   2.0000      -5.972378      -162.5167
   9   2.0000      -1.304334       -35.4927
  10   2.0000      -1.028035       -27.9742
  11   2.0000      -0.927645       -25.2425
  12   2.0000      -0.746203       -20.3052
  13   2.0000      -0.666798       -18.1445
  14   2.0000      -0.556589       -15.1456
  15   2.0000      -0.538086       -14.6421
  16   2.0000      -0.509323       -13.8594
  17   2.0000      -0.440298       -11.9811
  18   2.0000      -0.434882       -11.8337
  19   2.0000      -0.425404       -11.5758
  20   2.0000      -0.393777       -10.7152
  21   2.0000      -0.340554        -9.2670
  22   2.0000      -0.295184        -8.0324
  23   2.0000      -0.285893        -7.7796
  24   2.0000      -0.261066        -7.1040
  25   0.0000      -0.028095        -0.7645
  26   0.0000       0.009097         0.2475
  27   0.0000       0.015167         0.4127
  28   0.0000       0.029254         0.7960
  29   0.0000       0.035102         0.9552

MULLIKEN ATOMIC CHARGES
-----------------------
   0 C :    0.417938
   1 S :    1.182809
   2 O :   -0.641890
   3 O :   -0.617778
   4 F :   -0.350161
   5 H :    0.014949
   6 H :    0.000975
   7 H :   -0.006841
Sum of atomic charges:   -0.0000000

LOEWDIN ATOMIC CHARGES
----------------------
   0 C :    0.130486
   1 S :    1.092636
   2 O :   -0.471815
   3 O :   -0.463918
   4 F :   -0.249564
   5 H :   -0.016938
   6 H :   -0.002373
   7 H :   -0.018513

  Mayer bond orders larger than 0.100000
B(  0-C ,  1-S ) :   0.9723 B(  0-C ,  5-H ) :   0.9127 B(  0-C ,  6-H ) :   0.9237
B(  0-C ,  7-H ) :   0.9248 B(  1-S ,  2-O ) :   1.5142 B(  1-S ,  3-O ) :   1.5495
B(  1-S ,  4-F ) :   0.7256 B(  1-S ,  6-H ) :   0.1118

Dispersion correction           -0.007379909
FINAL SINGLE POINT ENERGY      -688.036203858663

DIPOLE MOMENT
-------------
                                X             Y             Z
Electronic contribution:      1.81521      -2.23675      -4.66904
Nuclear contribution   :     -2.00334       1.16464       5.99767
                        -----------------------------------------
Total Dipole Moment    :     -0.18812      -1.07210       1.32863
                        -----------------------------------------
Magnitude (a.u.)       :      1.71757
Magnitude (Debye)      :      4.36571

Rotational constants in cm-1:     0.163678     0.154408     0.144413
Rotational constants in MHz :  4906.945035  4629.020676  4329.393152

                             ****ORCA TERMINATED NORMALLY****
TOTAL RUN TIME: 0 days 0 hours 0 minutes 4 seconds 452 msec
