                         Program Version 5.0.0 -  RELEASE  -
|  1> !TPSS D3BJ RIJCOSX def2-SVPD def2/J TightSCF xyzfile
|  2>
|  3> *xyzfile 0 1 D1.xyz
|  4>
|  5> %MaxCore 64000
|  6>
|  7> %pal nprocs 4
|  8> end
|  9>
| 10> %scf
| 11>   MaxIter 150
| 12> end
| 13>
| 14>
| 15>                          ****END OF INPUT****

CARTESIAN COORDINATES (ANGSTROEM)
---------------------------------
  C      5.558206   -1.992914   -6.215054
  C      4.930199   -7.375319   -2.649623
  C      3.841892   -6.951611   -3.632829
  H      3.458144   -5.954425   -3.407121
  H      2.988484   -7.643606   -3.567078
  S      4.318115   -6.915930   -5.368692
  C      4.181880   -2.589671   -6.298911
  C      3.145873   -1.768431   -6.486753
  N      4.019102   -3.864307   -6.227427
  H      4.768490   -4.591153   -5.990773
  H      3.122405   -4.333392   -6.314620
  H      3.281635   -0.777786   -6.566549
  H      2.212549   -2.134193   -6.562246
  F      5.406154   -5.899480   -5.512972
  O      3.111910   -6.445079   -6.043792
  C      6.419260   -2.542944   -5.077630
  C      5.872267   -5.002756   -2.427819
  C      6.173994   -6.485522   -2.606315
  H      6.734852   -6.613767   -3.534015
  H      6.821463   -6.831018   -1.793617
  H      4.469612   -7.406168   -1.655876
  H      5.230134   -8.398678   -2.885906
  C      5.896512   -2.169314   -3.694552
  H      7.428880   -2.143665   -5.208078
  H      6.505894   -3.627541   -5.175502
  C      6.807804   -2.623428   -2.551019
  H      4.894708   -2.589732   -3.557501
  H      5.778823   -1.081255   -3.635790
  C      7.111544   -4.122463   -2.520363
  H      7.751615   -2.071393   -2.614406
  H      6.345837   -2.326401   -1.604086
  H      5.362882   -4.828697   -1.471335
  H      5.174429   -4.702577   -3.211298
  H      7.778329   -4.329347   -1.677651
  H      7.673189   -4.402845   -3.417586
  O      4.763396   -8.239424   -5.698629
  H      6.036826   -2.198189   -7.176852
  H      5.467610   -0.907371   -6.127968

 Total Charge           Charge          ....    0
 Multiplicity           Mult            ....    1
 Number of Electrons    NEL             ....  136
 Basis Dimension        Dim             ....  512

ORBITAL ENERGIES
----------------

  NO   OCC          E(Eh)            E(eV)
   0   2.0000     -88.638478     -2411.9756
   1   2.0000     -24.549387      -668.0228
   2   2.0000     -18.933356      -515.2028
   3   2.0000     -18.926382      -515.0130
   4   2.0000     -14.102138      -383.7387
   5   2.0000     -10.073480      -274.1133
   6   2.0000     -10.037988      -273.1475
   7   2.0000     -10.021599      -272.7016
   8   2.0000     -10.012761      -272.4611
   9   2.0000     -10.005613      -272.2666
  10   2.0000     -10.003146      -272.1994
  11   2.0000     -10.000074      -272.1159
  12   2.0000      -9.998784      -272.0807
  13   2.0000      -9.994981      -271.9773
  14   2.0000      -9.992798      -271.9178
  15   2.0000      -9.919375      -269.9199
  16   2.0000      -7.998510      -217.6505
  17   2.0000      -5.988995      -162.9688
  18   2.0000      -5.982420      -162.7899
  19   2.0000      -5.980362      -162.7339
  20   2.0000      -1.284823       -34.9618
  21   2.0000      -1.059976       -28.8434
  22   2.0000      -0.968304       -26.3489
  23   2.0000      -0.847150       -23.0521
  24   2.0000      -0.788637       -21.4599
  25   2.0000      -0.755630       -20.5617
  26   2.0000      -0.729378       -19.8474
  27   2.0000      -0.699279       -19.0283
  28   2.0000      -0.681846       -18.5540
  29   2.0000      -0.653646       -17.7866
  30   2.0000      -0.639950       -17.4139
  31   2.0000      -0.604216       -16.4416
  32   2.0000      -0.572348       -15.5744
  33   2.0000      -0.559349       -15.2207
  34   2.0000      -0.555900       -15.1268
  35   2.0000      -0.532182       -14.4814
  36   2.0000      -0.522362       -14.2142
  37   2.0000      -0.511655       -13.9228
  38   2.0000      -0.508131       -13.8269
  39   2.0000      -0.466831       -12.7031
  40   2.0000      -0.459794       -12.5116
  41   2.0000      -0.447448       -12.1757
  42   2.0000      -0.443467       -12.0674
  43   2.0000      -0.432981       -11.7820
  44   2.0000      -0.423053       -11.5118
  45   2.0000      -0.419284       -11.4093
  46   2.0000      -0.409875       -11.1533
  47   2.0000      -0.395263       -10.7556
  48   2.0000      -0.392025       -10.6675
  49   2.0000      -0.382667       -10.4129
  50   2.0000      -0.372273       -10.1301
  51   2.0000      -0.368666       -10.0319
  52   2.0000      -0.355958        -9.6861
  53   2.0000      -0.342323        -9.3151
  54   2.0000      -0.335759        -9.1365
  55   2.0000      -0.333142        -9.0652
  56   2.0000      -0.330860        -9.0032
  57   2.0000      -0.320510        -8.7215
  58   2.0000      -0.314972        -8.5708
  59   2.0000      -0.309261        -8.4154
  60   2.0000      -0.302687        -8.2365
  61   2.0000      -0.300476        -8.1764
  62   2.0000      -0.297783        -8.1031
  63   2.0000      -0.291986        -7.9453
  64   2.0000      -0.285886        -7.7794
  65   2.0000      -0.277258        -7.5446
  66   2.0000      -0.273196        -7.4340
  67   2.0000      -0.144226        -3.9246
  68   0.0000      -0.040492        -1.1018
  69   0.0000      -0.002922        -0.0795
  70   0.0000       0.000643         0.0175
  71   0.0000       0.006437         0.1752
  72   0.0000       0.013081         0.3559

MULLIKEN ATOMIC CHARGES
-----------------------
   0 C :    0.697335
   1 C :    0.453122
   2 C :   -0.070108
   3 H :    0.298802
   4 H :   -0.192042
   5 S :    1.446673
   6 C :   -0.313428
   7 C :    0.338075
   8 N :    0.858906
   9 H :   -0.275856
  10 H :   -0.282958
  11 H :   -0.249308
  12 H :   -0.311073
  13 F :   -0.626382
  14 O :   -0.714114
  15 C :    0.272696
  16 C :   -0.015212
  17 C :    0.105590
  18 H :    0.071807
  19 H :   -0.282159
  20 H :    0.106442
  21 H :    0.022015
  22 C :   -0.131625
  23 H :   -0.124958
  24 H :   -0.541465
  25 C :    0.539909
  26 H :    0.160475
  27 H :   -0.286872
  28 C :    0.046993
  29 H :    0.056905
  30 H :   -0.028476
  31 H :    0.032766
  32 H :   -0.323957
  33 H :   -0.296024
  34 H :    0.124338
  35 O :   -0.729108
  36 H :   -0.126100
  37 H :    0.288376
Sum of atomic charges:   -0.0000000

LOEWDIN ATOMIC CHARGES
----------------------
   0 C :    0.024376
   1 C :   -0.021177
   2 C :   -0.031484
   3 H :    0.014747
   4 H :    0.040146
   5 S :    1.125288
   6 C :   -0.253914
   7 C :    0.184058
   8 N :    0.189182
   9 H :   -0.067399
  10 H :   -0.019831
  11 H :   -0.099163
  12 H :   -0.093977
  13 F :   -0.269040
  14 O :   -0.437894
  15 C :   -0.022090
  16 C :   -0.026532
  17 C :   -0.021623
  18 H :    0.011681
  19 H :    0.029228
  20 H :    0.033442
  21 H :    0.026797
  22 C :   -0.021562
  23 H :    0.024197
  24 H :   -0.016751
  25 C :   -0.022940
  26 H :    0.011417
  27 H :    0.023874
  28 C :   -0.025443
  29 H :    0.018835
  30 H :    0.018046
  31 H :    0.037059
  32 H :   -0.020537
  33 H :    0.021114
  34 H :    0.013185
  35 O :   -0.421679
  36 H :    0.024245
  37 H :    0.022116

  Mayer bond orders larger than 0.100000
B(  0-C ,  6-C ) :   0.9601 B(  0-C ,  8-N ) :   0.1774 B(  0-C , 15-C ) :   1.1582
B(  0-C , 23-H ) :   0.1020 B(  0-C , 24-H ) :   0.1615 B(  0-C , 36-H ) :   0.5454
B(  0-C , 37-H ) :   0.6666 B(  1-C ,  2-C ) :   1.2548 B(  1-C ,  4-H ) :   0.1645
B(  1-C , 17-C ) :   1.2393 B(  1-C , 20-H ) :   0.7014 B(  1-C , 21-H ) :   0.6922
B(  2-C ,  3-H ) :   0.7954 B(  2-C ,  4-H ) :   0.8515 B(  2-C ,  5-S ) :   0.9940
B(  2-C , 20-H ) :   0.1640 B(  2-C , 21-H ) :   0.1228 B(  2-C , 35-O ) :   0.1196
B(  4-H ,  5-S ) :   0.1174 B(  5-S , 13-F ) :   0.5515 B(  5-S , 14-O ) :   1.5083
B(  5-S , 35-O ) :   1.4672 B(  6-C ,  7-C ) :   1.5753 B(  6-C ,  8-N ) :   1.3570
B(  6-C , 10-H ) :  -0.2322 B(  6-C , 11-H ) :   0.1358 B(  6-C , 12-H ) :   0.3286
B(  6-C , 15-C ) :   0.1074 B(  6-C , 24-H ) :  -0.1118 B(  6-C , 36-H ) :   0.2753
B(  7-C ,  8-N ) :   0.2144 B(  7-C , 11-H ) :   0.9153 B(  7-C , 12-H ) :   0.6436
B(  8-N ,  9-H ) :   0.6514 B(  8-N , 10-H ) :   1.0172 B(  8-N , 13-F ) :  -0.1372
B(  9-H , 10-H ) :  -0.1779 B(  9-H , 13-F ) :   0.1340 B( 10-H , 14-O ) :   0.1459
B( 13-F , 14-O ) :   0.1055 B( 13-F , 24-H ) :   0.1436 B( 13-F , 35-O ) :   0.1202
B( 15-C , 22-C ) :   1.2063 B( 15-C , 23-H ) :   0.8018 B( 15-C , 24-H ) :   0.6987
B( 15-C , 26-H ) :   0.1168 B( 15-C , 27-H ) :   0.1749 B( 15-C , 36-H ) :   0.2372
B( 15-C , 37-H ) :   0.1372 B( 16-C , 17-C ) :   1.2152 B( 16-C , 18-H ) :   0.1147
B( 16-C , 19-H ) :   0.1760 B( 16-C , 28-C ) :   1.2250 B( 16-C , 31-H ) :   0.7847
B( 16-C , 32-H ) :   1.0287 B( 16-C , 33-H ) :   0.1896 B( 16-C , 34-H ) :   0.1177
B( 17-C , 18-H ) :   0.8648 B( 17-C , 19-H ) :   0.9083 B( 17-C , 20-H ) :   0.1075
B( 17-C , 21-H ) :   0.2295 B( 17-C , 28-C ) :   0.1222 B( 17-C , 31-H ) :   0.1007
B( 22-C , 23-H ) :   0.1382 B( 22-C , 24-H ) :   0.1983 B( 22-C , 25-C ) :   1.0916
B( 22-C , 26-H ) :   0.8275 B( 22-C , 27-H ) :   1.0501 B( 22-C , 28-C ) :   0.1162
B( 22-C , 29-H ) :   0.1359 B( 22-C , 30-H ) :   0.2124 B( 25-C , 28-C ) :   1.1415
B( 25-C , 29-H ) :   0.7060 B( 25-C , 30-H ) :   0.7308 B( 26-H , 32-H ) :   0.1339
B( 28-C , 29-H ) :   0.1975 B( 28-C , 30-H ) :   0.1315 B( 28-C , 31-H ) :   0.1012
B( 28-C , 33-H ) :   0.9966 B( 28-C , 34-H ) :   0.8221

Dispersion correction           -0.057312747
FINAL SINGLE POINT ENERGY     -1135.103337961115

DIPOLE MOMENT
-------------
                                X             Y             Z
Electronic contribution:     -7.04937     -18.79650     -13.24092
Nuclear contribution   :      7.78491      18.17172      15.09294
                        -----------------------------------------
Total Dipole Moment    :      0.73554      -0.62478       1.85202
                        -----------------------------------------
Magnitude (a.u.)       :      2.08838
Magnitude (Debye)      :      5.30825

Rotational constants in cm-1:     0.018190     0.012573     0.008405
Rotational constants in MHz :   545.327178   376.916509   251.974803

                             ****ORCA TERMINATED NORMALLY****
TOTAL RUN TIME: 0 days 0 hours 1 minutes 38 seconds 232 msec
