                         Program Version 5.0.0 -  RELEASE  -
|  1> !TPSS D3BJ RIJCOSX def2-SVPD def2/J TightSCF xyzfile
|  2>
|  3> *xyzfile 0 1 D5.xyz
|  4>
|  5> %MaxCore 64000
|  6>
|  7> %pal nprocs 4
|  8> end
|  9>
| 10> %scf
| 11>   MaxIter 150
| 12> end
| 13>
| 14>
| 15>                          ****END OF INPUT****

CARTESIAN COORDINATES (ANGSTROEM)
---------------------------------
  C      5.558206   -1.992914   -6.215054
  C      4.930199   -7.375319   -2.649623
  C      3.841892   -6.951611   -3.632829
  H      3.458144   -5.954425   -3.407121
  H      2.988484   -7.643606   -3.567078
  S      4.318115   -6.915930   -5.368692
  C      4.181880   -2.589671   -6.298911
  C      3.145873   -1.768431   -6.486753
  N      4.019102   -3.864307   -6.227427
  H      4.768490   -4.591153   -5.990773
  H      3.122405   -4.333392   -6.314620
  H      3.281635   -0.777786   -6.566549
  H      2.212549   -2.134193   -6.562246
  O      5.406154   -5.899480   -5.512972
  O      3.111910   -6.445079   -6.043792
  C      6.419260   -2.542944   -5.077630
  C      5.872267   -5.002756   -2.427819
  C      6.173994   -6.485522   -2.606315
  H      6.734852   -6.613767   -3.534015
  H      6.821463   -6.831018   -1.793617
  H      4.469612   -7.406168   -1.655876
  H      5.230134   -8.398678   -2.885906
  C      5.896512   -2.169314   -3.694552
  H      7.428880   -2.143665   -5.208078
  H      6.505894   -3.627541   -5.175502
  C      6.807804   -2.623428   -2.551019
  H      4.894708   -2.589732   -3.557501
  H      5.778823   -1.081255   -3.635790
  C      7.111544   -4.122463   -2.520363
  H      7.751615   -2.071393   -2.614406
  H      6.345837   -2.326401   -1.604086
  H      5.362882   -4.828697   -1.471335
  H      5.174429   -4.702577   -3.211298
  H      7.778329   -4.329347   -1.677651
  H      7.673189   -4.402845   -3.417586
  F      4.763396   -8.239424   -5.698629
  H      6.036826   -2.198189   -7.176852
  H      5.467610   -0.907371   -6.127968

 Total Charge           Charge          ....    0
 Multiplicity           Mult            ....    1
 Number of Electrons    NEL             ....  136
 Basis Dimension        Dim             ....  512

ORBITAL ENERGIES
----------------

  NO   OCC          E(Eh)            E(eV)
   0   2.0000     -88.651756     -2412.3369
   1   2.0000     -24.569001      -668.5565
   2   2.0000     -18.933606      -515.2096
   3   2.0000     -18.933496      -515.2066
   4   2.0000     -14.074375      -382.9832
   5   2.0000     -10.079900      -274.2880
   6   2.0000     -10.042333      -273.2658
   7   2.0000     -10.014048      -272.4961
   8   2.0000     -10.002168      -272.1728
   9   2.0000      -9.995114      -271.9809
  10   2.0000      -9.989658      -271.8324
  11   2.0000      -9.985686      -271.7243
  12   2.0000      -9.982168      -271.6286
  13   2.0000      -9.981643      -271.6143
  14   2.0000      -9.977346      -271.4974
  15   2.0000      -9.902551      -269.4621
  16   2.0000      -8.011302      -217.9986
  17   2.0000      -6.001750      -163.3159
  18   2.0000      -5.995440      -163.1442
  19   2.0000      -5.992950      -163.0765
  20   2.0000      -1.321678       -35.9647
  21   2.0000      -1.056017       -28.7357
  22   2.0000      -0.958828       -26.0910
  23   2.0000      -0.824522       -22.4364
  24   2.0000      -0.791065       -21.5260
  25   2.0000      -0.747585       -20.3428
  26   2.0000      -0.723187       -19.6789
  27   2.0000      -0.696186       -18.9442
  28   2.0000      -0.678813       -18.4714
  29   2.0000      -0.649256       -17.6672
  30   2.0000      -0.626967       -17.0606
  31   2.0000      -0.596582       -16.2338
  32   2.0000      -0.573225       -15.5982
  33   2.0000      -0.559659       -15.2291
  34   2.0000      -0.551630       -15.0106
  35   2.0000      -0.540042       -14.6953
  36   2.0000      -0.522739       -14.2245
  37   2.0000      -0.506024       -13.7696
  38   2.0000      -0.496539       -13.5115
  39   2.0000      -0.467784       -12.7291
  40   2.0000      -0.462823       -12.5941
  41   2.0000      -0.459508       -12.5038
  42   2.0000      -0.439011       -11.9461
  43   2.0000      -0.421384       -11.4664
  44   2.0000      -0.419684       -11.4202
  45   2.0000      -0.409970       -11.1558
  46   2.0000      -0.397752       -10.8234
  47   2.0000      -0.392331       -10.6759
  48   2.0000      -0.380827       -10.3628
  49   2.0000      -0.378705       -10.3051
  50   2.0000      -0.364217        -9.9108
  51   2.0000      -0.359573        -9.7845
  52   2.0000      -0.354262        -9.6400
  53   2.0000      -0.338064        -9.1992
  54   2.0000      -0.327558        -8.9133
  55   2.0000      -0.322631        -8.7792
  56   2.0000      -0.319787        -8.7018
  57   2.0000      -0.311525        -8.4770
  58   2.0000      -0.308261        -8.3882
  59   2.0000      -0.302286        -8.2256
  60   2.0000      -0.294460        -8.0127
  61   2.0000      -0.288964        -7.8631
  62   2.0000      -0.285760        -7.7759
  63   2.0000      -0.277565        -7.5529
  64   2.0000      -0.273407        -7.4398
  65   2.0000      -0.260475        -7.0879
  66   2.0000      -0.256477        -6.9791
  67   2.0000      -0.125733        -3.4214
  68   0.0000      -0.042154        -1.1471
  69   0.0000      -0.009820        -0.2672
  70   0.0000      -0.000214        -0.0058
  71   0.0000       0.006205         0.1688
  72   0.0000       0.010484         0.2853

MULLIKEN ATOMIC CHARGES
-----------------------
   0 C :    0.690998
   1 C :    0.439303
   2 C :   -0.110349
   3 H :    0.291435
   4 H :   -0.158010
   5 S :    1.573151
   6 C :   -0.341159
   7 C :    0.356331
   8 N :    0.838920
   9 H :   -0.249106
  10 H :   -0.295548
  11 H :   -0.258539
  12 H :   -0.327853
  13 O :   -0.958581
  14 O :   -0.724514
  15 C :    0.300828
  16 C :   -0.057200
  17 C :    0.181035
  18 H :    0.110405
  19 H :   -0.299789
  20 H :    0.086699
  21 H :    0.011818
  22 C :   -0.130586
  23 H :   -0.106710
  24 H :   -0.557247
  25 C :    0.541953
  26 H :    0.172555
  27 H :   -0.288778
  28 C :    0.021383
  29 H :    0.055758
  30 H :   -0.034232
  31 H :    0.038666
  32 H :   -0.283717
  33 H :   -0.295622
  34 H :    0.141819
  35 F :   -0.519496
  36 H :   -0.134459
  37 H :    0.278439
Sum of atomic charges:    0.0000000

LOEWDIN ATOMIC CHARGES
----------------------
   0 C :    0.023803
   1 C :   -0.023535
   2 C :   -0.029938
   3 H :    0.028557
   4 H :    0.028056
   5 S :    1.171967
   6 C :   -0.255905
   7 C :    0.173798
   8 N :    0.191334
   9 H :   -0.104182
  10 H :   -0.022061
  11 H :   -0.105330
  12 H :   -0.099614
  13 O :   -0.437546
  14 O :   -0.435937
  15 C :   -0.018096
  16 C :   -0.023317
  17 C :   -0.022482
  18 H :    0.007607
  19 H :    0.026725
  20 H :    0.033596
  21 H :    0.021287
  22 C :   -0.021914
  23 H :    0.021949
  24 H :   -0.014085
  25 C :   -0.024427
  26 H :    0.011377
  27 H :    0.021905
  28 C :   -0.023568
  29 H :    0.017601
  30 H :    0.016094
  31 H :    0.034302
  32 H :   -0.017097
  33 H :    0.018888
  34 H :    0.016075
  35 F :   -0.228450
  36 H :    0.023175
  37 H :    0.019387

  Mayer bond orders larger than 0.100000
B(  0-C ,  6-C ) :   0.9585 B(  0-C ,  8-N ) :   0.1764 B(  0-C , 15-C ) :   1.1624
B(  0-C , 23-H ) :   0.1077 B(  0-C , 24-H ) :   0.1687 B(  0-C , 36-H ) :   0.5443
B(  0-C , 37-H ) :   0.6637 B(  1-C ,  2-C ) :   1.2543 B(  1-C ,  4-H ) :   0.1638
B(  1-C , 17-C ) :   1.2334 B(  1-C , 20-H ) :   0.7168 B(  1-C , 21-H ) :   0.6788
B(  2-C ,  3-H ) :   0.7832 B(  2-C ,  4-H ) :   0.8815 B(  2-C ,  5-S ) :   0.9858
B(  2-C , 20-H ) :   0.1612 B(  2-C , 21-H ) :   0.1060 B(  2-C , 35-F ) :   0.1237
B(  4-H ,  5-S ) :   0.1043 B(  5-S , 13-O ) :   1.2147 B(  5-S , 14-O ) :   1.4768
B(  5-S , 35-F ) :   0.5283 B(  6-C ,  7-C ) :   1.5846 B(  6-C ,  8-N ) :   1.3808
B(  6-C , 10-H ) :  -0.2155 B(  6-C , 11-H ) :   0.1485 B(  6-C , 12-H ) :   0.3334
B(  6-C , 15-C ) :   0.1149 B(  6-C , 24-H ) :  -0.1122 B(  6-C , 36-H ) :   0.2805
B(  7-C ,  8-N ) :   0.2040 B(  7-C , 11-H ) :   0.8938 B(  7-C , 12-H ) :   0.6475
B(  8-N ,  9-H ) :   0.6484 B(  8-N , 10-H ) :   1.0043 B(  8-N , 13-O ) :  -0.1463
B(  9-H , 10-H ) :  -0.2016 B(  9-H , 13-O ) :   0.1246 B( 10-H , 14-O ) :   0.1550
B( 13-O , 14-O ) :   0.1531 B( 13-O , 24-H ) :   0.1844 B( 13-O , 35-F ) :   0.1338
B( 15-C , 22-C ) :   1.2085 B( 15-C , 23-H ) :   0.7816 B( 15-C , 24-H ) :   0.6426
B( 15-C , 26-H ) :   0.1229 B( 15-C , 27-H ) :   0.1903 B( 15-C , 36-H ) :   0.2368
B( 15-C , 37-H ) :   0.1520 B( 16-C , 17-C ) :   1.2130 B( 16-C , 18-H ) :   0.1186
B( 16-C , 19-H ) :   0.1606 B( 16-C , 28-C ) :   1.2416 B( 16-C , 31-H ) :   0.7844
B( 16-C , 32-H ) :   1.0194 B( 16-C , 33-H ) :   0.1924 B( 16-C , 34-H ) :   0.1242
B( 17-C , 18-H ) :   0.8358 B( 17-C , 19-H ) :   0.8980 B( 17-C , 20-H ) :   0.1124
B( 17-C , 21-H ) :   0.2323 B( 17-C , 28-C ) :   0.1338 B( 22-C , 23-H ) :   0.1405
B( 22-C , 24-H ) :   0.2073 B( 22-C , 25-C ) :   1.0872 B( 22-C , 26-H ) :   0.8178
B( 22-C , 27-H ) :   1.0532 B( 22-C , 28-C ) :   0.1136 B( 22-C , 29-H ) :   0.1379
B( 22-C , 30-H ) :   0.2130 B( 25-C , 28-C ) :   1.1412 B( 25-C , 29-H ) :   0.7046
B( 25-C , 30-H ) :   0.7277 B( 26-H , 32-H ) :   0.1319 B( 28-C , 29-H ) :   0.1955
B( 28-C , 30-H ) :   0.1334 B( 28-C , 31-H ) :   0.1032 B( 28-C , 33-H ) :   0.9986
B( 28-C , 34-H ) :   0.8119 B( 31-H , 32-H ) :   0.1039

Dispersion correction           -0.057838484
FINAL SINGLE POINT ENERGY     -1135.092899220141

DIPOLE MOMENT
-------------
                                X             Y             Z
Electronic contribution:     -8.11444     -23.30831     -13.63627
Nuclear contribution   :      8.54118      20.92489      15.31138
                        -----------------------------------------
Total Dipole Moment    :      0.42673      -2.38342       1.67511
                        -----------------------------------------
Magnitude (a.u.)       :      2.94428
Magnitude (Debye)      :      7.48376

Rotational constants in cm-1:     0.018156     0.012306     0.008278
Rotational constants in MHz :   544.309022   368.914527   248.178402

                             ****ORCA TERMINATED NORMALLY****
TOTAL RUN TIME: 0 days 0 hours 1 minutes 40 seconds 819 msec
