                         Program Version 5.0.0 -  RELEASE  -
|  1> !PBE D3BJ RIJCOSX def2-SVP def2/J TightSCF
|  2> *xyz -1 1
|  3> C          4.90646       -3.10282       -5.95484
|  4> C          3.51177       -2.80621       -6.49228
|  5> H          2.73604       -3.37345       -5.97374
|  6> H          3.44490       -3.04083       -7.55528
|  7> S          3.00462       -1.09621       -6.38926
|  8> O          4.12886       -0.32965       -6.95372
|  9> O          1.78128       -1.00078       -7.13640
| 10> O          2.85155       -0.78368       -4.95679
| 11> H          5.62703       -2.52424       -6.49422
| 12> H          5.12164       -4.14387       -6.07654
| 13> H          4.95004       -2.84862       -4.91639
| 14> *
| 15>
| 16> %MaxCore 64000
| 17>
| 18> %pal nprocs 4
| 19> end
| 20>
| 21> %scf
| 22>   MaxIter 150
| 23> end
| 24>
| 25>
| 26>                          ****END OF INPUT****

CARTESIAN COORDINATES (ANGSTROEM)
---------------------------------
  C      4.906460   -3.102820   -5.954840
  C      3.511770   -2.806210   -6.492280
  H      2.736040   -3.373450   -5.973740
  H      3.444900   -3.040830   -7.555280
  S      3.004620   -1.096210   -6.389260
  O      4.128860   -0.329650   -6.953720
  O      1.781280   -1.000780   -7.136400
  O      2.851550   -0.783680   -4.956790
  H      5.627030   -2.524240   -6.494220
  H      5.121640   -4.143870   -6.076540
  H      4.950040   -2.848620   -4.916390

 Total Charge           Charge          ....   -1
 Multiplicity           Mult            ....    1
 Number of Electrons    NEL             ....   58
 Basis Dimension        Dim             ....  113

ORBITAL ENERGIES
----------------

  NO   OCC          E(Eh)            E(eV)
   0   2.0000     -88.007723     -2394.8119
   1   2.0000     -18.506423      -503.5854
   2   2.0000     -18.494265      -503.2545
   3   2.0000     -18.493008      -503.2203
   4   2.0000      -9.741862      -265.0896
   5   2.0000      -9.737824      -264.9797
   6   2.0000      -7.619309      -207.3319
   7   2.0000      -5.645750      -153.6287
   8   2.0000      -5.645652      -153.6260
   9   2.0000      -5.645398      -153.6191
  10   2.0000      -0.804114       -21.8811
  11   2.0000      -0.666451       -18.1351
  12   2.0000      -0.645454       -17.5637
  13   2.0000      -0.542411       -14.7597
  14   2.0000      -0.425906       -11.5895
  15   2.0000      -0.299437        -8.1481
  16   2.0000      -0.255953        -6.9648
  17   2.0000      -0.236938        -6.4474
  18   2.0000      -0.207393        -5.6434
  19   2.0000      -0.184654        -5.0247
  20   2.0000      -0.183046        -4.9809
  21   2.0000      -0.161283        -4.3887
  22   2.0000      -0.149475        -4.0674
  23   2.0000      -0.064991        -1.7685
  24   2.0000      -0.064641        -1.7590
  25   2.0000      -0.037321        -1.0156
  26   2.0000      -0.029443        -0.8012
  27   2.0000      -0.019399        -0.5279
  28   2.0000       0.019042         0.5182
  29   0.0000       0.184891         5.0311
  30   0.0000       0.233793         6.3618
  31   0.0000       0.237897         6.4735
  32   0.0000       0.245652         6.6845
  33   0.0000       0.272856         7.4248

MULLIKEN ATOMIC CHARGES
-----------------------
   0 C :    0.029891
   1 C :   -0.102096
   2 H :   -0.004826
   3 H :   -0.004847
   4 S :    0.731970
   5 O :   -0.553145
   6 O :   -0.514315
   7 O :   -0.555976
   8 H :    0.005044
   9 H :   -0.034120
  10 H :    0.002421
Sum of atomic charges:   -1.0000000

LOEWDIN ATOMIC CHARGES
----------------------
   0 C :   -0.081132
   1 C :   -0.196903
   2 H :    0.005122
   3 H :    0.005405
   4 S :    1.031614
   5 O :   -0.610019
   6 O :   -0.572555
   7 O :   -0.614187
   8 H :    0.015813
   9 H :    0.001468
  10 H :    0.015375

  Mayer bond orders larger than 0.100000
B(  0-C ,  1-C ) :   1.0702 B(  0-C ,  8-H ) :   0.9574 B(  0-C ,  9-H ) :   0.9522
B(  0-C , 10-H ) :   0.9601 B(  1-C ,  2-H ) :   0.9302 B(  1-C ,  3-H ) :   0.9295
B(  1-C ,  4-S ) :   0.8646 B(  4-S ,  5-O ) :   1.6027 B(  4-S ,  6-O ) :   1.6545
B(  4-S ,  7-O ) :   1.6092

Dispersion correction           -0.009670564
FINAL SINGLE POINT ENERGY      -702.224016475779

DIPOLE MOMENT
-------------
                                X             Y             Z
Electronic contribution:     -4.49461       6.67859      -0.66478
Nuclear contribution   :      5.05690      -8.21735       0.57889
                        -----------------------------------------
Total Dipole Moment    :      0.56229      -1.53877      -0.08589
                        -----------------------------------------
Magnitude (a.u.)       :      1.64053
Magnitude (Debye)      :      4.16990

Rotational constants in cm-1:     0.162547     0.083494     0.081672
Rotational constants in MHz :  4873.033504  2503.090885  2448.458543

                             ****ORCA TERMINATED NORMALLY****
TOTAL RUN TIME: 0 days 0 hours 0 minutes 3 seconds 599 msec
