                         Program Version 5.0.0 -  RELEASE  -
|  1> !PBE D3BJ RIJCOSX def2-SVP def2/J TightSCF
|  2> *xyz 1 1
|  3> C          4.49059        1.15590       -2.46929
|  4> N          4.30539        1.22276       -3.90832
|  5> C          4.63192        2.24637       -4.67096
|  6> N          4.54169        2.14399       -5.98714
|  7> N          5.08409        3.39358       -4.11855
|  8> H          4.92067        3.57050       -3.13587
|  9> H          5.25465        4.19739       -4.70696
| 10> H          3.82453        0.44911       -4.35093
| 11> H          4.34337        1.24932       -6.41665
| 12> H          4.67671        2.95662       -6.57411
| 13> C          5.94213        0.93950       -2.03689
| 14> H          3.86431        0.32853       -2.13661
| 15> H          4.07623        2.04999       -1.98901
| 16> H          6.32982        0.06401       -2.51451
| 17> H          5.98308        0.81426       -0.97504
| 18> H          6.52865        1.78889       -2.31873
| 19> *
| 20>
| 21> %MaxCore 64000
| 22>
| 23> %pal nprocs 4
| 24> end
| 25>
| 26> %scf
| 27>   MaxIter 150
| 28> end
| 29>
| 30>
| 31>                          ****END OF INPUT****

CARTESIAN COORDINATES (ANGSTROEM)
---------------------------------
  C      4.490590    1.155900   -2.469290
  N      4.305390    1.222760   -3.908320
  C      4.631920    2.246370   -4.670960
  N      4.541690    2.143990   -5.987140
  N      5.084090    3.393580   -4.118550
  H      4.920670    3.570500   -3.135870
  H      5.254650    4.197390   -4.706960
  H      3.824530    0.449110   -4.350930
  H      4.343370    1.249320   -6.416650
  H      4.676710    2.956620   -6.574110
  C      5.942130    0.939500   -2.036890
  H      3.864310    0.328530   -2.136610
  H      4.076230    2.049990   -1.989010
  H      6.329820    0.064010   -2.514510
  H      5.983080    0.814260   -0.975040
  H      6.528650    1.788890   -2.318730

 Total Charge           Charge          ....    1
 Multiplicity           Mult            ....    1
 Number of Electrons    NEL             ....   48
 Basis Dimension        Dim             ....  134

ORBITAL ENERGIES
----------------

  NO   OCC          E(Eh)            E(eV)
   0   2.0000     -14.219207      -386.9243
   1   2.0000     -14.219109      -386.9216
   2   2.0000     -14.215942      -386.8354
   3   2.0000     -10.214108      -277.9400
   4   2.0000     -10.099947      -274.8335
   5   2.0000     -10.029172      -272.9076
   6   2.0000      -1.120466       -30.4894
   7   2.0000      -1.017673       -27.6923
   8   2.0000      -1.002151       -27.2699
   9   2.0000      -0.853571       -23.2269
  10   2.0000      -0.777325       -21.1521
  11   2.0000      -0.738196       -20.0873
  12   2.0000      -0.728814       -19.8320
  13   2.0000      -0.684404       -18.6236
  14   2.0000      -0.640615       -17.4320
  15   2.0000      -0.638713       -17.3803
  16   2.0000      -0.608698       -16.5635
  17   2.0000      -0.574752       -15.6398
  18   2.0000      -0.552567       -15.0361
  19   2.0000      -0.511456       -13.9174
  20   2.0000      -0.483170       -13.1477
  21   2.0000      -0.464617       -12.6429
  22   2.0000      -0.429830       -11.6963
  23   2.0000      -0.408399       -11.1131
  24   0.0000      -0.189023        -5.1436
  25   0.0000      -0.160945        -4.3795
  26   0.0000      -0.128052        -3.4845
  27   0.0000      -0.121193        -3.2978
  28   0.0000      -0.103590        -2.8188

MULLIKEN ATOMIC CHARGES
-----------------------
   0 C :   -0.024373
   1 N :   -0.074651
   2 C :   -0.008082
   3 N :    0.016478
   4 N :   -0.020727
   5 H :    0.162204
   6 H :    0.161238
   7 H :    0.161430
   8 H :    0.165890
   9 H :    0.166555
  10 C :    0.002496
  11 H :    0.069960
  12 H :    0.061838
  13 H :    0.053299
  14 H :    0.073080
  15 H :    0.033364
Sum of atomic charges:    1.0000000

LOEWDIN ATOMIC CHARGES
----------------------
   0 C :    0.026013
   1 N :    0.051379
   2 C :    0.108259
   3 N :    0.066539
   4 N :    0.053355
   5 H :    0.104239
   6 H :    0.108111
   7 H :    0.108199
   8 H :    0.110958
   9 H :    0.110858
  10 C :   -0.053300
  11 H :    0.052565
  12 H :    0.034173
  13 H :    0.039214
  14 H :    0.051909
  15 H :    0.027528

  Mayer bond orders larger than 0.100000
B(  0-C ,  1-N ) :   0.9659 B(  0-C , 10-C ) :   1.1071 B(  0-C , 11-H ) :   0.9375
B(  0-C , 12-H ) :   0.9411 B(  1-N ,  2-C ) :   1.3765 B(  1-N ,  7-H ) :   0.9100
B(  2-C ,  3-N ) :   1.4033 B(  2-C ,  4-N ) :   1.3736 B(  3-N ,  8-H ) :   0.9229
B(  3-N ,  9-H ) :   0.9237 B(  4-N ,  5-H ) :   0.9198 B(  4-N ,  6-H ) :   0.9262
B( 10-C , 13-H ) :   0.9619 B( 10-C , 14-H ) :   0.9568 B( 10-C , 15-H ) :   0.9634

Dispersion correction           -0.012437358
FINAL SINGLE POINT ENERGY      -283.843028638909

DIPOLE MOMENT
-------------
                                X             Y             Z
Electronic contribution:     -1.82518       1.61645      -4.54301
Nuclear contribution   :      1.34333      -1.11039       3.43667
                        -----------------------------------------
Total Dipole Moment    :     -0.48186       0.50605      -1.10634
                        -----------------------------------------
Magnitude (a.u.)       :      1.30853
Magnitude (Debye)      :      3.32603

Rotational constants in cm-1:     0.227161     0.075356     0.065003
Rotational constants in MHz :  6810.114531  2259.122204  1948.738523

                             ****ORCA TERMINATED NORMALLY****
TOTAL RUN TIME: 0 days 0 hours 0 minutes 4 seconds 707 msec
