                         Program Version 5.0.0 -  RELEASE  -
|  1> !PBE D3BJ RIJCOSX def2-SVP def2/J TightSCF
|  2> *xyz 0 1
|  3> C          4.90646       -3.10282       -5.95484
|  4> C          3.51177       -2.80621       -6.49228
|  5> H          2.73604       -3.37345       -5.97374
|  6> H          3.44490       -3.04083       -7.55528
|  7> S          3.00462       -1.09621       -6.38926
|  8> F          4.12886       -0.32965       -6.95372
|  9> O          1.78128       -1.00078       -7.13640
| 10> O          2.85155       -0.78368       -4.95679
| 11> H          5.62703       -2.52424       -6.49422
| 12> H          5.12164       -4.14387       -6.07654
| 13> H          4.95004       -2.84862       -4.91639
| 14> *
| 15>
| 16> %MaxCore 64000
| 17>
| 18> %pal nprocs 4
| 19> end
| 20>
| 21> %scf
| 22>   MaxIter 150
| 23> end
| 24>
| 25>
| 26>                          ****END OF INPUT****

CARTESIAN COORDINATES (ANGSTROEM)
---------------------------------
  C      4.906460   -3.102820   -5.954840
  C      3.511770   -2.806210   -6.492280
  H      2.736040   -3.373450   -5.973740
  H      3.444900   -3.040830   -7.555280
  S      3.004620   -1.096210   -6.389260
  F      4.128860   -0.329650   -6.953720
  O      1.781280   -1.000780   -7.136400
  O      2.851550   -0.783680   -4.956790
  H      5.627030   -2.524240   -6.494220
  H      5.121640   -4.143870   -6.076540
  H      4.950040   -2.848620   -4.916390

 Total Charge           Charge          ....    0
 Multiplicity           Mult            ....    1
 Number of Electrons    NEL             ....   58
 Basis Dimension        Dim             ....  113

ORBITAL ENERGIES
----------------

  NO   OCC          E(Eh)            E(eV)
   0   2.0000     -88.278333     -2402.1756
   1   2.0000     -24.353242      -662.6854
   2   2.0000     -18.757491      -510.4173
   3   2.0000     -18.745418      -510.0887
   4   2.0000      -9.949488      -270.7393
   5   2.0000      -9.917075      -269.8573
   6   2.0000      -7.892450      -214.7645
   7   2.0000      -5.923053      -161.1745
   8   2.0000      -5.916691      -161.0013
   9   2.0000      -5.915289      -160.9632
  10   2.0000      -1.232763       -33.5452
  11   2.0000      -1.007514       -27.4158
  12   2.0000      -0.908171       -24.7126
  13   2.0000      -0.746757       -20.3203
  14   2.0000      -0.646851       -17.6017
  15   2.0000      -0.603432       -16.4202
  16   2.0000      -0.515811       -14.0359
  17   2.0000      -0.491381       -13.3712
  18   2.0000      -0.474268       -12.9055
  19   2.0000      -0.440312       -11.9815
  20   2.0000      -0.415191       -11.2979
  21   2.0000      -0.396671       -10.7940
  22   2.0000      -0.376371       -10.2416
  23   2.0000      -0.362146        -9.8545
  24   2.0000      -0.349156        -9.5010
  25   2.0000      -0.322464        -8.7747
  26   2.0000      -0.279286        -7.5998
  27   2.0000      -0.266540        -7.2529
  28   2.0000      -0.248464        -6.7611
  29   0.0000      -0.000763        -0.0208
  30   0.0000       0.032625         0.8878
  31   0.0000       0.054207         1.4751
  32   0.0000       0.063421         1.7258
  33   0.0000       0.071406         1.9431

MULLIKEN ATOMIC CHARGES
-----------------------
   0 C :   -0.005457
   1 C :   -0.145599
   2 H :    0.094697
   3 H :    0.066925
   4 S :    0.824360
   5 F :   -0.164164
   6 O :   -0.378903
   7 O :   -0.421981
   8 H :    0.034022
   9 H :    0.044909
  10 H :    0.051190
Sum of atomic charges:   -0.0000000

LOEWDIN ATOMIC CHARGES
----------------------
   0 C :   -0.068463
   1 C :   -0.159377
   2 H :    0.053582
   3 H :    0.035348
   4 S :    1.094430
   5 F :   -0.128656
   6 O :   -0.443567
   7 O :   -0.485010
   8 H :    0.027951
   9 H :    0.039101
  10 H :    0.034660

  Mayer bond orders larger than 0.100000
B(  0-C ,  1-C ) :   1.0644 B(  0-C ,  8-H ) :   0.9683 B(  0-C ,  9-H ) :   0.9555
B(  0-C , 10-H ) :   0.9651 B(  1-C ,  2-H ) :   0.9270 B(  1-C ,  3-H ) :   0.9232
B(  1-C ,  4-S ) :   0.9056 B(  4-S ,  5-F ) :   1.0044 B(  4-S ,  6-O ) :   1.8041
B(  4-S ,  7-O ) :   1.7655

Dispersion correction           -0.009208151
FINAL SINGLE POINT ENERGY      -726.730380727178

DIPOLE MOMENT
-------------
                                X             Y             Z
Electronic contribution:     -3.08504       8.32641      -1.72681
Nuclear contribution   :      4.18919      -9.36357       1.23251
                        -----------------------------------------
Total Dipole Moment    :      1.10415      -1.03716      -0.49430
                        -----------------------------------------
Magnitude (a.u.)       :      1.59348
Magnitude (Debye)      :      4.05031

Rotational constants in cm-1:     0.153152     0.082513     0.079874
Rotational constants in MHz :  4591.373714  2473.673397  2394.575279

                             ****ORCA TERMINATED NORMALLY****
TOTAL RUN TIME: 0 days 0 hours 0 minutes 3 seconds 869 msec
