                         Program Version 5.0.0 -  RELEASE  -
|  1> !PBE D3BJ RIJCOSX def2-SVP def2/J TightSCF
|  2> *xyz 0 1
|  3> C          4.49059        1.15590       -2.46929
|  4> C          4.30539        1.22276       -3.90832
|  5> C          4.63192        2.24637       -4.67096
|  6> N          4.54169        2.14399       -5.98714
|  7> N          5.08409        3.39358       -4.11855
|  8> H          4.92067        3.57050       -3.13587
|  9> H          5.25465        4.19739       -4.70696
| 10> H          3.82453        0.44911       -4.35093
| 11> H          4.34337        1.24932       -6.41665
| 12> H          4.67671        2.95662       -6.57411
| 13> C          5.94213        0.93950       -2.03689
| 14> H          3.86431        0.32853       -2.13661
| 15> H          4.07623        2.04999       -1.98901
| 16> H          6.32982        0.06401       -2.51451
| 17> H          5.98308        0.81426       -0.97504
| 18> H          6.52865        1.78889       -2.31873
| 19> *
| 20>
| 21> %MaxCore 64000
| 22>
| 23> %pal nprocs 4
| 24> end
| 25>
| 26> %scf
| 27>   MaxIter 150
| 28> end
| 29>
| 30>
| 31>                          ****END OF INPUT****

CARTESIAN COORDINATES (ANGSTROEM)
---------------------------------
  C      4.490590    1.155900   -2.469290
  C      4.305390    1.222760   -3.908320
  C      4.631920    2.246370   -4.670960
  N      4.541690    2.143990   -5.987140
  N      5.084090    3.393580   -4.118550
  H      4.920670    3.570500   -3.135870
  H      5.254650    4.197390   -4.706960
  H      3.824530    0.449110   -4.350930
  H      4.343370    1.249320   -6.416650
  H      4.676710    2.956620   -6.574110
  C      5.942130    0.939500   -2.036890
  H      3.864310    0.328530   -2.136610
  H      4.076230    2.049990   -1.989010
  H      6.329820    0.064010   -2.514510
  H      5.983080    0.814260   -0.975040
  H      6.528650    1.788890   -2.318730

 Total Charge           Charge          ....    0
 Multiplicity           Mult            ....    1
 Number of Electrons    NEL             ....   48
 Basis Dimension        Dim             ....  134

ORBITAL ENERGIES
----------------

  NO   OCC          E(Eh)            E(eV)
   0   2.0000     -13.990707      -380.7065
   1   2.0000     -13.988953      -380.6588
   2   2.0000      -9.921774      -269.9852
   3   2.0000      -9.862553      -268.3737
   4   2.0000      -9.853001      -268.1138
   5   2.0000      -9.805779      -266.8288
   6   2.0000      -0.859652       -23.3923
   7   2.0000      -0.775881       -21.1128
   8   2.0000      -0.683319       -18.5941
   9   2.0000      -0.611530       -16.6406
  10   2.0000      -0.544382       -14.8134
  11   2.0000      -0.510845       -13.9008
  12   2.0000      -0.481438       -13.1006
  13   2.0000      -0.445471       -12.1219
  14   2.0000      -0.419083       -11.4038
  15   2.0000      -0.379987       -10.3400
  16   2.0000      -0.363413        -9.8890
  17   2.0000      -0.335010        -9.1161
  18   2.0000      -0.325723        -8.8634
  19   2.0000      -0.299232        -8.1425
  20   2.0000      -0.276524        -7.5246
  21   2.0000      -0.265313        -7.2195
  22   2.0000      -0.209199        -5.6926
  23   2.0000      -0.115933        -3.1547
  24   0.0000       0.021915         0.5963
  25   0.0000       0.051722         1.4074
  26   0.0000       0.064303         1.7498
  27   0.0000       0.076539         2.0827
  28   0.0000       0.086726         2.3599

MULLIKEN ATOMIC CHARGES
-----------------------
   0 C :    0.019947
   1 C :   -0.171060
   2 C :   -0.074924
   3 N :   -0.022233
   4 N :   -0.055420
   5 H :    0.112427
   6 H :    0.092459
   7 H :   -0.105280
   8 H :    0.111691
   9 H :    0.090197
  10 C :    0.044469
  11 H :   -0.013596
  12 H :   -0.020981
  13 H :    0.000221
  14 H :   -0.005484
  15 H :   -0.002432
Sum of atomic charges:    0.0000000

LOEWDIN ATOMIC CHARGES
----------------------
   0 C :   -0.047456
   1 C :   -0.219304
   2 C :    0.002753
   3 N :   -0.005627
   4 N :   -0.015070
   5 H :    0.075334
   6 H :    0.062538
   7 H :   -0.008989
   8 H :    0.081545
   9 H :    0.061728
  10 C :   -0.062379
  11 H :    0.026442
  12 H :    0.004681
  13 H :    0.019028
  14 H :    0.011976
  15 H :    0.012801

  Mayer bond orders larger than 0.100000
B(  0-C ,  1-C ) :   1.0972 B(  0-C , 10-C ) :   1.0998 B(  0-C , 11-H ) :   0.9066
B(  0-C , 12-H ) :   0.9181 B(  1-C ,  2-C ) :   1.6550 B(  1-C ,  7-H ) :   0.9402
B(  2-C ,  3-N ) :   1.2588 B(  2-C ,  4-N ) :   1.2475 B(  3-N ,  8-H ) :   0.9363
B(  3-N ,  9-H ) :   0.9433 B(  4-N ,  5-H ) :   0.9316 B(  4-N ,  6-H ) :   0.9463
B( 10-C , 13-H ) :   0.9602 B( 10-C , 14-H ) :   0.9568 B( 10-C , 15-H ) :   0.9664

Dispersion correction           -0.012896785
FINAL SINGLE POINT ENERGY      -267.371281756099

DIPOLE MOMENT
-------------
                                X             Y             Z
Electronic contribution:     -1.24241       2.11825      -4.28624
Nuclear contribution   :      1.23062      -1.24683       3.43056
                        -----------------------------------------
Total Dipole Moment    :     -0.01179       0.87142      -0.85568
                        -----------------------------------------
Magnitude (a.u.)       :      1.22135
Magnitude (Debye)      :      3.10443

Rotational constants in cm-1:     0.231477     0.075416     0.065327
Rotational constants in MHz :  6939.497385  2260.912204  1958.442932

                             ****ORCA TERMINATED NORMALLY****
TOTAL RUN TIME: 0 days 0 hours 0 minutes 4 seconds 609 msec
