                         Program Version 5.0.0 -  RELEASE  -
|  1> !PBE D3BJ RIJCOSX def2-SVP def2/J TightSCF
|  2> *xyz 0 1
|  3> C          4.90646       -3.10282       -5.95484
|  4> C          3.51177       -2.80621       -6.49228
|  5> H          2.73604       -3.37345       -5.97374
|  6> H          3.44490       -3.04083       -7.55528
|  7> S          3.00462       -1.09621       -6.38926
|  8> O          4.12886       -0.32965       -6.95372
|  9> F          1.78128       -1.00078       -7.13640
| 10> O          2.85155       -0.78368       -4.95679
| 11> H          5.62703       -2.52424       -6.49422
| 12> H          5.12164       -4.14387       -6.07654
| 13> H          4.95004       -2.84862       -4.91639
| 14> *
| 15>
| 16> %MaxCore 64000
| 17>
| 18> %pal nprocs 4
| 19> end
| 20>
| 21> %scf
| 22>   MaxIter 150
| 23> end
| 24>
| 25>
| 26>                          ****END OF INPUT****

CARTESIAN COORDINATES (ANGSTROEM)
---------------------------------
  C      4.906460   -3.102820   -5.954840
  C      3.511770   -2.806210   -6.492280
  H      2.736040   -3.373450   -5.973740
  H      3.444900   -3.040830   -7.555280
  S      3.004620   -1.096210   -6.389260
  O      4.128860   -0.329650   -6.953720
  F      1.781280   -1.000780   -7.136400
  O      2.851550   -0.783680   -4.956790
  H      5.627030   -2.524240   -6.494220
  H      5.121640   -4.143870   -6.076540
  H      4.950040   -2.848620   -4.916390

 Total Charge           Charge          ....    0
 Multiplicity           Mult            ....    1
 Number of Electrons    NEL             ....   58
 Basis Dimension        Dim             ....  113

ORBITAL ENERGIES
----------------

  NO   OCC          E(Eh)            E(eV)
   0   2.0000     -88.279935     -2402.2192
   1   2.0000     -24.371383      -663.1790
   2   2.0000     -18.744957      -510.0762
   3   2.0000     -18.744606      -510.0667
   4   2.0000      -9.950333      -270.7623
   5   2.0000      -9.912616      -269.7360
   6   2.0000      -7.894008      -214.8069
   7   2.0000      -5.924757      -161.2208
   8   2.0000      -5.918036      -161.0379
   9   2.0000      -5.916719      -161.0021
  10   2.0000      -1.263621       -34.3849
  11   2.0000      -0.993954       -27.0469
  12   2.0000      -0.894009       -24.3272
  13   2.0000      -0.743527       -20.2324
  14   2.0000      -0.660178       -17.9644
  15   2.0000      -0.605315       -16.4715
  16   2.0000      -0.517888       -14.0924
  17   2.0000      -0.513424       -13.9710
  18   2.0000      -0.485510       -13.2114
  19   2.0000      -0.441887       -12.0244
  20   2.0000      -0.416164       -11.3244
  21   2.0000      -0.382580       -10.4105
  22   2.0000      -0.373194       -10.1551
  23   2.0000      -0.359814        -9.7910
  24   2.0000      -0.340341        -9.2611
  25   2.0000      -0.316714        -8.6182
  26   2.0000      -0.267539        -7.2801
  27   2.0000      -0.262437        -7.1413
  28   2.0000      -0.236219        -6.4279
  29   0.0000       0.005488         0.1493
  30   0.0000       0.024466         0.6658
  31   0.0000       0.052993         1.4420
  32   0.0000       0.055637         1.5140
  33   0.0000       0.072186         1.9643

MULLIKEN ATOMIC CHARGES
-----------------------
   0 C :    0.010928
   1 C :   -0.137169
   2 H :    0.065889
   3 H :    0.059958
   4 S :    0.815188
   5 O :   -0.418606
   6 F :   -0.124932
   7 O :   -0.418832
   8 H :    0.053150
   9 H :    0.042318
  10 H :    0.052107
Sum of atomic charges:   -0.0000000

LOEWDIN ATOMIC CHARGES
----------------------
   0 C :   -0.053135
   1 C :   -0.160751
   2 H :    0.034897
   3 H :    0.032327
   4 S :    1.087551
   5 O :   -0.480369
   6 F :   -0.091454
   7 O :   -0.482458
   8 H :    0.037102
   9 H :    0.038861
  10 H :    0.037429

  Mayer bond orders larger than 0.100000
B(  0-C ,  1-C ) :   1.0902 B(  0-C ,  8-H ) :   0.9629 B(  0-C ,  9-H ) :   0.9553
B(  0-C , 10-H ) :   0.9663 B(  1-C ,  2-H ) :   0.9203 B(  1-C ,  3-H ) :   0.9184
B(  1-C ,  4-S ) :   0.9037 B(  4-S ,  5-O ) :   1.7556 B(  4-S ,  6-F ) :   1.0518
B(  4-S ,  7-O ) :   1.7614

Dispersion correction           -0.009260655
FINAL SINGLE POINT ENERGY      -726.714387136258

DIPOLE MOMENT
-------------
                                X             Y             Z
Electronic contribution:     -6.99208       7.22299      -2.03478
Nuclear contribution   :      6.63544      -8.66423       1.42287
                        -----------------------------------------
Total Dipole Moment    :     -0.35664      -1.44124      -0.61191
                        -----------------------------------------
Magnitude (a.u.)       :      1.60587
Magnitude (Debye)      :      4.08179

Rotational constants in cm-1:     0.158118     0.080978     0.078216
Rotational constants in MHz :  4740.271775  2427.649826  2344.849020

                             ****ORCA TERMINATED NORMALLY****
TOTAL RUN TIME: 0 days 0 hours 0 minutes 3 seconds 768 msec
