                         Program Version 5.0.0 -  RELEASE  -
|  1> !PBE D3BJ RIJCOSX def2-SVP def2/J TightSCF
|  2> *xyz 0 1
|  3> C          4.49059        1.15590       -2.46929
|  4> N          4.30539        1.22276       -3.90832
|  5> C          4.63192        2.24637       -4.67096
|  6> C          4.54169        2.14399       -5.98714
|  7> N          5.08409        3.39358       -4.11855
|  8> H          4.92067        3.57050       -3.13587
|  9> H          5.25465        4.19739       -4.70696
| 10> H          3.82453        0.44911       -4.35093
| 11> H          4.34337        1.24932       -6.41665
| 12> H          4.67671        2.95662       -6.57411
| 13> C          5.94213        0.93950       -2.03689
| 14> H          3.86431        0.32853       -2.13661
| 15> H          4.07623        2.04999       -1.98901
| 16> H          6.32982        0.06401       -2.51451
| 17> H          5.98308        0.81426       -0.97504
| 18> H          6.52865        1.78889       -2.31873
| 19> *
| 20>
| 21> %MaxCore 64000
| 22>
| 23> %pal nprocs 4
| 24> end
| 25>
| 26> %scf
| 27>   MaxIter 150
| 28> end
| 29>
| 30>
| 31>                          ****END OF INPUT****

CARTESIAN COORDINATES (ANGSTROEM)
---------------------------------
  C      4.490590    1.155900   -2.469290
  N      4.305390    1.222760   -3.908320
  C      4.631920    2.246370   -4.670960
  C      4.541690    2.143990   -5.987140
  N      5.084090    3.393580   -4.118550
  H      4.920670    3.570500   -3.135870
  H      5.254650    4.197390   -4.706960
  H      3.824530    0.449110   -4.350930
  H      4.343370    1.249320   -6.416650
  H      4.676710    2.956620   -6.574110
  C      5.942130    0.939500   -2.036890
  H      3.864310    0.328530   -2.136610
  H      4.076230    2.049990   -1.989010
  H      6.329820    0.064010   -2.514510
  H      5.983080    0.814260   -0.975040
  H      6.528650    1.788890   -2.318730

 Total Charge           Charge          ....    0
 Multiplicity           Mult            ....    1
 Number of Electrons    NEL             ....   48
 Basis Dimension        Dim             ....  134

ORBITAL ENERGIES
----------------

  NO   OCC          E(Eh)            E(eV)
   0   2.0000     -13.991961      -380.7406
   1   2.0000     -13.989297      -380.6681
   2   2.0000      -9.931249      -270.2430
   3   2.0000      -9.923773      -270.0396
   4   2.0000      -9.881411      -268.8869
   5   2.0000      -9.800194      -266.6768
   6   2.0000      -0.869625       -23.6637
   7   2.0000      -0.788310       -21.4510
   8   2.0000      -0.688554       -18.7365
   9   2.0000      -0.620090       -16.8735
  10   2.0000      -0.558609       -15.2005
  11   2.0000      -0.532500       -14.4901
  12   2.0000      -0.474606       -12.9147
  13   2.0000      -0.440830       -11.9956
  14   2.0000      -0.425739       -11.5849
  15   2.0000      -0.394151       -10.7254
  16   2.0000      -0.369989       -10.0679
  17   2.0000      -0.348786        -9.4909
  18   2.0000      -0.328844        -8.9483
  19   2.0000      -0.324421        -8.8279
  20   2.0000      -0.309225        -8.4144
  21   2.0000      -0.302469        -8.2306
  22   2.0000      -0.202317        -5.5053
  23   2.0000      -0.120223        -3.2714
  24   0.0000       0.020841         0.5671
  25   0.0000       0.043944         1.1958
  26   0.0000       0.061802         1.6817
  27   0.0000       0.076047         2.0693
  28   0.0000       0.087094         2.3700

MULLIKEN ATOMIC CHARGES
-----------------------
   0 C :    0.013476
   1 N :   -0.092924
   2 C :   -0.076233
   3 C :   -0.057252
   4 N :   -0.063883
   5 H :    0.094929
   6 H :    0.112473
   7 H :    0.114874
   8 H :   -0.068473
   9 H :   -0.068830
  10 C :    0.025179
  11 H :    0.010711
  12 H :    0.009845
  13 H :    0.019605
  14 H :    0.011567
  15 H :    0.014936
Sum of atomic charges:   -0.0000000

LOEWDIN ATOMIC CHARGES
----------------------
   0 C :    0.015920
   1 N :   -0.006950
   2 C :    0.010242
   3 C :   -0.248192
   4 N :   -0.014608
   5 H :    0.059576
   6 H :    0.080915
   7 H :    0.084336
   8 H :   -0.008872
   9 H :   -0.008967
  10 C :   -0.070548
  11 H :    0.026704
  12 H :    0.011104
  13 H :    0.025401
  14 H :    0.023357
  15 H :    0.020583

  Mayer bond orders larger than 0.100000
B(  0-C ,  1-N ) :   1.0527 B(  0-C , 10-C ) :   1.0936 B(  0-C , 11-H ) :   0.9441
B(  0-C , 12-H ) :   0.9372 B(  1-N ,  2-C ) :   1.2114 B(  1-N ,  7-H ) :   0.9254
B(  2-C ,  3-C ) :   1.7394 B(  2-C ,  4-N ) :   1.2216 B(  3-C ,  8-H ) :   0.9210
B(  3-C ,  9-H ) :   0.9207 B(  4-N ,  5-H ) :   0.9424 B(  4-N ,  6-H ) :   0.9407
B( 10-C , 13-H ) :   0.9606 B( 10-C , 14-H ) :   0.9543 B( 10-C , 15-H ) :   0.9597

Dispersion correction           -0.012787648
FINAL SINGLE POINT ENERGY      -267.364719830658

DIPOLE MOMENT
-------------
                                X             Y             Z
Electronic contribution:     -1.43591       1.14016      -1.96849
Nuclear contribution   :      1.28075      -1.05140       2.98955
                        -----------------------------------------
Total Dipole Moment    :     -0.15517       0.08876       1.02107
                        -----------------------------------------
Magnitude (a.u.)       :      1.03660
Magnitude (Debye)      :      2.63482

Rotational constants in cm-1:     0.229858     0.078444     0.067377
Rotational constants in MHz :  6890.979812  2351.691803  2019.910665

                             ****ORCA TERMINATED NORMALLY****
TOTAL RUN TIME: 0 days 0 hours 0 minutes 4 seconds 677 msec
