                         Program Version 5.0.0 -  RELEASE  -
|  1> !PBE D3BJ RIJCOSX def2-SVP def2/J TightSCF
|  2> *xyz 0 1
|  3> C          4.90646       -3.10282       -5.95484
|  4> C          3.51177       -2.80621       -6.49228
|  5> H          2.73604       -3.37345       -5.97374
|  6> H          3.44490       -3.04083       -7.55528
|  7> S          3.00462       -1.09621       -6.38926
|  8> O          4.12886       -0.32965       -6.95372
|  9> O          1.78128       -1.00078       -7.13640
| 10> F          2.85155       -0.78368       -4.95679
| 11> H          5.62703       -2.52424       -6.49422
| 12> H          5.12164       -4.14387       -6.07654
| 13> H          4.95004       -2.84862       -4.91639
| 14> *
| 15>
| 16> %MaxCore 64000
| 17>
| 18> %pal nprocs 4
| 19> end
| 20>
| 21> %scf
| 22>   MaxIter 150
| 23> end
| 24>
| 25>
| 26>                          ****END OF INPUT****

CARTESIAN COORDINATES (ANGSTROEM)
---------------------------------
  C      4.906460   -3.102820   -5.954840
  C      3.511770   -2.806210   -6.492280
  H      2.736040   -3.373450   -5.973740
  H      3.444900   -3.040830   -7.555280
  S      3.004620   -1.096210   -6.389260
  O      4.128860   -0.329650   -6.953720
  O      1.781280   -1.000780   -7.136400
  F      2.851550   -0.783680   -4.956790
  H      5.627030   -2.524240   -6.494220
  H      5.121640   -4.143870   -6.076540
  H      4.950040   -2.848620   -4.916390

 Total Charge           Charge          ....    0
 Multiplicity           Mult            ....    1
 Number of Electrons    NEL             ....   58
 Basis Dimension        Dim             ....  113

ORBITAL ENERGIES
----------------

  NO   OCC          E(Eh)            E(eV)
   0   2.0000     -88.278619     -2402.1833
   1   2.0000     -24.352524      -662.6659
   2   2.0000     -18.757849      -510.4270
   3   2.0000     -18.746427      -510.1162
   4   2.0000      -9.949392      -270.7367
   5   2.0000      -9.914028      -269.7744
   6   2.0000      -7.892712      -214.7716
   7   2.0000      -5.923266      -161.1803
   8   2.0000      -5.916964      -161.0088
   9   2.0000      -5.915600      -160.9716
  10   2.0000      -1.231593       -33.5133
  11   2.0000      -1.007868       -27.4255
  12   2.0000      -0.910214       -24.7682
  13   2.0000      -0.744425       -20.2568
  14   2.0000      -0.646111       -17.5816
  15   2.0000      -0.602193       -16.3865
  16   2.0000      -0.513098       -13.9621
  17   2.0000      -0.489943       -13.3320
  18   2.0000      -0.476231       -12.9589
  19   2.0000      -0.438884       -11.9426
  20   2.0000      -0.417455       -11.3595
  21   2.0000      -0.395728       -10.7683
  22   2.0000      -0.374526       -10.1914
  23   2.0000      -0.357924        -9.7396
  24   2.0000      -0.349267        -9.5040
  25   2.0000      -0.321052        -8.7363
  26   2.0000      -0.279316        -7.6006
  27   2.0000      -0.267737        -7.2855
  28   2.0000      -0.250527        -6.8172
  29   0.0000      -0.000627        -0.0171
  30   0.0000       0.029957         0.8152
  31   0.0000       0.053527         1.4565
  32   0.0000       0.063796         1.7360
  33   0.0000       0.070584         1.9207

MULLIKEN ATOMIC CHARGES
-----------------------
   0 C :   -0.000759
   1 C :   -0.147698
   2 H :    0.064881
   3 H :    0.093475
   4 S :    0.825722
   5 O :   -0.421570
   6 O :   -0.380052
   7 F :   -0.164314
   8 H :    0.055325
   9 H :    0.041394
  10 H :    0.033597
Sum of atomic charges:   -0.0000000

LOEWDIN ATOMIC CHARGES
----------------------
   0 C :   -0.066841
   1 C :   -0.160005
   2 H :    0.033907
   3 H :    0.053188
   4 S :    1.094185
   5 O :   -0.482033
   6 O :   -0.444177
   7 F :   -0.130785
   8 H :    0.035970
   9 H :    0.037742
  10 H :    0.028848

  Mayer bond orders larger than 0.100000
B(  0-C ,  1-C ) :   1.0661 B(  0-C ,  8-H ) :   0.9628 B(  0-C ,  9-H ) :   0.9539
B(  0-C , 10-H ) :   0.9693 B(  1-C ,  2-H ) :   0.9238 B(  1-C ,  3-H ) :   0.9260
B(  1-C ,  4-S ) :   0.9031 B(  4-S ,  5-O ) :   1.7612 B(  4-S ,  6-O ) :   1.8056
B(  4-S ,  7-F ) :   1.0071

Dispersion correction           -0.009223789
FINAL SINGLE POINT ENERGY      -726.731014051782

DIPOLE MOMENT
-------------
                                X             Y             Z
Electronic contribution:     -5.21926       7.58362       1.60102
Nuclear contribution   :      5.52019      -8.89046      -0.84835
                        -----------------------------------------
Total Dipole Moment    :      0.30092      -1.30683       0.75266
                        -----------------------------------------
Magnitude (a.u.)       :      1.53781
Magnitude (Debye)      :      3.90881

Rotational constants in cm-1:     0.153332     0.082132     0.079755
Rotational constants in MHz :  4596.775407  2462.251277  2391.008596

                             ****ORCA TERMINATED NORMALLY****
TOTAL RUN TIME: 0 days 0 hours 0 minutes 3 seconds 889 msec
