                         Program Version 5.0.0 -  RELEASE  -
|  1> !PBE D3BJ RIJCOSX def2-SVP def2/J TightSCF
|  2> *xyz 0 1
|  3> C          4.49059        1.15590       -2.46929
|  4> N          4.30539        1.22276       -3.90832
|  5> C          4.63192        2.24637       -4.67096
|  6> N          4.54169        2.14399       -5.98714
|  7> C          5.08409        3.39358       -4.11855
|  8> H          4.92067        3.57050       -3.13587
|  9> H          5.25465        4.19739       -4.70696
| 10> H          3.82453        0.44911       -4.35093
| 11> H          4.34337        1.24932       -6.41665
| 12> H          4.67671        2.95662       -6.57411
| 13> C          5.94213        0.93950       -2.03689
| 14> H          3.86431        0.32853       -2.13661
| 15> H          4.07623        2.04999       -1.98901
| 16> H          6.32982        0.06401       -2.51451
| 17> H          5.98308        0.81426       -0.97504
| 18> H          6.52865        1.78889       -2.31873
| 19> *
| 20>
| 21> %MaxCore 64000
| 22>
| 23> %pal nprocs 4
| 24> end
| 25>
| 26> %scf
| 27>   MaxIter 150
| 28> end
| 29>
| 30>
| 31>                          ****END OF INPUT****

CARTESIAN COORDINATES (ANGSTROEM)
---------------------------------
  C      4.490590    1.155900   -2.469290
  N      4.305390    1.222760   -3.908320
  C      4.631920    2.246370   -4.670960
  N      4.541690    2.143990   -5.987140
  C      5.084090    3.393580   -4.118550
  H      4.920670    3.570500   -3.135870
  H      5.254650    4.197390   -4.706960
  H      3.824530    0.449110   -4.350930
  H      4.343370    1.249320   -6.416650
  H      4.676710    2.956620   -6.574110
  C      5.942130    0.939500   -2.036890
  H      3.864310    0.328530   -2.136610
  H      4.076230    2.049990   -1.989010
  H      6.329820    0.064010   -2.514510
  H      5.983080    0.814260   -0.975040
  H      6.528650    1.788890   -2.318730

 Total Charge           Charge          ....    0
 Multiplicity           Mult            ....    1
 Number of Electrons    NEL             ....   48
 Basis Dimension        Dim             ....  134

ORBITAL ENERGIES
----------------

  NO   OCC          E(Eh)            E(eV)
   0   2.0000     -13.994937      -380.8216
   1   2.0000     -13.991611      -380.7311
   2   2.0000      -9.926092      -270.1027
   3   2.0000      -9.921848      -269.9872
   4   2.0000      -9.870210      -268.5821
   5   2.0000      -9.799118      -266.6476
   6   2.0000      -0.872570       -23.7438
   7   2.0000      -0.794593       -21.6220
   8   2.0000      -0.670033       -18.2325
   9   2.0000      -0.623061       -16.9544
  10   2.0000      -0.567703       -15.4480
  11   2.0000      -0.495777       -13.4908
  12   2.0000      -0.492572       -13.4036
  13   2.0000      -0.460948       -12.5430
  14   2.0000      -0.415603       -11.3091
  15   2.0000      -0.384299       -10.4573
  16   2.0000      -0.359342        -9.7782
  17   2.0000      -0.340447        -9.2640
  18   2.0000      -0.327616        -8.9149
  19   2.0000      -0.311528        -8.4771
  20   2.0000      -0.307640        -8.3713
  21   2.0000      -0.295778        -8.0485
  22   2.0000      -0.199089        -5.4175
  23   2.0000      -0.119590        -3.2542
  24   0.0000       0.021598         0.5877
  25   0.0000       0.050737         1.3806
  26   0.0000       0.059902         1.6300
  27   0.0000       0.075050         2.0422
  28   0.0000       0.092291         2.5114

MULLIKEN ATOMIC CHARGES
-----------------------
   0 C :    0.043310
   1 N :   -0.108637
   2 C :   -0.085573
   3 N :   -0.037480
   4 C :   -0.080001
   5 H :   -0.050818
   6 H :   -0.074890
   7 H :    0.091155
   8 H :    0.090458
   9 H :    0.117539
  10 C :    0.020151
  11 H :    0.001455
  12 H :    0.025291
  13 H :    0.006057
  14 H :    0.010732
  15 H :    0.031250
Sum of atomic charges:   -0.0000000

LOEWDIN ATOMIC CHARGES
----------------------
   0 C :    0.029729
   1 N :   -0.006585
   2 C :    0.007233
   3 N :   -0.002907
   4 C :   -0.264457
   5 H :   -0.008762
   6 H :   -0.011538
   7 H :    0.064055
   8 H :    0.061439
   9 H :    0.083074
  10 C :   -0.066618
  11 H :    0.021586
  12 H :    0.021291
  13 H :    0.019656
  14 H :    0.023839
  15 H :    0.028968

  Mayer bond orders larger than 0.100000
B(  0-C ,  1-N ) :   1.0418 B(  0-C , 10-C ) :   1.1123 B(  0-C , 11-H ) :   0.9456
B(  0-C , 12-H ) :   0.9305 B(  1-N ,  2-C ) :   1.2001 B(  1-N ,  7-H ) :   0.9317
B(  2-C ,  3-N ) :   1.2521 B(  2-C ,  4-C ) :   1.7060 B(  3-N ,  8-H ) :   0.9460
B(  3-N ,  9-H ) :   0.9386 B(  4-C ,  5-H ) :   0.9189 B(  4-C ,  6-H ) :   0.9277
B( 10-C , 13-H ) :   0.9598 B( 10-C , 14-H ) :   0.9569 B( 10-C , 15-H ) :   0.9587

Dispersion correction           -0.012864831
FINAL SINGLE POINT ENERGY      -267.363382301107

DIPOLE MOMENT
-------------
                                X             Y             Z
Electronic contribution:     -1.93764      -0.17282      -3.97700
Nuclear contribution   :      1.39581      -0.78630       3.38596
                        -----------------------------------------
Total Dipole Moment    :     -0.54183      -0.95912      -0.59103
                        -----------------------------------------
Magnitude (a.u.)       :      1.25012
Magnitude (Debye)      :      3.17756

Rotational constants in cm-1:     0.239249     0.075811     0.066261
Rotational constants in MHz :  7172.504830  2272.756282  1986.457543

                             ****ORCA TERMINATED NORMALLY****
TOTAL RUN TIME: 0 days 0 hours 0 minutes 5 seconds 21 msec
