                         Program Version 5.0.0 -  RELEASE  -
|  1> !PBE D3BJ RIJCOSX def2-TZVP def2/J TightSCF xyzfile
|  2>
|  3> *xyzfile 0 1 D3.xyz
|  4>
|  5> %MaxCore 64000
|  6>
|  7> %pal nprocs 18
|  8> end
|  9>
| 10> %scf
| 11>   MaxIter 150
| 12> end
| 13>
| 14>
| 15>                          ****END OF INPUT****

CARTESIAN COORDINATES (ANGSTROEM)
---------------------------------
  C      4.490588    1.155899   -2.469290
  N      4.305394    1.222762   -3.908317
  C      4.906458   -3.102816   -5.954844
  C      3.511771   -2.806215   -6.492283
  H      2.736044   -3.373445   -5.973736
  H      3.444904   -3.040831   -7.555281
  S      3.004618   -1.096206   -6.389259
  C      4.631918    2.246365   -4.670958
  N      4.541686    2.143990   -5.987139
  C      5.084086    3.393584   -4.118545
  H      4.920675    3.570501   -3.135870
  H      5.254652    4.197390   -4.706956
  H      3.824530    0.449113   -4.350926
  H      4.343373    1.249318   -6.416646
  H      4.676712    2.956624   -6.574113
  F      4.128856   -0.329647   -6.953717
  O      1.781285   -1.000779   -7.136399
  C      5.942129    0.939500   -2.036893
  H      3.864305    0.328532   -2.136611
  H      4.076233    2.049994   -1.989010
  C      6.462677   -3.117775   -3.944671
  C      5.024977   -3.025679   -4.437625
  H      4.423321   -3.818693   -3.977648
  H      4.579350   -2.087131   -4.108727
  H      5.201533   -4.100207   -6.296905
  H      5.605922   -2.397822   -6.413368
  C      6.559957   -0.356290   -2.559086
  H      5.967976    0.952567   -0.942444
  H      6.547184    1.788331   -2.368849
  C      6.006283   -1.615917   -1.899301
  H      7.642360   -0.318000   -2.402059
  H      6.414855   -0.403433   -3.642587
  C      6.608718   -2.917014   -2.435655
  H      6.190324   -1.561115   -0.820948
  H      4.919250   -1.651245   -2.016586
  H      7.066975   -2.374258   -4.475514
  H      6.887808   -4.089747   -4.215332
  H      6.135197   -3.755573   -1.915159
  H      7.671142   -2.955503   -2.172291
  O      2.851546   -0.783683   -4.956789

 Total Charge           Charge          ....    0
 Multiplicity           Mult            ....    1
 Number of Electrons    NEL             ....  144
 Basis Dimension        Dim             ....  671

ORBITAL ENERGIES
----------------

  NO   OCC          E(Eh)            E(eV)
   0   2.0000     -88.292621     -2402.5644
   1   2.0000     -24.391852      -663.7360
   2   2.0000     -18.786246      -511.1998
   3   2.0000     -18.783727      -511.1312
   4   2.0000     -13.967667      -380.0796
   5   2.0000     -13.959263      -379.8509
   6   2.0000      -9.956286      -270.9243
   7   2.0000      -9.920927      -269.9621
   8   2.0000      -9.902928      -269.4724
   9   2.0000      -9.894939      -269.2550
  10   2.0000      -9.892341      -269.1843
  11   2.0000      -9.885933      -269.0099
  12   2.0000      -9.879376      -268.8315
  13   2.0000      -9.872142      -268.6346
  14   2.0000      -9.866099      -268.4702
  15   2.0000      -9.860202      -268.3097
  16   2.0000      -9.776677      -266.0369
  17   2.0000      -7.888750      -214.6638
  18   2.0000      -5.913407      -160.9120
  19   2.0000      -5.906513      -160.7244
  20   2.0000      -5.905978      -160.7098
  21   2.0000      -1.288298       -35.0564
  22   2.0000      -1.046240       -28.4697
  23   2.0000      -0.956649       -26.0318
  24   2.0000      -0.870346       -23.6833
  25   2.0000      -0.794797       -21.6275
  26   2.0000      -0.781618       -21.2689
  27   2.0000      -0.742093       -20.1934
  28   2.0000      -0.710759       -19.3407
  29   2.0000      -0.687502       -18.7079
  30   2.0000      -0.661045       -17.9880
  31   2.0000      -0.633095       -17.2274
  32   2.0000      -0.620211       -16.8768
  33   2.0000      -0.594133       -16.1672
  34   2.0000      -0.569253       -15.4902
  35   2.0000      -0.553100       -15.0506
  36   2.0000      -0.542615       -14.7653
  37   2.0000      -0.534434       -14.5427
  38   2.0000      -0.521575       -14.1928
  39   2.0000      -0.504883       -13.7386
  40   2.0000      -0.484997       -13.1974
  41   2.0000      -0.473975       -12.8975
  42   2.0000      -0.465575       -12.6689
  43   2.0000      -0.450770       -12.2661
  44   2.0000      -0.445584       -12.1249
  45   2.0000      -0.431266       -11.7354
  46   2.0000      -0.424561       -11.5529
  47   2.0000      -0.417213       -11.3529
  48   2.0000      -0.408960       -11.1284
  49   2.0000      -0.398990       -10.8571
  50   2.0000      -0.389245       -10.5919
  51   2.0000      -0.386071       -10.5055
  52   2.0000      -0.373667       -10.1680
  53   2.0000      -0.362285        -9.8583
  54   2.0000      -0.350371        -9.5341
  55   2.0000      -0.345347        -9.3974
  56   2.0000      -0.340946        -9.2776
  57   2.0000      -0.332667        -9.0523
  58   2.0000      -0.324101        -8.8192
  59   2.0000      -0.322330        -8.7710
  60   2.0000      -0.314880        -8.5683
  61   2.0000      -0.308179        -8.3860
  62   2.0000      -0.306953        -8.3526
  63   2.0000      -0.301429        -8.2023
  64   2.0000      -0.294544        -8.0149
  65   2.0000      -0.288857        -7.8602
  66   2.0000      -0.287857        -7.8330
  67   2.0000      -0.273960        -7.4548
  68   2.0000      -0.272036        -7.4025
  69   2.0000      -0.263842        -7.1795
  70   2.0000      -0.191871        -5.2211
  71   2.0000      -0.117345        -3.1931
  72   0.0000      -0.042348        -1.1524
  73   0.0000      -0.005010        -0.1363
  74   0.0000       0.003925         0.1068
  75   0.0000       0.015123         0.4115
  76   0.0000       0.016742         0.4556

MULLIKEN ATOMIC CHARGES
-----------------------
   0 C :   -0.194179
   1 N :   -0.237463
   2 C :   -0.189697
   3 C :   -0.202467
   4 H :    0.154917
   5 H :    0.159011
   6 S :    0.719983
   7 C :    0.317837
   8 N :   -0.447693
   9 C :   -0.539927
  10 H :    0.095704
  11 H :    0.065300
  12 H :    0.168561
  13 H :    0.194648
  14 H :    0.227117
  15 F :   -0.090631
  16 O :   -0.327065
  17 C :   -0.062956
  18 H :    0.115158
  19 H :    0.111457
  20 C :   -0.183979
  21 C :   -0.284719
  22 H :    0.089324
  23 H :    0.129700
  24 H :    0.115918
  25 H :    0.112718
  26 C :   -0.221487
  27 H :    0.069993
  28 H :    0.116121
  29 C :   -0.238882
  30 H :    0.089280
  31 H :    0.090922
  32 C :   -0.106694
  33 H :    0.089580
  34 H :    0.106420
  35 H :    0.106521
  36 H :    0.091437
  37 H :    0.085646
  38 H :    0.091923
  39 O :   -0.387357
Sum of atomic charges:   -0.0000000

LOEWDIN ATOMIC CHARGES
----------------------
   0 C :   -0.286102
   1 N :    0.131266
   2 C :   -0.288788
   3 C :   -0.367186
   4 H :    0.156931
   5 H :    0.146917
   6 S :    0.498176
   7 C :   -0.486636
   8 N :   -0.008758
   9 C :   -0.361414
  10 H :    0.097201
  11 H :    0.090535
  12 H :    0.149970
  13 H :    0.133291
  14 H :    0.173821
  15 F :    0.094343
  16 O :   -0.208701
  17 C :   -0.269719
  18 H :    0.132635
  19 H :    0.132600
  20 C :   -0.273467
  21 C :   -0.277388
  22 H :    0.140222
  23 H :    0.141059
  24 H :    0.148641
  25 H :    0.141861
  26 C :   -0.273412
  27 H :    0.136688
  28 H :    0.145525
  29 C :   -0.275379
  30 H :    0.137907
  31 H :    0.134302
  32 C :   -0.269637
  33 H :    0.138382
  34 H :    0.133765
  35 H :    0.138356
  36 H :    0.136793
  37 H :    0.137298
  38 H :    0.139087
  39 O :   -0.240988

  Mayer bond orders larger than 0.100000
B(  0-C ,  1-N ) :   0.9900 B(  0-C , 17-C ) :   0.9886 B(  0-C , 18-H ) :   0.9669
B(  0-C , 19-H ) :   0.9482 B(  1-N ,  7-C ) :   1.1988 B(  1-N , 12-H ) :   0.8757
B(  2-C ,  3-C ) :   0.9793 B(  2-C , 21-C ) :   0.9929 B(  2-C , 24-H ) :   0.9312
B(  2-C , 25-H ) :   0.9581 B(  3-C ,  4-H ) :   0.9281 B(  3-C ,  5-H ) :   0.9351
B(  3-C ,  6-S ) :   0.9084 B(  6-S , 15-F ) :   1.0863 B(  6-S , 16-O ) :   2.0331
B(  6-S , 39-O ) :   1.8022 B(  7-C ,  8-N ) :   1.1592 B(  7-C ,  9-C ) :   1.6251
B(  8-N , 13-H ) :   0.9018 B(  8-N , 14-H ) :   0.9181 B(  9-C , 10-H ) :   0.9842
B(  9-C , 11-H ) :   0.9848 B( 12-H , 39-O ) :   0.1099 B( 17-C , 26-C ) :   1.0094
B( 17-C , 27-H ) :   0.9437 B( 17-C , 28-H ) :   0.9317 B( 20-C , 21-C ) :   1.0079
B( 20-C , 32-C ) :   1.0087 B( 20-C , 35-H ) :   0.9585 B( 20-C , 36-H ) :   0.9448
B( 21-C , 22-H ) :   0.9450 B( 21-C , 23-H ) :   0.9575 B( 26-C , 29-C ) :   1.0051
B( 26-C , 30-H ) :   0.9458 B( 26-C , 31-H ) :   0.9513 B( 29-C , 32-C ) :   1.0015
B( 29-C , 33-H ) :   0.9406 B( 29-C , 34-H ) :   0.9667 B( 32-C , 37-H ) :   0.9502
B( 32-C , 38-H ) :   0.9466

Dispersion correction           -0.048456167
FINAL SINGLE POINT ENERGY     -1190.164540689073

DIPOLE MOMENT
-------------
                                X             Y             Z
Electronic contribution:    -16.96399       2.76234     -21.37081
Nuclear contribution   :     17.35766      -5.13497      20.30937
                        -----------------------------------------
Total Dipole Moment    :      0.39367      -2.37263      -1.06144
                        -----------------------------------------
Magnitude (a.u.)       :      2.62888
Magnitude (Debye)      :      6.68207

Rotational constants in cm-1:     0.014431     0.012329     0.007535
Rotational constants in MHz :   432.628327   369.619539   225.898827

                             ****ORCA TERMINATED NORMALLY****
TOTAL RUN TIME: 0 days 0 hours 0 minutes 39 seconds 947 msec
