                         Program Version 5.0.0 -  RELEASE  -
|  1> !PBE D3BJ RIJCOSX def2-TZVP def2/J TightSCF xyzfile
|  2>
|  3> *xyzfile 0 1 D8.xyz
|  4>
|  5> %MaxCore 64000
|  6>
|  7> %pal nprocs 18
|  8> end
|  9>
| 10> %scf
| 11>   MaxIter 150
| 12> end
| 13>
| 14>
| 15>                          ****END OF INPUT****

CARTESIAN COORDINATES (ANGSTROEM)
---------------------------------
  C      4.490588    1.155899   -2.469290
  N      4.305394    1.222762   -3.908317
  C      4.906458   -3.102816   -5.954844
  C      3.511771   -2.806215   -6.492283
  H      2.736044   -3.373445   -5.973736
  H      3.444904   -3.040831   -7.555281
  S      3.004618   -1.096206   -6.389259
  C      4.631918    2.246365   -4.670958
  C      4.541686    2.143990   -5.987139
  N      5.084086    3.393584   -4.118545
  H      4.920675    3.570501   -3.135870
  H      5.254652    4.197390   -4.706956
  H      3.824530    0.449113   -4.350926
  H      4.343373    1.249318   -6.416646
  H      4.676712    2.956624   -6.574113
  O      4.128856   -0.329647   -6.953717
  O      1.781285   -1.000779   -7.136399
  C      5.942129    0.939500   -2.036893
  H      3.864305    0.328532   -2.136611
  H      4.076233    2.049994   -1.989010
  C      6.462677   -3.117775   -3.944671
  C      5.024977   -3.025679   -4.437625
  H      4.423321   -3.818693   -3.977648
  H      4.579350   -2.087131   -4.108727
  H      5.201533   -4.100207   -6.296905
  H      5.605922   -2.397822   -6.413368
  C      6.559957   -0.356290   -2.559086
  H      5.967976    0.952567   -0.942444
  H      6.547184    1.788331   -2.368849
  C      6.006283   -1.615917   -1.899301
  H      7.642360   -0.318000   -2.402059
  H      6.414855   -0.403433   -3.642587
  C      6.608718   -2.917014   -2.435655
  H      6.190324   -1.561115   -0.820948
  H      4.919250   -1.651245   -2.016586
  H      7.066975   -2.374258   -4.475514
  H      6.887808   -4.089747   -4.215332
  H      6.135197   -3.755573   -1.915159
  H      7.671142   -2.955503   -2.172291
  F      2.851546   -0.783683   -4.956789

 Total Charge           Charge          ....    0
 Multiplicity           Mult            ....    1
 Number of Electrons    NEL             ....  144
 Basis Dimension        Dim             ....  671

ORBITAL ENERGIES
----------------

  NO   OCC          E(Eh)            E(eV)
   0   2.0000     -88.271231     -2401.9823
   1   2.0000     -24.374235      -663.2567
   2   2.0000     -18.767330      -510.6850
   3   2.0000     -18.756320      -510.3854
   4   2.0000     -13.970643      -380.1605
   5   2.0000     -13.967378      -380.0717
   6   2.0000      -9.941961      -270.5345
   7   2.0000      -9.911522      -269.7062
   8   2.0000      -9.908115      -269.6135
   9   2.0000      -9.899453      -269.3778
  10   2.0000      -9.895310      -269.2651
  11   2.0000      -9.886540      -269.0264
  12   2.0000      -9.883044      -268.9313
  13   2.0000      -9.879635      -268.8385
  14   2.0000      -9.874439      -268.6972
  15   2.0000      -9.874079      -268.6874
  16   2.0000      -9.762413      -265.6488
  17   2.0000      -7.867435      -214.0838
  18   2.0000      -5.892073      -160.3315
  19   2.0000      -5.885032      -160.1399
  20   2.0000      -5.884780      -160.1330
  21   2.0000      -1.270341       -34.5677
  22   2.0000      -1.024742       -27.8847
  23   2.0000      -0.933486       -25.4014
  24   2.0000      -0.872112       -23.7314
  25   2.0000      -0.792400       -21.5623
  26   2.0000      -0.770888       -20.9769
  27   2.0000      -0.742499       -20.2044
  28   2.0000      -0.715905       -19.4808
  29   2.0000      -0.683569       -18.6009
  30   2.0000      -0.662522       -18.0281
  31   2.0000      -0.641289       -17.4504
  32   2.0000      -0.610001       -16.5990
  33   2.0000      -0.587773       -15.9941
  34   2.0000      -0.568117       -15.4592
  35   2.0000      -0.547664       -14.9027
  36   2.0000      -0.535427       -14.5697
  37   2.0000      -0.524669       -14.2770
  38   2.0000      -0.512790       -13.9537
  39   2.0000      -0.502396       -13.6709
  40   2.0000      -0.498534       -13.5658
  41   2.0000      -0.464862       -12.6495
  42   2.0000      -0.449425       -12.2295
  43   2.0000      -0.439260       -11.9529
  44   2.0000      -0.432860       -11.7787
  45   2.0000      -0.430411       -11.7121
  46   2.0000      -0.422831       -11.5058
  47   2.0000      -0.416161       -11.3243
  48   2.0000      -0.411881       -11.2079
  49   2.0000      -0.396280       -10.7833
  50   2.0000      -0.394139       -10.7251
  51   2.0000      -0.385706       -10.4956
  52   2.0000      -0.370799       -10.0899
  53   2.0000      -0.356318        -9.6959
  54   2.0000      -0.347611        -9.4590
  55   2.0000      -0.345963        -9.4141
  56   2.0000      -0.338576        -9.2131
  57   2.0000      -0.331549        -9.0219
  58   2.0000      -0.325329        -8.8526
  59   2.0000      -0.320202        -8.7131
  60   2.0000      -0.318920        -8.6782
  61   2.0000      -0.305456        -8.3119
  62   2.0000      -0.302251        -8.2247
  63   2.0000      -0.299392        -8.1469
  64   2.0000      -0.293574        -7.9885
  65   2.0000      -0.282005        -7.6738
  66   2.0000      -0.279288        -7.5998
  67   2.0000      -0.274174        -7.4607
  68   2.0000      -0.273588        -7.4447
  69   2.0000      -0.251607        -6.8466
  70   2.0000      -0.200131        -5.4458
  71   2.0000      -0.113804        -3.0968
  72   0.0000      -0.024293        -0.6610
  73   0.0000       0.001643         0.0447
  74   0.0000       0.007740         0.2106
  75   0.0000       0.018925         0.5150
  76   0.0000       0.019527         0.5314

MULLIKEN ATOMIC CHARGES
-----------------------
   0 C :   -0.258760
   1 N :   -0.239561
   2 C :   -0.147872
   3 C :   -0.222606
   4 H :    0.132621
   5 H :    0.167133
   6 S :    0.712116
   7 C :    0.349947
   8 C :   -0.599937
   9 N :   -0.454568
  10 H :    0.207725
  11 H :    0.221948
  12 H :    0.184785
  13 H :    0.161187
  14 H :    0.073452
  15 O :   -0.364378
  16 O :   -0.339957
  17 C :   -0.035407
  18 H :    0.112372
  19 H :    0.110877
  20 C :   -0.192758
  21 C :   -0.278231
  22 H :    0.092942
  23 H :    0.079689
  24 H :    0.105477
  25 H :    0.134410
  26 C :   -0.245629
  27 H :    0.068357
  28 H :    0.099592
  29 C :   -0.234249
  30 H :    0.092327
  31 H :    0.127553
  32 C :   -0.107130
  33 H :    0.091975
  34 H :    0.096810
  35 H :    0.116262
  36 H :    0.094409
  37 H :    0.086912
  38 H :    0.093593
  39 F :   -0.093429
Sum of atomic charges:    0.0000000

LOEWDIN ATOMIC CHARGES
----------------------
   0 C :   -0.308121
   1 N :    0.125542
   2 C :   -0.285905
   3 C :   -0.372812
   4 H :    0.141031
   5 H :    0.156922
   6 S :    0.494305
   7 C :   -0.483713
   8 C :   -0.338782
   9 N :   -0.013797
  10 H :    0.153973
  11 H :    0.171312
  12 H :    0.164806
  13 H :    0.086143
  14 H :    0.093475
  15 O :   -0.221817
  16 O :   -0.217365
  17 C :   -0.274450
  18 H :    0.132003
  19 H :    0.125396
  20 C :   -0.270649
  21 C :   -0.278746
  22 H :    0.139053
  23 H :    0.131303
  24 H :    0.146553
  25 H :    0.151219
  26 C :   -0.272060
  27 H :    0.135952
  28 H :    0.138889
  29 C :   -0.276004
  30 H :    0.139585
  31 H :    0.142280
  32 C :   -0.269443
  33 H :    0.138363
  34 H :    0.130559
  35 H :    0.141562
  36 H :    0.138725
  37 H :    0.137489
  38 H :    0.139675
  39 F :    0.087547

  Mayer bond orders larger than 0.100000
B(  0-C ,  1-N ) :   0.9946 B(  0-C , 17-C ) :   0.9554 B(  0-C , 18-H ) :   0.9683
B(  0-C , 19-H ) :   0.9660 B(  1-N ,  7-C ) :   1.1968 B(  1-N , 12-H ) :   0.9106
B(  2-C ,  3-C ) :   0.9743 B(  2-C , 21-C ) :   1.0209 B(  2-C , 24-H ) :   0.9270
B(  2-C , 25-H ) :   0.9398 B(  3-C ,  4-H ) :   0.9339 B(  3-C ,  5-H ) :   0.9316
B(  3-C ,  6-S ) :   0.9085 B(  6-S , 15-O ) :   1.8482 B(  6-S , 16-O ) :   2.0268
B(  6-S , 39-F ) :   1.0672 B(  7-C ,  8-C ) :   1.5948 B(  7-C ,  9-N ) :   1.1326
B(  8-C , 13-H ) :   0.9829 B(  8-C , 14-H ) :   0.9837 B(  9-N , 10-H ) :   0.9141
B(  9-N , 11-H ) :   0.9210 B( 17-C , 26-C ) :   0.9975 B( 17-C , 27-H ) :   0.9339
B( 17-C , 28-H ) :   0.9363 B( 20-C , 21-C ) :   1.0195 B( 20-C , 32-C ) :   1.0024
B( 20-C , 35-H ) :   0.9605 B( 20-C , 36-H ) :   0.9450 B( 21-C , 22-H ) :   0.9445
B( 21-C , 23-H ) :   0.9543 B( 26-C , 29-C ) :   1.0023 B( 26-C , 30-H ) :   0.9450
B( 26-C , 31-H ) :   0.9558 B( 29-C , 32-C ) :   1.0033 B( 29-C , 33-H ) :   0.9402
B( 29-C , 34-H ) :   0.9678 B( 32-C , 37-H ) :   0.9511 B( 32-C , 38-H ) :   0.9468

Dispersion correction           -0.048422267
FINAL SINGLE POINT ENERGY     -1190.149465297616

DIPOLE MOMENT
-------------
                                X             Y             Z
Electronic contribution:    -18.48850       3.29993     -16.27117
Nuclear contribution   :     18.77618      -4.78855      17.68602
                        -----------------------------------------
Total Dipole Moment    :      0.28768      -1.48862       1.41486
                        -----------------------------------------
Magnitude (a.u.)       :      2.07378
Magnitude (Debye)      :      5.27113

Rotational constants in cm-1:     0.014368     0.012319     0.007509
Rotational constants in MHz :   430.738566   369.302170   225.105103

                             ****ORCA TERMINATED NORMALLY****
TOTAL RUN TIME: 0 days 0 hours 0 minutes 34 seconds 331 msec
