                         Program Version 5.0.0 -  RELEASE  -
|  1> !PBE D3BJ RIJCOSX def2-TZVP def2/J TightSCF xyzfile
|  2>
|  3> *xyzfile 0 1 D9.xyz
|  4>
|  5> %MaxCore 64000
|  6>
|  7> %pal nprocs 18
|  8> end
|  9>
| 10> %scf
| 11>   MaxIter 150
| 12> end
| 13>
| 14>
| 15>                          ****END OF INPUT****

CARTESIAN COORDINATES (ANGSTROEM)
---------------------------------
  C      4.490588    1.155899   -2.469290
  N      4.305394    1.222762   -3.908317
  C      4.906458   -3.102816   -5.954844
  C      3.511771   -2.806215   -6.492283
  H      2.736044   -3.373445   -5.973736
  H      3.444904   -3.040831   -7.555281
  S      3.004618   -1.096206   -6.389259
  C      4.631918    2.246365   -4.670958
  N      4.541686    2.143990   -5.987139
  C      5.084086    3.393584   -4.118545
  H      4.920675    3.570501   -3.135870
  H      5.254652    4.197390   -4.706956
  H      3.824530    0.449113   -4.350926
  H      4.343373    1.249318   -6.416646
  H      4.676712    2.956624   -6.574113
  O      4.128856   -0.329647   -6.953717
  O      1.781285   -1.000779   -7.136399
  C      5.942129    0.939500   -2.036893
  H      3.864305    0.328532   -2.136611
  H      4.076233    2.049994   -1.989010
  C      6.462677   -3.117775   -3.944671
  C      5.024977   -3.025679   -4.437625
  H      4.423321   -3.818693   -3.977648
  H      4.579350   -2.087131   -4.108727
  H      5.201533   -4.100207   -6.296905
  H      5.605922   -2.397822   -6.413368
  C      6.559957   -0.356290   -2.559086
  H      5.967976    0.952567   -0.942444
  H      6.547184    1.788331   -2.368849
  C      6.006283   -1.615917   -1.899301
  H      7.642360   -0.318000   -2.402059
  H      6.414855   -0.403433   -3.642587
  C      6.608718   -2.917014   -2.435655
  H      6.190324   -1.561115   -0.820948
  H      4.919250   -1.651245   -2.016586
  H      7.066975   -2.374258   -4.475514
  H      6.887808   -4.089747   -4.215332
  H      6.135197   -3.755573   -1.915159
  H      7.671142   -2.955503   -2.172291
  F      2.851546   -0.783683   -4.956789

 Total Charge           Charge          ....    0
 Multiplicity           Mult            ....    1
 Number of Electrons    NEL             ....  144
 Basis Dimension        Dim             ....  671

ORBITAL ENERGIES
----------------

  NO   OCC          E(Eh)            E(eV)
   0   2.0000     -88.291463     -2402.5329
   1   2.0000     -24.389227      -663.6646
   2   2.0000     -18.785325      -511.1747
   3   2.0000     -18.783097      -511.1140
   4   2.0000     -13.973310      -380.2331
   5   2.0000     -13.949515      -379.5856
   6   2.0000      -9.955721      -270.9089
   7   2.0000      -9.917805      -269.8772
   8   2.0000      -9.903781      -269.4956
   9   2.0000      -9.901746      -269.4402
  10   2.0000      -9.901370      -269.4300
  11   2.0000      -9.890019      -269.1211
  12   2.0000      -9.883747      -268.9504
  13   2.0000      -9.877915      -268.7917
  14   2.0000      -9.870226      -268.5825
  15   2.0000      -9.865167      -268.4449
  16   2.0000      -9.775717      -266.0108
  17   2.0000      -7.887623      -214.6331
  18   2.0000      -5.912245      -160.8804
  19   2.0000      -5.905399      -160.6941
  20   2.0000      -5.904856      -160.6793
  21   2.0000      -1.285661       -34.9846
  22   2.0000      -1.045324       -28.4447
  23   2.0000      -0.956506       -26.0279
  24   2.0000      -0.871497       -23.7146
  25   2.0000      -0.790982       -21.5237
  26   2.0000      -0.781227       -21.2583
  27   2.0000      -0.745393       -20.2832
  28   2.0000      -0.714915       -19.4538
  29   2.0000      -0.686649       -18.6847
  30   2.0000      -0.666290       -18.1307
  31   2.0000      -0.634236       -17.2584
  32   2.0000      -0.619834       -16.8665
  33   2.0000      -0.598913       -16.2972
  34   2.0000      -0.576390       -15.6844
  35   2.0000      -0.548175       -14.9166
  36   2.0000      -0.541510       -14.7352
  37   2.0000      -0.536086       -14.5876
  38   2.0000      -0.520798       -14.1716
  39   2.0000      -0.507629       -13.8133
  40   2.0000      -0.481872       -13.1124
  41   2.0000      -0.473412       -12.8822
  42   2.0000      -0.461329       -12.5534
  43   2.0000      -0.455858       -12.4045
  44   2.0000      -0.444065       -12.0836
  45   2.0000      -0.438784       -11.9399
  46   2.0000      -0.424227       -11.5438
  47   2.0000      -0.422440       -11.4952
  48   2.0000      -0.406595       -11.0640
  49   2.0000      -0.403032       -10.9671
  50   2.0000      -0.391442       -10.6517
  51   2.0000      -0.390254       -10.6193
  52   2.0000      -0.371236       -10.1018
  53   2.0000      -0.364355        -9.9146
  54   2.0000      -0.353094        -9.6082
  55   2.0000      -0.348423        -9.4811
  56   2.0000      -0.340022        -9.2525
  57   2.0000      -0.332993        -9.0612
  58   2.0000      -0.325717        -8.8632
  59   2.0000      -0.320432        -8.7194
  60   2.0000      -0.314217        -8.5503
  61   2.0000      -0.312102        -8.4927
  62   2.0000      -0.308382        -8.3915
  63   2.0000      -0.302190        -8.2230
  64   2.0000      -0.300195        -8.1687
  65   2.0000      -0.293016        -7.9734
  66   2.0000      -0.291175        -7.9233
  67   2.0000      -0.279657        -7.6099
  68   2.0000      -0.277456        -7.5500
  69   2.0000      -0.269486        -7.3331
  70   2.0000      -0.190731        -5.1900
  71   2.0000      -0.116444        -3.1686
  72   0.0000      -0.039068        -1.0631
  73   0.0000      -0.007383        -0.2009
  74   0.0000       0.003972         0.1081
  75   0.0000       0.013457         0.3662
  76   0.0000       0.015505         0.4219

MULLIKEN ATOMIC CHARGES
-----------------------
   0 C :   -0.198310
   1 N :   -0.247866
   2 C :   -0.152055
   3 C :   -0.218615
   4 H :    0.141561
   5 H :    0.170838
   6 S :    0.722656
   7 C :    0.313934
   8 N :   -0.442848
   9 C :   -0.541642
  10 H :    0.091789
  11 H :    0.067675
  12 H :    0.158126
  13 H :    0.223691
  14 H :    0.219008
  15 O :   -0.401894
  16 O :   -0.331483
  17 C :   -0.057320
  18 H :    0.104535
  19 H :    0.117282
  20 C :   -0.190866
  21 C :   -0.284299
  22 H :    0.095637
  23 H :    0.082112
  24 H :    0.110527
  25 H :    0.134021
  26 C :   -0.238125
  27 H :    0.071218
  28 H :    0.121285
  29 C :   -0.235764
  30 H :    0.092605
  31 H :    0.110739
  32 C :   -0.107789
  33 H :    0.092901
  34 H :    0.095808
  35 H :    0.115409
  36 H :    0.095105
  37 H :    0.086733
  38 H :    0.094625
  39 F :   -0.080944
Sum of atomic charges:   -0.0000000

LOEWDIN ATOMIC CHARGES
----------------------
   0 C :   -0.289350
   1 N :    0.124384
   2 C :   -0.285370
   3 C :   -0.368773
   4 H :    0.144546
   5 H :    0.158115
   6 S :    0.498085
   7 C :   -0.485934
   8 N :    0.000094
   9 C :   -0.362588
  10 H :    0.095351
  11 H :    0.091813
  12 H :    0.152934
  13 H :    0.132714
  14 H :    0.171622
  15 O :   -0.243315
  16 O :   -0.210200
  17 C :   -0.268870
  18 H :    0.128478
  19 H :    0.133997
  20 C :   -0.270575
  21 C :   -0.278873
  22 H :    0.139865
  23 H :    0.131696
  24 H :    0.148326
  25 H :    0.150605
  26 C :   -0.273278
  27 H :    0.137201
  28 H :    0.147183
  29 C :   -0.276384
  30 H :    0.139369
  31 H :    0.137529
  32 C :   -0.269517
  33 H :    0.139034
  34 H :    0.129833
  35 H :    0.141392
  36 H :    0.138763
  37 H :    0.137226
  38 H :    0.140171
  39 F :    0.092703

  Mayer bond orders larger than 0.100000
B(  0-C ,  1-N ) :   0.9915 B(  0-C , 17-C ) :   0.9857 B(  0-C , 18-H ) :   0.9670
B(  0-C , 19-H ) :   0.9513 B(  1-N ,  7-C ) :   1.1772 B(  1-N , 12-H ) :   0.9104
B(  2-C ,  3-C ) :   0.9743 B(  2-C , 21-C ) :   1.0152 B(  2-C , 24-H ) :   0.9267
B(  2-C , 25-H ) :   0.9426 B(  3-C ,  4-H ) :   0.9331 B(  3-C ,  5-H ) :   0.9307
B(  3-C ,  6-S ) :   0.9066 B(  6-S , 15-O ) :   1.7949 B(  6-S , 16-O ) :   2.0336
B(  6-S , 39-F ) :   1.0844 B(  7-C ,  8-N ) :   1.1978 B(  7-C ,  9-C ) :   1.6169
B(  8-N , 13-H ) :   0.8579 B(  8-N , 14-H ) :   0.9223 B(  9-C , 10-H ) :   0.9805
B(  9-C , 11-H ) :   0.9855 B( 13-H , 15-O ) :   0.1042 B( 17-C , 26-C ) :   1.0061
B( 17-C , 27-H ) :   0.9426 B( 17-C , 28-H ) :   0.9312 B( 20-C , 21-C ) :   1.0196
B( 20-C , 32-C ) :   1.0034 B( 20-C , 35-H ) :   0.9598 B( 20-C , 36-H ) :   0.9450
B( 21-C , 22-H ) :   0.9443 B( 21-C , 23-H ) :   0.9554 B( 26-C , 29-C ) :   1.0000
B( 26-C , 30-H ) :   0.9458 B( 26-C , 31-H ) :   0.9545 B( 29-C , 32-C ) :   1.0010
B( 29-C , 33-H ) :   0.9406 B( 29-C , 34-H ) :   0.9684 B( 32-C , 37-H ) :   0.9513
B( 32-C , 38-H ) :   0.9465

Dispersion correction           -0.048360153
FINAL SINGLE POINT ENERGY     -1190.165651135950

DIPOLE MOMENT
-------------
                                X             Y             Z
Electronic contribution:    -19.01299       1.94762     -17.95229
Nuclear contribution   :     18.85717      -4.60195      17.96505
                        -----------------------------------------
Total Dipole Moment    :     -0.15582      -2.65433       0.01276
                        -----------------------------------------
Magnitude (a.u.)       :      2.65893
Magnitude (Debye)      :      6.75845

Rotational constants in cm-1:     0.014436     0.012382     0.007563
Rotational constants in MHz :   432.785702   371.214592   226.743759

                             ****ORCA TERMINATED NORMALLY****
TOTAL RUN TIME: 0 days 0 hours 0 minutes 36 seconds 465 msec
