                         Program Version 5.0.0 -  RELEASE  -
|  1> !TPSS D3BJ RIJCOSX def2-SVPD def2/J TightSCF
|  2> *xyz -1 1
|  3> C         -2.45380        0.05510        6.94145
|  4> C         -2.07842        1.48042        6.56410
|  5> O         -0.90125        1.85816        6.82810
|  6> O         -2.93658        2.17731        5.96415
|  7> H         -3.47026       -0.13135        6.66407
|  8> H         -2.34265       -0.07527        7.99765
|  9> H         -1.81248       -0.63046        6.42801
| 10> *
| 11> %MaxCore 64000
| 12>
| 13> %pal nprocs 4
| 14> end
| 15>
| 16> %scf
| 17>   MaxIter 150
| 18> end
| 19>
| 20>
| 21>                          ****END OF INPUT****

CARTESIAN COORDINATES (ANGSTROEM)
---------------------------------
  C     -2.453800    0.055100    6.941450
  C     -2.078420    1.480420    6.564100
  O     -0.901250    1.858160    6.828100
  O     -2.936580    2.177310    5.964150
  H     -3.470260   -0.131350    6.664070
  H     -2.342650   -0.075270    7.997650
  H     -1.812480   -0.630460    6.428010

 Total Charge           Charge          ....   -1
 Multiplicity           Mult            ....    1
 Number of Electrons    NEL             ....   32
 Basis Dimension        Dim             ....  110

ORBITAL ENERGIES
----------------

  NO   OCC          E(Eh)            E(eV)
   0   2.0000     -18.635522      -507.0983
   1   2.0000     -18.633075      -507.0317
   2   2.0000      -9.874717      -268.7047
   3   2.0000      -9.814315      -267.0611
   4   2.0000      -0.733956       -19.9720
   5   2.0000      -0.644284       -17.5319
   6   2.0000      -0.483844       -13.1661
   7   2.0000      -0.253255        -6.8914
   8   2.0000      -0.219029        -5.9601
   9   2.0000      -0.204175        -5.5559
  10   2.0000      -0.172549        -4.6953
  11   2.0000      -0.134731        -3.6662
  12   2.0000      -0.121888        -3.3167
  13   2.0000      -0.008975        -0.2442
  14   2.0000       0.001528         0.0416
  15   2.0000       0.020630         0.5614
  16   0.0000       0.163195         4.4408
  17   0.0000       0.203253         5.5308
  18   0.0000       0.204703         5.5703
  19   0.0000       0.231138         6.2896
  20   0.0000       0.248187         6.7535

MULLIKEN ATOMIC CHARGES
-----------------------
   0 C :    0.412392
   1 C :    0.059056
   2 O :   -0.690043
   3 O :   -0.652345
   4 H :   -0.057604
   5 H :   -0.035062
   6 H :   -0.036395
Sum of atomic charges:   -1.0000000

LOEWDIN ATOMIC CHARGES
----------------------
   0 C :    0.147129
   1 C :   -0.330925
   2 O :   -0.345415
   3 O :   -0.337060
   4 H :   -0.049799
   5 H :   -0.042905
   6 H :   -0.041025

  Mayer bond orders larger than 0.100000
B(  0-C ,  1-C ) :   1.2449 B(  0-C ,  4-H ) :   0.8859 B(  0-C ,  5-H ) :   0.8318
B(  0-C ,  6-H ) :   0.8389 B(  1-C ,  2-O ) :   1.4615 B(  1-C ,  3-O ) :   1.4524
B(  1-C ,  4-H ) :   0.2414 B(  1-C ,  5-H ) :   0.1696 B(  1-C ,  6-H ) :   0.1622

Dispersion correction           -0.004507849
FINAL SINGLE POINT ENERGY      -228.405322032604

DIPOLE MOMENT
-------------
                                X             Y             Z
Electronic contribution:      0.88646       3.40975      -0.92592
Nuclear contribution   :     -1.26064      -4.68337       1.27880
                        -----------------------------------------
Total Dipole Moment    :     -0.37418      -1.27362       0.35288
                        -----------------------------------------
Magnitude (a.u.)       :      1.37355
Magnitude (Debye)      :      3.49129

Rotational constants in cm-1:     0.391994     0.333933     0.186475
Rotational constants in MHz : 11751.676689 10011.065304  5590.392476

                             ****ORCA TERMINATED NORMALLY****
TOTAL RUN TIME: 0 days 0 hours 0 minutes 4 seconds 602 msec
