                         Program Version 5.0.0 -  RELEASE  -
|  1> !TPSS D3BJ RIJCOSX def2-SVPD def2/J TightSCF
|  2> *xyz 1 1
|  3> C         -0.69912        3.48945        3.75516
|  4> N         -1.08067        3.79296        5.15686
|  5> H         -0.87449        4.76274        5.42734
|  6> H         -0.68079        3.13476        5.83900
|  7> H         -2.05755        3.53169        5.34620
|  8> H         -1.14600        4.20803        3.10030
|  9> H         -1.04188        2.50941        3.49644
| 10> H          0.36562        3.53208        3.65813
| 11> *
| 12> %MaxCore 64000
| 13>
| 14> %pal nprocs 4
| 15> end
| 16>
| 17> %scf
| 18>   MaxIter 150
| 19> end
| 20>
| 21>
| 22>                          ****END OF INPUT****

CARTESIAN COORDINATES (ANGSTROEM)
---------------------------------
  C     -0.699120    3.489450    3.755160
  N     -1.080670    3.792960    5.156860
  H     -0.874490    4.762740    5.427340
  H     -0.680790    3.134760    5.839000
  H     -2.057550    3.531690    5.346200
  H     -1.146000    4.208030    3.100300
  H     -1.041880    2.509410    3.496440
  H      0.365620    3.532080    3.658130

 Total Charge           Charge          ....    1
 Multiplicity           Mult            ....    1
 Number of Electrons    NEL             ....   18
 Basis Dimension        Dim             ....   88

ORBITAL ENERGIES
----------------

  NO   OCC          E(Eh)            E(eV)
   0   2.0000     -14.467738      -393.6872
   1   2.0000     -10.262103      -279.2460
   2   2.0000      -1.159238       -31.5445
   3   2.0000      -0.887124       -24.1399
   4   2.0000      -0.781241       -21.2586
   5   2.0000      -0.743398       -20.2289
   6   2.0000      -0.678586       -18.4653
   7   2.0000      -0.592774       -16.1302
   8   2.0000      -0.586938       -15.9714
   9   0.0000      -0.219262        -5.9664
  10   0.0000      -0.156933        -4.2704
  11   0.0000      -0.150496        -4.0952
  12   0.0000      -0.143957        -3.9173
  13   0.0000      -0.096751        -2.6327

MULLIKEN ATOMIC CHARGES
-----------------------
   0 C :    0.901996
   1 N :   -0.867104
   2 H :    0.384082
   3 H :    0.355259
   4 H :    0.369417
   5 H :   -0.051107
   6 H :   -0.049065
   7 H :   -0.043478
Sum of atomic charges:    1.0000000

LOEWDIN ATOMIC CHARGES
----------------------
   0 C :    0.297232
   1 N :    0.310070
   2 H :    0.112608
   3 H :    0.106157
   4 H :    0.105823
   5 H :    0.022887
   6 H :    0.022975
   7 H :    0.022247

  Mayer bond orders larger than 0.100000
B(  0-C ,  1-N ) :   0.7631 B(  0-C ,  5-H ) :   0.8996 B(  0-C ,  6-H ) :   0.8965
B(  0-C ,  7-H ) :   0.9033 B(  1-N ,  2-H ) :   0.7335 B(  1-N ,  3-H ) :   0.7954
B(  1-N ,  4-H ) :   0.7711

Dispersion correction           -0.004009477
FINAL SINGLE POINT ENERGY       -96.164630745513

DIPOLE MOMENT
-------------
                                X             Y             Z
Electronic contribution:     -0.24631       0.28565       0.98556
Nuclear contribution   :     -0.00699      -0.18064      -0.14199
                        -----------------------------------------
Total Dipole Moment    :     -0.25330       0.10501       0.84357
                        -----------------------------------------
Magnitude (a.u.)       :      0.88702
Magnitude (Debye)      :      2.25462

Rotational constants in cm-1:     2.906310     0.688008     0.676648
Rotational constants in MHz : 87128.982229 20625.947414 20285.402367

                             ****ORCA TERMINATED NORMALLY****
TOTAL RUN TIME: 0 days 0 hours 0 minutes 3 seconds 256 msec
