                         Program Version 5.0.0 -  RELEASE  -
|  1> !TPSS D3BJ RIJCOSX def2-SVPD def2/J TightSCF
|  2> *xyz 0 1
|  3> C         -2.45380        0.05510        6.94145
|  4> C         -2.07842        1.48042        6.56410
|  5> F         -0.90125        1.85816        6.82810
|  6> O         -2.93658        2.17731        5.96415
|  7> H         -3.47026       -0.13135        6.66407
|  8> H         -2.34265       -0.07527        7.99765
|  9> H         -1.81248       -0.63046        6.42801
| 10> *
| 11> %MaxCore 64000
| 12>
| 13> %pal nprocs 4
| 14> end
| 15>
| 16> %scf
| 17>   MaxIter 150
| 18> end
| 19>
| 20>
| 21>                          ****END OF INPUT****

CARTESIAN COORDINATES (ANGSTROEM)
---------------------------------
  C     -2.453800    0.055100    6.941450
  C     -2.078420    1.480420    6.564100
  F     -0.901250    1.858160    6.828100
  O     -2.936580    2.177310    5.964150
  H     -3.470260   -0.131350    6.664070
  H     -2.342650   -0.075270    7.997650
  H     -1.812480   -0.630460    6.428010

 Total Charge           Charge          ....    0
 Multiplicity           Mult            ....    1
 Number of Electrons    NEL             ....   32
 Basis Dimension        Dim             ....  110

ORBITAL ENERGIES
----------------

  NO   OCC          E(Eh)            E(eV)
   0   2.0000     -24.496864      -666.5936
   1   2.0000     -18.909652      -514.5578
   2   2.0000     -10.176406      -276.9141
   3   2.0000     -10.031215      -272.9632
   4   2.0000      -1.222593       -33.2684
   5   2.0000      -0.956326       -26.0230
   6   2.0000      -0.714153       -19.4331
   7   2.0000      -0.598751       -16.2928
   8   2.0000      -0.494640       -13.4598
   9   2.0000      -0.490462       -13.3462
  10   2.0000      -0.452969       -12.3259
  11   2.0000      -0.406955       -11.0738
  12   2.0000      -0.395644       -10.7660
  13   2.0000      -0.357020        -9.7150
  14   2.0000      -0.321163        -8.7393
  15   2.0000      -0.252110        -6.8603
  16   0.0000      -0.066518        -1.8100
  17   0.0000       0.001512         0.0411
  18   0.0000       0.048464         1.3188
  19   0.0000       0.072809         1.9812
  20   0.0000       0.080330         2.1859

MULLIKEN ATOMIC CHARGES
-----------------------
   0 C :    0.371810
   1 C :    0.454972
   2 F :   -0.373806
   3 O :   -0.485190
   4 H :   -0.034256
   5 H :    0.032156
   6 H :    0.034314
Sum of atomic charges:   -0.0000000

LOEWDIN ATOMIC CHARGES
----------------------
   0 C :    0.221761
   1 C :   -0.035132
   2 F :   -0.038453
   3 O :   -0.134533
   4 H :   -0.004095
   5 H :   -0.005843
   6 H :   -0.003705

  Mayer bond orders larger than 0.100000
B(  0-C ,  1-C ) :   1.2446 B(  0-C ,  4-H ) :   0.8957 B(  0-C ,  5-H ) :   0.8140
B(  0-C ,  6-H ) :   0.8176 B(  1-C ,  2-F ) :   0.7418 B(  1-C ,  3-O ) :   1.7777
B(  1-C ,  4-H ) :   0.2031 B(  1-C ,  5-H ) :   0.1276 B(  1-C ,  6-H ) :   0.1232

Dispersion correction           -0.004153993
FINAL SINGLE POINT ENERGY      -252.943526207804

DIPOLE MOMENT
-------------
                                X             Y             Z
Electronic contribution:      2.82029       4.16356      -0.50863
Nuclear contribution   :     -2.49112      -5.16552       1.01592
                        -----------------------------------------
Total Dipole Moment    :      0.32917      -1.00195       0.50728
                        -----------------------------------------
Magnitude (a.u.)       :      1.17030
Magnitude (Debye)      :      2.97467

Rotational constants in cm-1:     0.367635     0.321184     0.176974
Rotational constants in MHz : 11021.414238  9628.842971  5305.560130

                             ****ORCA TERMINATED NORMALLY****
TOTAL RUN TIME: 0 days 0 hours 0 minutes 4 seconds 441 msec
