                         Program Version 5.0.0 -  RELEASE  -
|  1> !TPSS D3BJ RIJCOSX def2-SVPD def2/J TightSCF
|  2> *xyz 0 1
|  3> C         -0.69912        3.48945        3.75516
|  4> C         -1.08067        3.79296        5.15686
|  5> H         -0.87449        4.76274        5.42734
|  6> H         -0.68079        3.13476        5.83900
|  7> H         -2.05755        3.53169        5.34620
|  8> H         -1.14600        4.20803        3.10030
|  9> H         -1.04188        2.50941        3.49644
| 10> H          0.36562        3.53208        3.65813
| 11> *
| 12> %MaxCore 64000
| 13>
| 14> %pal nprocs 4
| 15> end
| 16>
| 17> %scf
| 18>   MaxIter 150
| 19> end
| 20>
| 21>
| 22>                          ****END OF INPUT****

CARTESIAN COORDINATES (ANGSTROEM)
---------------------------------
  C     -0.699120    3.489450    3.755160
  C     -1.080670    3.792960    5.156860
  H     -0.874490    4.762740    5.427340
  H     -0.680790    3.134760    5.839000
  H     -2.057550    3.531690    5.346200
  H     -1.146000    4.208030    3.100300
  H     -1.041880    2.509410    3.496440
  H      0.365620    3.532080    3.658130

 Total Charge           Charge          ....    0
 Multiplicity           Mult            ....    1
 Number of Electrons    NEL             ....   18
 Basis Dimension        Dim             ....   88

ORBITAL ENERGIES
----------------

  NO   OCC          E(Eh)            E(eV)
   0   2.0000      -9.980728      -271.5894
   1   2.0000      -9.966701      -271.2077
   2   2.0000      -0.706852       -19.2344
   3   2.0000      -0.571319       -15.5464
   4   2.0000      -0.415998       -11.3199
   5   2.0000      -0.395692       -10.7673
   6   2.0000      -0.333913        -9.0862
   7   2.0000      -0.318272        -8.6606
   8   2.0000      -0.296582        -8.0704
   9   0.0000       0.019185         0.5220
  10   0.0000       0.050676         1.3790
  11   0.0000       0.088021         2.3952
  12   0.0000       0.093169         2.5353
  13   0.0000       0.112587         3.0636

MULLIKEN ATOMIC CHARGES
-----------------------
   0 C :    0.228821
   1 C :    0.493083
   2 H :   -0.182224
   3 H :   -0.204245
   4 H :   -0.197011
   5 H :   -0.053607
   6 H :   -0.034146
   7 H :   -0.050671
Sum of atomic charges:    0.0000000

LOEWDIN ATOMIC CHARGES
----------------------
   0 C :    0.090423
   1 C :    0.085721
   2 H :   -0.033025
   3 H :   -0.041293
   4 H :   -0.041214
   5 H :   -0.020338
   6 H :   -0.019063
   7 H :   -0.021210

  Mayer bond orders larger than 0.100000
B(  0-C ,  1-C ) :   1.4324 B(  0-C ,  2-H ) :   0.1561 B(  0-C ,  3-H ) :   0.1421
B(  0-C ,  4-H ) :   0.1472 B(  0-C ,  5-H ) :   0.8687 B(  0-C ,  6-H ) :   0.8751
B(  0-C ,  7-H ) :   0.8716 B(  1-C ,  2-H ) :   0.8315 B(  1-C ,  3-H ) :   0.7562
B(  1-C ,  4-H ) :   0.7581 B(  1-C ,  5-H ) :   0.1509 B(  1-C ,  6-H ) :   0.1520
B(  1-C ,  7-H ) :   0.1473 B(  3-H ,  4-H ) :   0.2949

Dispersion correction           -0.004019246
FINAL SINGLE POINT ENERGY       -79.773527229889

DIPOLE MOMENT
-------------
                                X             Y             Z
Electronic contribution:      0.05438       0.10630      -0.06325
Nuclear contribution   :     -0.07174      -0.12630       0.09844
                        -----------------------------------------
Total Dipole Moment    :     -0.01736      -0.02000       0.03520
                        -----------------------------------------
Magnitude (a.u.)       :      0.04405
Magnitude (Debye)      :      0.11196

Rotational constants in cm-1:     2.906543     0.717882     0.705537
Rotational constants in MHz : 87135.978289 21521.550473 21151.459355

                             ****ORCA TERMINATED NORMALLY****
TOTAL RUN TIME: 0 days 0 hours 0 minutes 3 seconds 470 msec
