                         Program Version 5.0.0 -  RELEASE  -
|  1> !TPSS D3BJ RIJCOSX def2-SVPD def2/J TightSCF
|  2> *xyz 0 1
|  3> C         -2.45380        0.05510        6.94145
|  4> C         -2.07842        1.48042        6.56410
|  5> O         -0.90125        1.85816        6.82810
|  6> F         -2.93658        2.17731        5.96415
|  7> H         -3.47026       -0.13135        6.66407
|  8> H         -2.34265       -0.07527        7.99765
|  9> H         -1.81248       -0.63046        6.42801
| 10> *
| 11> %MaxCore 64000
| 12>
| 13> %pal nprocs 4
| 14> end
| 15>
| 16> %scf
| 17>   MaxIter 150
| 18> end
| 19>
| 20>
| 21>                          ****END OF INPUT****

CARTESIAN COORDINATES (ANGSTROEM)
---------------------------------
  C     -2.453800    0.055100    6.941450
  C     -2.078420    1.480420    6.564100
  O     -0.901250    1.858160    6.828100
  F     -2.936580    2.177310    5.964150
  H     -3.470260   -0.131350    6.664070
  H     -2.342650   -0.075270    7.997650
  H     -1.812480   -0.630460    6.428010

 Total Charge           Charge          ....    0
 Multiplicity           Mult            ....    1
 Number of Electrons    NEL             ....   32
 Basis Dimension        Dim             ....  110

ORBITAL ENERGIES
----------------

  NO   OCC          E(Eh)            E(eV)
   0   2.0000     -24.499564      -666.6670
   1   2.0000     -18.908109      -514.5158
   2   2.0000     -10.177025      -276.9309
   3   2.0000     -10.031421      -272.9689
   4   2.0000      -1.227553       -33.4034
   5   2.0000      -0.952341       -25.9145
   6   2.0000      -0.713954       -19.4277
   7   2.0000      -0.601662       -16.3721
   8   2.0000      -0.496678       -13.5153
   9   2.0000      -0.492618       -13.4048
  10   2.0000      -0.453983       -12.3535
  11   2.0000      -0.408292       -11.1102
  12   2.0000      -0.394971       -10.7477
  13   2.0000      -0.356278        -9.6948
  14   2.0000      -0.315980        -8.5982
  15   2.0000      -0.251757        -6.8506
  16   0.0000      -0.069672        -1.8959
  17   0.0000       0.001245         0.0339
  18   0.0000       0.048401         1.3171
  19   0.0000       0.074162         2.0181
  20   0.0000       0.076971         2.0945

MULLIKEN ATOMIC CHARGES
-----------------------
   0 C :    0.361236
   1 C :    0.442129
   2 O :   -0.512008
   3 F :   -0.346840
   4 H :   -0.015768
   5 H :    0.034096
   6 H :    0.037155
Sum of atomic charges:    0.0000000

LOEWDIN ATOMIC CHARGES
----------------------
   0 C :    0.221974
   1 C :   -0.033598
   2 O :   -0.140033
   3 F :   -0.034009
   4 H :   -0.017745
   5 H :    0.001190
   6 H :    0.002219

  Mayer bond orders larger than 0.100000
B(  0-C ,  1-C ) :   1.2600 B(  0-C ,  4-H ) :   0.8900 B(  0-C ,  5-H ) :   0.8122
B(  0-C ,  6-H ) :   0.8185 B(  1-C ,  2-O ) :   1.7536 B(  1-C ,  3-F ) :   0.7865
B(  1-C ,  4-H ) :   0.1502 B(  1-C ,  5-H ) :   0.1440 B(  1-C ,  6-H ) :   0.1348

Dispersion correction           -0.004154795
FINAL SINGLE POINT ENERGY      -252.940791336598

DIPOLE MOMENT
-------------
                                X             Y             Z
Electronic contribution:     -0.45255       4.67942      -1.89839
Nuclear contribution   :     -0.38801      -5.49530       1.90863
                        -----------------------------------------
Total Dipole Moment    :     -0.84056      -0.81587       0.01025
                        -----------------------------------------
Magnitude (a.u.)       :      1.17145
Magnitude (Debye)      :      2.97760

Rotational constants in cm-1:     0.368583     0.320435     0.176966
Rotational constants in MHz : 11049.843408  9606.394840  5305.299921

                             ****ORCA TERMINATED NORMALLY****
TOTAL RUN TIME: 0 days 0 hours 0 minutes 4 seconds 685 msec
