                         Program Version 5.0.0 -  RELEASE  -
|  1> !B3LYP D3BJ RIJCOSX def2-SVPD def2/J TightSCF
|  2> *xyz -1 1
|  3> C         -2.45380        0.05510        6.94145
|  4> C         -2.07842        1.48042        6.56410
|  5> O         -0.90125        1.85816        6.82810
|  6> O         -2.93658        2.17731        5.96415
|  7> H         -3.47026       -0.13135        6.66407
|  8> H         -2.34265       -0.07527        7.99765
|  9> H         -1.81248       -0.63046        6.42801
| 10> *
| 11> %MaxCore 64000
| 12>
| 13> %pal nprocs 4
| 14> end
| 15>
| 16> %scf
| 17>   MaxIter 150
| 18> end
| 19>
| 20>
| 21>                          ****END OF INPUT****

CARTESIAN COORDINATES (ANGSTROEM)
---------------------------------
  C     -2.453800    0.055100    6.941450
  C     -2.078420    1.480420    6.564100
  O     -0.901250    1.858160    6.828100
  O     -2.936580    2.177310    5.964150
  H     -3.470260   -0.131350    6.664070
  H     -2.342650   -0.075270    7.997650
  H     -1.812480   -0.630460    6.428010

 Total Charge           Charge          ....   -1
 Multiplicity           Mult            ....    1
 Number of Electrons    NEL             ....   32
 Basis Dimension        Dim             ....  110

ORBITAL ENERGIES
----------------

  NO   OCC          E(Eh)            E(eV)
   0   2.0000     -18.875853      -513.6381
   1   2.0000     -18.873168      -513.5650
   2   2.0000     -10.068642      -273.9817
   3   2.0000      -9.997425      -272.0438
   4   2.0000      -0.806000       -21.9324
   5   2.0000      -0.713029       -19.4025
   6   2.0000      -0.539193       -14.6722
   7   2.0000      -0.301913        -8.2155
   8   2.0000      -0.260905        -7.0996
   9   2.0000      -0.246505        -6.7078
  10   2.0000      -0.223408        -6.0792
  11   2.0000      -0.183778        -5.0009
  12   2.0000      -0.164149        -4.4667
  13   2.0000      -0.047649        -1.2966
  14   2.0000      -0.043107        -1.1730
  15   2.0000      -0.025418        -0.6917
  16   0.0000       0.170315         4.6345
  17   0.0000       0.213840         5.8189
  18   0.0000       0.220729         6.0063
  19   0.0000       0.240282         6.5384
  20   0.0000       0.263649         7.1742

MULLIKEN ATOMIC CHARGES
-----------------------
   0 C :    0.699984
   1 C :    0.038911
   2 O :   -0.677525
   3 O :   -0.640416
   4 H :   -0.157753
   5 H :   -0.130285
   6 H :   -0.132915
Sum of atomic charges:   -1.0000000

LOEWDIN ATOMIC CHARGES
----------------------
   0 C :    0.150190
   1 C :   -0.335509
   2 O :   -0.348103
   3 O :   -0.339262
   4 H :   -0.047417
   5 H :   -0.040856
   6 H :   -0.039043

  Mayer bond orders larger than 0.100000
B(  0-C ,  1-C ) :   1.1968 B(  0-C ,  4-H ) :   0.8260 B(  0-C ,  5-H ) :   0.7730
B(  0-C ,  6-H ) :   0.7811 B(  1-C ,  2-O ) :   1.4920 B(  1-C ,  3-O ) :   1.4907
B(  1-C ,  4-H ) :   0.2825 B(  1-C ,  5-H ) :   0.1972 B(  1-C ,  6-H ) :   0.1909

Dispersion correction           -0.006232110
FINAL SINGLE POINT ENERGY      -228.262303729358

DIPOLE MOMENT
-------------
                                X             Y             Z
Electronic contribution:      0.86709       3.34456      -0.90650
Nuclear contribution   :     -1.26064      -4.68337       1.27880
                        -----------------------------------------
Total Dipole Moment    :     -0.39355      -1.33881       0.37230
                        -----------------------------------------
Magnitude (a.u.)       :      1.44427
Magnitude (Debye)      :      3.67104

Rotational constants in cm-1:     0.391994     0.333933     0.186475
Rotational constants in MHz : 11751.676689 10011.065304  5590.392476

                             ****ORCA TERMINATED NORMALLY****
TOTAL RUN TIME: 0 days 0 hours 0 minutes 7 seconds 570 msec
