                         Program Version 5.0.0 -  RELEASE  -
|  1> !B3LYP D3BJ RIJCOSX def2-SVPD def2/J TightSCF
|  2> *xyz 1 1
|  3> C         -0.69912        3.48945        3.75516
|  4> N         -1.08067        3.79296        5.15686
|  5> H         -0.87449        4.76274        5.42734
|  6> H         -0.68079        3.13476        5.83900
|  7> H         -2.05755        3.53169        5.34620
|  8> H         -1.14600        4.20803        3.10030
|  9> H         -1.04188        2.50941        3.49644
| 10> H          0.36562        3.53208        3.65813
| 11> *
| 12> %MaxCore 64000
| 13>
| 14> %pal nprocs 4
| 15> end
| 16>
| 17> %scf
| 18>   MaxIter 150
| 19> end
| 20>
| 21>
| 22>                          ****END OF INPUT****

CARTESIAN COORDINATES (ANGSTROEM)
---------------------------------
  C     -0.699120    3.489450    3.755160
  N     -1.080670    3.792960    5.156860
  H     -0.874490    4.762740    5.427340
  H     -0.680790    3.134760    5.839000
  H     -2.057550    3.531690    5.346200
  H     -1.146000    4.208030    3.100300
  H     -1.041880    2.509410    3.496440
  H      0.365620    3.532080    3.658130

 Total Charge           Charge          ....    1
 Multiplicity           Mult            ....    1
 Number of Electrons    NEL             ....   18
 Basis Dimension        Dim             ....   88

ORBITAL ENERGIES
----------------

  NO   OCC          E(Eh)            E(eV)
   0   2.0000     -14.680263      -399.4703
   1   2.0000     -10.443492      -284.1819
   2   2.0000      -1.219625       -33.1877
   3   2.0000      -0.937985       -25.5239
   4   2.0000      -0.826477       -22.4896
   5   2.0000      -0.788372       -21.4527
   6   2.0000      -0.720335       -19.6013
   7   2.0000      -0.630732       -17.1631
   8   2.0000      -0.624754       -17.0004
   9   0.0000      -0.208883        -5.6840
  10   0.0000      -0.142217        -3.8699
  11   0.0000      -0.138025        -3.7559
  12   0.0000      -0.134107        -3.6492
  13   0.0000      -0.087140        -2.3712

MULLIKEN ATOMIC CHARGES
-----------------------
   0 C :    1.171277
   1 N :   -0.755278
   2 H :    0.338542
   3 H :    0.316563
   4 H :    0.331254
   5 H :   -0.137664
   6 H :   -0.136453
   7 H :   -0.128241
Sum of atomic charges:    1.0000000

LOEWDIN ATOMIC CHARGES
----------------------
   0 C :    0.292362
   1 N :    0.311117
   2 H :    0.112986
   3 H :    0.106992
   4 H :    0.106592
   5 H :    0.023492
   6 H :    0.023575
   7 H :    0.022884

  Mayer bond orders larger than 0.100000
B(  0-C ,  1-N ) :   0.7723 B(  0-C ,  5-H ) :   0.8542 B(  0-C ,  6-H ) :   0.8511
B(  0-C ,  7-H ) :   0.8594 B(  1-N ,  2-H ) :   0.7909 B(  1-N ,  3-H ) :   0.8416
B(  1-N ,  4-H ) :   0.8163 B(  1-N ,  5-H ) :   0.1117 B(  1-N ,  6-H ) :   0.1120
B(  1-N ,  7-H ) :   0.1025

Dispersion correction           -0.005446362
FINAL SINGLE POINT ENERGY       -96.086658861834

DIPOLE MOMENT
-------------
                                X             Y             Z
Electronic contribution:     -0.24829       0.28341       0.99011
Nuclear contribution   :     -0.00699      -0.18064      -0.14199
                        -----------------------------------------
Total Dipole Moment    :     -0.25528       0.10277       0.84812
                        -----------------------------------------
Magnitude (a.u.)       :      0.89165
Magnitude (Debye)      :      2.26639

Rotational constants in cm-1:     2.906310     0.688008     0.676648
Rotational constants in MHz : 87128.982229 20625.947414 20285.402367

                             ****ORCA TERMINATED NORMALLY****
TOTAL RUN TIME: 0 days 0 hours 0 minutes 4 seconds 783 msec
