                         Program Version 5.0.0 -  RELEASE  -
|  1> !B3LYP D3BJ RIJCOSX def2-SVPD def2/J TightSCF
|  2> *xyz 0 1
|  3> C         -2.45380        0.05510        6.94145
|  4> C         -2.07842        1.48042        6.56410
|  5> F         -0.90125        1.85816        6.82810
|  6> O         -2.93658        2.17731        5.96415
|  7> H         -3.47026       -0.13135        6.66407
|  8> H         -2.34265       -0.07527        7.99765
|  9> H         -1.81248       -0.63046        6.42801
| 10> *
| 11> %MaxCore 64000
| 12>
| 13> %pal nprocs 4
| 14> end
| 15>
| 16> %scf
| 17>   MaxIter 150
| 18> end
| 19>
| 20>
| 21>                          ****END OF INPUT****

CARTESIAN COORDINATES (ANGSTROEM)
---------------------------------
  C     -2.453800    0.055100    6.941450
  C     -2.078420    1.480420    6.564100
  F     -0.901250    1.858160    6.828100
  O     -2.936580    2.177310    5.964150
  H     -3.470260   -0.131350    6.664070
  H     -2.342650   -0.075270    7.997650
  H     -1.812480   -0.630460    6.428010

 Total Charge           Charge          ....    0
 Multiplicity           Mult            ....    1
 Number of Electrons    NEL             ....   32
 Basis Dimension        Dim             ....  110

ORBITAL ENERGIES
----------------

  NO   OCC          E(Eh)            E(eV)
   0   2.0000     -24.770232      -674.0323
   1   2.0000     -19.153216      -521.1855
   2   2.0000     -10.373093      -282.2662
   3   2.0000     -10.214261      -277.9442
   4   2.0000      -1.304970       -35.5100
   5   2.0000      -1.028564       -27.9887
   6   2.0000      -0.771396       -20.9908
   7   2.0000      -0.659528       -17.9467
   8   2.0000      -0.552084       -15.0230
   9   2.0000      -0.547459       -14.8971
  10   2.0000      -0.505919       -13.7668
  11   2.0000      -0.449628       -12.2350
  12   2.0000      -0.437674       -11.9097
  13   2.0000      -0.409336       -11.1386
  14   2.0000      -0.362261        -9.8576
  15   2.0000      -0.300273        -8.1708
  16   0.0000      -0.037740        -1.0270
  17   0.0000       0.009430         0.2566
  18   0.0000       0.056136         1.5275
  19   0.0000       0.081637         2.2215
  20   0.0000       0.089549         2.4367

MULLIKEN ATOMIC CHARGES
-----------------------
   0 C :    0.643636
   1 C :    0.402574
   2 F :   -0.371058
   3 O :   -0.436184
   4 H :   -0.131398
   5 H :   -0.054527
   6 H :   -0.053044
Sum of atomic charges:   -0.0000000

LOEWDIN ATOMIC CHARGES
----------------------
   0 C :    0.222539
   1 C :   -0.035226
   2 F :   -0.041965
   3 O :   -0.136009
   4 H :   -0.002528
   5 H :   -0.004437
   6 H :   -0.002374

  Mayer bond orders larger than 0.100000
B(  0-C ,  1-C ) :   1.2261 B(  0-C ,  4-H ) :   0.8457 B(  0-C ,  5-H ) :   0.7707
B(  0-C ,  6-H ) :   0.7764 B(  1-C ,  2-F ) :   0.7651 B(  1-C ,  3-O ) :   1.8462
B(  1-C ,  4-H ) :   0.2446 B(  1-C ,  5-H ) :   0.1532 B(  1-C ,  6-H ) :   0.1490

Dispersion correction           -0.005733324
FINAL SINGLE POINT ENERGY      -252.796190670716

DIPOLE MOMENT
-------------
                                X             Y             Z
Electronic contribution:      2.82116       4.12195      -0.49057
Nuclear contribution   :     -2.49112      -5.16552       1.01592
                        -----------------------------------------
Total Dipole Moment    :      0.33004      -1.04357       0.52534
                        -----------------------------------------
Magnitude (a.u.)       :      1.21406
Magnitude (Debye)      :      3.08590

Rotational constants in cm-1:     0.367635     0.321184     0.176974
Rotational constants in MHz : 11021.414238  9628.842971  5305.560130

                             ****ORCA TERMINATED NORMALLY****
TOTAL RUN TIME: 0 days 0 hours 0 minutes 7 seconds 358 msec
