                         Program Version 5.0.0 -  RELEASE  -
|  1> !B3LYP D3BJ RIJCOSX def2-SVPD def2/J TightSCF
|  2> *xyz 0 1
|  3> C         -0.69912        3.48945        3.75516
|  4> C         -1.08067        3.79296        5.15686
|  5> H         -0.87449        4.76274        5.42734
|  6> H         -0.68079        3.13476        5.83900
|  7> H         -2.05755        3.53169        5.34620
|  8> H         -1.14600        4.20803        3.10030
|  9> H         -1.04188        2.50941        3.49644
| 10> H          0.36562        3.53208        3.65813
| 11> *
| 12> %MaxCore 64000
| 13>
| 14> %pal nprocs 4
| 15> end
| 16>
| 17> %scf
| 18>   MaxIter 150
| 19> end
| 20>
| 21>
| 22>                          ****END OF INPUT****

CARTESIAN COORDINATES (ANGSTROEM)
---------------------------------
  C     -0.699120    3.489450    3.755160
  C     -1.080670    3.792960    5.156860
  H     -0.874490    4.762740    5.427340
  H     -0.680790    3.134760    5.839000
  H     -2.057550    3.531690    5.346200
  H     -1.146000    4.208030    3.100300
  H     -1.041880    2.509410    3.496440
  H      0.365620    3.532080    3.658130

 Total Charge           Charge          ....    0
 Multiplicity           Mult            ....    1
 Number of Electrons    NEL             ....   18
 Basis Dimension        Dim             ....   88

ORBITAL ENERGIES
----------------

  NO   OCC          E(Eh)            E(eV)
   0   2.0000     -10.161917      -276.5198
   1   2.0000     -10.148379      -276.1514
   2   2.0000      -0.762336       -20.7442
   3   2.0000      -0.619483       -16.8570
   4   2.0000      -0.457237       -12.4421
   5   2.0000      -0.436224       -11.8702
   6   2.0000      -0.374172       -10.1817
   7   2.0000      -0.354680        -9.6513
   8   2.0000      -0.332477        -9.0472
   9   0.0000       0.026705         0.7267
  10   0.0000       0.057523         1.5653
  11   0.0000       0.097593         2.6556
  12   0.0000       0.102998         2.8027
  13   0.0000       0.121260         3.2996

MULLIKEN ATOMIC CHARGES
-----------------------
   0 C :    0.511214
   1 C :    0.766209
   2 H :   -0.288929
   3 H :   -0.293323
   4 H :   -0.284406
   5 H :   -0.144260
   6 H :   -0.126581
   7 H :   -0.139925
Sum of atomic charges:   -0.0000000

LOEWDIN ATOMIC CHARGES
----------------------
   0 C :    0.089475
   1 C :    0.083782
   2 H :   -0.032770
   3 H :   -0.040635
   4 H :   -0.040573
   5 H :   -0.019912
   6 H :   -0.018619
   7 H :   -0.020749

  Mayer bond orders larger than 0.100000
B(  0-C ,  1-C ) :   1.4157 B(  0-C ,  2-H ) :   0.1767 B(  0-C ,  3-H ) :   0.1634
B(  0-C ,  4-H ) :   0.1687 B(  0-C ,  5-H ) :   0.8100 B(  0-C ,  6-H ) :   0.8202
B(  0-C ,  7-H ) :   0.8146 B(  1-C ,  2-H ) :   0.7410 B(  1-C ,  3-H ) :   0.6555
B(  1-C ,  4-H ) :   0.6603 B(  1-C ,  5-H ) :   0.1744 B(  1-C ,  6-H ) :   0.1848
B(  1-C ,  7-H ) :   0.1702 B(  3-H ,  4-H ) :   0.3045

Dispersion correction           -0.005491309
FINAL SINGLE POINT ENERGY       -79.698488963341

DIPOLE MOMENT
-------------
                                X             Y             Z
Electronic contribution:      0.05337       0.10374      -0.06174
Nuclear contribution   :     -0.07174      -0.12630       0.09844
                        -----------------------------------------
Total Dipole Moment    :     -0.01837      -0.02256       0.03670
                        -----------------------------------------
Magnitude (a.u.)       :      0.04683
Magnitude (Debye)      :      0.11904

Rotational constants in cm-1:     2.906543     0.717882     0.705537
Rotational constants in MHz : 87135.978289 21521.550473 21151.459355

                             ****ORCA TERMINATED NORMALLY****
TOTAL RUN TIME: 0 days 0 hours 0 minutes 4 seconds 968 msec
