                         Program Version 5.0.0 -  RELEASE  -
|  1> !B3LYP D3BJ RIJCOSX def2-SVPD def2/J TightSCF
|  2> *xyz 0 1
|  3> C         -2.45380        0.05510        6.94145
|  4> C         -2.07842        1.48042        6.56410
|  5> O         -0.90125        1.85816        6.82810
|  6> F         -2.93658        2.17731        5.96415
|  7> H         -3.47026       -0.13135        6.66407
|  8> H         -2.34265       -0.07527        7.99765
|  9> H         -1.81248       -0.63046        6.42801
| 10> *
| 11> %MaxCore 64000
| 12>
| 13> %pal nprocs 4
| 14> end
| 15>
| 16> %scf
| 17>   MaxIter 150
| 18> end
| 19>
| 20>
| 21>                          ****END OF INPUT****

CARTESIAN COORDINATES (ANGSTROEM)
---------------------------------
  C     -2.453800    0.055100    6.941450
  C     -2.078420    1.480420    6.564100
  O     -0.901250    1.858160    6.828100
  F     -2.936580    2.177310    5.964150
  H     -3.470260   -0.131350    6.664070
  H     -2.342650   -0.075270    7.997650
  H     -1.812480   -0.630460    6.428010

 Total Charge           Charge          ....    0
 Multiplicity           Mult            ....    1
 Number of Electrons    NEL             ....   32
 Basis Dimension        Dim             ....  110

ORBITAL ENERGIES
----------------

  NO   OCC          E(Eh)            E(eV)
   0   2.0000     -24.773006      -674.1078
   1   2.0000     -19.151520      -521.1393
   2   2.0000     -10.373777      -282.2848
   3   2.0000     -10.214483      -277.9502
   4   2.0000      -1.310092       -35.6494
   5   2.0000      -1.024329       -27.8734
   6   2.0000      -0.771267       -20.9872
   7   2.0000      -0.662661       -18.0319
   8   2.0000      -0.554372       -15.0852
   9   2.0000      -0.550112       -14.9693
  10   2.0000      -0.506269       -13.7763
  11   2.0000      -0.450816       -12.2673
  12   2.0000      -0.437149       -11.8954
  13   2.0000      -0.408477       -11.1152
  14   2.0000      -0.356875        -9.7111
  15   2.0000      -0.299711        -8.1555
  16   0.0000      -0.041476        -1.1286
  17   0.0000       0.009130         0.2485
  18   0.0000       0.056091         1.5263
  19   0.0000       0.083873         2.2823
  20   0.0000       0.085730         2.3328

MULLIKEN ATOMIC CHARGES
-----------------------
   0 C :    0.629955
   1 C :    0.390064
   2 O :   -0.464974
   3 F :   -0.341326
   4 H :   -0.111956
   5 H :   -0.051949
   6 H :   -0.049815
Sum of atomic charges:    0.0000000

LOEWDIN ATOMIC CHARGES
----------------------
   0 C :    0.222773
   1 C :   -0.033341
   2 O :   -0.141884
   3 F :   -0.037552
   4 H :   -0.015800
   5 H :    0.002414
   6 H :    0.003390

  Mayer bond orders larger than 0.100000
B(  0-C ,  1-C ) :   1.2442 B(  0-C ,  4-H ) :   0.8470 B(  0-C ,  5-H ) :   0.7661
B(  0-C ,  6-H ) :   0.7754 B(  1-C ,  2-O ) :   1.8159 B(  1-C ,  3-F ) :   0.8148
B(  1-C ,  4-H ) :   0.1789 B(  1-C ,  5-H ) :   0.1754 B(  1-C ,  6-H ) :   0.1656

Dispersion correction           -0.005734953
FINAL SINGLE POINT ENERGY      -252.793331523924

DIPOLE MOMENT
-------------
                                X             Y             Z
Electronic contribution:     -0.47917       4.64066      -1.89144
Nuclear contribution   :     -0.38801      -5.49530       1.90863
                        -----------------------------------------
Total Dipole Moment    :     -0.86718      -0.85464       0.01719
                        -----------------------------------------
Magnitude (a.u.)       :      1.21766
Magnitude (Debye)      :      3.09504

Rotational constants in cm-1:     0.368583     0.320435     0.176966
Rotational constants in MHz : 11049.843408  9606.394840  5305.299921

                             ****ORCA TERMINATED NORMALLY****
TOTAL RUN TIME: 0 days 0 hours 0 minutes 6 seconds 810 msec
