                         Program Version 5.0.0 -  RELEASE  -
|  1> !M062X D3Zero RIJCOSX def2-SVPD def2/J TightSCF
|  2> *xyz -1 1
|  3> C          3.84189       -6.95161       -3.63283
|  4> S          4.31812       -6.91593       -5.36869
|  5> O          5.40615       -5.89948       -5.51297
|  6> O          3.11191       -6.44508       -6.04379
|  7> O          4.76340       -8.23942       -5.69863
|  8> H          3.06224       -7.67071       -3.49159
|  9> H          3.49217       -5.98401       -3.33897
| 10> H          4.68822       -7.22131       -3.03626
| 11> *
| 12>
| 13> %MaxCore 64000
| 14>
| 15> %pal nprocs 8
| 16> end
| 17>
| 18> %scf
| 19>   MaxIter 150
| 20> end
| 21>
| 22>
| 23>                          ****END OF INPUT****

CARTESIAN COORDINATES (ANGSTROEM)
---------------------------------
  C      3.841890   -6.951610   -3.632830
  S      4.318120   -6.915930   -5.368690
  O      5.406150   -5.899480   -5.512970
  O      3.111910   -6.445080   -6.043790
  O      4.763400   -8.239420   -5.698630
  H      3.062240   -7.670710   -3.491590
  H      3.492170   -5.984010   -3.338970
  H      4.688220   -7.221310   -3.036260

 Total Charge           Charge          ....   -1
 Multiplicity           Mult            ....    1
 Number of Electrons    NEL             ....   50
 Basis Dimension        Dim             ....  140

ORBITAL ENERGIES
----------------

  NO   OCC          E(Eh)            E(eV)
   0   2.0000     -89.938024     -2447.3381
   1   2.0000     -19.420755      -528.4656
   2   2.0000     -19.410368      -528.1830
   3   2.0000     -19.403931      -528.0078
   4   2.0000     -10.406121      -283.1650
   5   2.0000      -8.261102      -224.7960
   6   2.0000      -6.186387      -168.3401
   7   2.0000      -6.186274      -168.3371
   8   2.0000      -6.185975      -168.3289
   9   2.0000      -1.045428       -28.4475
  10   2.0000      -0.904014       -24.5995
  11   2.0000      -0.872589       -23.7444
  12   2.0000      -0.673477       -18.3263
  13   2.0000      -0.471546       -12.8314
  14   2.0000      -0.381880       -10.3915
  15   2.0000      -0.365994        -9.9592
  16   2.0000      -0.363896        -9.9021
  17   2.0000      -0.323290        -8.7972
  18   2.0000      -0.319878        -8.7043
  19   2.0000      -0.225148        -6.1266
  20   2.0000      -0.221763        -6.0345
  21   2.0000      -0.186651        -5.0790
  22   2.0000      -0.172951        -4.7062
  23   2.0000      -0.168946        -4.5973
  24   2.0000      -0.133543        -3.6339
  25   0.0000       0.163058         4.4370
  26   0.0000       0.185911         5.0589
  27   0.0000       0.186833         5.0840
  28   0.0000       0.193405         5.2628
  29   0.0000       0.224656         6.1132

MULLIKEN ATOMIC CHARGES
-----------------------
   0 C :    0.457661
   1 S :    1.196912
   2 O :   -0.838767
   3 O :   -0.814933
   4 O :   -0.788042
   5 H :   -0.065445
   6 H :   -0.064666
   7 H :   -0.082720
Sum of atomic charges:   -1.0000000

LOEWDIN ATOMIC CHARGES
----------------------
   0 C :    0.058958
   1 S :    0.877423
   2 O :   -0.620941
   3 O :   -0.610164
   4 O :   -0.592446
   5 H :   -0.037565
   6 H :   -0.036283
   7 H :   -0.038983

  Mayer bond orders larger than 0.100000
B(  0-C ,  1-S ) :   0.9227 B(  0-C ,  5-H ) :   0.9243 B(  0-C ,  6-H ) :   0.9295
B(  0-C ,  7-H ) :   0.9332 B(  1-S ,  2-O ) :   1.2606 B(  1-S ,  3-O ) :   1.2934
B(  1-S ,  4-O ) :   1.3098 B(  1-S ,  5-H ) :   0.1108 B(  1-S ,  6-H ) :   0.1217
B(  1-S ,  7-H ) :   0.1160

Dispersion correction           -0.000044196
FINAL SINGLE POINT ENERGY      -663.359166759373

DIPOLE MOMENT
-------------
                                X             Y             Z
Electronic contribution:      1.07662      -0.06777      -4.08602
Nuclear contribution   :     -1.53523      -0.17928       5.57610
                        -----------------------------------------
Total Dipole Moment    :     -0.45861      -0.24705       1.49008
                        -----------------------------------------
Magnitude (a.u.)       :      1.57851
Magnitude (Debye)      :      4.01225

Rotational constants in cm-1:     0.172657     0.156250     0.152500
Rotational constants in MHz :  5176.120042  4684.252187  4571.835124

                             ****ORCA TERMINATED NORMALLY****
TOTAL RUN TIME: 0 days 0 hours 0 minutes 8 seconds 69 msec
