                         Program Version 5.0.0 -  RELEASE  -
|  1> !M062X D3Zero RIJCOSX def2-SVPD def2/J TightSCF
|  2> *xyz 1 1
|  3> C          5.55821       -1.99291       -6.21505
|  4> C          4.18188       -2.58967       -6.29891
|  5> N          3.14587       -1.76843       -6.48675
|  6> N          4.01910       -3.86431       -6.22743
|  7> H          4.76849       -4.59115       -5.99077
|  8> H          3.12241       -4.33339       -6.31462
|  9> H          3.28164       -0.77779       -6.56655
| 10> H          2.21255       -2.13419       -6.56225
| 11> H          5.49055       -0.92791       -6.29315
| 12> H          6.16046       -2.37160       -7.01429
| 13> H          6.00378       -2.25423       -5.27799
| 14> *
| 15>
| 16> %MaxCore 64000
| 17>
| 18> %pal nprocs 8
| 19> end
| 20>
| 21> %scf
| 22>   MaxIter 150
| 23> end
| 24>
| 25>
| 26>                          ****END OF INPUT****

CARTESIAN COORDINATES (ANGSTROEM)
---------------------------------
  C      5.558210   -1.992910   -6.215050
  C      4.181880   -2.589670   -6.298910
  N      3.145870   -1.768430   -6.486750
  N      4.019100   -3.864310   -6.227430
  H      4.768490   -4.591150   -5.990770
  H      3.122410   -4.333390   -6.314620
  H      3.281640   -0.777790   -6.566550
  H      2.212550   -2.134190   -6.562250
  H      5.490550   -0.927910   -6.293150
  H      6.160460   -2.371600   -7.014290
  H      6.003780   -2.254230   -5.277990

 Total Charge           Charge          ....    1
 Multiplicity           Mult            ....    1
 Number of Electrons    NEL             ....   32
 Basis Dimension        Dim             ....  136

ORBITAL ENERGIES
----------------

  NO   OCC          E(Eh)            E(eV)
   0   2.0000     -15.021046      -408.7434
   1   2.0000     -15.010073      -408.4449
   2   2.0000     -10.888840      -296.3004
   3   2.0000     -10.749063      -292.4969
   4   2.0000      -1.311192       -35.6793
   5   2.0000      -1.205314       -32.7983
   6   2.0000      -1.042079       -28.3564
   7   2.0000      -0.928824       -25.2746
   8   2.0000      -0.858203       -23.3529
   9   2.0000      -0.841398       -22.8956
  10   2.0000      -0.772404       -21.0182
  11   2.0000      -0.735567       -20.0158
  12   2.0000      -0.678660       -18.4673
  13   2.0000      -0.666470       -18.1356
  14   2.0000      -0.643998       -17.5241
  15   2.0000      -0.560566       -15.2538
  16   0.0000      -0.173998        -4.7347
  17   0.0000      -0.140979        -3.8362
  18   0.0000      -0.098178        -2.6716
  19   0.0000      -0.096140        -2.6161
  20   0.0000      -0.072466        -1.9719

MULLIKEN ATOMIC CHARGES
-----------------------
   0 C :    0.505752
   1 C :    0.536827
   2 N :   -0.079631
   3 N :   -0.006127
   4 H :    0.084922
   5 H :   -0.138826
   6 H :    0.030040
   7 H :   -0.113903
   8 H :    0.063175
   9 H :    0.051272
  10 H :    0.066500
Sum of atomic charges:    1.0000000

LOEWDIN ATOMIC CHARGES
----------------------
   0 C :    0.237938
   1 C :   -0.062095
   2 N :    0.278012
   3 N :    0.244472
   4 H :    0.115003
   5 H :    0.050893
   6 H :    0.042254
   7 H :    0.041983
   8 H :    0.006342
   9 H :    0.023357
  10 H :    0.021841

  Mayer bond orders larger than 0.100000
B(  0-C ,  1-C ) :   1.2989 B(  0-C ,  8-H ) :   0.7949 B(  0-C ,  9-H ) :   0.7963
B(  0-C , 10-H ) :   0.7764 B(  1-C ,  2-N ) :   0.8842 B(  1-C ,  3-N ) :   1.0985
B(  1-C ,  4-H ) :  -0.1113 B(  1-C ,  5-H ) :  -0.2203 B(  1-C ,  7-H ) :  -0.2533
B(  1-C ,  8-H ) :   0.2316 B(  1-C ,  9-H ) :   0.1594 B(  1-C , 10-H ) :   0.1672
B(  2-N ,  3-N ) :   0.1573 B(  2-N ,  6-H ) :   1.1088 B(  2-N ,  7-H ) :   1.3408
B(  3-N ,  4-H ) :   1.1342 B(  3-N ,  5-H ) :   1.2659 B(  4-H ,  5-H ) :  -0.1666
B(  6-H ,  7-H ) :  -0.1968

Dispersion correction           -0.000092626
FINAL SINGLE POINT ENERGY      -189.486768791294

DIPOLE MOMENT
-------------
                                X             Y             Z
Electronic contribution:     -1.90505      -0.89527      -0.11447
Nuclear contribution   :      1.48163       0.51565       0.12876
                        -----------------------------------------
Total Dipole Moment    :     -0.42342      -0.37961       0.01429
                        -----------------------------------------
Magnitude (a.u.)       :      0.56886
Magnitude (Debye)      :      1.44591

Rotational constants in cm-1:     0.329497     0.300036     0.161709
Rotational constants in MHz :  9878.065920  8994.849253  4847.907140

                             ****ORCA TERMINATED NORMALLY****
TOTAL RUN TIME: 0 days 0 hours 0 minutes 7 seconds 313 msec
