                         Program Version 5.0.0 -  RELEASE  -
|  1> !M062X D3Zero RIJCOSX def2-SVPD def2/J TightSCF
|  2> *xyz 0 1
|  3> C          3.84189       -6.95161       -3.63283
|  4> S          4.31812       -6.91593       -5.36869
|  5> F          5.40615       -5.89948       -5.51297
|  6> O          3.11191       -6.44508       -6.04379
|  7> O          4.76340       -8.23942       -5.69863
|  8> H          3.06224       -7.67071       -3.49159
|  9> H          3.49217       -5.98401       -3.33897
| 10> H          4.68822       -7.22131       -3.03626
| 11> *
| 12>
| 13> %MaxCore 64000
| 14>
| 15> %pal nprocs 8
| 16> end
| 17>
| 18> %scf
| 19>   MaxIter 150
| 20> end
| 21>
| 22>
| 23>                          ****END OF INPUT****

CARTESIAN COORDINATES (ANGSTROEM)
---------------------------------
  C      3.841890   -6.951610   -3.632830
  S      4.318120   -6.915930   -5.368690
  F      5.406150   -5.899480   -5.512970
  O      3.111910   -6.445080   -6.043790
  O      4.763400   -8.239420   -5.698630
  H      3.062240   -7.670710   -3.491590
  H      3.492170   -5.984010   -3.338970
  H      4.688220   -7.221310   -3.036260

 Total Charge           Charge          ....    0
 Multiplicity           Mult            ....    1
 Number of Electrons    NEL             ....   50
 Basis Dimension        Dim             ....  140

ORBITAL ENERGIES
----------------

  NO   OCC          E(Eh)            E(eV)
   0   2.0000     -90.204371     -2454.5857
   1   2.0000     -25.361542      -690.1226
   2   2.0000     -19.662119      -535.0335
   3   2.0000     -19.651259      -534.7379
   4   2.0000     -10.617077      -288.9054
   5   2.0000      -8.528072      -232.0606
   6   2.0000      -6.456216      -175.6826
   7   2.0000      -6.451276      -175.5482
   8   2.0000      -6.450637      -175.5307
   9   2.0000      -1.479644       -40.2632
  10   2.0000      -1.240491       -33.7555
  11   2.0000      -1.139282       -31.0014
  12   2.0000      -0.896199       -24.3868
  13   2.0000      -0.800299       -21.7772
  14   2.0000      -0.682599       -18.5745
  15   2.0000      -0.665091       -18.0980
  16   2.0000      -0.644621       -17.5410
  17   2.0000      -0.562554       -15.3079
  18   2.0000      -0.558932       -15.2093
  19   2.0000      -0.542689       -14.7673
  20   2.0000      -0.522697       -14.2233
  21   2.0000      -0.471135       -12.8202
  22   2.0000      -0.421898       -11.4804
  23   2.0000      -0.407920       -11.1001
  24   2.0000      -0.397961       -10.8291
  25   0.0000       0.006542         0.1780
  26   0.0000       0.040523         1.1027
  27   0.0000       0.045460         1.2370
  28   0.0000       0.046665         1.2698
  29   0.0000       0.058435         1.5901

MULLIKEN ATOMIC CHARGES
-----------------------
   0 C :    0.372963
   1 S :    1.356120
   2 F :   -0.420940
   3 O :   -0.688062
   4 O :   -0.662214
   5 H :    0.014990
   6 H :    0.021970
   7 H :    0.005173
Sum of atomic charges:    0.0000000

LOEWDIN ATOMIC CHARGES
----------------------
   0 C :    0.130674
   1 S :    1.144655
   2 F :   -0.288525
   3 O :   -0.491989
   4 O :   -0.474751
   5 H :    0.002532
   6 H :   -0.009963
   7 H :   -0.012634

  Mayer bond orders larger than 0.100000
B(  0-C ,  1-S ) :   0.9905 B(  0-C ,  5-H ) :   0.9245 B(  0-C ,  6-H ) :   0.9320
B(  0-C ,  7-H ) :   0.9365 B(  1-S ,  2-F ) :   0.5995 B(  1-S ,  3-O ) :   1.5105
B(  1-S ,  4-O ) :   1.5262 B(  1-S ,  5-H ) :   0.1081

Dispersion correction           -0.000049472
FINAL SINGLE POINT ENERGY      -687.858138915767

DIPOLE MOMENT
-------------
                                X             Y             Z
Electronic contribution:      2.89348       1.61058      -4.24739
Nuclear contribution   :     -2.64549      -1.17311       5.81218
                        -----------------------------------------
Total Dipole Moment    :      0.24799       0.43748       1.56479
                        -----------------------------------------
Magnitude (a.u.)       :      1.64361
Magnitude (Debye)      :      4.17772

Rotational constants in cm-1:     0.165958     0.149400     0.146699
Rotational constants in MHz :  4975.281722  4478.884828  4397.931002

                             ****ORCA TERMINATED NORMALLY****
TOTAL RUN TIME: 0 days 0 hours 0 minutes 7 seconds 680 msec
