                         Program Version 5.0.0 -  RELEASE  -
|  1> !M062X D3Zero RIJCOSX def2-SVPD def2/J TightSCF
|  2> *xyz 0 1
|  3> C          5.55821       -1.99291       -6.21505
|  4> C          4.18188       -2.58967       -6.29891
|  5> C          3.14587       -1.76843       -6.48675
|  6> N          4.01910       -3.86431       -6.22743
|  7> H          4.76849       -4.59115       -5.99077
|  8> H          3.12241       -4.33339       -6.31462
|  9> H          3.28164       -0.77779       -6.56655
| 10> H          2.21255       -2.13419       -6.56225
| 11> H          5.49055       -0.92791       -6.29315
| 12> H          6.16046       -2.37160       -7.01429
| 13> H          6.00378       -2.25423       -5.27799
| 14> *
| 15>
| 16> %MaxCore 64000
| 17>
| 18> %pal nprocs 8
| 19> end
| 20>
| 21> %scf
| 22>   MaxIter 150
| 23> end
| 24>
| 25>
| 26>                          ****END OF INPUT****

CARTESIAN COORDINATES (ANGSTROEM)
---------------------------------
  C      5.558210   -1.992910   -6.215050
  C      4.181880   -2.589670   -6.298910
  C      3.145870   -1.768430   -6.486750
  N      4.019100   -3.864310   -6.227430
  H      4.768490   -4.591150   -5.990770
  H      3.122410   -4.333390   -6.314620
  H      3.281640   -0.777790   -6.566550
  H      2.212550   -2.134190   -6.562250
  H      5.490550   -0.927910   -6.293150
  H      6.160460   -2.371600   -7.014290
  H      6.003780   -2.254230   -5.277990

 Total Charge           Charge          ....    0
 Multiplicity           Mult            ....    1
 Number of Electrons    NEL             ....   32
 Basis Dimension        Dim             ....  136

ORBITAL ENERGIES
----------------

  NO   OCC          E(Eh)            E(eV)
   0   2.0000     -14.770473      -401.9250
   1   2.0000     -10.575708      -287.7796
   2   2.0000     -10.540185      -286.8130
   3   2.0000     -10.480461      -285.1878
   4   2.0000      -1.031401       -28.0658
   5   2.0000      -0.842516       -22.9260
   6   2.0000      -0.768615       -20.9151
   7   2.0000      -0.662749       -18.0343
   8   2.0000      -0.585449       -15.9309
   9   2.0000      -0.544305       -14.8113
  10   2.0000      -0.501556       -13.6480
  11   2.0000      -0.462651       -12.5894
  12   2.0000      -0.455193       -12.3864
  13   2.0000      -0.411839       -11.2067
  14   2.0000      -0.406273       -11.0552
  15   2.0000      -0.238862        -6.4998
  16   0.0000       0.036812         1.0017
  17   0.0000       0.069835         1.9003
  18   0.0000       0.076362         2.0779
  19   0.0000       0.084284         2.2935
  20   0.0000       0.107930         2.9369

MULLIKEN ATOMIC CHARGES
-----------------------
   0 C :    0.785099
   1 C :   -0.409111
   2 C :    0.500075
   3 N :    0.090074
   4 H :   -0.063257
   5 H :   -0.204008
   6 H :   -0.234066
   7 H :   -0.478118
   8 H :    0.061059
   9 H :   -0.028027
  10 H :   -0.019720
Sum of atomic charges:   -0.0000000

LOEWDIN ATOMIC CHARGES
----------------------
   0 C :    0.166988
   1 C :   -0.302666
   2 C :    0.178177
   3 N :    0.123836
   4 H :    0.053959
   5 H :    0.009096
   6 H :   -0.095977
   7 H :   -0.093873
   8 H :   -0.014432
   9 H :   -0.011693
  10 H :   -0.013415

  Mayer bond orders larger than 0.100000
B(  0-C ,  1-C ) :   1.3126 B(  0-C ,  8-H ) :   0.7969 B(  0-C ,  9-H ) :   0.6913
B(  0-C , 10-H ) :   0.6797 B(  1-C ,  2-C ) :   1.6543 B(  1-C ,  3-N ) :   1.1333
B(  1-C ,  5-H ) :  -0.1042 B(  1-C ,  7-H ) :   0.1255 B(  1-C ,  8-H ) :   0.2105
B(  1-C ,  9-H ) :   0.2771 B(  1-C , 10-H ) :   0.2765 B(  2-C ,  3-N ) :   0.2316
B(  2-C ,  6-H ) :   1.0184 B(  2-C ,  7-H ) :   0.7710 B(  3-N ,  4-H ) :   1.2144
B(  3-N ,  5-H ) :   1.2221 B(  4-H ,  5-H ) :  -0.1487 B(  6-H ,  7-H ) :  -0.1046

Dispersion correction           -0.000091369
FINAL SINGLE POINT ENERGY      -173.032182374076

DIPOLE MOMENT
-------------
                                X             Y             Z
Electronic contribution:     -0.88987      -1.47345       0.04127
Nuclear contribution   :      1.24351       0.69391       0.08872
                        -----------------------------------------
Total Dipole Moment    :      0.35364      -0.77954       0.12998
                        -----------------------------------------
Magnitude (a.u.)       :      0.86582
Magnitude (Debye)      :      2.20073

Rotational constants in cm-1:     0.350694     0.303314     0.167659
Rotational constants in MHz : 10513.535482  9093.138449  5026.287342

                             ****ORCA TERMINATED NORMALLY****
TOTAL RUN TIME: 0 days 0 hours 0 minutes 7 seconds 812 msec
