                         Program Version 5.0.0 -  RELEASE  -
|  1> !M062X D3Zero RIJCOSX def2-SVPD def2/J TightSCF
|  2> *xyz 0 1
|  3> C          3.84189       -6.95161       -3.63283
|  4> S          4.31812       -6.91593       -5.36869
|  5> O          5.40615       -5.89948       -5.51297
|  6> F          3.11191       -6.44508       -6.04379
|  7> O          4.76340       -8.23942       -5.69863
|  8> H          3.06224       -7.67071       -3.49159
|  9> H          3.49217       -5.98401       -3.33897
| 10> H          4.68822       -7.22131       -3.03626
| 11> *
| 12>
| 13> %MaxCore 64000
| 14>
| 15> %pal nprocs 8
| 16> end
| 17>
| 18> %scf
| 19>   MaxIter 150
| 20> end
| 21>
| 22>
| 23>                          ****END OF INPUT****

CARTESIAN COORDINATES (ANGSTROEM)
---------------------------------
  C      3.841890   -6.951610   -3.632830
  S      4.318120   -6.915930   -5.368690
  O      5.406150   -5.899480   -5.512970
  F      3.111910   -6.445080   -6.043790
  O      4.763400   -8.239420   -5.698630
  H      3.062240   -7.670710   -3.491590
  H      3.492170   -5.984010   -3.338970
  H      4.688220   -7.221310   -3.036260

 Total Charge           Charge          ....    0
 Multiplicity           Mult            ....    1
 Number of Electrons    NEL             ....   50
 Basis Dimension        Dim             ....  140

ORBITAL ENERGIES
----------------

  NO   OCC          E(Eh)            E(eV)
   0   2.0000     -90.205854     -2454.6261
   1   2.0000     -25.375591      -690.5049
   2   2.0000     -19.662049      -535.0316
   3   2.0000     -19.644585      -534.5563
   4   2.0000     -10.617923      -288.9284
   5   2.0000      -8.529701      -232.1050
   6   2.0000      -6.458079      -175.7333
   7   2.0000      -6.452828      -175.5904
   8   2.0000      -6.451957      -175.5667
   9   2.0000      -1.507526       -41.0219
  10   2.0000      -1.233981       -33.5783
  11   2.0000      -1.120015       -30.4772
  12   2.0000      -0.901643       -24.5350
  13   2.0000      -0.813243       -22.1295
  14   2.0000      -0.696459       -18.9516
  15   2.0000      -0.684437       -18.6245
  16   2.0000      -0.647099       -17.6085
  17   2.0000      -0.562698       -15.3118
  18   2.0000      -0.557586       -15.1727
  19   2.0000      -0.541198       -14.7267
  20   2.0000      -0.518165       -14.1000
  21   2.0000      -0.468618       -12.7517
  22   2.0000      -0.418023       -11.3750
  23   2.0000      -0.401650       -10.9294
  24   2.0000      -0.386161       -10.5080
  25   0.0000       0.005907         0.1607
  26   0.0000       0.039495         1.0747
  27   0.0000       0.044762         1.2180
  28   0.0000       0.047527         1.2933
  29   0.0000       0.066627         1.8130

MULLIKEN ATOMIC CHARGES
-----------------------
   0 C :    0.369209
   1 S :    1.347224
   2 O :   -0.702302
   3 F :   -0.404694
   4 O :   -0.652465
   5 H :    0.023929
   6 H :    0.019889
   7 H :   -0.000790
Sum of atomic charges:   -0.0000000

LOEWDIN ATOMIC CHARGES
----------------------
   0 C :    0.130208
   1 S :    1.145190
   2 O :   -0.501260
   3 F :   -0.279789
   4 O :   -0.474891
   5 H :   -0.010686
   6 H :   -0.010321
   7 H :    0.001548

  Mayer bond orders larger than 0.100000
B(  0-C ,  1-S ) :   0.9873 B(  0-C ,  5-H ) :   0.9266 B(  0-C ,  6-H ) :   0.9315
B(  0-C ,  7-H ) :   0.9362 B(  1-S ,  2-O ) :   1.4778 B(  1-S ,  3-F ) :   0.6459
B(  1-S ,  4-O ) :   1.5302 B(  1-S ,  7-H ) :   0.1134

Dispersion correction           -0.000049063
FINAL SINGLE POINT ENERGY      -687.847164501520

DIPOLE MOMENT
-------------
                                X             Y             Z
Electronic contribution:     -0.96800       0.68393      -5.14907
Nuclear contribution   :     -0.35339      -0.62802       6.34251
                        -----------------------------------------
Total Dipole Moment    :     -1.32139       0.05591       1.19344
                        -----------------------------------------
Magnitude (a.u.)       :      1.78143
Magnitude (Debye)      :      4.52803

Rotational constants in cm-1:     0.162638     0.154373     0.145390
Rotational constants in MHz :  4875.774584  4627.990015  4358.691210

                             ****ORCA TERMINATED NORMALLY****
TOTAL RUN TIME: 0 days 0 hours 0 minutes 7 seconds 747 msec
