                         Program Version 5.0.0 -  RELEASE  -
|  1> !M062X D3Zero RIJCOSX def2-SVPD def2/J TightSCF
|  2> *xyz 0 1
|  3> C          5.55821       -1.99291       -6.21505
|  4> C          4.18188       -2.58967       -6.29891
|  5> N          3.14587       -1.76843       -6.48675
|  6> C          4.01910       -3.86431       -6.22743
|  7> H          4.76849       -4.59115       -5.99077
|  8> H          3.12241       -4.33339       -6.31462
|  9> H          3.28164       -0.77779       -6.56655
| 10> H          2.21255       -2.13419       -6.56225
| 11> H          5.49055       -0.92791       -6.29315
| 12> H          6.16046       -2.37160       -7.01429
| 13> H          6.00378       -2.25423       -5.27799
| 14> *
| 15>
| 16> %MaxCore 64000
| 17>
| 18> %pal nprocs 8
| 19> end
| 20>
| 21> %scf
| 22>   MaxIter 150
| 23> end
| 24>
| 25>
| 26>                          ****END OF INPUT****

CARTESIAN COORDINATES (ANGSTROEM)
---------------------------------
  C      5.558210   -1.992910   -6.215050
  C      4.181880   -2.589670   -6.298910
  N      3.145870   -1.768430   -6.486750
  C      4.019100   -3.864310   -6.227430
  H      4.768490   -4.591150   -5.990770
  H      3.122410   -4.333390   -6.314620
  H      3.281640   -0.777790   -6.566550
  H      2.212550   -2.134190   -6.562250
  H      5.490550   -0.927910   -6.293150
  H      6.160460   -2.371600   -7.014290
  H      6.003780   -2.254230   -5.277990

 Total Charge           Charge          ....    0
 Multiplicity           Mult            ....    1
 Number of Electrons    NEL             ....   32
 Basis Dimension        Dim             ....  136

ORBITAL ENERGIES
----------------

  NO   OCC          E(Eh)            E(eV)
   0   2.0000     -14.759736      -401.6328
   1   2.0000     -10.572899      -287.7032
   2   2.0000     -10.541139      -286.8390
   3   2.0000     -10.486003      -285.3386
   4   2.0000      -1.021518       -27.7969
   5   2.0000      -0.846422       -23.0323
   6   2.0000      -0.774895       -21.0860
   7   2.0000      -0.644498       -17.5377
   8   2.0000      -0.599167       -16.3042
   9   2.0000      -0.549223       -14.9451
  10   2.0000      -0.498968       -13.5776
  11   2.0000      -0.460938       -12.5428
  12   2.0000      -0.457508       -12.4494
  13   2.0000      -0.407715       -11.0945
  14   2.0000      -0.401242       -10.9183
  15   2.0000      -0.246556        -6.7091
  16   0.0000       0.039682         1.0798
  17   0.0000       0.072226         1.9654
  18   0.0000       0.076140         2.0719
  19   0.0000       0.082307         2.2397
  20   0.0000       0.109625         2.9831

MULLIKEN ATOMIC CHARGES
-----------------------
   0 C :    0.764014
   1 C :   -0.041438
   2 N :    0.057749
   3 C :   -0.003028
   4 H :   -0.093593
   5 H :   -0.370979
   6 H :   -0.128707
   7 H :   -0.156572
   8 H :   -0.100197
   9 H :    0.014050
  10 H :    0.058701
Sum of atomic charges:    0.0000000

LOEWDIN ATOMIC CHARGES
----------------------
   0 C :    0.169910
   1 C :   -0.290822
   2 N :    0.160300
   3 C :    0.139306
   4 H :   -0.038562
   5 H :   -0.088418
   6 H :   -0.013406
   7 H :    0.001646
   8 H :   -0.027333
   9 H :   -0.006079
  10 H :   -0.006542

  Mayer bond orders larger than 0.100000
B(  0-C ,  1-C ) :   1.0864 B(  0-C ,  8-H ) :   0.7325 B(  0-C ,  9-H ) :   0.7829
B(  0-C , 10-H ) :   0.7319 B(  1-C ,  2-N ) :   0.9331 B(  1-C ,  3-C ) :   1.5247
B(  1-C ,  5-H ) :   0.1102 B(  1-C ,  7-H ) :  -0.1588 B(  1-C ,  8-H ) :   0.2743
B(  1-C ,  9-H ) :   0.1645 B(  1-C , 10-H ) :   0.1874 B(  2-N ,  3-C ) :   0.2649
B(  2-N ,  6-H ) :   1.1532 B(  2-N ,  7-H ) :   1.2857 B(  3-C ,  4-H ) :   0.9848
B(  3-C ,  5-H ) :   0.8596 B(  6-H ,  7-H ) :  -0.1825

Dispersion correction           -0.000091482
FINAL SINGLE POINT ENERGY      -173.040881395799

DIPOLE MOMENT
-------------
                                X             Y             Z
Electronic contribution:     -1.62328       0.41217      -0.20814
Nuclear contribution   :      1.43935       0.22387       0.14687
                        -----------------------------------------
Total Dipole Moment    :     -0.18393       0.63604      -0.06127
                        -----------------------------------------
Magnitude (a.u.)       :      0.66493
Magnitude (Debye)      :      1.69012

Rotational constants in cm-1:     0.350137     0.303099     0.167465
Rotational constants in MHz : 10496.847516  9086.685989  5020.487860

                             ****ORCA TERMINATED NORMALLY****
TOTAL RUN TIME: 0 days 0 hours 0 minutes 7 seconds 664 msec
