                         Program Version 5.0.0 -  RELEASE  -
|  1> !M062X D3Zero RIJCOSX def2-SVPD def2/J TightSCF
|  2> *xyz 0 1
|  3> C          3.84189       -6.95161       -3.63283
|  4> S          4.31812       -6.91593       -5.36869
|  5> O          5.40615       -5.89948       -5.51297
|  6> O          3.11191       -6.44508       -6.04379
|  7> F          4.76340       -8.23942       -5.69863
|  8> H          3.06224       -7.67071       -3.49159
|  9> H          3.49217       -5.98401       -3.33897
| 10> H          4.68822       -7.22131       -3.03626
| 11> *
| 12>
| 13> %MaxCore 64000
| 14>
| 15> %pal nprocs 8
| 16> end
| 17>
| 18> %scf
| 19>   MaxIter 150
| 20> end
| 21>
| 22>
| 23>                          ****END OF INPUT****

CARTESIAN COORDINATES (ANGSTROEM)
---------------------------------
  C      3.841890   -6.951610   -3.632830
  S      4.318120   -6.915930   -5.368690
  O      5.406150   -5.899480   -5.512970
  O      3.111910   -6.445080   -6.043790
  F      4.763400   -8.239420   -5.698630
  H      3.062240   -7.670710   -3.491590
  H      3.492170   -5.984010   -3.338970
  H      4.688220   -7.221310   -3.036260

 Total Charge           Charge          ....    0
 Multiplicity           Mult            ....    1
 Number of Electrons    NEL             ....   50
 Basis Dimension        Dim             ....  140

ORBITAL ENERGIES
----------------

  NO   OCC          E(Eh)            E(eV)
   0   2.0000     -90.206858     -2454.6534
   1   2.0000     -25.390259      -690.9041
   2   2.0000     -19.651754      -534.7514
   3   2.0000     -19.645153      -534.5718
   4   2.0000     -10.618380      -288.9408
   5   2.0000      -8.530842      -232.1360
   6   2.0000      -6.459330      -175.7673
   7   2.0000      -6.453746      -175.6154
   8   2.0000      -6.453017      -175.5955
   9   2.0000      -1.531226       -41.6668
  10   2.0000      -1.221583       -33.2410
  11   2.0000      -1.111775       -30.2529
  12   2.0000      -0.902338       -24.5539
  13   2.0000      -0.825902       -22.4739
  14   2.0000      -0.710213       -19.3259
  15   2.0000      -0.701174       -19.0799
  16   2.0000      -0.647449       -17.6180
  17   2.0000      -0.558206       -15.1895
  18   2.0000      -0.555706       -15.1215
  19   2.0000      -0.543271       -14.7832
  20   2.0000      -0.512899       -13.9567
  21   2.0000      -0.461630       -12.5616
  22   2.0000      -0.407123       -11.0784
  23   2.0000      -0.400784       -10.9059
  24   2.0000      -0.379230       -10.3194
  25   0.0000       0.003863         0.1051
  26   0.0000       0.038649         1.0517
  27   0.0000       0.044216         1.2032
  28   0.0000       0.047492         1.2923
  29   0.0000       0.064573         1.7571

MULLIKEN ATOMIC CHARGES
-----------------------
   0 C :    0.373609
   1 S :    1.339962
   2 O :   -0.695200
   3 O :   -0.670772
   4 F :   -0.391587
   5 H :    0.023849
   6 H :    0.013864
   7 H :    0.006276
Sum of atomic charges:   -0.0000000

LOEWDIN ATOMIC CHARGES
----------------------
   0 C :    0.129962
   1 S :    1.147530
   2 O :   -0.500677
   3 O :   -0.491646
   4 F :   -0.265416
   5 H :   -0.010860
   6 H :    0.003406
   7 H :   -0.012300

  Mayer bond orders larger than 0.100000
B(  0-C ,  1-S ) :   0.9879 B(  0-C ,  5-H ) :   0.9244 B(  0-C ,  6-H ) :   0.9316
B(  0-C ,  7-H ) :   0.9358 B(  1-S ,  2-O ) :   1.4782 B(  1-S ,  3-O ) :   1.5158
B(  1-S ,  4-F ) :   0.6660 B(  1-S ,  6-H ) :   0.1175

Dispersion correction           -0.000049297
FINAL SINGLE POINT ENERGY      -687.834291632859

DIPOLE MOMENT
-------------
                                X             Y             Z
Electronic contribution:      1.79869      -2.30883      -4.56534
Nuclear contribution   :     -2.00334       1.16464       5.99767
                        -----------------------------------------
Total Dipole Moment    :     -0.20465      -1.14419       1.43233
                        -----------------------------------------
Magnitude (a.u.)       :      1.84462
Magnitude (Debye)      :      4.68864

Rotational constants in cm-1:     0.163678     0.154408     0.144413
Rotational constants in MHz :  4906.945035  4629.020676  4329.393152

                             ****ORCA TERMINATED NORMALLY****
TOTAL RUN TIME: 0 days 0 hours 0 minutes 7 seconds 805 msec
