                         Program Version 5.0.0 -  RELEASE  -
|  1> !M062X D3Zero RIJCOSX def2-SVPD def2/J TightSCF xyzfile
|  2>
|  3> *xyzfile 0 1 D4.xyz
|  4>
|  5> %MaxCore 64000
|  6>
|  7> %pal nprocs 4
|  8> end
|  9>
| 10> %scf
| 11>   MaxIter 150
| 12> end
| 13>
| 14>
| 15>                          ****END OF INPUT****

CARTESIAN COORDINATES (ANGSTROEM)
---------------------------------
  C      5.558206   -1.992914   -6.215054
  C      4.930199   -7.375319   -2.649623
  C      3.841892   -6.951611   -3.632829
  H      3.458144   -5.954425   -3.407121
  H      2.988484   -7.643606   -3.567078
  S      4.318115   -6.915930   -5.368692
  C      4.181880   -2.589671   -6.298911
  N      3.145873   -1.768431   -6.486753
  C      4.019102   -3.864307   -6.227427
  H      4.768490   -4.591153   -5.990773
  H      3.122405   -4.333392   -6.314620
  H      3.281635   -0.777786   -6.566549
  H      2.212549   -2.134193   -6.562246
  O      5.406154   -5.899480   -5.512972
  F      3.111910   -6.445079   -6.043792
  C      6.419260   -2.542944   -5.077630
  C      5.872267   -5.002756   -2.427819
  C      6.173994   -6.485522   -2.606315
  H      6.734852   -6.613767   -3.534015
  H      6.821463   -6.831018   -1.793617
  H      4.469612   -7.406168   -1.655876
  H      5.230134   -8.398678   -2.885906
  C      5.896512   -2.169314   -3.694552
  H      7.428880   -2.143665   -5.208078
  H      6.505894   -3.627541   -5.175502
  C      6.807804   -2.623428   -2.551019
  H      4.894708   -2.589732   -3.557501
  H      5.778823   -1.081255   -3.635790
  C      7.111544   -4.122463   -2.520363
  H      7.751615   -2.071393   -2.614406
  H      6.345837   -2.326401   -1.604086
  H      5.362882   -4.828697   -1.471335
  H      5.174429   -4.702577   -3.211298
  H      7.778329   -4.329347   -1.677651
  H      7.673189   -4.402845   -3.417586
  O      4.763396   -8.239424   -5.698629
  H      6.036826   -2.198189   -7.176852
  H      5.467610   -0.907371   -6.127968

 Total Charge           Charge          ....    0
 Multiplicity           Mult            ....    1
 Number of Electrons    NEL             ....  136
 Basis Dimension        Dim             ....  512

ORBITAL ENERGIES
----------------

  NO   OCC          E(Eh)            E(eV)
   0   2.0000     -90.203255     -2454.5553
   1   2.0000     -25.371790      -690.4015
   2   2.0000     -19.659795      -534.9702
   3   2.0000     -19.642644      -534.5035
   4   2.0000     -14.749808      -401.3627
   5   2.0000     -10.616584      -288.8919
   6   2.0000     -10.579731      -287.8891
   7   2.0000     -10.556582      -287.2592
   8   2.0000     -10.550281      -287.0877
   9   2.0000     -10.542313      -286.8709
  10   2.0000     -10.538642      -286.7710
  11   2.0000     -10.538321      -286.7623
  12   2.0000     -10.537495      -286.7398
  13   2.0000     -10.533152      -286.6216
  14   2.0000     -10.532631      -286.6075
  15   2.0000     -10.454998      -284.4950
  16   2.0000      -8.525862      -232.0005
  17   2.0000      -6.454175      -175.6270
  18   2.0000      -6.449333      -175.4953
  19   2.0000      -6.448076      -175.4611
  20   2.0000      -1.503502       -40.9124
  21   2.0000      -1.233179       -33.5565
  22   2.0000      -1.126267       -30.6473
  23   2.0000      -1.010731       -27.5034
  24   2.0000      -0.932636       -25.3783
  25   2.0000      -0.901023       -24.5181
  26   2.0000      -0.872720       -23.7479
  27   2.0000      -0.848643       -23.0928
  28   2.0000      -0.815920       -22.2023
  29   2.0000      -0.794311       -21.6143
  30   2.0000      -0.768096       -20.9010
  31   2.0000      -0.735514       -20.0144
  32   2.0000      -0.702271       -19.1098
  33   2.0000      -0.686035       -18.6680
  34   2.0000      -0.681528       -18.5453
  35   2.0000      -0.659653       -17.9501
  36   2.0000      -0.646590       -17.5946
  37   2.0000      -0.629373       -17.1261
  38   2.0000      -0.614684       -16.7264
  39   2.0000      -0.589004       -16.0276
  40   2.0000      -0.573472       -15.6050
  41   2.0000      -0.568691       -15.4749
  42   2.0000      -0.551970       -15.0199
  43   2.0000      -0.543829       -14.7983
  44   2.0000      -0.531940       -14.4748
  45   2.0000      -0.520851       -14.1731
  46   2.0000      -0.515311       -14.0223
  47   2.0000      -0.495095       -13.4722
  48   2.0000      -0.483456       -13.1555
  49   2.0000      -0.480433       -13.0732
  50   2.0000      -0.476139       -12.9564
  51   2.0000      -0.459314       -12.4986
  52   2.0000      -0.456419       -12.4198
  53   2.0000      -0.439771       -11.9668
  54   2.0000      -0.430747       -11.7212
  55   2.0000      -0.421243       -11.4626
  56   2.0000      -0.414130       -11.2691
  57   2.0000      -0.409172       -11.1341
  58   2.0000      -0.407271       -11.0824
  59   2.0000      -0.398712       -10.8495
  60   2.0000      -0.386944       -10.5293
  61   2.0000      -0.385530       -10.4908
  62   2.0000      -0.381621       -10.3844
  63   2.0000      -0.366274        -9.9668
  64   2.0000      -0.362322        -9.8593
  65   2.0000      -0.358754        -9.7622
  66   2.0000      -0.336773        -9.1641
  67   2.0000      -0.233169        -6.3448
  68   0.0000       0.014361         0.3908
  69   0.0000       0.035627         0.9695
  70   0.0000       0.037309         1.0152
  71   0.0000       0.044718         1.2168
  72   0.0000       0.055559         1.5118

MULLIKEN ATOMIC CHARGES
-----------------------
   0 C :    0.899530
   1 C :    0.505155
   2 C :   -0.066960
   3 H :    0.280962
   4 H :   -0.203912
   5 S :    1.641962
   6 C :    0.216361
   7 N :    0.043960
   8 C :    1.239353
   9 H :   -0.306510
  10 H :   -1.144370
  11 H :   -0.128369
  12 H :   -0.184337
  13 O :   -0.910729
  14 F :   -0.496146
  15 C :    0.348759
  16 C :   -0.022865
  17 C :    0.271989
  18 H :    0.088557
  19 H :   -0.358278
  20 H :    0.076295
  21 H :   -0.005112
  22 C :   -0.069930
  23 H :   -0.145984
  24 H :   -0.635894
  25 C :    0.683015
  26 H :    0.211176
  27 H :   -0.379523
  28 C :    0.140692
  29 H :    0.026077
  30 H :   -0.061812
  31 H :    0.007714
  32 H :   -0.372728
  33 H :   -0.351922
  34 H :    0.098399
  35 O :   -0.825782
  36 H :   -0.151711
  37 H :    0.042920
Sum of atomic charges:    0.0000000

LOEWDIN ATOMIC CHARGES
----------------------
   0 C :    0.017324
   1 C :   -0.015640
   2 C :   -0.042971
   3 H :    0.017788
   4 H :    0.030937
   5 S :    1.199355
   6 C :   -0.238044
   7 N :    0.166567
   8 C :    0.178876
   9 H :   -0.166505
  10 H :   -0.095885
  11 H :   -0.016064
  12 H :   -0.000366
  13 O :   -0.473592
  14 F :   -0.269429
  15 C :   -0.016239
  16 C :   -0.032977
  17 C :   -0.025136
  18 H :    0.017119
  19 H :    0.030911
  20 H :    0.038712
  21 H :    0.032567
  22 C :   -0.032304
  23 H :    0.029127
  24 H :   -0.003857
  25 C :   -0.033289
  26 H :    0.012861
  27 H :    0.022039
  28 C :   -0.030826
  29 H :    0.021861
  30 H :    0.020769
  31 H :    0.037554
  32 H :   -0.017457
  33 H :    0.023757
  34 H :    0.021247
  35 O :   -0.455331
  36 H :    0.033114
  37 H :    0.013427

  Mayer bond orders larger than 0.100000
B(  0-C ,  6-C ) :   0.9214 B(  0-C ,  8-C ) :   0.1407 B(  0-C ,  9-H ) :  -0.1782
B(  0-C , 15-C ) :   1.2100 B(  0-C , 36-H ) :   0.5620 B(  0-C , 37-H ) :   0.6705
B(  1-C ,  2-C ) :   1.2616 B(  1-C ,  4-H ) :   0.1396 B(  1-C , 17-C ) :   1.2182
B(  1-C , 20-H ) :   0.7216 B(  1-C , 21-H ) :   0.6738 B(  2-C ,  3-H ) :   0.7701
B(  2-C ,  4-H ) :   0.9149 B(  2-C ,  5-S ) :   0.9743 B(  2-C , 20-H ) :   0.1862
B(  2-C , 35-O ) :   0.1121 B(  3-H , 17-C ) :  -0.1067 B(  5-S , 13-O ) :   1.2676
B(  5-S , 14-F ) :   0.5615 B(  5-S , 35-O ) :   1.4530 B(  6-C ,  7-N ) :   0.7318
B(  6-C ,  8-C ) :   1.8869 B(  6-C ,  9-H ) :  -0.1695 B(  6-C , 10-H ) :   0.1379
B(  6-C , 12-H ) :  -0.1846 B(  6-C , 36-H ) :   0.2966 B(  6-C , 37-H ) :   0.1225
B(  7-N ,  8-C ) :   0.5256 B(  7-N ,  9-H ) :   0.1162 B(  7-N , 10-H ) :  -0.1538
B(  7-N , 11-H ) :   1.1578 B(  7-N , 12-H ) :   1.3156 B(  8-C ,  9-H ) :   0.3412
B(  8-C , 10-H ) :  -0.4114 B(  8-C , 14-F ) :  -0.1773 B(  8-C , 24-H ) :   0.1647
B(  9-H , 10-H ) :  -0.3729 B(  9-H , 14-F ) :   0.1298 B(  9-H , 24-H ) :   0.2181
B( 10-H , 14-F ) :   0.2385 B( 10-H , 24-H ) :  -0.1710 B( 11-H , 12-H ) :  -0.1770
B( 13-O , 18-H ) :   0.1020 B( 13-O , 24-H ) :   0.2121 B( 13-O , 35-O ) :   0.1208
B( 15-C , 22-C ) :   1.1846 B( 15-C , 23-H ) :   0.7589 B( 15-C , 24-H ) :   0.6659
B( 15-C , 26-H ) :   0.1246 B( 15-C , 27-H ) :   0.1842 B( 15-C , 36-H ) :   0.3087
B( 15-C , 37-H ) :   0.1697 B( 16-C , 17-C ) :   1.1769 B( 16-C , 18-H ) :   0.1235
B( 16-C , 19-H ) :   0.1683 B( 16-C , 28-C ) :   1.2051 B( 16-C , 31-H ) :   0.7617
B( 16-C , 32-H ) :   1.0918 B( 16-C , 33-H ) :   0.2156 B( 16-C , 34-H ) :   0.1469
B( 17-C , 18-H ) :   0.8470 B( 17-C , 19-H ) :   0.9126 B( 17-C , 21-H ) :   0.2531
B( 17-C , 28-C ) :   0.1388 B( 20-H , 21-H ) :  -0.1400 B( 22-C , 23-H ) :   0.1505
B( 22-C , 24-H ) :   0.1924 B( 22-C , 25-C ) :   1.0756 B( 22-C , 26-H ) :   0.8083
B( 22-C , 27-H ) :   1.1436 B( 22-C , 28-C ) :   0.1389 B( 22-C , 29-H ) :   0.1391
B( 22-C , 30-H ) :   0.2484 B( 23-H , 27-H ) :   0.1021 B( 24-H , 34-H ) :   0.1153
B( 25-C , 28-C ) :   1.1183 B( 25-C , 29-H ) :   0.6702 B( 25-C , 30-H ) :   0.7047
B( 26-H , 27-H ) :  -0.1242 B( 26-H , 32-H ) :   0.1801 B( 28-C , 29-H ) :   0.2270
B( 28-C , 31-H ) :   0.1142 B( 28-C , 33-H ) :   1.0193 B( 28-C , 34-H ) :   0.8097
B( 29-H , 30-H ) :  -0.1464 B( 36-H , 37-H ) :  -0.1684

Dispersion correction           -0.002726118
FINAL SINGLE POINT ENERGY     -1134.545908306971

DIPOLE MOMENT
-------------
                                X             Y             Z
Electronic contribution:    -11.71412     -18.13668     -14.57828
Nuclear contribution   :     10.61624      18.49702      15.75668
                        -----------------------------------------
Total Dipole Moment    :     -1.09787       0.36035       1.17839
                        -----------------------------------------
Magnitude (a.u.)       :      1.65039
Magnitude (Debye)      :      4.19496

Rotational constants in cm-1:     0.017796     0.012372     0.008231
Rotational constants in MHz :   533.524905   370.895973   246.762347

                             ****ORCA TERMINATED NORMALLY****
TOTAL RUN TIME: 0 days 0 hours 4 minutes 25 seconds 323 msec
