                         Program Version 5.0.0 -  RELEASE  -
|  1> !CAM-B3LYP RIJCOSX def2-SVPD def2/J TightSCF
|  2> *xyz -1 1
|  3> C         -0.15102        0.25496       -4.09426
|  4> C         -0.72184       -0.99951       -3.43931
|  5> H         -1.08340       -1.69755       -4.20566
|  6> H         -1.58106       -0.72385       -2.82049
|  7> C          0.28725       -1.71177       -2.52740
|  8> H          1.13178       -2.06738       -3.15940
|  9> H         -0.20414       -2.63733       -2.17048
| 10> O          0.71050       -0.92751       -1.48177
| 11> H         -0.89787        0.70479       -4.71455
| 12> H          0.69695       -0.00870       -4.69119
| 13> H          0.14812        0.94842       -3.33628
| 14> *
| 15> %MaxCore 64000
| 16>
| 17> %pal nprocs 4
| 18> end
| 19>
| 20> %scf
| 21>   MaxIter 150
| 22> end
| 23>
| 24>
| 25>                          ****END OF INPUT****

CARTESIAN COORDINATES (ANGSTROEM)
---------------------------------
  C     -0.151020    0.254960   -4.094260
  C     -0.721840   -0.999510   -3.439310
  H     -1.083400   -1.697550   -4.205660
  H     -1.581060   -0.723850   -2.820490
  C      0.287250   -1.711770   -2.527400
  H      1.131780   -2.067380   -3.159400
  H     -0.204140   -2.637330   -2.170480
  O      0.710500   -0.927510   -1.481770
  H     -0.897870    0.704790   -4.714550
  H      0.696950   -0.008700   -4.691190
  H      0.148120    0.948420   -3.336280

 Total Charge           Charge          ....   -1
 Multiplicity           Mult            ....    1
 Number of Electrons    NEL             ....   34
 Basis Dimension        Dim             ....  139

ORBITAL ENERGIES
----------------

  NO   OCC          E(Eh)            E(eV)
   0   2.0000     -18.882051      -513.8067
   1   2.0000     -10.076452      -274.1942
   2   2.0000     -10.074767      -274.1483
   3   2.0000     -10.067086      -273.9393
   4   2.0000      -0.754433       -20.5292
   5   2.0000      -0.659731       -17.9522
   6   2.0000      -0.541525       -14.7356
   7   2.0000      -0.436963       -11.8904
   8   2.0000      -0.345795        -9.4095
   9   2.0000      -0.337434        -9.1820
  10   2.0000      -0.288378        -7.8472
  11   2.0000      -0.254636        -6.9290
  12   2.0000      -0.228162        -6.2086
  13   2.0000      -0.218659        -5.9500
  14   2.0000      -0.177239        -4.8229
  15   2.0000      -0.036637        -0.9970
  16   2.0000      -0.033408        -0.9091
  17   0.0000       0.193521         5.2660
  18   0.0000       0.218716         5.9516
  19   0.0000       0.235336         6.4038
  20   0.0000       0.266294         7.2462
  21   0.0000       0.283212         7.7066

MULLIKEN ATOMIC CHARGES
-----------------------
   0 C :    0.797082
   1 C :   -0.363436
   2 H :   -0.149179
   3 H :   -0.127021
   4 C :    0.520525
   5 H :   -0.169967
   6 H :   -0.226755
   7 O :   -0.883448
   8 H :   -0.166409
   9 H :   -0.138370
  10 H :   -0.093021
Sum of atomic charges:   -1.0000000

LOEWDIN ATOMIC CHARGES
----------------------
   0 C :    0.088127
   1 C :   -0.115805
   2 H :   -0.010520
   3 H :    0.002729
   4 C :   -0.220744
   5 H :   -0.025822
   6 H :   -0.032899
   7 O :   -0.570068
   8 H :   -0.049002
   9 H :   -0.034507
  10 H :   -0.031489

  Mayer bond orders larger than 0.100000
B(  0-C ,  1-C ) :   1.2528 B(  0-C ,  8-H ) :   0.7495 B(  0-C ,  9-H ) :   0.7878
B(  0-C , 10-H ) :   0.8024 B(  1-C ,  2-H ) :   0.9804 B(  1-C ,  3-H ) :   0.9418
B(  1-C ,  4-C ) :   1.0457 B(  1-C ,  5-H ) :   0.1274 B(  1-C ,  6-H ) :   0.1616
B(  1-C ,  8-H ) :   0.2219 B(  1-C ,  9-H ) :   0.2028 B(  1-C , 10-H ) :   0.2209
B(  3-H ,  4-C ) :   0.1445 B(  4-C ,  5-H ) :   0.9328 B(  4-C ,  6-H ) :   0.9225
B(  4-C ,  7-O ) :   1.1829

FINAL SINGLE POINT ENERGY      -193.511468150217

DIPOLE MOMENT
-------------
                                X             Y             Z
Electronic contribution:      1.00478      -0.22620       2.70692
Nuclear contribution   :     -1.95025       0.39850      -4.64834
                        -----------------------------------------
Total Dipole Moment    :     -0.94547       0.17230      -1.94142
                        -----------------------------------------
Magnitude (a.u.)       :      2.16626
Magnitude (Debye)      :      5.50620

Rotational constants in cm-1:     0.507767     0.175836     0.148827
Rotational constants in MHz : 15222.471408  5271.439482  4461.706759

                             ****ORCA TERMINATED NORMALLY****
TOTAL RUN TIME: 0 days 0 hours 0 minutes 14 seconds 459 msec
