                         Program Version 5.0.0 -  RELEASE  -
|  1> !CAM-B3LYP RIJCOSX def2-SVPD def2/J TightSCF
|  2> *xyz 1 1
|  3> C          3.48828        1.60092       -1.52204
|  4> C          4.34297        1.31342       -2.75683
|  5> N          2.81029        0.42878       -1.01420
|  6> H          5.13203        0.60499       -2.48447
|  7> C          3.53590        0.74925       -3.92460
|  8> H          4.84125        2.24214       -3.05408
|  9> H          2.71455        2.33145       -1.76030
| 10> H          4.09099        2.06315       -0.73338
| 11> C          3.29098       -0.41802       -0.12908
| 12> N          2.51754       -1.43202        0.23936
| 13> N          4.53549       -0.28441        0.39580
| 14> H          5.04363        0.57189        0.22290
| 15> H          4.72335       -0.73327        1.28180
| 16> H          1.93479        0.10230       -1.40379
| 17> H          1.67464       -1.50562       -0.31610
| 18> H          2.92850       -2.21850        0.72549
| 19> H          4.18704        0.56990       -4.75451
| 20> H          2.78096        1.45217       -4.20898
| 21> H          3.07436       -0.16949       -3.62832
| 22> *
| 23> %MaxCore 64000
| 24>
| 25> %pal nprocs 4
| 26> end
| 27>
| 28> %scf
| 29>   MaxIter 150
| 30> end
| 31>
| 32>
| 33>                          ****END OF INPUT****

CARTESIAN COORDINATES (ANGSTROEM)
---------------------------------
  C      3.488280    1.600920   -1.522040
  C      4.342970    1.313420   -2.756830
  N      2.810290    0.428780   -1.014200
  H      5.132030    0.604990   -2.484470
  C      3.535900    0.749250   -3.924600
  H      4.841250    2.242140   -3.054080
  H      2.714550    2.331450   -1.760300
  H      4.090990    2.063150   -0.733380
  C      3.290980   -0.418020   -0.129080
  N      2.517540   -1.432020    0.239360
  N      4.535490   -0.284410    0.395800
  H      5.043630    0.571890    0.222900
  H      4.723350   -0.733270    1.281800
  H      1.934790    0.102300   -1.403790
  H      1.674640   -1.505620   -0.316100
  H      2.928500   -2.218500    0.725490
  H      4.187040    0.569900   -4.754510
  H      2.780960    1.452170   -4.208980
  H      3.074360   -0.169490   -3.628320

 Total Charge           Charge          ....    1
 Multiplicity           Mult            ....    1
 Number of Electrons    NEL             ....   56
 Basis Dimension        Dim             ....  236

ORBITAL ENERGIES
----------------

  NO   OCC          E(Eh)            E(eV)
   0   2.0000     -14.632474      -398.1699
   1   2.0000     -14.629284      -398.0830
   2   2.0000     -14.626636      -398.0110
   3   2.0000     -10.597245      -288.3657
   4   2.0000     -10.464382      -284.7503
   5   2.0000     -10.401373      -283.0357
   6   2.0000     -10.373810      -282.2857
   7   2.0000      -1.296861       -35.2894
   8   2.0000      -1.181862       -32.1601
   9   2.0000      -1.167745       -31.7760
  10   2.0000      -1.019851       -27.7516
  11   2.0000      -0.938619       -25.5411
  12   2.0000      -0.898864       -24.4593
  13   2.0000      -0.856399       -23.3038
  14   2.0000      -0.841481       -22.8979
  15   2.0000      -0.803055       -21.8522
  16   2.0000      -0.763343       -20.7716
  17   2.0000      -0.752756       -20.4835
  18   2.0000      -0.726571       -19.7710
  19   2.0000      -0.710699       -19.3391
  20   2.0000      -0.669019       -18.2049
  21   2.0000      -0.652248       -17.7486
  22   2.0000      -0.620350       -16.8806
  23   2.0000      -0.571387       -15.5482
  24   2.0000      -0.556887       -15.1537
  25   2.0000      -0.550446       -14.9784
  26   2.0000      -0.541538       -14.7360
  27   2.0000      -0.512004       -13.9323
  28   0.0000      -0.126934        -3.4540
  29   0.0000      -0.119528        -3.2525
  30   0.0000      -0.090875        -2.4728
  31   0.0000      -0.074154        -2.0178
  32   0.0000      -0.047475        -1.2919

MULLIKEN ATOMIC CHARGES
-----------------------
   0 C :    0.888838
   1 C :   -0.172225
   2 N :   -0.429886
   3 H :   -0.077470
   4 C :    0.920388
   5 H :   -0.155163
   6 H :   -0.310859
   7 H :   -0.158939
   8 C :    1.115782
   9 N :    0.142053
  10 N :    0.151058
  11 H :   -0.074250
  12 H :   -0.165264
  13 H :   -0.206358
  14 H :   -0.019337
  15 H :   -0.101139
  16 H :   -0.133171
  17 H :   -0.036840
  18 H :   -0.177219
Sum of atomic charges:    1.0000000

LOEWDIN ATOMIC CHARGES
----------------------
   0 C :    0.071432
   1 C :   -0.051264
   2 N :    0.049639
   3 H :    0.021821
   4 C :    0.136735
   5 H :    0.038266
   6 H :    0.044751
   7 H :    0.028288
   8 C :   -0.033745
   9 N :    0.267072
  10 N :    0.285879
  11 H :    0.008105
  12 H :    0.034594
  13 H :    0.055899
  14 H :    0.033001
  15 H :    0.045258
  16 H :   -0.002007
  17 H :   -0.006460
  18 H :   -0.027263

  Mayer bond orders larger than 0.100000
B(  0-C ,  1-C ) :   1.0873 B(  0-C ,  2-N ) :   0.9473 B(  0-C ,  3-H ) :   0.1141
B(  0-C ,  6-H ) :   0.7466 B(  0-C ,  7-H ) :   0.8524 B(  0-C , 13-H ) :  -0.2356
B(  1-C ,  3-H ) :   0.8975 B(  1-C ,  4-C ) :   1.2917 B(  1-C ,  5-H ) :   0.9638
B(  1-C ,  6-H ) :   0.1308 B(  1-C , 16-H ) :   0.2354 B(  1-C , 17-H ) :   0.2156
B(  1-C , 18-H ) :   0.2099 B(  2-N ,  6-H ) :   0.2380 B(  2-N ,  7-H ) :   0.1267
B(  2-N ,  8-C ) :   1.0538 B(  2-N ,  9-N ) :   0.2557 B(  2-N , 10-N ) :   0.1974
B(  2-N , 13-H ) :   1.3027 B(  4-C , 16-H ) :   0.7693 B(  4-C , 17-H ) :   0.7404
B(  4-C , 18-H ) :   0.7800 B(  6-H ,  7-H ) :  -0.1224 B(  8-C ,  9-N ) :   0.9784
B(  8-C , 10-N ) :   0.9923 B(  8-C , 11-H ) :  -0.1089 B(  8-C , 12-H ) :  -0.1132
B(  8-C , 13-H ) :  -0.2684 B(  8-C , 14-H ) :  -0.1016 B(  9-N , 10-N ) :   0.1184
B(  9-N , 14-H ) :   1.0737 B(  9-N , 15-H ) :   1.1852 B( 10-N , 11-H ) :   1.0522
B( 10-N , 12-H ) :   1.2325 B( 11-H , 12-H ) :  -0.1632 B( 14-H , 15-H ) :  -0.1441

FINAL SINGLE POINT ENERGY      -323.326212411570

DIPOLE MOMENT
-------------
                                X             Y             Z
Electronic contribution:     -1.34601      -2.88470       6.37530
Nuclear contribution   :      1.03951       2.07316      -5.00363
                        -----------------------------------------
Total Dipole Moment    :     -0.30650      -0.81155       1.37168
                        -----------------------------------------
Magnitude (a.u.)       :      1.62298
Magnitude (Debye)      :      4.12527

Rotational constants in cm-1:     0.160664     0.048801     0.043832
Rotational constants in MHz :  4816.589604  1463.007061  1314.037102

                             ****ORCA TERMINATED NORMALLY****
TOTAL RUN TIME: 0 days 0 hours 0 minutes 50 seconds 328 msec
