                         Program Version 5.0.0 -  RELEASE  -
|  1> !CAM-B3LYP RIJCOSX def2-SVPD def2/J TightSCF xyzfile
|  2>
|  3> *xyzfile 0 1 B.xyz
|  4>
|  5> %MaxCore 64000
|  6>
|  7> %pal nprocs 4
|  8> end
|  9>
| 10> %scf
| 11>   MaxIter 150
| 12> end
| 13>
| 14>
| 15>                          ****END OF INPUT****

CARTESIAN COORDINATES (ANGSTROEM)
---------------------------------
  C      3.488276    1.600919   -1.522040
  C      4.342970    1.313419   -2.756826
  N      2.810285    0.428783   -1.014196
  H      5.132033    0.604994   -2.484466
  C      3.535896    0.749253   -3.924604
  H      4.841247    2.242136   -3.054083
  H      2.991617   -0.132199   -3.574137
  H      4.225505    0.392784   -4.695962
  C      2.564776    1.750890   -4.544523
  H      1.918749    2.171679   -3.769419
  C      1.686235    1.161657   -5.650111
  H      3.132494    2.594775   -4.951604
  C      0.839616   -0.037582   -5.220473
  H      2.323886    0.866395   -6.490796
  H      1.029518    1.951850   -6.029329
  C     -0.151019    0.254955   -4.094256
  H      1.499442   -0.857141   -4.922958
  H      0.290097   -0.410143   -6.091131
  H      0.328265    0.833022   -3.299125
  C     -0.721843   -0.999513   -3.439309
  H     -0.957367    0.884951   -4.485450
  H     -1.083403   -1.697555   -4.205656
  H     -1.581056   -0.723848   -2.820490
  C      0.287250   -1.711771   -2.527405
  H      1.131780   -2.067380   -3.159396
  H     -0.204137   -2.637326   -2.170480
  O      0.710505   -0.927506   -1.481767
  H      2.714548    2.331455   -1.760302
  H      4.090991    2.063151   -0.733382
  C      3.290978   -0.418021   -0.129083
  N      2.517536   -1.432017    0.239360
  N      4.535490   -0.284410    0.395800
  H      5.043627    0.571888    0.222899
  H      4.723346   -0.733273    1.281800
  H      1.934787    0.102305   -1.403788
  H      1.674638   -1.505616   -0.316095
  H      2.928503   -2.218502    0.725494

 Total Charge           Charge          ....    0
 Multiplicity           Mult            ....    1
 Number of Electrons    NEL             ....  112
 Basis Dimension        Dim             ....  467

ORBITAL ENERGIES
----------------

  NO   OCC          E(Eh)            E(eV)
   0   2.0000     -19.081239      -519.2269
   1   2.0000     -14.466071      -393.6418
   2   2.0000     -14.425095      -392.5268
   3   2.0000     -14.419163      -392.3654
   4   2.0000     -10.411587      -283.3137
   5   2.0000     -10.312512      -280.6177
   6   2.0000     -10.267445      -279.3914
   7   2.0000     -10.250281      -278.9243
   8   2.0000     -10.244630      -278.7706
   9   2.0000     -10.237742      -278.5831
  10   2.0000     -10.237151      -278.5670
  11   2.0000     -10.225968      -278.2627
  12   2.0000     -10.215255      -277.9712
  13   2.0000     -10.203228      -277.6439
  14   2.0000      -1.111271       -30.2392
  15   2.0000      -1.004284       -27.3279
  16   2.0000      -0.984771       -26.7970
  17   2.0000      -0.952572       -25.9208
  18   2.0000      -0.889716       -24.2104
  19   2.0000      -0.854800       -23.2603
  20   2.0000      -0.815669       -22.1955
  21   2.0000      -0.777417       -21.1546
  22   2.0000      -0.735365       -20.0103
  23   2.0000      -0.723653       -19.6916
  24   2.0000      -0.685795       -18.6614
  25   2.0000      -0.673485       -18.3264
  26   2.0000      -0.669748       -18.2248
  27   2.0000      -0.637836       -17.3564
  28   2.0000      -0.616140       -16.7660
  29   2.0000      -0.592697       -16.1281
  30   2.0000      -0.582865       -15.8606
  31   2.0000      -0.566752       -15.4221
  32   2.0000      -0.555474       -15.1152
  33   2.0000      -0.543951       -14.8016
  34   2.0000      -0.533139       -14.5074
  35   2.0000      -0.525351       -14.2955
  36   2.0000      -0.505101       -13.7445
  37   2.0000      -0.490716       -13.3531
  38   2.0000      -0.483413       -13.1543
  39   2.0000      -0.462799       -12.5934
  40   2.0000      -0.457994       -12.4626
  41   2.0000      -0.446787       -12.1577
  42   2.0000      -0.426428       -11.6037
  43   2.0000      -0.419784       -11.4229
  44   2.0000      -0.412303       -11.2193
  45   2.0000      -0.399637       -10.8747
  46   2.0000      -0.387035       -10.5317
  47   2.0000      -0.377854       -10.2819
  48   2.0000      -0.376180       -10.2364
  49   2.0000      -0.371462       -10.1080
  50   2.0000      -0.353957        -9.6317
  51   2.0000      -0.350238        -9.5305
  52   2.0000      -0.344444        -9.3728
  53   2.0000      -0.329386        -8.9631
  54   2.0000      -0.242734        -6.6051
  55   2.0000      -0.236422        -6.4334
  56   0.0000       0.021401         0.5824
  57   0.0000       0.045564         1.2398
  58   0.0000       0.054439         1.4814
  59   0.0000       0.067109         1.8261
  60   0.0000       0.067885         1.8472

MULLIKEN ATOMIC CHARGES
-----------------------
   0 C :    1.345061
   1 C :    0.466435
   2 N :    0.286764
   3 H :   -0.140700
   4 C :    0.550941
   5 H :   -0.186619
   6 H :   -0.494073
   7 H :   -0.215155
   8 C :    0.062698
   9 H :   -0.022656
  10 C :    0.799682
  11 H :   -0.303266
  12 C :    0.148130
  13 H :   -0.113596
  14 H :   -0.216244
  15 C :    0.371339
  16 H :   -0.129085
  17 H :   -0.295500
  18 H :   -0.419161
  19 C :    0.435494
  20 H :   -0.187776
  21 H :   -0.130061
  22 H :   -0.109370
  23 C :    0.839742
  24 H :   -0.240736
  25 H :   -0.364627
  26 O :   -0.863391
  27 H :   -0.376733
  28 H :   -0.372991
  29 C :    0.969806
  30 N :    0.507731
  31 N :    0.251681
  32 H :   -0.116347
  33 H :   -0.196436
  34 H :   -1.015074
  35 H :   -0.309456
  36 H :   -0.216451
Sum of atomic charges:    0.0000000

LOEWDIN ATOMIC CHARGES
----------------------
   0 C :    0.073497
   1 C :   -0.016794
   2 N :    0.076861
   3 H :    0.016269
   4 C :   -0.023803
   5 H :    0.025070
   6 H :    0.005511
   7 H :    0.029362
   8 C :   -0.035035
   9 H :   -0.001336
  10 C :   -0.031392
  11 H :    0.023120
  12 C :   -0.034971
  13 H :    0.019726
  14 H :    0.021533
  15 C :   -0.030725
  16 H :   -0.003687
  17 H :    0.022197
  18 H :   -0.004067
  19 C :   -0.031394
  20 H :    0.021065
  21 H :    0.018654
  22 H :    0.020785
  23 C :   -0.067224
  24 H :   -0.002175
  25 H :    0.007724
  26 O :   -0.430867
  27 H :    0.023512
  28 H :    0.010829
  29 C :   -0.037694
  30 N :    0.273187
  31 N :    0.247962
  32 H :   -0.015725
  33 H :    0.009603
  34 H :   -0.091082
  35 H :   -0.105173
  36 H :    0.016676

  Mayer bond orders larger than 0.100000
B(  0-C ,  1-C ) :   1.0374 B(  0-C ,  2-N ) :   0.9202 B(  0-C ,  4-C ) :   0.1286
B(  0-C , 27-H ) :   0.6089 B(  0-C , 28-H ) :   0.7248 B(  0-C , 34-H ) :  -0.6298
B(  1-C ,  3-H ) :   0.7001 B(  1-C ,  4-C ) :   1.1947 B(  1-C ,  5-H ) :   0.8781
B(  1-C ,  6-H ) :   0.1161 B(  1-C , 27-H ) :   0.1154 B(  1-C , 28-H ) :   0.1465
B(  2-N , 27-H ) :   0.2251 B(  2-N , 28-H ) :   0.1061 B(  2-N , 29-C ) :   1.2690
B(  2-N , 31-N ) :   0.1854 B(  2-N , 34-H ) :   1.0160 B(  3-H ,  4-C ) :   0.2298
B(  4-C ,  6-H ) :   0.6708 B(  4-C ,  7-H ) :   0.7144 B(  4-C ,  8-C ) :   1.1564
B(  4-C , 11-H ) :   0.1749 B(  6-H ,  8-C ) :   0.2016 B(  7-H ,  8-C ) :   0.1518
B(  8-C ,  9-H ) :   0.8104 B(  8-C , 10-C ) :   1.1470 B(  8-C , 11-H ) :   0.8623
B(  8-C , 12-C ) :   0.1246 B(  8-C , 13-H ) :   0.1253 B(  8-C , 14-H ) :   0.3435
B( 10-C , 12-C ) :   1.1622 B( 10-C , 13-H ) :   0.6493 B( 10-C , 14-H ) :   0.5998
B( 12-C , 13-H ) :   0.2665 B( 12-C , 14-H ) :   0.1262 B( 12-C , 15-C ) :   1.1692
B( 12-C , 16-H ) :   0.8575 B( 12-C , 17-H ) :   0.7885 B( 12-C , 18-H ) :   0.1776
B( 12-C , 20-H ) :   0.2160 B( 13-H , 14-H ) :  -0.1534 B( 15-C , 16-H ) :   0.1169
B( 15-C , 17-H ) :   0.2767 B( 15-C , 18-H ) :   0.7759 B( 15-C , 19-C ) :   1.1891
B( 15-C , 20-H ) :   0.7259 B( 15-C , 21-H ) :   0.1109 B( 15-C , 22-H ) :   0.2545
B( 18-H , 19-C ) :   0.1843 B( 19-C , 21-H ) :   0.7505 B( 19-C , 22-H ) :   0.6652
B( 19-C , 23-C ) :   1.1118 B( 19-C , 24-H ) :   0.1242 B( 19-C , 25-H ) :   0.1344
B( 21-H , 23-C ) :   0.1721 B( 22-H , 23-C ) :   0.1692 B( 23-C , 24-H ) :   0.8198
B( 23-C , 25-H ) :   0.8685 B( 23-C , 26-O ) :   0.9614 B( 24-H , 26-O ) :   0.1045
B( 26-O , 34-H ) :   0.2287 B( 26-O , 35-H ) :   0.3076 B( 27-H , 28-H ) :  -0.1330
B( 27-H , 34-H ) :   0.1570 B( 29-C , 30-N ) :   0.9646 B( 29-C , 31-N ) :   0.9485
B( 29-C , 32-H ) :  -0.1113 B( 29-C , 34-H ) :  -0.7531 B( 29-C , 35-H ) :  -0.1374
B( 30-N , 31-N ) :   0.1076 B( 30-N , 35-H ) :   1.0090 B( 30-N , 36-H ) :   1.1831
B( 31-N , 32-H ) :   1.0633 B( 31-N , 33-H ) :   1.1804 B( 32-H , 33-H ) :  -0.1556
B( 35-H , 36-H ) :  -0.1621

FINAL SINGLE POINT ENERGY      -633.643761226125

DIPOLE MOMENT
-------------
                                X             Y             Z
Electronic contribution:      3.63231      -2.05315      11.33238
Nuclear contribution   :     -0.74583       2.62534      -9.91488
                        -----------------------------------------
Total Dipole Moment    :      2.88648       0.57219       1.41750
                        -----------------------------------------
Magnitude (a.u.)       :      3.26626
Magnitude (Debye)      :      8.30219

Rotational constants in cm-1:     0.027028     0.016098     0.010898
Rotational constants in MHz :   810.278072   482.590922   326.703462

                             ****ORCA TERMINATED NORMALLY****
TOTAL RUN TIME: 0 days 0 hours 5 minutes 32 seconds 406 msec
