                         Program Version 5.0.0 -  RELEASE  -
|  1> !CAM-B3LYP RIJCOSX def2-SVPD def2/J TightSCF
|  2> *xyz 0 1
|  3> C         -0.15102        0.25496       -4.09426
|  4> C         -0.72184       -0.99951       -3.43931
|  5> H         -1.08340       -1.69755       -4.20566
|  6> H         -1.58106       -0.72385       -2.82049
|  7> C          0.28725       -1.71177       -2.52740
|  8> H          1.13178       -2.06738       -3.15940
|  9> H         -0.20414       -2.63733       -2.17048
| 10> F          0.71050       -0.92751       -1.48177
| 11> H         -0.89787        0.70479       -4.71455
| 12> H          0.69695       -0.00870       -4.69119
| 13> H          0.14812        0.94842       -3.33628
| 14> *
| 15> %MaxCore 64000
| 16>
| 17> %pal nprocs 4
| 18> end
| 19>
| 20> %scf
| 21>   MaxIter 150
| 22> end
| 23>
| 24>
| 25>                          ****END OF INPUT****

CARTESIAN COORDINATES (ANGSTROEM)
---------------------------------
  C     -0.151020    0.254960   -4.094260
  C     -0.721840   -0.999510   -3.439310
  H     -1.083400   -1.697550   -4.205660
  H     -1.581060   -0.723850   -2.820490
  C      0.287250   -1.711770   -2.527400
  H      1.131780   -2.067380   -3.159400
  H     -0.204140   -2.637330   -2.170480
  F      0.710500   -0.927510   -1.481770
  H     -0.897870    0.704790   -4.714550
  H      0.696950   -0.008700   -4.691190
  H      0.148120    0.948420   -3.336280

 Total Charge           Charge          ....    0
 Multiplicity           Mult            ....    1
 Number of Electrons    NEL             ....   34
 Basis Dimension        Dim             ....  139

ORBITAL ENERGIES
----------------

  NO   OCC          E(Eh)            E(eV)
   0   2.0000     -24.762859      -673.8317
   1   2.0000     -10.338640      -281.3287
   2   2.0000     -10.265861      -279.3483
   3   2.0000     -10.245946      -278.8064
   4   2.0000      -1.265333       -34.4315
   5   2.0000      -0.868171       -23.6241
   6   2.0000      -0.765687       -20.8354
   7   2.0000      -0.671051       -18.2602
   8   2.0000      -0.585150       -15.9227
   9   2.0000      -0.568563       -15.4714
  10   2.0000      -0.543777       -14.7969
  11   2.0000      -0.508283       -13.8311
  12   2.0000      -0.472543       -12.8585
  13   2.0000      -0.446103       -12.1391
  14   2.0000      -0.420594       -11.4449
  15   2.0000      -0.395069       -10.7504
  16   2.0000      -0.394512       -10.7352
  17   0.0000       0.051121         1.3911
  18   0.0000       0.076583         2.0839
  19   0.0000       0.085548         2.3279
  20   0.0000       0.101441         2.7604
  21   0.0000       0.126444         3.4407

MULLIKEN ATOMIC CHARGES
-----------------------
   0 C :    0.821259
   1 C :   -0.337313
   2 H :   -0.134755
   3 H :   -0.133655
   4 C :    0.824845
   5 H :   -0.094842
   6 H :   -0.147306
   7 F :   -0.435394
   8 H :   -0.139121
   9 H :   -0.123379
  10 H :   -0.100339
Sum of atomic charges:    0.0000000

LOEWDIN ATOMIC CHARGES
----------------------
   0 C :    0.121674
   1 C :   -0.067987
   2 H :    0.027847
   3 H :    0.023608
   4 C :    0.093033
   5 H :    0.036249
   6 H :    0.029550
   7 F :   -0.211757
   8 H :   -0.019113
   9 H :   -0.017503
  10 H :   -0.015599

  Mayer bond orders larger than 0.100000
B(  0-C ,  1-C ) :   1.2875 B(  0-C ,  8-H ) :   0.7733 B(  0-C ,  9-H ) :   0.7834
B(  0-C , 10-H ) :   0.7924 B(  1-C ,  2-H ) :   0.9475 B(  1-C ,  3-H ) :   0.9304
B(  1-C ,  4-C ) :   1.1767 B(  1-C ,  5-H ) :   0.1042 B(  1-C ,  6-H ) :   0.1302
B(  1-C ,  8-H ) :   0.2096 B(  1-C ,  9-H ) :   0.1878 B(  1-C , 10-H ) :   0.2014
B(  3-H ,  4-C ) :   0.1001 B(  4-C ,  5-H ) :   0.8905 B(  4-C ,  6-H ) :   0.8841
B(  4-C ,  7-F ) :   0.7462

FINAL SINGLE POINT ENERGY      -218.125049584271

DIPOLE MOMENT
-------------
                                X             Y             Z
Electronic contribution:      2.46294      -0.83621       5.73668
Nuclear contribution   :     -2.76068       0.49992      -6.33880
                        -----------------------------------------
Total Dipole Moment    :     -0.29774      -0.33629      -0.60213
                        -----------------------------------------
Magnitude (a.u.)       :      0.75120
Magnitude (Debye)      :      1.90939

Rotational constants in cm-1:     0.493380     0.165620     0.140427
Rotational constants in MHz : 14791.174622  4965.163858  4209.902284

                             ****ORCA TERMINATED NORMALLY****
TOTAL RUN TIME: 0 days 0 hours 0 minutes 14 seconds 31 msec
