                         Program Version 5.0.0 -  RELEASE  -
|  1> !CAM-B3LYP RIJCOSX def2-SVPD def2/J TightSCF
|  2> *xyz 0 1
|  3> C          3.48828        1.60092       -1.52204
|  4> C          4.34297        1.31342       -2.75683
|  5> C          2.81029        0.42878       -1.01420
|  6> H          5.13203        0.60499       -2.48447
|  7> C          3.53590        0.74925       -3.92460
|  8> H          4.84125        2.24214       -3.05408
|  9> H          2.71455        2.33145       -1.76030
| 10> H          4.09099        2.06315       -0.73338
| 11> C          3.29098       -0.41802       -0.12908
| 12> N          2.51754       -1.43202        0.23936
| 13> N          4.53549       -0.28441        0.39580
| 14> H          5.04363        0.57189        0.22290
| 15> H          4.72335       -0.73327        1.28180
| 16> H          1.93479        0.10230       -1.40379
| 17> H          1.67464       -1.50562       -0.31610
| 18> H          2.92850       -2.21850        0.72549
| 19> H          4.18704        0.56990       -4.75451
| 20> H          2.78096        1.45217       -4.20898
| 21> H          3.07436       -0.16949       -3.62832
| 22> *
| 23> %MaxCore 64000
| 24>
| 25> %pal nprocs 4
| 26> end
| 27>
| 28> %scf
| 29>   MaxIter 150
| 30> end
| 31>
| 32>
| 33>                          ****END OF INPUT****

CARTESIAN COORDINATES (ANGSTROEM)
---------------------------------
  C      3.488280    1.600920   -1.522040
  C      4.342970    1.313420   -2.756830
  C      2.810290    0.428780   -1.014200
  H      5.132030    0.604990   -2.484470
  C      3.535900    0.749250   -3.924600
  H      4.841250    2.242140   -3.054080
  H      2.714550    2.331450   -1.760300
  H      4.090990    2.063150   -0.733380
  C      3.290980   -0.418020   -0.129080
  N      2.517540   -1.432020    0.239360
  N      4.535490   -0.284410    0.395800
  H      5.043630    0.571890    0.222900
  H      4.723350   -0.733270    1.281800
  H      1.934790    0.102300   -1.403790
  H      1.674640   -1.505620   -0.316100
  H      2.928500   -2.218500    0.725490
  H      4.187040    0.569900   -4.754510
  H      2.780960    1.452170   -4.208980
  H      3.074360   -0.169490   -3.628320

 Total Charge           Charge          ....    0
 Multiplicity           Mult            ....    1
 Number of Electrons    NEL             ....   56
 Basis Dimension        Dim             ....  236

ORBITAL ENERGIES
----------------

  NO   OCC          E(Eh)            E(eV)
   0   2.0000     -14.406943      -392.0328
   1   2.0000     -14.402369      -391.9084
   2   2.0000     -10.302040      -280.3328
   3   2.0000     -10.235755      -278.5290
   4   2.0000     -10.234191      -278.4865
   5   2.0000     -10.226246      -278.2703
   6   2.0000     -10.183324      -277.1023
   7   2.0000      -1.036194       -28.1963
   8   2.0000      -0.945013       -25.7151
   9   2.0000      -0.865396       -23.5486
  10   2.0000      -0.798296       -21.7227
  11   2.0000      -0.733149       -19.9500
  12   2.0000      -0.667012       -18.1503
  13   2.0000      -0.644479       -17.5372
  14   2.0000      -0.611321       -16.6349
  15   2.0000      -0.578233       -15.7345
  16   2.0000      -0.537030       -14.6133
  17   2.0000      -0.513162       -13.9639
  18   2.0000      -0.510851       -13.9010
  19   2.0000      -0.477006       -12.9800
  20   2.0000      -0.463443       -12.6109
  21   2.0000      -0.442945       -12.0532
  22   2.0000      -0.428362       -11.6563
  23   2.0000      -0.395852       -10.7717
  24   2.0000      -0.380624       -10.3573
  25   2.0000      -0.378302       -10.2941
  26   2.0000      -0.333240        -9.0679
  27   2.0000      -0.222722        -6.0606
  28   0.0000       0.046574         1.2674
  29   0.0000       0.071414         1.9433
  30   0.0000       0.072799         1.9810
  31   0.0000       0.090383         2.4594
  32   0.0000       0.099828         2.7165

MULLIKEN ATOMIC CHARGES
-----------------------
   0 C :    0.442367
   1 C :   -0.162675
   2 C :   -0.185137
   3 H :   -0.143994
   4 C :    0.918346
   5 H :   -0.147924
   6 H :   -0.090967
   7 H :   -0.139201
   8 C :    0.523263
   9 N :    0.103982
  10 N :    0.096375
  11 H :   -0.054739
  12 H :   -0.269582
  13 H :   -0.361856
  14 H :    0.046584
  15 H :   -0.221774
  16 H :   -0.133358
  17 H :   -0.056102
  18 H :   -0.163607
Sum of atomic charges:   -0.0000000

LOEWDIN ATOMIC CHARGES
----------------------
   0 C :   -0.061911
   1 C :   -0.077596
   2 C :   -0.038724
   3 H :    0.015909
   4 C :    0.118745
   5 H :    0.013445
   6 H :    0.017554
   7 H :    0.006098
   8 C :   -0.221406
   9 N :    0.177721
  10 N :    0.207547
  11 H :   -0.022035
  12 H :   -0.014456
  13 H :   -0.047808
  14 H :    0.000773
  15 H :   -0.006202
  16 H :   -0.022718
  17 H :   -0.018011
  18 H :   -0.026925

  Mayer bond orders larger than 0.100000
B(  0-C ,  1-C ) :   1.1038 B(  0-C ,  2-C ) :   1.1409 B(  0-C ,  3-H ) :   0.1408
B(  0-C ,  5-H ) :   0.1194 B(  0-C ,  6-H ) :   0.7507 B(  0-C ,  7-H ) :   0.7958
B(  0-C , 13-H ) :   0.2675 B(  1-C ,  3-H ) :   0.9294 B(  1-C ,  4-C ) :   1.2948
B(  1-C ,  5-H ) :   0.8995 B(  1-C , 16-H ) :   0.2578 B(  1-C , 17-H ) :   0.2340
B(  1-C , 18-H ) :   0.2402 B(  2-C ,  6-H ) :   0.2431 B(  2-C ,  7-H ) :   0.3093
B(  2-C ,  8-C ) :   1.7116 B(  2-C ,  9-N ) :   0.3227 B(  2-C , 10-N ) :   0.1877
B(  2-C , 11-H ) :  -0.1100 B(  2-C , 13-H ) :   0.8206 B(  4-C , 16-H ) :   0.7105
B(  4-C , 17-H ) :   0.7424 B(  4-C , 18-H ) :   0.7656 B(  7-H ,  8-C ) :  -0.1027
B(  8-C ,  9-N ) :   0.9162 B(  8-C , 10-N ) :   0.9669 B(  8-C , 13-H ) :   0.2423
B(  9-N , 14-H ) :   1.0336 B(  9-N , 15-H ) :   1.1915 B( 10-N , 11-H ) :   1.0228
B( 10-N , 12-H ) :   1.2354 B( 11-H , 12-H ) :  -0.1398 B( 14-H , 15-H ) :  -0.1411

FINAL SINGLE POINT ENERGY      -306.857255159327

DIPOLE MOMENT
-------------
                                X             Y             Z
Electronic contribution:     -0.68705      -2.65068       5.55205
Nuclear contribution   :      0.88816       2.11069      -4.95634
                        -----------------------------------------
Total Dipole Moment    :      0.20111      -0.53999       0.59571
                        -----------------------------------------
Magnitude (a.u.)       :      0.82880
Magnitude (Debye)      :      2.10664

Rotational constants in cm-1:     0.162296     0.048922     0.043870
Rotational constants in MHz :  4865.524396  1466.649652  1315.198467

                             ****ORCA TERMINATED NORMALLY****
TOTAL RUN TIME: 0 days 0 hours 0 minutes 50 seconds 711 msec
