                         Program Version 5.0.0 -  RELEASE  -
|  1> !CAM-B3LYP RIJCOSX def2-SVPD def2/J TightSCF
|  2> *xyz 0 1
|  3> C          3.48828        1.60092       -1.52204
|  4> C          4.34297        1.31342       -2.75683
|  5> N          2.81029        0.42878       -1.01420
|  6> H          5.13203        0.60499       -2.48447
|  7> C          3.53590        0.74925       -3.92460
|  8> H          4.84125        2.24214       -3.05408
|  9> H          2.71455        2.33145       -1.76030
| 10> H          4.09099        2.06315       -0.73338
| 11> C          3.29098       -0.41802       -0.12908
| 12> C          2.51754       -1.43202        0.23936
| 13> N          4.53549       -0.28441        0.39580
| 14> H          5.04363        0.57189        0.22290
| 15> H          4.72335       -0.73327        1.28180
| 16> H          1.93479        0.10230       -1.40379
| 17> H          1.67464       -1.50562       -0.31610
| 18> H          2.92850       -2.21850        0.72549
| 19> H          4.18704        0.56990       -4.75451
| 20> H          2.78096        1.45217       -4.20898
| 21> H          3.07436       -0.16949       -3.62832
| 22> *
| 23> %MaxCore 64000
| 24>
| 25> %pal nprocs 4
| 26> end
| 27>
| 28> %scf
| 29>   MaxIter 150
| 30> end
| 31>
| 32>
| 33>                          ****END OF INPUT****

CARTESIAN COORDINATES (ANGSTROEM)
---------------------------------
  C      3.488280    1.600920   -1.522040
  C      4.342970    1.313420   -2.756830
  N      2.810290    0.428780   -1.014200
  H      5.132030    0.604990   -2.484470
  C      3.535900    0.749250   -3.924600
  H      4.841250    2.242140   -3.054080
  H      2.714550    2.331450   -1.760300
  H      4.090990    2.063150   -0.733380
  C      3.290980   -0.418020   -0.129080
  C      2.517540   -1.432020    0.239360
  N      4.535490   -0.284410    0.395800
  H      5.043630    0.571890    0.222900
  H      4.723350   -0.733270    1.281800
  H      1.934790    0.102300   -1.403790
  H      1.674640   -1.505620   -0.316100
  H      2.928500   -2.218500    0.725490
  H      4.187040    0.569900   -4.754510
  H      2.780960    1.452170   -4.208980
  H      3.074360   -0.169490   -3.628320

 Total Charge           Charge          ....    0
 Multiplicity           Mult            ....    1
 Number of Electrons    NEL             ....   56
 Basis Dimension        Dim             ....  236

ORBITAL ENERGIES
----------------

  NO   OCC          E(Eh)            E(eV)
   0   2.0000     -14.405828      -392.0025
   1   2.0000     -14.405287      -391.9878
   2   2.0000     -10.305667      -280.4315
   3   2.0000     -10.299561      -280.2653
   4   2.0000     -10.259769      -279.1825
   5   2.0000     -10.247090      -278.8375
   6   2.0000     -10.167917      -276.6831
   7   2.0000      -1.046913       -28.4879
   8   2.0000      -0.958542       -26.0832
   9   2.0000      -0.869806       -23.6686
  10   2.0000      -0.803848       -21.8738
  11   2.0000      -0.744844       -20.2682
  12   2.0000      -0.682321       -18.5669
  13   2.0000      -0.663013       -18.0415
  14   2.0000      -0.606635       -16.5074
  15   2.0000      -0.574109       -15.6223
  16   2.0000      -0.550719       -14.9858
  17   2.0000      -0.527226       -14.3465
  18   2.0000      -0.513750       -13.9799
  19   2.0000      -0.481933       -13.1141
  20   2.0000      -0.458667       -12.4810
  21   2.0000      -0.454301       -12.3622
  22   2.0000      -0.445661       -12.1270
  23   2.0000      -0.417412       -11.3584
  24   2.0000      -0.416872       -11.3437
  25   2.0000      -0.407799       -11.0968
  26   2.0000      -0.323703        -8.8084
  27   2.0000      -0.221105        -6.0166
  28   0.0000       0.043171         1.1747
  29   0.0000       0.061346         1.6693
  30   0.0000       0.072256         1.9662
  31   0.0000       0.079062         2.1514
  32   0.0000       0.102273         2.7830

MULLIKEN ATOMIC CHARGES
-----------------------
   0 C :    0.912968
   1 C :   -0.192063
   2 N :   -0.256434
   3 H :   -0.084273
   4 C :    0.922310
   5 H :   -0.200317
   6 H :   -0.384603
   7 H :   -0.197707
   8 C :    0.487952
   9 C :    0.599779
  10 N :    0.204721
  11 H :   -0.205104
  12 H :   -0.166827
  13 H :   -0.270844
  14 H :   -0.286413
  15 H :   -0.509424
  16 H :   -0.158008
  17 H :   -0.047250
  18 H :   -0.168463
Sum of atomic charges:    0.0000000

LOEWDIN ATOMIC CHARGES
----------------------
   0 C :    0.044091
   1 C :   -0.068613
   2 N :   -0.013065
   3 H :    0.017430
   4 C :    0.121230
   5 H :    0.018551
   6 H :    0.021808
   7 H :    0.011516
   8 C :   -0.229845
   9 C :    0.136757
  10 N :    0.205998
  11 H :   -0.035314
  12 H :    0.003014
  13 H :    0.031402
  14 H :   -0.105843
  15 H :   -0.098508
  16 H :   -0.018504
  17 H :   -0.017948
  18 H :   -0.024156

  Mayer bond orders larger than 0.100000
B(  0-C ,  1-C ) :   1.0817 B(  0-C ,  2-N ) :   0.9419 B(  0-C ,  3-H ) :   0.1199
B(  0-C ,  6-H ) :   0.7265 B(  0-C ,  7-H ) :   0.8561 B(  0-C , 13-H ) :  -0.2650
B(  1-C ,  3-H ) :   0.9041 B(  1-C ,  4-C ) :   1.2719 B(  1-C ,  5-H ) :   0.9672
B(  1-C ,  6-H ) :   0.1403 B(  1-C , 16-H ) :   0.2426 B(  1-C , 17-H ) :   0.2227
B(  1-C , 18-H ) :   0.2251 B(  2-N ,  6-H ) :   0.2465 B(  2-N ,  7-H ) :   0.1358
B(  2-N ,  8-C ) :   1.1048 B(  2-N ,  9-C ) :   0.2469 B(  2-N , 10-N ) :   0.1115
B(  2-N , 13-H ) :   1.2456 B(  4-C , 16-H ) :   0.7540 B(  4-C , 17-H ) :   0.7379
B(  4-C , 18-H ) :   0.7831 B(  6-H ,  7-H ) :  -0.1305 B(  8-C ,  9-C ) :   1.6713
B(  8-C , 10-N ) :   0.9167 B(  8-C , 13-H ) :  -0.1997 B(  8-C , 14-H ) :   0.2570
B(  8-C , 15-H ) :   0.2357 B(  9-C , 10-N ) :   0.2023 B(  9-C , 14-H ) :   0.7568
B(  9-C , 15-H ) :   0.6358 B( 10-N , 11-H ) :   1.0339 B( 10-N , 12-H ) :   1.1996
B( 11-H , 12-H ) :  -0.1520

FINAL SINGLE POINT ENERGY      -306.845404054723

DIPOLE MOMENT
-------------
                                X             Y             Z
Electronic contribution:     -0.28527      -0.78602       4.27687
Nuclear contribution   :      0.82404       1.70307      -4.68174
                        -----------------------------------------
Total Dipole Moment    :      0.53877       0.91706      -0.40487
                        -----------------------------------------
Magnitude (a.u.)       :      1.13807
Magnitude (Debye)      :      2.89273

Rotational constants in cm-1:     0.164049     0.050262     0.045260
Rotational constants in MHz :  4918.051182  1506.829450  1356.872102

                             ****ORCA TERMINATED NORMALLY****
TOTAL RUN TIME: 0 days 0 hours 0 minutes 49 seconds 456 msec
