                         Program Version 5.0.0 -  RELEASE  -
|  1> !CAM-B3LYP RIJCOSX def2-SVPD def2/J TightSCF
|  2> *xyz 0 1
|  3> C          3.48828        1.60092       -1.52204
|  4> C          4.34297        1.31342       -2.75683
|  5> N          2.81029        0.42878       -1.01420
|  6> H          5.13203        0.60499       -2.48447
|  7> C          3.53590        0.74925       -3.92460
|  8> H          4.84125        2.24214       -3.05408
|  9> H          2.71455        2.33145       -1.76030
| 10> H          4.09099        2.06315       -0.73338
| 11> C          3.29098       -0.41802       -0.12908
| 12> N          2.51754       -1.43202        0.23936
| 13> C          4.53549       -0.28441        0.39580
| 14> H          5.04363        0.57189        0.22290
| 15> H          4.72335       -0.73327        1.28180
| 16> H          1.93479        0.10230       -1.40379
| 17> H          1.67464       -1.50562       -0.31610
| 18> H          2.92850       -2.21850        0.72549
| 19> H          4.18704        0.56990       -4.75451
| 20> H          2.78096        1.45217       -4.20898
| 21> H          3.07436       -0.16949       -3.62832
| 22> *
| 23> %MaxCore 64000
| 24>
| 25> %pal nprocs 4
| 26> end
| 27>
| 28> %scf
| 29>   MaxIter 150
| 30> end
| 31>
| 32>
| 33>                          ****END OF INPUT****

CARTESIAN COORDINATES (ANGSTROEM)
---------------------------------
  C      3.488280    1.600920   -1.522040
  C      4.342970    1.313420   -2.756830
  N      2.810290    0.428780   -1.014200
  H      5.132030    0.604990   -2.484470
  C      3.535900    0.749250   -3.924600
  H      4.841250    2.242140   -3.054080
  H      2.714550    2.331450   -1.760300
  H      4.090990    2.063150   -0.733380
  C      3.290980   -0.418020   -0.129080
  N      2.517540   -1.432020    0.239360
  C      4.535490   -0.284410    0.395800
  H      5.043630    0.571890    0.222900
  H      4.723350   -0.733270    1.281800
  H      1.934790    0.102300   -1.403790
  H      1.674640   -1.505620   -0.316100
  H      2.928500   -2.218500    0.725490
  H      4.187040    0.569900   -4.754510
  H      2.780960    1.452170   -4.208980
  H      3.074360   -0.169490   -3.628320

 Total Charge           Charge          ....    0
 Multiplicity           Mult            ....    1
 Number of Electrons    NEL             ....   56
 Basis Dimension        Dim             ....  236

ORBITAL ENERGIES
----------------

  NO   OCC          E(Eh)            E(eV)
   0   2.0000     -14.412005      -392.1706
   1   2.0000     -14.408531      -392.0761
   2   2.0000     -10.308863      -280.5184
   3   2.0000     -10.292144      -280.0635
   4   2.0000     -10.252439      -278.9830
   5   2.0000     -10.243830      -278.7488
   6   2.0000     -10.169600      -276.7289
   7   2.0000      -1.056391       -28.7459
   8   2.0000      -0.964821       -26.2541
   9   2.0000      -0.857247       -23.3269
  10   2.0000      -0.784501       -21.3474
  11   2.0000      -0.769945       -20.9513
  12   2.0000      -0.682705       -18.5773
  13   2.0000      -0.628198       -17.0941
  14   2.0000      -0.617999       -16.8166
  15   2.0000      -0.601082       -16.3563
  16   2.0000      -0.545703       -14.8493
  17   2.0000      -0.523549       -14.2465
  18   2.0000      -0.509953       -13.8765
  19   2.0000      -0.472786       -12.8652
  20   2.0000      -0.471719       -12.8361
  21   2.0000      -0.448884       -12.2148
  22   2.0000      -0.436891       -11.8884
  23   2.0000      -0.415690       -11.3115
  24   2.0000      -0.409681       -11.1480
  25   2.0000      -0.401084       -10.9141
  26   2.0000      -0.317890        -8.6502
  27   2.0000      -0.224401        -6.1063
  28   0.0000       0.038852         1.0572
  29   0.0000       0.065467         1.7814
  30   0.0000       0.074375         2.0238
  31   0.0000       0.079823         2.1721
  32   0.0000       0.100312         2.7296

MULLIKEN ATOMIC CHARGES
-----------------------
   0 C :    0.871228
   1 C :   -0.156056
   2 N :   -0.440232
   3 H :   -0.103396
   4 C :    0.905379
   5 H :   -0.192880
   6 H :   -0.379881
   7 H :   -0.058318
   8 C :    0.549961
   9 N :    0.196696
  10 C :    0.625008
  11 H :   -0.221148
  12 H :   -0.640935
  13 H :   -0.317372
  14 H :   -0.151355
  15 H :   -0.105334
  16 H :   -0.158303
  17 H :   -0.053078
  18 H :   -0.169982
Sum of atomic charges:    0.0000000

LOEWDIN ATOMIC CHARGES
----------------------
   0 C :    0.052384
   1 C :   -0.060538
   2 N :   -0.014264
   3 H :    0.019759
   4 C :    0.117230
   5 H :    0.020599
   6 H :    0.021419
   7 H :    0.019271
   8 C :   -0.236738
   9 N :    0.189865
  10 C :    0.157560
  11 H :   -0.128372
  12 H :   -0.109652
  13 H :    0.019789
  14 H :   -0.013648
  15 H :    0.013611
  16 H :   -0.019197
  17 H :   -0.019936
  18 H :   -0.029142

  Mayer bond orders larger than 0.100000
B(  0-C ,  1-C ) :   1.0699 B(  0-C ,  2-N ) :   0.9338 B(  0-C ,  3-H ) :   0.1405
B(  0-C ,  6-H ) :   0.7838 B(  0-C ,  7-H ) :   0.8419 B(  0-C , 13-H ) :  -0.2358
B(  1-C ,  3-H ) :   0.9104 B(  1-C ,  4-C ) :   1.2684 B(  1-C ,  5-H ) :   0.9733
B(  1-C ,  6-H ) :   0.1259 B(  1-C , 16-H ) :   0.2411 B(  1-C , 17-H ) :   0.2188
B(  1-C , 18-H ) :   0.2174 B(  2-N ,  6-H ) :   0.2020 B(  2-N ,  7-H ) :   0.1168
B(  2-N ,  8-C ) :   0.8882 B(  2-N ,  9-N ) :   0.1638 B(  2-N , 10-C ) :   0.3972
B(  2-N , 13-H ) :   1.3541 B(  4-C , 16-H ) :   0.7565 B(  4-C , 17-H ) :   0.7416
B(  4-C , 18-H ) :   0.7918 B(  6-H ,  7-H ) :  -0.1599 B(  8-C ,  9-N ) :   0.9167
B(  8-C , 10-C ) :   1.7256 B(  8-C , 11-H ) :   0.3144 B(  8-C , 12-H ) :   0.2348
B(  8-C , 13-H ) :  -0.2840 B(  9-N , 10-C ) :   0.2557 B(  9-N , 14-H ) :   1.0522
B(  9-N , 15-H ) :   1.1837 B( 10-C , 11-H ) :   0.6418 B( 10-C , 12-H ) :   0.6251
B( 14-H , 15-H ) :  -0.1356

FINAL SINGLE POINT ENERGY      -306.845347646102

DIPOLE MOMENT
-------------
                                X             Y             Z
Electronic contribution:     -2.21258      -2.02294       4.06430
Nuclear contribution   :      1.26608       1.95446      -4.64747
                        -----------------------------------------
Total Dipole Moment    :     -0.94650      -0.06848      -0.58317
                        -----------------------------------------
Magnitude (a.u.)       :      1.11384
Magnitude (Debye)      :      2.83117

Rotational constants in cm-1:     0.166109     0.049557     0.044716
Rotational constants in MHz :  4979.835529  1485.675017  1340.540851

                             ****ORCA TERMINATED NORMALLY****
TOTAL RUN TIME: 0 days 0 hours 0 minutes 50 seconds 363 msec
