                         Program Version 5.0.0 -  RELEASE  -
|  1> !B3LYP D3BJ RIJCOSX def2-TZVPD def2/J TightSCF
|  2> *xyz -1 1
|  3> C         -0.77894        0.17197        1.80496
|  4> C         -0.60249       -0.63071        0.49224
|  5> H          0.31389       -1.24035        0.60350
|  6> H         -0.36383        0.11332       -0.30117
|  7> O         -1.71206       -1.37684        0.20253
|  8> H         -1.65864        0.77733        1.73736
|  9> H          0.07466        0.79896        1.95712
| 10> H         -0.87474       -0.50584        2.62734
| 11> *
| 12> %MaxCore 64000
| 13>
| 14> %pal nprocs 4
| 15> end
| 16>
| 17> %scf
| 18>   MaxIter 150
| 19> end
| 20>
| 21>
| 22>                          ****END OF INPUT****

CARTESIAN COORDINATES (ANGSTROEM)
---------------------------------
  C     -0.778940    0.171970    1.804960
  C     -0.602490   -0.630710    0.492240
  H      0.313890   -1.240350    0.603500
  H     -0.363830    0.113320   -0.301170
  O     -1.712060   -1.376840    0.202530
  H     -1.658640    0.777330    1.737360
  H      0.074660    0.798960    1.957120
  H     -0.874740   -0.505840    2.627340

 Total Charge           Charge          ....   -1
 Multiplicity           Mult            ....    1
 Number of Electrons    NEL             ....   26
 Basis Dimension        Dim             ....  159

ORBITAL ENERGIES
----------------

  NO   OCC          E(Eh)            E(eV)
   0   2.0000     -18.798418      -511.5310
   1   2.0000      -9.984736      -271.6985
   2   2.0000      -9.958669      -270.9891
   3   2.0000      -0.683674       -18.6037
   4   2.0000      -0.524468       -14.2715
   5   2.0000      -0.374477       -10.1900
   6   2.0000      -0.250035        -6.8038
   7   2.0000      -0.226975        -6.1763
   8   2.0000      -0.172696        -4.6993
   9   2.0000      -0.159611        -4.3432
  10   2.0000      -0.116754        -3.1770
  11   2.0000       0.026520         0.7216
  12   2.0000       0.027465         0.7474
  13   0.0000       0.154304         4.1988
  14   0.0000       0.177648         4.8340
  15   0.0000       0.203687         5.5426
  16   0.0000       0.207994         5.6598
  17   0.0000       0.228789         6.2257

MULLIKEN ATOMIC CHARGES
-----------------------
   0 C :   -0.967548
   1 C :   -0.200958
   2 H :    0.163767
   3 H :    0.160966
   4 O :   -0.932018
   5 H :    0.220122
   6 H :    0.334788
   7 H :    0.220881
Sum of atomic charges:   -1.0000000

LOEWDIN ATOMIC CHARGES
----------------------
   0 C :   -0.168252
   1 C :   -0.611771
   2 H :    0.049854
   3 H :    0.051097
   4 O :   -0.409080
   5 H :    0.034931
   6 H :    0.019907
   7 H :    0.033314

  Mayer bond orders larger than 0.100000
B(  0-C ,  1-C ) :   0.7714 B(  0-C ,  4-O ) :   0.3954 B(  0-C ,  5-H ) :   1.0103
B(  0-C ,  6-H ) :   0.9531 B(  0-C ,  7-H ) :   1.0043 B(  1-C ,  2-H ) :   1.0602
B(  1-C ,  3-H ) :   1.0615 B(  1-C ,  4-O ) :   0.9009

Dispersion correction           -0.006236048
FINAL SINGLE POINT ENERGY      -154.406829221897

DIPOLE MOMENT
-------------
                                X             Y             Z
Electronic contribution:     -1.65758      -1.90326      -1.55721
Nuclear contribution   :      2.47835       2.80827       2.30058
                        -----------------------------------------
Total Dipole Moment    :      0.82077       0.90501       0.74337
                        -----------------------------------------
Magnitude (a.u.)       :      1.43015
Magnitude (Debye)      :      3.63514

Rotational constants in cm-1:     1.255775     0.327783     0.287473
Rotational constants in MHz : 37647.186859  9826.677683  8618.224821

                             ****ORCA TERMINATED NORMALLY****
TOTAL RUN TIME: 0 days 0 hours 0 minutes 16 seconds 3 msec
