                         Program Version 5.0.0 -  RELEASE  -
|  1> !B3LYP D3BJ RIJCOSX def2-TZVPD def2/J TightSCF
|  2> *xyz 1 1
|  3> C         -2.12050        0.88520        1.78951
|  4> C         -0.77894        0.17197        1.80496
|  5> H         -2.32419        1.47265        2.68608
|  6> H         -2.18770        1.54127        0.91948
|  7> N         -3.17690       -0.15948        1.61070
|  8> H         -4.06474        0.23127        1.28675
|  9> H         -3.34407       -0.67151        2.48493
| 10> H         -2.71686       -0.78189        0.93588
| 11> H         -0.65708       -0.37837        0.89547
| 12> H         -0.74207       -0.50050        2.63642
| 13> H          0.00707        0.89251        1.89389
| 14> *
| 15> %MaxCore 64000
| 16>
| 17> %pal nprocs 4
| 18> end
| 19>
| 20> %scf
| 21>   MaxIter 150
| 22> end
| 23>
| 24>
| 25>                          ****END OF INPUT****

CARTESIAN COORDINATES (ANGSTROEM)
---------------------------------
  C     -2.120500    0.885200    1.789510
  C     -0.778940    0.171970    1.804960
  H     -2.324190    1.472650    2.686080
  H     -2.187700    1.541270    0.919480
  N     -3.176900   -0.159480    1.610700
  H     -4.064740    0.231270    1.286750
  H     -3.344070   -0.671510    2.484930
  H     -2.716860   -0.781890    0.935880
  H     -0.657080   -0.378370    0.895470
  H     -0.742070   -0.500500    2.636420
  H      0.007070    0.892510    1.893890

 Total Charge           Charge          ....    1
 Multiplicity           Mult            ....    1
 Number of Electrons    NEL             ....   26
 Basis Dimension        Dim             ....  183

ORBITAL ENERGIES
----------------

  NO   OCC          E(Eh)            E(eV)
   0   2.0000     -14.647317      -398.5738
   1   2.0000     -10.424330      -283.6604
   2   2.0000     -10.347977      -281.5828
   3   2.0000      -1.216318       -33.0977
   4   2.0000      -0.967428       -26.3250
   5   2.0000      -0.845462       -23.0062
   6   2.0000      -0.804084       -21.8802
   7   2.0000      -0.793464       -21.5913
   8   2.0000      -0.691552       -18.8181
   9   2.0000      -0.644800       -17.5459
  10   2.0000      -0.585566       -15.9341
  11   2.0000      -0.578810       -15.7502
  12   2.0000      -0.558263       -15.1911
  13   0.0000      -0.201362        -5.4793
  14   0.0000      -0.142637        -3.8814
  15   0.0000      -0.140743        -3.8298
  16   0.0000      -0.134027        -3.6471
  17   0.0000      -0.103581        -2.8186

MULLIKEN ATOMIC CHARGES
-----------------------
   0 C :   -0.251019
   1 C :   -1.131167
   2 H :    0.308352
   3 H :    0.288960
   4 N :   -0.235790
   5 H :    0.326807
   6 H :    0.322774
   7 H :    0.305414
   8 H :    0.412493
   9 H :    0.352290
  10 H :    0.300888
Sum of atomic charges:    1.0000000

LOEWDIN ATOMIC CHARGES
----------------------
   0 C :   -0.189608
   1 C :   -0.053056
   2 H :    0.135913
   3 H :    0.134665
   4 N :    0.185590
   5 H :    0.178327
   6 H :    0.180522
   7 H :    0.166245
   8 H :    0.082720
   9 H :    0.085062
  10 H :    0.093619

  Mayer bond orders larger than 0.100000
B(  0-C ,  1-C ) :   0.6093 B(  0-C ,  2-H ) :   0.9278 B(  0-C ,  3-H ) :   0.9370
B(  0-C ,  4-N ) :   0.9373 B(  1-C ,  8-H ) :   0.8672 B(  1-C ,  9-H ) :   0.9397
B(  1-C , 10-H ) :   0.9922 B(  4-N ,  5-H ) :   0.8756 B(  4-N ,  6-H ) :   0.8817
B(  4-N ,  7-H ) :   0.8728

Dispersion correction           -0.010176617
FINAL SINGLE POINT ENERGY      -135.502845906259

DIPOLE MOMENT
-------------
                                X             Y             Z
Electronic contribution:     -1.80561      -0.14790      -0.05579
Nuclear contribution   :      0.50278      -0.30871      -0.06979
                        -----------------------------------------
Total Dipole Moment    :     -1.30282      -0.45661      -0.12558
                        -----------------------------------------
Magnitude (a.u.)       :      1.38622
Magnitude (Debye)      :      3.52350

Rotational constants in cm-1:     0.963746     0.295157     0.256910
Rotational constants in MHz : 28892.375247  8848.576767  7701.963879

                             ****ORCA TERMINATED NORMALLY****
TOTAL RUN TIME: 0 days 0 hours 0 minutes 17 seconds 488 msec
