                         Program Version 5.0.0 -  RELEASE  -
|  1> !B3LYP D3BJ RIJCOSX def2-TZVPD def2/J TightSCF xyzfile
|  2>
|  3> *xyzfile 0 1 B.xyz
|  4>
|  5> %MaxCore 64000
|  6>
|  7> %pal nprocs 4
|  8> end
|  9>
| 10> %scf
| 11>   MaxIter 150
| 12> end
| 13>
| 14>
| 15>                          ****END OF INPUT****

CARTESIAN COORDINATES (ANGSTROEM)
---------------------------------
  C     -2.120502    0.885196    1.789506
  C     -0.778939    0.171966    1.804965
  H     -2.324193    1.472649    2.686078
  H     -2.187698    1.541272    0.919482
  N     -3.176900   -0.159484    1.610700
  H      0.015695    0.910767    1.939153
  H     -0.743553   -0.506827    2.665420
  C     -0.602493   -0.630712    0.492240
  H      0.313894   -1.240346    0.603498
  H     -0.363829    0.113322   -0.301169
  O     -1.712061   -1.376836    0.202535
  H     -4.064736    0.231272    1.286754
  H     -3.344073   -0.671511    2.484928
  H     -2.716861   -0.781886    0.935880

 Total Charge           Charge          ....    0
 Multiplicity           Mult            ....    1
 Number of Electrons    NEL             ....   42
 Basis Dimension        Dim             ....  269

ORBITAL ENERGIES
----------------

  NO   OCC          E(Eh)            E(eV)
   0   2.0000     -18.999184      -516.9941
   1   2.0000     -14.395813      -391.7300
   2   2.0000     -10.232492      -278.4403
   3   2.0000     -10.166516      -276.6450
   4   2.0000     -10.162672      -276.5404
   5   2.0000      -0.992204       -26.9993
   6   2.0000      -0.895675       -24.3726
   7   2.0000      -0.771299       -20.9881
   8   2.0000      -0.655473       -17.8363
   9   2.0000      -0.592824       -16.1316
  10   2.0000      -0.572413       -15.5762
  11   2.0000      -0.545403       -14.8412
  12   2.0000      -0.486337       -13.2339
  13   2.0000      -0.438013       -11.9189
  14   2.0000      -0.405187       -11.0257
  15   2.0000      -0.402905       -10.9636
  16   2.0000      -0.359782        -9.7902
  17   2.0000      -0.341982        -9.3058
  18   2.0000      -0.319074        -8.6824
  19   2.0000      -0.186542        -5.0761
  20   2.0000      -0.178258        -4.8506
  21   0.0000      -0.026044        -0.7087
  22   0.0000       0.011931         0.3247
  23   0.0000       0.013189         0.3589
  24   0.0000       0.036241         0.9862
  25   0.0000       0.057274         1.5585

MULLIKEN ATOMIC CHARGES
-----------------------
   0 C :   -0.531652
   1 C :   -0.317712
   2 H :    0.243549
   3 H :    0.259117
   4 N :   -0.189011
   5 H :    0.224374
   6 H :    0.240692
   7 C :   -0.294210
   8 H :    0.213862
   9 H :    0.200462
  10 O :   -0.867346
  11 H :    0.272292
  12 H :    0.278346
  13 H :    0.267237
Sum of atomic charges:   -0.0000000

LOEWDIN ATOMIC CHARGES
----------------------
   0 C :   -0.173279
   1 C :   -0.186778
   2 H :    0.112149
   3 H :    0.125457
   4 N :    0.131844
   5 H :    0.107013
   6 H :    0.107478
   7 C :   -0.418357
   8 H :    0.095259
   9 H :    0.096059
  10 O :   -0.277162
  11 H :    0.152147
  12 H :    0.156820
  13 H :   -0.028651

  Mayer bond orders larger than 0.100000
B(  0-C ,  1-C ) :   0.8201 B(  0-C ,  2-H ) :   0.9901 B(  0-C ,  3-H ) :   0.9172
B(  0-C ,  4-N ) :   0.9762 B(  1-C ,  5-H ) :   1.0181 B(  1-C ,  6-H ) :   0.9360
B(  1-C ,  7-C ) :   0.9495 B(  1-C , 10-O ) :   0.1354 B(  4-N , 11-H ) :   0.9138
B(  4-N , 12-H ) :   0.9025 B(  4-N , 13-H ) :   0.6379 B(  7-C ,  8-H ) :   1.0100
B(  7-C ,  9-H ) :   1.0250 B(  7-C , 10-O ) :   0.8223 B( 10-O , 13-H ) :   0.4164

Dispersion correction           -0.017123868
FINAL SINGLE POINT ENERGY      -249.623398356391

DIPOLE MOMENT
-------------
                                X             Y             Z
Electronic contribution:     -1.49326      -1.47067      -0.81765
Nuclear contribution   :      0.08650       3.01678       2.47433
                        -----------------------------------------
Total Dipole Moment    :     -1.40676       1.54611       1.65668
                        -----------------------------------------
Magnitude (a.u.)       :      2.66721
Magnitude (Debye)      :      6.77951

Rotational constants in cm-1:     0.238796     0.156489     0.106146
Rotational constants in MHz :  7158.916762  4691.413084  3182.185740

                             ****ORCA TERMINATED NORMALLY****
TOTAL RUN TIME: 0 days 0 hours 0 minutes 42 seconds 948 msec
