                         Program Version 5.0.0 -  RELEASE  -
|  1> !B3LYP D3BJ RIJCOSX def2-TZVPD def2/J TightSCF
|  2> *xyz 0 1
|  3> C         -0.77894        0.17197        1.80496
|  4> C         -0.60249       -0.63071        0.49224
|  5> H          0.31389       -1.24035        0.60350
|  6> H         -0.36383        0.11332       -0.30117
|  7> F         -1.71206       -1.37684        0.20253
|  8> H         -1.65864        0.77733        1.73736
|  9> H          0.07466        0.79896        1.95712
| 10> H         -0.87474       -0.50584        2.62734
| 11> *
| 12> %MaxCore 64000
| 13>
| 14> %pal nprocs 4
| 15> end
| 16>
| 17> %scf
| 18>   MaxIter 150
| 19> end
| 20>
| 21>
| 22>                          ****END OF INPUT****

CARTESIAN COORDINATES (ANGSTROEM)
---------------------------------
  C     -0.778940    0.171970    1.804960
  C     -0.602490   -0.630710    0.492240
  H      0.313890   -1.240350    0.603500
  H     -0.363830    0.113320   -0.301170
  F     -1.712060   -1.376840    0.202530
  H     -1.658640    0.777330    1.737360
  H      0.074660    0.798960    1.957120
  H     -0.874740   -0.505840    2.627340

 Total Charge           Charge          ....    0
 Multiplicity           Mult            ....    1
 Number of Electrons    NEL             ....   26
 Basis Dimension        Dim             ....  159

ORBITAL ENERGIES
----------------

  NO   OCC          E(Eh)            E(eV)
   0   2.0000     -24.670552      -671.3199
   1   2.0000     -10.248648      -278.8799
   2   2.0000     -10.162999      -276.5493
   3   2.0000      -1.200977       -32.6802
   4   2.0000      -0.762207       -20.7407
   5   2.0000      -0.632674       -17.2159
   6   2.0000      -0.510007       -13.8780
   7   2.0000      -0.496039       -13.4979
   8   2.0000      -0.458828       -12.4853
   9   2.0000      -0.406180       -11.0527
  10   2.0000      -0.402025       -10.9396
  11   2.0000      -0.336135        -9.1467
  12   2.0000      -0.333874        -9.0852
  13   0.0000       0.008773         0.2387
  14   0.0000       0.035159         0.9567
  15   0.0000       0.052012         1.4153
  16   0.0000       0.055923         1.5217
  17   0.0000       0.082842         2.2542

MULLIKEN ATOMIC CHARGES
-----------------------
   0 C :   -0.876084
   1 C :   -0.043640
   2 H :    0.204339
   3 H :    0.199693
   4 F :   -0.303665
   5 H :    0.261961
   6 H :    0.301400
   7 H :    0.255996
Sum of atomic charges:    0.0000000

LOEWDIN ATOMIC CHARGES
----------------------
   0 C :   -0.077363
   1 C :   -0.282862
   2 H :    0.107999
   3 H :    0.110391
   4 F :   -0.043638
   5 H :    0.061812
   6 H :    0.063025
   7 H :    0.060635

  Mayer bond orders larger than 0.100000
B(  0-C ,  1-C ) :   0.7831 B(  0-C ,  5-H ) :   0.9682 B(  0-C ,  6-H ) :   0.9393
B(  0-C ,  7-H ) :   0.9683 B(  1-C ,  2-H ) :   0.9797 B(  1-C ,  3-H ) :   0.9829
B(  1-C ,  4-F ) :   0.8105

Dispersion correction           -0.005741384
FINAL SINGLE POINT ENERGY      -179.049015335163

DIPOLE MOMENT
-------------
                                X             Y             Z
Electronic contribution:     -2.73593      -3.29255      -2.82579
Nuclear contribution   :      3.27800       3.70743       3.04146
                        -----------------------------------------
Total Dipole Moment    :      0.54208       0.41489       0.21567
                        -----------------------------------------
Magnitude (a.u.)       :      0.71589
Magnitude (Debye)      :      1.81964

Rotational constants in cm-1:     1.234437     0.305084     0.268865
Rotational constants in MHz : 37007.496448  9146.194083  8060.380630

                             ****ORCA TERMINATED NORMALLY****
TOTAL RUN TIME: 0 days 0 hours 0 minutes 13 seconds 549 msec
