                         Program Version 5.0.0 -  RELEASE  -
|  1> !B3LYP D3BJ RIJCOSX def2-TZVPD def2/J TightSCF
|  2> *xyz 0 1
|  3> C         -2.12050        0.88520        1.78951
|  4> C         -0.77894        0.17197        1.80496
|  5> H         -2.32419        1.47265        2.68608
|  6> H         -2.18770        1.54127        0.91948
|  7> C         -3.17690       -0.15948        1.61070
|  8> H         -4.06474        0.23127        1.28675
|  9> H         -3.34407       -0.67151        2.48493
| 10> H         -2.71686       -0.78189        0.93588
| 11> H         -0.65708       -0.37837        0.89547
| 12> H         -0.74207       -0.50050        2.63642
| 13> H          0.00707        0.89251        1.89389
| 14> *
| 15> %MaxCore 64000
| 16>
| 17> %pal nprocs 4
| 18> end
| 19>
| 20> %scf
| 21>   MaxIter 150
| 22> end
| 23>
| 24>
| 25>                          ****END OF INPUT****

CARTESIAN COORDINATES (ANGSTROEM)
---------------------------------
  C     -2.120500    0.885200    1.789510
  C     -0.778940    0.171970    1.804960
  H     -2.324190    1.472650    2.686080
  H     -2.187700    1.541270    0.919480
  C     -3.176900   -0.159480    1.610700
  H     -4.064740    0.231270    1.286750
  H     -3.344070   -0.671510    2.484930
  H     -2.716860   -0.781890    0.935880
  H     -0.657080   -0.378370    0.895470
  H     -0.742070   -0.500500    2.636420
  H      0.007070    0.892510    1.893890

 Total Charge           Charge          ....    0
 Multiplicity           Mult            ....    1
 Number of Electrons    NEL             ....   26
 Basis Dimension        Dim             ....  183

ORBITAL ENERGIES
----------------

  NO   OCC          E(Eh)            E(eV)
   0   2.0000     -10.153612      -276.2938
   1   2.0000     -10.145289      -276.0674
   2   2.0000     -10.125574      -275.5309
   3   2.0000      -0.794345       -21.6152
   4   2.0000      -0.685195       -18.6451
   5   2.0000      -0.585047       -15.9199
   6   2.0000      -0.470808       -12.8113
   7   2.0000      -0.452371       -12.3096
   8   2.0000      -0.399426       -10.8689
   9   2.0000      -0.384912       -10.4740
  10   2.0000      -0.340395        -9.2626
  11   2.0000      -0.331611        -9.0236
  12   2.0000      -0.328341        -8.9346
  13   0.0000       0.013404         0.3647
  14   0.0000       0.036520         0.9938
  15   0.0000       0.039519         1.0754
  16   0.0000       0.059020         1.6060
  17   0.0000       0.080235         2.1833

MULLIKEN ATOMIC CHARGES
-----------------------
   0 C :    0.067476
   1 C :   -1.089764
   2 H :    0.215605
   3 H :    0.194629
   4 C :   -1.182249
   5 H :    0.311769
   6 H :    0.329850
   7 H :    0.290946
   8 H :    0.301996
   9 H :    0.284877
  10 H :    0.274865
Sum of atomic charges:   -0.0000000

LOEWDIN ATOMIC CHARGES
----------------------
   0 C :   -0.309308
   1 C :   -0.118066
   2 H :    0.101425
   3 H :    0.101458
   4 C :   -0.118498
   5 H :    0.049135
   6 H :    0.054787
   7 H :    0.046209
   8 H :    0.064704
   9 H :    0.068368
  10 H :    0.059786

  Mayer bond orders larger than 0.100000
B(  0-C ,  1-C ) :   0.6236 B(  0-C ,  2-H ) :   0.9559 B(  0-C ,  3-H ) :   0.9902
B(  0-C ,  4-C ) :   0.6138 B(  1-C ,  4-C ) :   0.1307 B(  1-C ,  8-H ) :   0.9727
B(  1-C ,  9-H ) :   0.9874 B(  1-C , 10-H ) :   0.9907 B(  4-C ,  5-H ) :   0.9435
B(  4-C ,  6-H ) :   0.9507 B(  4-C ,  7-H ) :   0.9826

Dispersion correction           -0.010251687
FINAL SINGLE POINT ENERGY      -119.089708402740

DIPOLE MOMENT
-------------
                                X             Y             Z
Electronic contribution:     -0.14541       0.47187       0.11280
Nuclear contribution   :      0.13334      -0.45108      -0.10852
                        -----------------------------------------
Total Dipole Moment    :     -0.01207       0.02079       0.00428
                        -----------------------------------------
Magnitude (a.u.)       :      0.02442
Magnitude (Debye)      :      0.06207

Rotational constants in cm-1:     0.972269     0.310387     0.269029
Rotational constants in MHz : 29147.878530  9305.178981  8065.286472

                             ****ORCA TERMINATED NORMALLY****
TOTAL RUN TIME: 0 days 0 hours 0 minutes 18 seconds 850 msec
