                         Program Version 5.0.0 -  RELEASE  -
|  1> !B3LYP D3BJ RIJCOSX def2-TZVPD def2/J TightSCF xyzfile
|  2>
|  3> *xyzfile 0 1 D.xyz
|  4>
|  5> %MaxCore 64000
|  6>
|  7> %pal nprocs 4
|  8> end
|  9>
| 10> %scf
| 11>   MaxIter 150
| 12> end
| 13>
| 14>
| 15>                          ****END OF INPUT****

CARTESIAN COORDINATES (ANGSTROEM)
---------------------------------
  C     -2.120502    0.885196    1.789506
  C     -0.778939    0.171966    1.804965
  H     -2.324193    1.472649    2.686078
  H     -2.187698    1.541272    0.919482
  C     -3.176900   -0.159484    1.610700
  H      0.015695    0.910767    1.939153
  H     -0.743553   -0.506827    2.665420
  C     -0.602493   -0.630712    0.492240
  H      0.313894   -1.240346    0.603498
  H     -0.363829    0.113322   -0.301169
  F     -1.712061   -1.376836    0.202535
  H     -4.064736    0.231272    1.286754
  H     -3.344073   -0.671511    2.484928
  H     -2.716861   -0.781886    0.935880

 Total Charge           Charge          ....    0
 Multiplicity           Mult            ....    1
 Number of Electrons    NEL             ....   42
 Basis Dimension        Dim             ....  269

ORBITAL ENERGIES
----------------

  NO   OCC          E(Eh)            E(eV)
   0   2.0000     -24.687786      -671.7888
   1   2.0000     -10.255704      -279.0719
   2   2.0000     -10.172519      -276.8083
   3   2.0000     -10.151936      -276.2482
   4   2.0000     -10.090613      -274.5795
   5   2.0000      -1.233003       -33.5517
   6   2.0000      -0.805152       -21.9093
   7   2.0000      -0.734341       -19.9824
   8   2.0000      -0.637238       -17.3401
   9   2.0000      -0.591851       -16.1051
  10   2.0000      -0.529404       -14.4058
  11   2.0000      -0.526972       -14.3397
  12   2.0000      -0.489150       -13.3105
  13   2.0000      -0.439756       -11.9664
  14   2.0000      -0.413398       -11.2491
  15   2.0000      -0.404530       -11.0078
  16   2.0000      -0.378971       -10.3123
  17   2.0000      -0.346976        -9.4417
  18   2.0000      -0.328023        -8.9260
  19   2.0000      -0.324489        -8.8298
  20   2.0000      -0.276796        -7.5320
  21   0.0000       0.007499         0.2040
  22   0.0000       0.031151         0.8477
  23   0.0000       0.031740         0.8637
  24   0.0000       0.035621         0.9693
  25   0.0000       0.062910         1.7119

MULLIKEN ATOMIC CHARGES
-----------------------
   0 C :   -0.175783
   1 C :   -0.368774
   2 H :    0.168763
   3 H :    0.211872
   4 C :   -1.213412
   5 H :    0.202896
   6 H :    0.246038
   7 C :   -0.263303
   8 H :    0.247727
   9 H :    0.238568
  10 F :   -0.316935
  11 H :    0.313533
  12 H :    0.338606
  13 H :    0.370202
Sum of atomic charges:    0.0000000

LOEWDIN ATOMIC CHARGES
----------------------
   0 C :   -0.252036
   1 C :   -0.183808
   2 H :    0.103191
   3 H :    0.108772
   4 C :   -0.099870
   5 H :    0.109825
   6 H :    0.113297
   7 C :   -0.195918
   8 H :    0.117446
   9 H :    0.125446
  10 F :   -0.037423
  11 H :    0.054479
  12 H :    0.060004
  13 H :   -0.023406

  Mayer bond orders larger than 0.100000
B(  0-C ,  1-C ) :   0.7929 B(  0-C ,  2-H ) :   1.0123 B(  0-C ,  3-H ) :   0.9754
B(  0-C ,  4-C ) :   0.6713 B(  1-C ,  4-C ) :   0.1223 B(  1-C ,  5-H ) :   1.0079
B(  1-C ,  6-H ) :   0.9659 B(  1-C ,  7-C ) :   0.9158 B(  4-C , 11-H ) :   0.9655
B(  4-C , 12-H ) :   0.9558 B(  4-C , 13-H ) :   1.0167 B(  7-C ,  8-H ) :   0.9652
B(  7-C ,  9-H ) :   0.9861 B(  7-C , 10-F ) :   0.8228 B( 10-F , 13-H ) :  -0.1122

Dispersion correction           -0.016405813
FINAL SINGLE POINT ENERGY      -257.594554899661

DIPOLE MOMENT
-------------
                                X             Y             Z
Electronic contribution:      0.88226      -4.20445      -3.73799
Nuclear contribution   :     -0.20666       4.43855       3.76066
                        -----------------------------------------
Total Dipole Moment    :      0.67560       0.23410       0.02267
                        -----------------------------------------
Magnitude (a.u.)       :      0.71537
Magnitude (Debye)      :      1.81832

Rotational constants in cm-1:     0.236353     0.155239     0.105045
Rotational constants in MHz :  7085.692869  4653.957069  3149.180346

                             ****ORCA TERMINATED NORMALLY****
TOTAL RUN TIME: 0 days 0 hours 0 minutes 40 seconds 964 msec
