                         Program Version 5.0.0 -  RELEASE  -
|  1> !PBE0 D3BJ RIJCOSX def2-SVP def2/J TightSCF
|  2> *xyz -1 1
|  3> C         -5.57236       -5.80780       -0.81644
|  4> S         -6.90318       -4.61903       -0.52846
|  5> O         -8.11485       -5.25093       -0.95701
|  6> O         -6.53271       -3.42684       -1.31485
|  7> O         -6.86563       -4.29496        0.91412
|  8> C         -4.45780       -5.94187        0.22919
|  9> H         -5.17735       -5.54257       -1.79771
| 10> H         -6.07420       -6.76889       -0.92127
| 11> H         -3.75515       -6.68239       -0.09144
| 12> H         -4.88182       -6.23486        1.16689
| 13> H         -3.95908       -5.00189        0.34143
| 14> *
| 15> %MaxCore 64000
| 16>
| 17> %pal nprocs 4
| 18> end
| 19>
| 20> %scf
| 21>   MaxIter 150
| 22> end
| 23>
| 24>                          ****END OF INPUT****

CARTESIAN COORDINATES (ANGSTROEM)
---------------------------------
  C     -5.572360   -5.807800   -0.816440
  S     -6.903180   -4.619030   -0.528460
  O     -8.114850   -5.250930   -0.957010
  O     -6.532710   -3.426840   -1.314850
  O     -6.865630   -4.294960    0.914120
  C     -4.457800   -5.941870    0.229190
  H     -5.177350   -5.542570   -1.797710
  H     -6.074200   -6.768890   -0.921270
  H     -3.755150   -6.682390   -0.091440
  H     -4.881820   -6.234860    1.166890
  H     -3.959080   -5.001890    0.341430

 Total Charge           Charge          ....   -1
 Multiplicity           Mult            ....    1
 Number of Electrons    NEL             ....   58
 Basis Dimension        Dim             ....  113

ORBITAL ENERGIES
----------------

  NO   OCC          E(Eh)            E(eV)
   0   2.0000     -88.997829     -2421.7540
   1   2.0000     -18.965295      -516.0719
   2   2.0000     -18.950792      -515.6773
   3   2.0000     -18.948157      -515.6056
   4   2.0000     -10.086674      -274.4723
   5   2.0000     -10.080278      -274.2983
   6   2.0000      -7.964538      -216.7261
   7   2.0000      -5.906128      -160.7139
   8   2.0000      -5.906102      -160.7132
   9   2.0000      -5.905822      -160.7056
  10   2.0000      -0.927508       -25.2388
  11   2.0000      -0.785350       -21.3705
  12   2.0000      -0.760165       -20.6851
  13   2.0000      -0.639960       -17.4142
  14   2.0000      -0.514957       -14.0127
  15   2.0000      -0.378589       -10.3019
  16   2.0000      -0.323756        -8.8099
  17   2.0000      -0.310705        -8.4547
  18   2.0000      -0.277082        -7.5398
  19   2.0000      -0.255275        -6.9464
  20   2.0000      -0.251027        -6.8308
  21   2.0000      -0.226896        -6.1742
  22   2.0000      -0.220377        -5.9968
  23   2.0000      -0.133024        -3.6198
  24   2.0000      -0.132094        -3.5945
  25   2.0000      -0.101410        -2.7595
  26   2.0000      -0.089978        -2.4484
  27   2.0000      -0.082739        -2.2514
  28   2.0000      -0.045428        -1.2362
  29   0.0000       0.209129         5.6907
  30   0.0000       0.265285         7.2188
  31   0.0000       0.268859         7.3160
  32   0.0000       0.274480         7.4690
  33   0.0000       0.294837         8.0229

MULLIKEN ATOMIC CHARGES
-----------------------
   0 C :   -0.164575
   1 S :    0.898627
   2 O :   -0.572863
   3 O :   -0.622566
   4 O :   -0.616325
   5 C :   -0.022287
   6 H :    0.029680
   7 H :    0.022174
   8 H :   -0.011234
   9 H :    0.029484
  10 H :    0.029886
Sum of atomic charges:   -1.0000000

LOEWDIN ATOMIC CHARGES
----------------------
   0 C :   -0.200055
   1 S :    1.095061
   2 O :   -0.596412
   3 O :   -0.647164
   4 O :   -0.644120
   5 C :   -0.077750
   6 H :    0.013455
   7 H :    0.009779
   8 H :    0.005545
   9 H :    0.020449
  10 H :    0.021212

  Mayer bond orders larger than 0.100000
B(  0-C ,  1-S ) :   0.8726 B(  0-C ,  5-C ) :   1.0689 B(  0-C ,  6-H ) :   0.9446
B(  0-C ,  7-H ) :   0.9456 B(  1-S ,  2-O ) :   1.6425 B(  1-S ,  3-O ) :   1.5905
B(  1-S ,  4-O ) :   1.5987 B(  5-C ,  8-H ) :   0.9613 B(  5-C ,  9-H ) :   0.9680
B(  5-C , 10-H ) :   0.9702

Dispersion correction           -0.008153665
FINAL SINGLE POINT ENERGY      -702.258796909957

DIPOLE MOMENT
-------------
                                X             Y             Z
Electronic contribution:     -6.78062       4.39222      -0.91140
Nuclear contribution   :      8.13140      -5.68016       0.80206
                        -----------------------------------------
Total Dipole Moment    :      1.35079      -1.28794      -0.10933
                        -----------------------------------------
Magnitude (a.u.)       :      1.86959
Magnitude (Debye)      :      4.75212

Rotational constants in cm-1:     0.162101     0.080498     0.079099
Rotational constants in MHz :  4859.669771  2413.267251  2371.338602

                             ****ORCA TERMINATED NORMALLY****
TOTAL RUN TIME: 0 days 0 hours 0 minutes 12 seconds 794 msec
