                         Program Version 5.0.0 -  RELEASE  -
|  1> !PBE0 D3BJ RIJCOSX def2-SVP def2/J TightSCF
|  2> *xyz 1 1
|  3> C         -4.38262       -1.67089        1.21620
|  4> N         -5.76354       -1.91517        0.70501
|  5> C         -3.28173       -2.19127        0.29436
|  6> H         -5.84081       -2.11520       -0.30065
|  7> H         -6.40882       -1.14866        0.93612
|  8> H         -6.17478       -2.79061        1.05143
|  9> H         -4.32862       -2.13922        2.19810
| 10> H         -4.26158       -0.59740        1.35725
| 11> H         -3.36057       -1.71407       -0.66008
| 12> H         -3.38775       -3.24919        0.17403
| 13> H         -2.32559       -1.97514        0.72329
| 14> *
| 15> %MaxCore 64000
| 16>
| 17> %pal nprocs 4
| 18> end
| 19>
| 20> %scf
| 21>   MaxIter 150
| 22> end
| 23>
| 24>                          ****END OF INPUT****

CARTESIAN COORDINATES (ANGSTROEM)
---------------------------------
  C     -4.382620   -1.670890    1.216200
  N     -5.763540   -1.915170    0.705010
  C     -3.281730   -2.191270    0.294360
  H     -5.840810   -2.115200   -0.300650
  H     -6.408820   -1.148660    0.936120
  H     -6.174780   -2.790610    1.051430
  H     -4.328620   -2.139220    2.198100
  H     -4.261580   -0.597400    1.357250
  H     -3.360570   -1.714070   -0.660080
  H     -3.387750   -3.249190    0.174030
  H     -2.325590   -1.975140    0.723290

 Total Charge           Charge          ....    1
 Multiplicity           Mult            ....    1
 Number of Electrons    NEL             ....   26
 Basis Dimension        Dim             ....   82

ORBITAL ENERGIES
----------------

  NO   OCC          E(Eh)            E(eV)
   0   2.0000     -14.734598      -400.9488
   1   2.0000     -10.486643      -285.3561
   2   2.0000     -10.406945      -283.1874
   3   2.0000      -1.235846       -33.6291
   4   2.0000      -0.984218       -26.7819
   5   2.0000      -0.865714       -23.5573
   6   2.0000      -0.815065       -22.1790
   7   2.0000      -0.793905       -21.6033
   8   2.0000      -0.718909       -19.5625
   9   2.0000      -0.654014       -17.7966
  10   2.0000      -0.596525       -16.2323
  11   2.0000      -0.578861       -15.7516
  12   2.0000      -0.559556       -15.2263
  13   0.0000      -0.172893        -4.7047
  14   0.0000      -0.119360        -3.2480
  15   0.0000      -0.114004        -3.1022
  16   0.0000      -0.080224        -2.1830
  17   0.0000      -0.037230        -1.0131

MULLIKEN ATOMIC CHARGES
-----------------------
   0 C :   -0.065221
   1 N :   -0.022264
   2 C :   -0.090744
   3 H :    0.209889
   4 H :    0.228716
   5 H :    0.216085
   6 H :    0.121326
   7 H :    0.121775
   8 H :    0.083999
   9 H :    0.080749
  10 H :    0.115689
Sum of atomic charges:    1.0000000

LOEWDIN ATOMIC CHARGES
----------------------
   0 C :    0.045144
   1 N :    0.285596
   2 C :   -0.048244
   3 H :    0.145127
   4 H :    0.151457
   5 H :    0.148773
   6 H :    0.058624
   7 H :    0.059040
   8 H :    0.043919
   9 H :    0.042699
  10 H :    0.067864

  Mayer bond orders larger than 0.100000
B(  0-C ,  1-N ) :   0.8926 B(  0-C ,  2-C ) :   1.0950 B(  0-C ,  6-H ) :   0.9523
B(  0-C ,  7-H ) :   0.9542 B(  1-N ,  3-H ) :   0.9314 B(  1-N ,  4-H ) :   0.9305
B(  1-N ,  5-H ) :   0.9334 B(  2-C ,  8-H ) :   0.9659 B(  2-C ,  9-H ) :   0.9702
B(  2-C , 10-H ) :   0.9559

Dispersion correction           -0.004977265
FINAL SINGLE POINT ENERGY      -135.270748445315

DIPOLE MOMENT
-------------
                                X             Y             Z
Electronic contribution:     -1.86106       0.23750       0.30004
Nuclear contribution   :      0.19437      -0.25358      -0.32106
                        -----------------------------------------
Total Dipole Moment    :     -1.66669      -0.01608      -0.02102
                        -----------------------------------------
Magnitude (a.u.)       :      1.66690
Magnitude (Debye)      :      4.23692

Rotational constants in cm-1:     1.030014     0.272489     0.242697
Rotational constants in MHz : 30879.030706  8169.007780  7275.865152

                             ****ORCA TERMINATED NORMALLY****
TOTAL RUN TIME: 0 days 0 hours 0 minutes 8 seconds 723 msec
