                         Program Version 5.0.0 -  RELEASE  -
|  1> !PBE0 D3BJ RIJCOSX def2-SVP def2/J TightSCF
|  2> *xyz 0 1
|  3> C         -5.57236       -5.80780       -0.81644
|  4> S         -6.90318       -4.61903       -0.52846
|  5> F         -8.11485       -5.25093       -0.95701
|  6> O         -6.53271       -3.42684       -1.31485
|  7> O         -6.86563       -4.29496        0.91412
|  8> C         -4.45780       -5.94187        0.22919
|  9> H         -5.17735       -5.54257       -1.79771
| 10> H         -6.07420       -6.76889       -0.92127
| 11> H         -3.75515       -6.68239       -0.09144
| 12> H         -4.88182       -6.23486        1.16689
| 13> H         -3.95908       -5.00189        0.34143
| 14> *
| 15> %MaxCore 64000
| 16>
| 17> %pal nprocs 4
| 18> end
| 19>
| 20> %scf
| 21>   MaxIter 150
| 22> end
| 23>
| 24>                          ****END OF INPUT****

CARTESIAN COORDINATES (ANGSTROEM)
---------------------------------
  C     -5.572360   -5.807800   -0.816440
  S     -6.903180   -4.619030   -0.528460
  F     -8.114850   -5.250930   -0.957010
  O     -6.532710   -3.426840   -1.314850
  O     -6.865630   -4.294960    0.914120
  C     -4.457800   -5.941870    0.229190
  H     -5.177350   -5.542570   -1.797710
  H     -6.074200   -6.768890   -0.921270
  H     -3.755150   -6.682390   -0.091440
  H     -4.881820   -6.234860    1.166890
  H     -3.959080   -5.001890    0.341430

 Total Charge           Charge          ....    0
 Multiplicity           Mult            ....    1
 Number of Electrons    NEL             ....   58
 Basis Dimension        Dim             ....  113

ORBITAL ENERGIES
----------------

  NO   OCC          E(Eh)            E(eV)
   0   2.0000     -89.273089     -2429.2443
   1   2.0000     -24.893461      -677.3855
   2   2.0000     -19.203168      -522.5448
   3   2.0000     -19.202112      -522.5160
   4   2.0000     -10.292961      -280.0857
   5   2.0000     -10.253811      -279.0204
   6   2.0000      -8.242205      -224.2818
   7   2.0000      -6.187866      -168.3804
   8   2.0000      -6.181166      -168.1981
   9   2.0000      -6.180268      -168.1736
  10   2.0000      -1.411291       -38.4032
  11   2.0000      -1.113735       -30.3063
  12   2.0000      -1.009296       -27.4644
  13   2.0000      -0.838991       -22.8301
  14   2.0000      -0.755507       -20.5584
  15   2.0000      -0.695329       -18.9209
  16   2.0000      -0.607753       -16.5378
  17   2.0000      -0.605447       -16.4750
  18   2.0000      -0.565441       -15.3864
  19   2.0000      -0.506493       -13.7824
  20   2.0000      -0.489127       -13.3098
  21   2.0000      -0.453050       -12.3281
  22   2.0000      -0.438286       -11.9264
  23   2.0000      -0.417787       -11.3686
  24   2.0000      -0.401732       -10.9317
  25   2.0000      -0.384129       -10.4527
  26   2.0000      -0.327474        -8.9110
  27   2.0000      -0.324934        -8.8419
  28   2.0000      -0.301445        -8.2027
  29   0.0000       0.038019         1.0346
  30   0.0000       0.049579         1.3491
  31   0.0000       0.080971         2.2033
  32   0.0000       0.091707         2.4955
  33   0.0000       0.106853         2.9076

MULLIKEN ATOMIC CHARGES
-----------------------
   0 C :   -0.205073
   1 S :    0.974716
   2 F :   -0.167449
   3 O :   -0.478901
   4 O :   -0.477177
   5 C :   -0.026503
   6 H :    0.103660
   7 H :    0.077778
   8 H :    0.058943
   9 H :    0.066685
  10 H :    0.073321
Sum of atomic charges:   -0.0000000

LOEWDIN ATOMIC CHARGES
----------------------
   0 C :   -0.163272
   1 S :    1.153866
   2 F :   -0.107203
   3 O :   -0.514084
   4 O :   -0.514565
   5 C :   -0.051601
   6 H :    0.046119
   7 H :    0.032555
   8 H :    0.040185
   9 H :    0.037678
  10 H :    0.040323

  Mayer bond orders larger than 0.100000
B(  0-C ,  1-S ) :   0.9025 B(  0-C ,  5-C ) :   1.0733 B(  0-C ,  6-H ) :   0.9319
B(  0-C ,  7-H ) :   0.9330 B(  1-S ,  2-F ) :   1.0291 B(  1-S ,  3-O ) :   1.7410
B(  1-S ,  4-O ) :   1.7465 B(  5-C ,  8-H ) :   0.9602 B(  5-C ,  9-H ) :   0.9679
B(  5-C , 10-H ) :   0.9716

Dispersion correction           -0.007790481
FINAL SINGLE POINT ENERGY      -726.741895387030

DIPOLE MOMENT
-------------
                                X             Y             Z
Electronic contribution:     -9.44161       3.59072      -1.86089
Nuclear contribution   :      9.80704      -5.24335       1.35017
                        -----------------------------------------
Total Dipole Moment    :      0.36543      -1.65263      -0.51072
                        -----------------------------------------
Magnitude (a.u.)       :      1.76792
Magnitude (Debye)      :      4.49370

Rotational constants in cm-1:     0.156316     0.078308     0.076228
Rotational constants in MHz :  4686.224999  2347.601204  2285.245115

                             ****ORCA TERMINATED NORMALLY****
TOTAL RUN TIME: 0 days 0 hours 0 minutes 13 seconds 910 msec
