                         Program Version 5.0.0 -  RELEASE  -
|  1> !PBE0 D3BJ RIJCOSX def2-SVP def2/J TightSCF
|  2> *xyz 0 1
|  3> C         -4.38262       -1.67089        1.21620
|  4> C         -5.76354       -1.91517        0.70501
|  5> C         -3.28173       -2.19127        0.29436
|  6> H         -5.84081       -2.11520       -0.30065
|  7> H         -6.40882       -1.14866        0.93612
|  8> H         -6.17478       -2.79061        1.05143
|  9> H         -4.32862       -2.13922        2.19810
| 10> H         -4.26158       -0.59740        1.35725
| 11> H         -3.36057       -1.71407       -0.66008
| 12> H         -3.38775       -3.24919        0.17403
| 13> H         -2.32559       -1.97514        0.72329
| 14> *
| 15> %MaxCore 64000
| 16>
| 17> %pal nprocs 4
| 18> end
| 19>
| 20> %scf
| 21>   MaxIter 150
| 22> end
| 23>
| 24>                          ****END OF INPUT****

CARTESIAN COORDINATES (ANGSTROEM)
---------------------------------
  C     -4.382620   -1.670890    1.216200
  C     -5.763540   -1.915170    0.705010
  C     -3.281730   -2.191270    0.294360
  H     -5.840810   -2.115200   -0.300650
  H     -6.408820   -1.148660    0.936120
  H     -6.174780   -2.790610    1.051430
  H     -4.328620   -2.139220    2.198100
  H     -4.261580   -0.597400    1.357250
  H     -3.360570   -1.714070   -0.660080
  H     -3.387750   -3.249190    0.174030
  H     -2.325590   -1.975140    0.723290

 Total Charge           Charge          ....    0
 Multiplicity           Mult            ....    1
 Number of Electrons    NEL             ....   26
 Basis Dimension        Dim             ....   82

ORBITAL ENERGIES
----------------

  NO   OCC          E(Eh)            E(eV)
   0   2.0000     -10.218564      -278.0613
   1   2.0000     -10.210471      -277.8410
   2   2.0000     -10.192450      -277.3507
   3   2.0000      -0.803340       -21.8600
   4   2.0000      -0.704916       -19.1817
   5   2.0000      -0.601112       -16.3571
   6   2.0000      -0.474367       -12.9082
   7   2.0000      -0.453454       -12.3391
   8   2.0000      -0.421734       -11.4760
   9   2.0000      -0.395885       -10.7726
  10   2.0000      -0.351303        -9.5594
  11   2.0000      -0.344304        -9.3690
  12   2.0000      -0.330314        -8.9883
  13   0.0000       0.075172         2.0455
  14   0.0000       0.122052         3.3212
  15   0.0000       0.123676         3.3654
  16   0.0000       0.126215         3.4345
  17   0.0000       0.159455         4.3390

MULLIKEN ATOMIC CHARGES
-----------------------
   0 C :   -0.145583
   1 C :    0.012844
   2 C :   -0.054211
   3 H :   -0.000687
   4 H :    0.015531
   5 H :    0.004922
   6 H :    0.034946
   7 H :    0.033157
   8 H :    0.034503
   9 H :    0.032154
  10 H :    0.032424
Sum of atomic charges:    0.0000000

LOEWDIN ATOMIC CHARGES
----------------------
   0 C :   -0.051188
   1 C :   -0.061864
   2 C :   -0.061615
   3 H :    0.017344
   4 H :    0.020022
   5 H :    0.019667
   6 H :    0.024870
   7 H :    0.023419
   8 H :    0.023192
   9 H :    0.022280
  10 H :    0.023874

  Mayer bond orders larger than 0.100000
B(  0-C ,  1-C ) :   1.0841 B(  0-C ,  2-C ) :   1.0963 B(  0-C ,  6-H ) :   0.9607
B(  0-C ,  7-H ) :   0.9644 B(  1-C ,  3-H ) :   0.9702 B(  1-C ,  4-H ) :   0.9712
B(  1-C ,  5-H ) :   0.9660 B(  2-C ,  8-H ) :   0.9735 B(  2-C ,  9-H ) :   0.9769
B(  2-C , 10-H ) :   0.9722

Dispersion correction           -0.004997554
FINAL SINGLE POINT ENERGY      -118.885330861163

DIPOLE MOMENT
-------------
                                X             Y             Z
Electronic contribution:      0.18238       0.23322       0.33072
Nuclear contribution   :     -0.21528      -0.24783      -0.32864
                        -----------------------------------------
Total Dipole Moment    :     -0.03289      -0.01461       0.00208
                        -----------------------------------------
Magnitude (a.u.)       :      0.03605
Magnitude (Debye)      :      0.09164

Rotational constants in cm-1:     1.037566     0.286459     0.254172
Rotational constants in MHz : 31105.431429  8587.814531  7619.871198

                             ****ORCA TERMINATED NORMALLY****
TOTAL RUN TIME: 0 days 0 hours 0 minutes 8 seconds 535 msec
