                         Program Version 5.0.0 -  RELEASE  -
|  1> !PBE0 D3BJ RIJCOSX def2-SVP def2/J TightSCF
|  2> *xyz 0 1
|  3> C         -5.57236       -5.80780       -0.81644
|  4> S         -6.90318       -4.61903       -0.52846
|  5> O         -8.11485       -5.25093       -0.95701
|  6> F         -6.53271       -3.42684       -1.31485
|  7> O         -6.86563       -4.29496        0.91412
|  8> C         -4.45780       -5.94187        0.22919
|  9> H         -5.17735       -5.54257       -1.79771
| 10> H         -6.07420       -6.76889       -0.92127
| 11> H         -3.75515       -6.68239       -0.09144
| 12> H         -4.88182       -6.23486        1.16689
| 13> H         -3.95908       -5.00189        0.34143
| 14> *
| 15> %MaxCore 64000
| 16>
| 17> %pal nprocs 4
| 18> end
| 19>
| 20> %scf
| 21>   MaxIter 150
| 22> end
| 23>
| 24>                          ****END OF INPUT****

CARTESIAN COORDINATES (ANGSTROEM)
---------------------------------
  C     -5.572360   -5.807800   -0.816440
  S     -6.903180   -4.619030   -0.528460
  O     -8.114850   -5.250930   -0.957010
  F     -6.532710   -3.426840   -1.314850
  O     -6.865630   -4.294960    0.914120
  C     -4.457800   -5.941870    0.229190
  H     -5.177350   -5.542570   -1.797710
  H     -6.074200   -6.768890   -0.921270
  H     -3.755150   -6.682390   -0.091440
  H     -4.881820   -6.234860    1.166890
  H     -3.959080   -5.001890    0.341430

 Total Charge           Charge          ....    0
 Multiplicity           Mult            ....    1
 Number of Electrons    NEL             ....   58
 Basis Dimension        Dim             ....  113

ORBITAL ENERGIES
----------------

  NO   OCC          E(Eh)            E(eV)
   0   2.0000     -89.271818     -2429.2097
   1   2.0000     -24.870848      -676.7702
   2   2.0000     -19.218474      -522.9613
   3   2.0000     -19.203656      -522.5580
   4   2.0000     -10.292340      -280.0688
   5   2.0000     -10.253477      -279.0113
   6   2.0000      -8.240799      -224.2435
   7   2.0000      -6.186226      -168.3358
   8   2.0000      -6.180047      -168.1676
   9   2.0000      -6.179084      -168.1414
  10   2.0000      -1.373012       -37.3616
  11   2.0000      -1.131954       -30.8020
  12   2.0000      -1.026560       -27.9341
  13   2.0000      -0.838818       -22.8254
  14   2.0000      -0.741347       -20.1731
  15   2.0000      -0.686796       -18.6887
  16   2.0000      -0.592244       -16.1158
  17   2.0000      -0.578879       -15.7521
  18   2.0000      -0.560747       -15.2587
  19   2.0000      -0.504530       -13.7290
  20   2.0000      -0.491562       -13.3761
  21   2.0000      -0.463851       -12.6220
  22   2.0000      -0.442105       -12.0303
  23   2.0000      -0.415502       -11.3064
  24   2.0000      -0.409390       -11.1401
  25   2.0000      -0.390366       -10.6224
  26   2.0000      -0.342633        -9.3235
  27   2.0000      -0.329581        -8.9684
  28   2.0000      -0.315480        -8.5847
  29   0.0000       0.040707         1.1077
  30   0.0000       0.049230         1.3396
  31   0.0000       0.082685         2.2500
  32   0.0000       0.091825         2.4987
  33   0.0000       0.110083         2.9955

MULLIKEN ATOMIC CHARGES
-----------------------
   0 C :   -0.212447
   1 S :    0.985202
   2 O :   -0.435780
   3 F :   -0.211892
   4 O :   -0.481964
   5 C :   -0.030211
   6 H :    0.086103
   7 H :    0.110865
   8 H :    0.057448
   9 H :    0.074820
  10 H :    0.057856
Sum of atomic charges:    0.0000000

LOEWDIN ATOMIC CHARGES
----------------------
   0 C :   -0.164823
   1 S :    1.160646
   2 O :   -0.469038
   3 F :   -0.152680
   4 O :   -0.517694
   5 C :   -0.058106
   6 H :    0.036238
   7 H :    0.052188
   8 H :    0.039237
   9 H :    0.039991
  10 H :    0.034041

  Mayer bond orders larger than 0.100000
B(  0-C ,  1-S ) :   0.9016 B(  0-C ,  5-C ) :   1.0624 B(  0-C ,  6-H ) :   0.9327
B(  0-C ,  7-H ) :   0.9373 B(  1-S ,  2-O ) :   1.7950 B(  1-S ,  3-F ) :   0.9778
B(  1-S ,  4-O ) :   1.7524 B(  5-C ,  8-H ) :   0.9596 B(  5-C ,  9-H ) :   0.9688
B(  5-C , 10-H ) :   0.9726

Dispersion correction           -0.007776780
FINAL SINGLE POINT ENERGY      -726.762247708519

DIPOLE MOMENT
-------------
                                X             Y             Z
Electronic contribution:     -6.75747       6.69944      -2.48912
Nuclear contribution   :      8.15840      -7.14411       1.72305
                        -----------------------------------------
Total Dipole Moment    :      1.40093      -0.44466      -0.76606
                        -----------------------------------------
Magnitude (a.u.)       :      1.65746
Magnitude (Debye)      :      4.21293

Rotational constants in cm-1:     0.153926     0.078297     0.077402
Rotational constants in MHz :  4614.585804  2347.272644  2320.438903

                             ****ORCA TERMINATED NORMALLY****
TOTAL RUN TIME: 0 days 0 hours 0 minutes 12 seconds 430 msec
