                         Program Version 5.0.0 -  RELEASE  -
|  1> !PBE0 D3BJ RIJCOSX def2-SVP def2/J TightSCF
|  2> *xyz 0 1
|  3> C         -5.57236       -5.80780       -0.81644
|  4> S         -6.90318       -4.61903       -0.52846
|  5> O         -8.11485       -5.25093       -0.95701
|  6> O         -6.53271       -3.42684       -1.31485
|  7> F         -6.86563       -4.29496        0.91412
|  8> C         -4.45780       -5.94187        0.22919
|  9> H         -5.17735       -5.54257       -1.79771
| 10> H         -6.07420       -6.76889       -0.92127
| 11> H         -3.75515       -6.68239       -0.09144
| 12> H         -4.88182       -6.23486        1.16689
| 13> H         -3.95908       -5.00189        0.34143
| 14> *
| 15> %MaxCore 64000
| 16>
| 17> %pal nprocs 4
| 18> end
| 19>
| 20> %scf
| 21>   MaxIter 150
| 22> end
| 23>
| 24>                          ****END OF INPUT****

CARTESIAN COORDINATES (ANGSTROEM)
---------------------------------
  C     -5.572360   -5.807800   -0.816440
  S     -6.903180   -4.619030   -0.528460
  O     -8.114850   -5.250930   -0.957010
  O     -6.532710   -3.426840   -1.314850
  F     -6.865630   -4.294960    0.914120
  C     -4.457800   -5.941870    0.229190
  H     -5.177350   -5.542570   -1.797710
  H     -6.074200   -6.768890   -0.921270
  H     -3.755150   -6.682390   -0.091440
  H     -4.881820   -6.234860    1.166890
  H     -3.959080   -5.001890    0.341430

 Total Charge           Charge          ....    0
 Multiplicity           Mult            ....    1
 Number of Electrons    NEL             ....   58
 Basis Dimension        Dim             ....  113

ORBITAL ENERGIES
----------------

  NO   OCC          E(Eh)            E(eV)
   0   2.0000     -89.270903     -2429.1848
   1   2.0000     -24.870425      -676.7587
   2   2.0000     -19.217979      -522.9478
   3   2.0000     -19.201458      -522.4982
   4   2.0000     -10.291524      -280.0466
   5   2.0000     -10.260837      -279.2116
   6   2.0000      -8.239945      -224.2203
   7   2.0000      -6.185450      -168.3147
   8   2.0000      -6.179217      -168.1451
   9   2.0000      -6.178130      -168.1155
  10   2.0000      -1.370538       -37.2942
  11   2.0000      -1.132159       -30.8076
  12   2.0000      -1.026547       -27.9338
  13   2.0000      -0.841865       -22.9083
  14   2.0000      -0.738486       -20.0952
  15   2.0000      -0.691559       -18.8183
  16   2.0000      -0.597882       -16.2692
  17   2.0000      -0.578302       -15.7364
  18   2.0000      -0.552252       -15.0276
  19   2.0000      -0.510051       -13.8792
  20   2.0000      -0.485748       -13.2179
  21   2.0000      -0.463372       -12.6090
  22   2.0000      -0.451683       -12.2909
  23   2.0000      -0.424424       -11.5492
  24   2.0000      -0.408742       -11.1224
  25   2.0000      -0.392617       -10.6837
  26   2.0000      -0.342798        -9.3280
  27   2.0000      -0.327406        -8.9092
  28   2.0000      -0.314263        -8.5515
  29   0.0000       0.027630         0.7519
  30   0.0000       0.067766         1.8440
  31   0.0000       0.087981         2.3941
  32   0.0000       0.091445         2.4884
  33   0.0000       0.107099         2.9143

MULLIKEN ATOMIC CHARGES
-----------------------
   0 C :   -0.199278
   1 S :    0.984678
   2 O :   -0.435344
   3 O :   -0.484936
   4 F :   -0.212885
   5 C :   -0.059737
   6 H :    0.116666
   7 H :    0.098751
   8 H :    0.066193
   9 H :    0.058778
  10 H :    0.067115
Sum of atomic charges:    0.0000000

LOEWDIN ATOMIC CHARGES
----------------------
   0 C :   -0.159814
   1 S :    1.161305
   2 O :   -0.468984
   3 O :   -0.519591
   4 F :   -0.154054
   5 C :   -0.066214
   6 H :    0.054854
   7 H :    0.043395
   8 H :    0.042510
   9 H :    0.031726
  10 H :    0.034866

  Mayer bond orders larger than 0.100000
B(  0-C ,  1-S ) :   0.9134 B(  0-C ,  5-C ) :   1.0559 B(  0-C ,  6-H ) :   0.9333
B(  0-C ,  7-H ) :   0.9367 B(  1-S ,  2-O ) :   1.7938 B(  1-S ,  3-O ) :   1.7461
B(  1-S ,  4-F ) :   0.9779 B(  5-C ,  8-H ) :   0.9621 B(  5-C ,  9-H ) :   0.9733
B(  5-C , 10-H ) :   0.9719

Dispersion correction           -0.007744215
FINAL SINGLE POINT ENERGY      -726.761975645379

DIPOLE MOMENT
-------------
                                X             Y             Z
Electronic contribution:     -7.29569       5.19643       1.30541
Nuclear contribution   :      8.50531      -6.23950      -0.59960
                        -----------------------------------------
Total Dipole Moment    :      1.20963      -1.04307       0.70581
                        -----------------------------------------
Magnitude (a.u.)       :      1.74624
Magnitude (Debye)      :      4.43859

Rotational constants in cm-1:     0.152799     0.080212     0.076962
Rotational constants in MHz :  4580.804531  2404.707790  2307.252710

                             ****ORCA TERMINATED NORMALLY****
TOTAL RUN TIME: 0 days 0 hours 0 minutes 13 seconds 105 msec
