                         Program Version 5.0.0 -  RELEASE  -
|  1> !PBE0 D3BJ RIJCOSX def2-TZVP def2/J TightSCF xyzfile
|  2>
|  3> *xyzfile 0 1 D1.xyz
|  4>
|  5> %MaxCore 64000
|  6>
|  7> %pal nprocs 18
|  8> end
|  9>
| 10> %scf
| 11>   MaxIter 150
| 12> end
| 13>
| 14>
| 15>                          ****END OF INPUT****

CARTESIAN COORDINATES (ANGSTROEM)
---------------------------------
  C     -4.382623   -1.670889    1.216201
  C     -5.763539   -1.915170    0.705012
  C     -3.281728   -2.191272    0.294361
  C     -5.572364   -5.807798   -0.816445
  S     -6.903179   -4.619033   -0.528458
  H     -5.840812   -2.115205   -0.300646
  H     -6.408823   -1.148656    0.936124
  H     -6.174781   -2.790606    1.051433
  F     -8.114853   -5.250932   -0.957007
  O     -6.532715   -3.426838   -1.314848
  H     -4.328618   -2.139223    2.198103
  H     -4.261583   -0.597399    1.357248
  O     -6.865632   -4.294957    0.914118
  C     -3.474641   -3.605898   -0.259608
  H     -2.354548   -2.127602    0.871433
  H     -3.166611   -1.499693   -0.545037
  C     -3.827078   -4.661097    0.786174
  H     -2.560559   -3.889391   -0.788050
  H     -4.255932   -3.570040   -1.019300
  C     -4.457800   -5.941875    0.229195
  H     -5.177347   -5.542575   -1.797714
  H     -6.074202   -6.768894   -0.921272
  H     -4.530506   -4.253640    1.511979
  H     -2.933400   -4.932302    1.356825
  H     -3.681064   -6.562236   -0.229885
  H     -4.843942   -6.512728    1.075805

 Total Charge           Charge          ....    0
 Multiplicity           Mult            ....    1
 Number of Electrons    NEL             ....   98
 Basis Dimension        Dim             ....  437

ORBITAL ENERGIES
----------------

  NO   OCC          E(Eh)            E(eV)
   0   2.0000     -89.270662     -2429.1782
   1   2.0000     -24.903296      -677.6531
   2   2.0000     -19.217814      -522.9433
   3   2.0000     -19.216586      -522.9099
   4   2.0000     -10.286786      -279.9177
   5   2.0000     -10.249724      -278.9092
   6   2.0000     -10.216806      -278.0134
   7   2.0000     -10.206125      -277.7228
   8   2.0000     -10.197915      -277.4994
   9   2.0000     -10.183573      -277.1091
  10   2.0000     -10.124141      -275.4919
  11   2.0000      -8.216812      -223.5908
  12   2.0000      -6.156984      -167.5401
  13   2.0000      -6.151042      -167.3784
  14   2.0000      -6.150537      -167.3646
  15   2.0000      -1.431025       -38.9402
  16   2.0000      -1.134433       -30.8695
  17   2.0000      -1.037332       -28.2272
  18   2.0000      -0.858856       -23.3707
  19   2.0000      -0.818395       -22.2697
  20   2.0000      -0.777208       -21.1489
  21   2.0000      -0.750063       -20.4102
  22   2.0000      -0.712678       -19.3929
  23   2.0000      -0.665169       -18.1002
  24   2.0000      -0.630730       -17.1630
  25   2.0000      -0.619147       -16.8478
  26   2.0000      -0.604552       -16.4507
  27   2.0000      -0.572604       -15.5814
  28   2.0000      -0.557045       -15.1580
  29   2.0000      -0.509936       -13.8761
  30   2.0000      -0.508016       -13.8238
  31   2.0000      -0.484724       -13.1900
  32   2.0000      -0.481906       -13.1133
  33   2.0000      -0.454498       -12.3675
  34   2.0000      -0.446665       -12.1544
  35   2.0000      -0.429214       -11.6795
  36   2.0000      -0.422956       -11.5092
  37   2.0000      -0.399556       -10.8725
  38   2.0000      -0.391415       -10.6510
  39   2.0000      -0.387444       -10.5429
  40   2.0000      -0.357557        -9.7296
  41   2.0000      -0.353236        -9.6120
  42   2.0000      -0.348283        -9.4773
  43   2.0000      -0.344522        -9.3749
  44   2.0000      -0.335362        -9.1257
  45   2.0000      -0.321987        -8.7617
  46   2.0000      -0.304589        -8.2883
  47   2.0000      -0.298894        -8.1333
  48   2.0000      -0.277190        -7.5427
  49   0.0000       0.021013         0.5718
  50   0.0000       0.023551         0.6408
  51   0.0000       0.053615         1.4589
  52   0.0000       0.060558         1.6479
  53   0.0000       0.064776         1.7626

MULLIKEN ATOMIC CHARGES
-----------------------
   0 C :   -0.180525
   1 C :   -0.419823
   2 C :   -0.190205
   3 C :   -0.336680
   4 S :    0.867559
   5 H :    0.141433
   6 H :    0.101698
   7 H :    0.143720
   8 F :   -0.080754
   9 O :   -0.430328
  10 H :    0.094618
  11 H :    0.092419
  12 O :   -0.427824
  13 C :   -0.196343
  14 H :    0.087036
  15 H :    0.098966
  16 C :   -0.270688
  17 H :    0.094432
  18 H :    0.128134
  19 C :   -0.151178
  20 H :    0.176832
  21 H :    0.156396
  22 H :    0.153711
  23 H :    0.105534
  24 H :    0.118544
  25 H :    0.123316
Sum of atomic charges:   -0.0000000

LOEWDIN ATOMIC CHARGES
----------------------
   0 C :   -0.309756
   1 C :   -0.335700
   2 C :   -0.272027
   3 C :   -0.374591
   4 S :    0.549137
   5 H :    0.107963
   6 H :    0.102755
   7 H :    0.097580
   8 F :    0.113821
   9 O :   -0.273237
  10 H :    0.131104
  11 H :    0.133825
  12 O :   -0.266034
  13 C :   -0.273974
  14 H :    0.133621
  15 H :    0.138014
  16 C :   -0.269573
  17 H :    0.133996
  18 H :    0.139752
  19 C :   -0.276244
  20 H :    0.148017
  21 H :    0.138688
  22 H :    0.148239
  23 H :    0.139331
  24 H :    0.149125
  25 H :    0.146170

  Mayer bond orders larger than 0.100000
B(  0-C ,  1-C ) :   0.9604 B(  0-C ,  2-C ) :   1.0173 B(  0-C , 10-H ) :   0.9729
B(  0-C , 11-H ) :   0.9566 B(  1-C ,  5-H ) :   0.9818 B(  1-C ,  6-H ) :   0.9618
B(  1-C ,  7-H ) :   0.9770 B(  2-C , 13-C ) :   1.0139 B(  2-C , 14-H ) :   0.9652
B(  2-C , 15-H ) :   0.9566 B(  3-C ,  4-S ) :   0.9165 B(  3-C , 19-C ) :   0.9868
B(  3-C , 20-H ) :   0.9356 B(  3-C , 21-H ) :   0.9349 B(  4-S ,  8-F ) :   1.1679
B(  4-S ,  9-O ) :   1.8528 B(  4-S , 12-O ) :   1.8366 B( 13-C , 16-C ) :   0.9843
B( 13-C , 17-H ) :   0.9562 B( 13-C , 18-H ) :   0.9578 B( 16-C , 19-C ) :   0.9999
B( 16-C , 22-H ) :   0.9672 B( 16-C , 23-H ) :   0.9513 B( 19-C , 24-H ) :   0.9419
B( 19-C , 25-H ) :   0.9613

Dispersion correction           -0.026783552
FINAL SINGLE POINT ENERGY      -923.691536382596

DIPOLE MOMENT
-------------
                                X             Y             Z
Electronic contribution:    -18.98925      -8.66223      -6.73177
Nuclear contribution   :     19.08524       6.89775       6.14221
                        -----------------------------------------
Total Dipole Moment    :      0.09599      -1.76448      -0.58956
                        -----------------------------------------
Magnitude (a.u.)       :      1.86284
Magnitude (Debye)      :      4.73496

Rotational constants in cm-1:     0.049343     0.024787     0.019726
Rotational constants in MHz :  1479.262779   743.087234   591.370705

                             ****ORCA TERMINATED NORMALLY****
TOTAL RUN TIME: 0 days 0 hours 0 minutes 35 seconds 352 msec
