                         Program Version 5.0.0 -  RELEASE  -
|  1> !PBE0 D3BJ RIJCOSX def2-TZVP def2/J TightSCF xyzfile
|  2>
|  3> *xyzfile 0 1 D3.xyz
|  4>
|  5> %MaxCore 64000
|  6>
|  7> %pal nprocs 18
|  8> end
|  9>
| 10> %scf
| 11>   MaxIter 150
| 12> end
| 13>
| 14>
| 15>                          ****END OF INPUT****

CARTESIAN COORDINATES (ANGSTROEM)
---------------------------------
  C     -4.382623   -1.670889    1.216201
  C     -5.763539   -1.915170    0.705012
  C     -3.281728   -2.191272    0.294361
  C     -5.572364   -5.807798   -0.816445
  S     -6.903179   -4.619033   -0.528458
  H     -5.840812   -2.115205   -0.300646
  H     -6.408823   -1.148656    0.936124
  H     -6.174781   -2.790606    1.051433
  O     -8.114853   -5.250932   -0.957007
  O     -6.532715   -3.426838   -1.314848
  H     -4.328618   -2.139223    2.198103
  H     -4.261583   -0.597399    1.357248
  F     -6.865632   -4.294957    0.914118
  C     -3.474641   -3.605898   -0.259608
  H     -2.354548   -2.127602    0.871433
  H     -3.166611   -1.499693   -0.545037
  C     -3.827078   -4.661097    0.786174
  H     -2.560559   -3.889391   -0.788050
  H     -4.255932   -3.570040   -1.019300
  C     -4.457800   -5.941875    0.229195
  H     -5.177347   -5.542575   -1.797714
  H     -6.074202   -6.768894   -0.921272
  H     -4.530506   -4.253640    1.511979
  H     -2.933400   -4.932302    1.356825
  H     -3.681064   -6.562236   -0.229885
  H     -4.843942   -6.512728    1.075805

 Total Charge           Charge          ....    0
 Multiplicity           Mult            ....    1
 Number of Electrons    NEL             ....   98
 Basis Dimension        Dim             ....  437

ORBITAL ENERGIES
----------------

  NO   OCC          E(Eh)            E(eV)
   0   2.0000     -89.264906     -2429.0216
   1   2.0000     -24.880272      -677.0266
   2   2.0000     -19.226345      -523.1754
   3   2.0000     -19.211818      -522.7801
   4   2.0000     -10.284315      -279.8504
   5   2.0000     -10.254163      -279.0300
   6   2.0000     -10.230751      -278.3929
   7   2.0000     -10.215831      -277.9869
   8   2.0000     -10.209084      -277.8033
   9   2.0000     -10.199161      -277.5333
  10   2.0000     -10.148648      -276.1587
  11   2.0000      -8.211245      -223.4393
  12   2.0000      -6.151710      -167.3965
  13   2.0000      -6.145306      -167.2223
  14   2.0000      -6.144883      -167.2108
  15   2.0000      -1.396715       -38.0066
  16   2.0000      -1.144462       -31.1424
  17   2.0000      -1.048084       -28.5198
  18   2.0000      -0.864558       -23.5258
  19   2.0000      -0.826445       -22.4887
  20   2.0000      -0.778663       -21.1885
  21   2.0000      -0.751524       -20.4500
  22   2.0000      -0.715821       -19.4785
  23   2.0000      -0.676035       -18.3959
  24   2.0000      -0.639105       -17.3909
  25   2.0000      -0.603709       -16.4278
  26   2.0000      -0.597408       -16.2563
  27   2.0000      -0.570071       -15.5124
  28   2.0000      -0.562167       -15.2973
  29   2.0000      -0.511155       -13.9092
  30   2.0000      -0.504815       -13.7367
  31   2.0000      -0.489792       -13.3279
  32   2.0000      -0.474836       -12.9209
  33   2.0000      -0.465674       -12.6716
  34   2.0000      -0.460065       -12.5190
  35   2.0000      -0.440268       -11.9803
  36   2.0000      -0.418704       -11.3935
  37   2.0000      -0.408023       -11.1029
  38   2.0000      -0.402886       -10.9631
  39   2.0000      -0.402367       -10.9490
  40   2.0000      -0.373474       -10.1628
  41   2.0000      -0.367084        -9.9889
  42   2.0000      -0.359526        -9.7832
  43   2.0000      -0.345423        -9.3994
  44   2.0000      -0.343882        -9.3575
  45   2.0000      -0.335097        -9.1185
  46   2.0000      -0.317895        -8.6504
  47   2.0000      -0.314879        -8.5683
  48   2.0000      -0.299328        -8.1451
  49   0.0000       0.010729         0.2920
  50   0.0000       0.040627         1.1055
  51   0.0000       0.051936         1.4133
  52   0.0000       0.057390         1.5617
  53   0.0000       0.061800         1.6817

MULLIKEN ATOMIC CHARGES
-----------------------
   0 C :   -0.184334
   1 C :   -0.433636
   2 C :   -0.190190
   3 C :   -0.318812
   4 S :    0.873678
   5 H :    0.173321
   6 H :    0.117818
   7 H :    0.091584
   8 O :   -0.397962
   9 O :   -0.438497
  10 H :    0.097444
  11 H :    0.101375
  12 F :   -0.109288
  13 C :   -0.200601
  14 H :    0.092048
  15 H :    0.105021
  16 C :   -0.282154
  17 H :    0.101139
  18 H :    0.139907
  19 C :   -0.187328
  20 H :    0.179215
  21 H :    0.174059
  22 H :    0.130146
  23 H :    0.115173
  24 H :    0.119382
  25 H :    0.131490
Sum of atomic charges:    0.0000000

LOEWDIN ATOMIC CHARGES
----------------------
   0 C :   -0.307850
   1 C :   -0.338601
   2 C :   -0.270723
   3 C :   -0.364673
   4 S :    0.556506
   5 H :    0.111808
   6 H :    0.106884
   7 H :    0.090712
   8 O :   -0.244063
   9 O :   -0.275130
  10 H :    0.131106
  11 H :    0.136839
  12 F :    0.075058
  13 C :   -0.274188
  14 H :    0.135157
  15 H :    0.140080
  16 C :   -0.273801
  17 H :    0.136587
  18 H :    0.141663
  19 C :   -0.287632
  20 H :    0.152808
  21 H :    0.147235
  22 H :    0.139860
  23 H :    0.141871
  24 H :    0.148912
  25 H :    0.143577

  Mayer bond orders larger than 0.100000
B(  0-C ,  1-C ) :   0.9562 B(  0-C ,  2-C ) :   1.0146 B(  0-C , 10-H ) :   0.9728
B(  0-C , 11-H ) :   0.9572 B(  1-C ,  5-H ) :   0.9771 B(  1-C ,  6-H ) :   0.9605
B(  1-C ,  7-H ) :   0.9940 B(  2-C , 13-C ) :   1.0105 B(  2-C , 14-H ) :   0.9662
B(  2-C , 15-H ) :   0.9566 B(  3-C ,  4-S ) :   0.9172 B(  3-C , 19-C ) :   0.9867
B(  3-C , 20-H ) :   0.9369 B(  3-C , 21-H ) :   0.9367 B(  4-S ,  8-O ) :   1.9943
B(  4-S ,  9-O ) :   1.8305 B(  4-S , 12-F ) :   1.0916 B( 13-C , 16-C ) :   0.9649
B( 13-C , 17-H ) :   0.9542 B( 13-C , 18-H ) :   0.9588 B( 16-C , 19-C ) :   0.9849
B( 16-C , 22-H ) :   0.9821 B( 16-C , 23-H ) :   0.9511 B( 19-C , 24-H ) :   0.9410
B( 19-C , 25-H ) :   0.9686

Dispersion correction           -0.026500464
FINAL SINGLE POINT ENERGY      -923.708089474549

DIPOLE MOMENT
-------------
                                X             Y             Z
Electronic contribution:    -16.56553      -6.84829      -3.45433
Nuclear contribution   :     17.63907       5.79106       3.97609
                        -----------------------------------------
Total Dipole Moment    :      1.07355      -1.05722       0.52176
                        -----------------------------------------
Magnitude (a.u.)       :      1.59451
Magnitude (Debye)      :      4.05292

Rotational constants in cm-1:     0.048663     0.025472     0.020259
Rotational constants in MHz :  1458.892793   763.621130   607.350055

                             ****ORCA TERMINATED NORMALLY****
TOTAL RUN TIME: 0 days 0 hours 0 minutes 35 seconds 796 msec
