                         Program Version 5.0.0 -  RELEASE  -
|  1> !BLYP D3BJ RIJCOSX def2-SVPD def2/J TightSCF
|  2> *xyz -1 1
|  3> C         -0.47749        0.60819       -4.10105
|  4> C          0.18467       -0.50664       -4.91676
|  5> O         -0.15869       -1.70109       -4.65798
|  6> O          1.05594       -0.17441       -5.74037
|  7> H         -0.09903        1.55672       -4.42038
|  8> H         -0.25931        0.46828       -3.06292
|  9> H         -1.53664        0.57826       -4.25010
| 10> *
| 11>
| 12> %MaxCore 64000
| 13>
| 14> %pal nprocs 4
| 15> end
| 16>
| 17> %scf
| 18>   MaxIter 150
| 19> end
| 20>
| 21>
| 22>                          ****END OF INPUT****

CARTESIAN COORDINATES (ANGSTROEM)
---------------------------------
  C     -0.477490    0.608190   -4.101050
  C      0.184670   -0.506640   -4.916760
  O     -0.158690   -1.701090   -4.657980
  O      1.055940   -0.174410   -5.740370
  H     -0.099030    1.556720   -4.420380
  H     -0.259310    0.468280   -3.062920
  H     -1.536640    0.578260   -4.250100

 Total Charge           Charge          ....   -1
 Multiplicity           Mult            ....    1
 Number of Electrons    NEL             ....   32
 Basis Dimension        Dim             ....  110

ORBITAL ENERGIES
----------------

  NO   OCC          E(Eh)            E(eV)
   0   2.0000     -18.531055      -504.2556
   1   2.0000     -18.526186      -504.1232
   2   2.0000      -9.802273      -266.7334
   3   2.0000      -9.735720      -264.9224
   4   2.0000      -0.715092       -19.4587
   5   2.0000      -0.625815       -17.0293
   6   2.0000      -0.462441       -12.5837
   7   2.0000      -0.240840        -6.5536
   8   2.0000      -0.208517        -5.6740
   9   2.0000      -0.193188        -5.2569
  10   2.0000      -0.166014        -4.5175
  11   2.0000      -0.130719        -3.5570
  12   2.0000      -0.118059        -3.2125
  13   2.0000      -0.006953        -0.1892
  14   2.0000       0.004556         0.1240
  15   2.0000       0.023830         0.6485
  16   0.0000       0.155292         4.2257
  17   0.0000       0.198785         5.4092
  18   0.0000       0.200505         5.4560
  19   0.0000       0.223636         6.0854
  20   0.0000       0.242620         6.6020

MULLIKEN ATOMIC CHARGES
-----------------------
   0 C :    0.857325
   1 C :   -0.154655
   2 O :   -0.595989
   3 O :   -0.521279
   4 H :   -0.214415
   5 H :   -0.186213
   6 H :   -0.184774
Sum of atomic charges:   -1.0000000

LOEWDIN ATOMIC CHARGES
----------------------
   0 C :    0.156517
   1 C :   -0.359259
   2 O :   -0.334455
   3 O :   -0.312279
   4 H :   -0.054876
   5 H :   -0.046897
   6 H :   -0.048751

  Mayer bond orders larger than 0.100000
B(  0-C ,  1-C ) :   1.2172 B(  0-C ,  4-H ) :   0.7955 B(  0-C ,  5-H ) :   0.7464
B(  0-C ,  6-H ) :   0.7381 B(  1-C ,  2-O ) :   1.5548 B(  1-C ,  3-O ) :   1.5785
B(  1-C ,  4-H ) :   0.3170 B(  1-C ,  5-H ) :   0.2186 B(  1-C ,  6-H ) :   0.2265

Dispersion correction           -0.007712129
FINAL SINGLE POINT ENERGY      -228.325613131084

DIPOLE MOMENT
-------------
                                X             Y             Z
Electronic contribution:      1.63433      -2.63830      -1.97576
Nuclear contribution   :     -2.19461       3.67480       2.63888
                        -----------------------------------------
Total Dipole Moment    :     -0.56028       1.03650       0.66312
                        -----------------------------------------
Magnitude (a.u.)       :      1.35203
Magnitude (Debye)      :      3.43659

Rotational constants in cm-1:     0.393152     0.332423     0.186264
Rotational constants in MHz : 11786.395082  9965.786704  5584.045355

                             ****ORCA TERMINATED NORMALLY****
TOTAL RUN TIME: 0 days 0 hours 0 minutes 3 seconds 809 msec
