                         Program Version 5.0.0 -  RELEASE  -
|  1> !BLYP D3BJ RIJCOSX def2-SVPD def2/J TightSCF
|  2> *xyz 1 1
|  3> C          2.48645       -2.67712       -2.56345
|  4> C          3.03764       -2.36672       -3.92351
|  5> N          2.28036       -2.45441       -4.96769
|  6> N          4.32174       -2.01793       -4.01664
|  7> H          4.87994       -1.91167       -3.17382
|  8> H          4.71015       -1.67088       -4.88356
|  9> H          1.27042       -2.41265       -4.86614
| 10> H          2.58183       -2.05528       -5.84688
| 11> H          1.45238       -2.93848       -2.64882
| 12> H          2.58636       -1.81799       -1.93352
| 13> H          3.02742       -3.49632       -2.13781
| 14> *
| 15>
| 16> %MaxCore 64000
| 17>
| 18> %pal nprocs 4
| 19> end
| 20>
| 21> %scf
| 22>   MaxIter 150
| 23> end
| 24>
| 25>
| 26>                          ****END OF INPUT****

CARTESIAN COORDINATES (ANGSTROEM)
---------------------------------
  C      2.486450   -2.677120   -2.563450
  C      3.037640   -2.366720   -3.923510
  N      2.280360   -2.454410   -4.967690
  N      4.321740   -2.017930   -4.016640
  H      4.879940   -1.911670   -3.173820
  H      4.710150   -1.670880   -4.883560
  H      1.270420   -2.412650   -4.866140
  H      2.581830   -2.055280   -5.846880
  H      1.452380   -2.938480   -2.648820
  H      2.586360   -1.817990   -1.933520
  H      3.027420   -3.496320   -2.137810

 Total Charge           Charge          ....    1
 Multiplicity           Mult            ....    1
 Number of Electrons    NEL             ....   32
 Basis Dimension        Dim             ....  136

ORBITAL ENERGIES
----------------

  NO   OCC          E(Eh)            E(eV)
   0   2.0000     -14.280114      -388.5817
   1   2.0000     -14.275000      -388.4425
   2   2.0000     -10.249391      -278.9001
   3   2.0000     -10.122520      -275.4478
   4   2.0000      -1.116476       -30.3808
   5   2.0000      -1.026547       -27.9338
   6   2.0000      -0.875767       -23.8308
   7   2.0000      -0.783457       -21.3189
   8   2.0000      -0.726988       -19.7823
   9   2.0000      -0.710657       -19.3380
  10   2.0000      -0.656687       -17.8694
  11   2.0000      -0.610173       -16.6036
  12   2.0000      -0.569915       -15.5082
  13   2.0000      -0.553935       -15.0733
  14   2.0000      -0.533163       -14.5081
  15   2.0000      -0.462228       -12.5779
  16   0.0000      -0.253447        -6.8967
  17   0.0000      -0.188390        -5.1264
  18   0.0000      -0.146492        -3.9863
  19   0.0000      -0.143566        -3.9066
  20   0.0000      -0.119619        -3.2550

MULLIKEN ATOMIC CHARGES
-----------------------
   0 C :    0.996564
   1 C :    0.073345
   2 N :    0.385521
   3 N :    0.360916
   4 H :   -0.063955
   5 H :   -0.209101
   6 H :   -0.053714
   7 H :   -0.159087
   8 H :   -0.105105
   9 H :   -0.118461
  10 H :   -0.106922
Sum of atomic charges:    1.0000000

LOEWDIN ATOMIC CHARGES
----------------------
   0 C :    0.248208
   1 C :   -0.085562
   2 N :    0.300159
   3 N :    0.300521
   4 H :    0.053149
   5 H :    0.040444
   6 H :    0.056626
   7 H :    0.047627
   8 H :    0.002736
   9 H :    0.017176
  10 H :    0.018915

  Mayer bond orders larger than 0.100000
B(  0-C ,  1-C ) :   1.3119 B(  0-C ,  8-H ) :   0.6819 B(  0-C ,  9-H ) :   0.6946
B(  0-C , 10-H ) :   0.6338 B(  1-C ,  2-N ) :   1.2146 B(  1-C ,  3-N ) :   1.2153
B(  1-C ,  5-H ) :  -0.1584 B(  1-C ,  7-H ) :  -0.1396 B(  1-C ,  8-H ) :   0.3505
B(  1-C ,  9-H ) :   0.2176 B(  1-C , 10-H ) :   0.2508 B(  2-N ,  3-N ) :   0.1675
B(  2-N ,  6-H ) :   1.0660 B(  2-N ,  7-H ) :   1.1874 B(  3-N ,  4-H ) :   1.1344
B(  3-N ,  5-H ) :   1.2272 B(  4-H ,  5-H ) :  -0.1667 B(  6-H ,  7-H ) :  -0.1331
B(  9-H , 10-H ) :   0.1155

Dispersion correction           -0.014112314
FINAL SINGLE POINT ENERGY      -189.517791891534

DIPOLE MOMENT
-------------
                                X             Y             Z
Electronic contribution:      0.80601       0.24476      -1.98495
Nuclear contribution   :     -0.70516       0.22720       1.57908
                        -----------------------------------------
Total Dipole Moment    :      0.10085       0.47196      -0.40587
                        -----------------------------------------
Magnitude (a.u.)       :      0.63059
Magnitude (Debye)      :      1.60284

Rotational constants in cm-1:     0.330529     0.301293     0.162717
Rotational constants in MHz :  9909.000224  9032.538169  4878.126278

                             ****ORCA TERMINATED NORMALLY****
TOTAL RUN TIME: 0 days 0 hours 0 minutes 4 seconds 822 msec
