                         Program Version 5.0.0 -  RELEASE  -
|  1> !BLYP D3BJ RIJCOSX def2-SVPD def2/J TightSCF
|  2> *xyz 0 1
|  3> C         -0.47749        0.60819       -4.10105
|  4> C          0.18467       -0.50664       -4.91676
|  5> F         -0.15869       -1.70109       -4.65798
|  6> O          1.05594       -0.17441       -5.74037
|  7> H         -0.09903        1.55672       -4.42038
|  8> H         -0.25931        0.46828       -3.06292
|  9> H         -1.53664        0.57826       -4.25010
| 10> *
| 11>
| 12> %MaxCore 64000
| 13>
| 14> %pal nprocs 4
| 15> end
| 16>
| 17> %scf
| 18>   MaxIter 150
| 19> end
| 20>
| 21>
| 22>                          ****END OF INPUT****

CARTESIAN COORDINATES (ANGSTROEM)
---------------------------------
  C     -0.477490    0.608190   -4.101050
  C      0.184670   -0.506640   -4.916760
  F     -0.158690   -1.701090   -4.657980
  O      1.055940   -0.174410   -5.740370
  H     -0.099030    1.556720   -4.420380
  H     -0.259310    0.468280   -3.062920
  H     -1.536640    0.578260   -4.250100

 Total Charge           Charge          ....    0
 Multiplicity           Mult            ....    1
 Number of Electrons    NEL             ....   32
 Basis Dimension        Dim             ....  110

ORBITAL ENERGIES
----------------

  NO   OCC          E(Eh)            E(eV)
   0   2.0000     -24.373616      -663.2398
   1   2.0000     -18.803129      -511.6592
   2   2.0000     -10.101730      -274.8821
   3   2.0000      -9.951581      -270.7963
   4   2.0000      -1.190396       -32.3923
   5   2.0000      -0.941232       -25.6122
   6   2.0000      -0.690898       -18.8003
   7   2.0000      -0.586248       -15.9526
   8   2.0000      -0.484885       -13.1944
   9   2.0000      -0.479228       -13.0405
  10   2.0000      -0.441516       -12.0143
  11   2.0000      -0.395854       -10.7717
  12   2.0000      -0.385620       -10.4933
  13   2.0000      -0.352088        -9.5808
  14   2.0000      -0.319908        -8.7051
  15   2.0000      -0.247924        -6.7464
  16   0.0000      -0.067134        -1.8268
  17   0.0000      -0.007330        -0.1995
  18   0.0000       0.040902         1.1130
  19   0.0000       0.064085         1.7438
  20   0.0000       0.070877         1.9287

MULLIKEN ATOMIC CHARGES
-----------------------
   0 C :    0.826529
   1 C :    0.251211
   2 F :   -0.317514
   3 O :   -0.336236
   4 H :   -0.194441
   5 H :   -0.113252
   6 H :   -0.116297
Sum of atomic charges:    0.0000000

LOEWDIN ATOMIC CHARGES
----------------------
   0 C :    0.229210
   1 C :   -0.066542
   2 F :   -0.026348
   3 O :   -0.110669
   4 H :   -0.007531
   5 H :   -0.008015
   6 H :   -0.010106

  Mayer bond orders larger than 0.100000
B(  0-C ,  1-C ) :   1.2222 B(  0-C ,  4-H ) :   0.8033 B(  0-C ,  5-H ) :   0.7403
B(  0-C ,  6-H ) :   0.7342 B(  1-C ,  2-F ) :   0.8243 B(  1-C ,  3-O ) :   1.9222
B(  1-C ,  4-H ) :   0.2772 B(  1-C ,  5-H ) :   0.1727 B(  1-C ,  6-H ) :   0.1784
B(  2-F ,  3-O ) :   0.1131

Dispersion correction           -0.007100801
FINAL SINGLE POINT ENERGY      -252.866035621149

DIPOLE MOMENT
-------------
                                X             Y             Z
Electronic contribution:      1.11231      -4.68193      -1.64476
Nuclear contribution   :     -1.87439       4.97468       2.43802
                        -----------------------------------------
Total Dipole Moment    :     -0.76208       0.29276       0.79326
                        -----------------------------------------
Magnitude (a.u.)       :      1.13830
Magnitude (Debye)      :      2.89334

Rotational constants in cm-1:     0.370842     0.317886     0.176700
Rotational constants in MHz : 11117.569466  9529.969862  5297.328364

                             ****ORCA TERMINATED NORMALLY****
TOTAL RUN TIME: 0 days 0 hours 0 minutes 3 seconds 475 msec
