                         Program Version 5.0.0 -  RELEASE  -
|  1> !BLYP D3BJ RIJCOSX def2-SVPD def2/J TightSCF
|  2> *xyz 0 1
|  3> C          2.48645       -2.67712       -2.56345
|  4> C          3.03764       -2.36672       -3.92351
|  5> C          2.28036       -2.45441       -4.96769
|  6> N          4.32174       -2.01793       -4.01664
|  7> H          4.87994       -1.91167       -3.17382
|  8> H          4.71015       -1.67088       -4.88356
|  9> H          1.27042       -2.41265       -4.86614
| 10> H          2.58183       -2.05528       -5.84688
| 11> H          1.45238       -2.93848       -2.64882
| 12> H          2.58636       -1.81799       -1.93352
| 13> H          3.02742       -3.49632       -2.13781
| 14> *
| 15>
| 16> %MaxCore 64000
| 17>
| 18> %pal nprocs 4
| 19> end
| 20>
| 21> %scf
| 22>   MaxIter 150
| 23> end
| 24>
| 25>
| 26>                          ****END OF INPUT****

CARTESIAN COORDINATES (ANGSTROEM)
---------------------------------
  C      2.486450   -2.677120   -2.563450
  C      3.037640   -2.366720   -3.923510
  C      2.280360   -2.454410   -4.967690
  N      4.321740   -2.017930   -4.016640
  H      4.879940   -1.911670   -3.173820
  H      4.710150   -1.670880   -4.883560
  H      1.270420   -2.412650   -4.866140
  H      2.581830   -2.055280   -5.846880
  H      1.452380   -2.938480   -2.648820
  H      2.586360   -1.817990   -1.933520
  H      3.027420   -3.496320   -2.137810

 Total Charge           Charge          ....    0
 Multiplicity           Mult            ....    1
 Number of Electrons    NEL             ....   32
 Basis Dimension        Dim             ....  136

ORBITAL ENERGIES
----------------

  NO   OCC          E(Eh)            E(eV)
   0   2.0000     -14.027360      -381.7039
   1   2.0000      -9.941388      -270.5189
   2   2.0000      -9.913412      -269.7577
   3   2.0000      -9.854750      -268.1614
   4   2.0000      -0.830477       -22.5984
   5   2.0000      -0.676863       -18.4184
   6   2.0000      -0.614355       -16.7174
   7   2.0000      -0.509954       -13.8765
   8   2.0000      -0.468579       -12.7507
   9   2.0000      -0.420368       -11.4388
  10   2.0000      -0.381643       -10.3850
  11   2.0000      -0.348231        -9.4758
  12   2.0000      -0.345743        -9.4082
  13   2.0000      -0.301838        -8.2134
  14   2.0000      -0.286054        -7.7839
  15   2.0000      -0.162446        -4.4204
  16   0.0000      -0.002196        -0.0598
  17   0.0000       0.017125         0.4660
  18   0.0000       0.035317         0.9610
  19   0.0000       0.044691         1.2161
  20   0.0000       0.068457         1.8628

MULLIKEN ATOMIC CHARGES
-----------------------
   0 C :    1.207705
   1 C :   -0.535546
   2 C :    0.595675
   3 N :    0.463563
   4 H :   -0.262193
   5 H :   -0.254574
   6 H :   -0.218682
   7 H :   -0.554951
   8 H :   -0.099732
   9 H :   -0.191529
  10 H :   -0.149735
Sum of atomic charges:    0.0000000

LOEWDIN ATOMIC CHARGES
----------------------
   0 C :    0.177693
   1 C :   -0.294411
   2 C :    0.168337
   3 N :    0.189911
   4 H :   -0.006855
   5 H :   -0.003318
   6 H :   -0.083893
   7 H :   -0.090902
   8 H :   -0.018948
   9 H :   -0.019272
  10 H :   -0.018341

  Mayer bond orders larger than 0.100000
B(  0-C ,  1-C ) :   1.3326 B(  0-C ,  2-C ) :   0.1101 B(  0-C ,  8-H ) :   0.7109
B(  0-C ,  9-H ) :   0.4583 B(  0-C , 10-H ) :   0.5825 B(  1-C ,  2-C ) :   1.8051
B(  1-C ,  3-N ) :   1.2520 B(  1-C ,  7-H ) :   0.2825 B(  1-C ,  8-H ) :   0.3112
B(  1-C ,  9-H ) :   0.4312 B(  1-C , 10-H ) :   0.3110 B(  2-C ,  3-N ) :   0.3202
B(  2-C ,  6-H ) :   0.7403 B(  2-C ,  7-H ) :   0.5194 B(  3-N ,  4-H ) :   1.1666
B(  3-N ,  5-H ) :   1.1656 B(  4-H ,  5-H ) :  -0.1449 B(  6-H ,  7-H ) :   0.2520

Dispersion correction           -0.014888657
FINAL SINGLE POINT ENERGY      -173.052087879101

DIPOLE MOMENT
-------------
                                X             Y             Z
Electronic contribution:      1.45022       0.18068      -0.92555
Nuclear contribution   :     -0.87498       0.20680       1.33581
                        -----------------------------------------
Total Dipole Moment    :      0.57523       0.38748       0.41026
                        -----------------------------------------
Magnitude (a.u.)       :      0.80582
Magnitude (Debye)      :      2.04823

Rotational constants in cm-1:     0.351941     0.304186     0.168624
Rotational constants in MHz : 10550.928440  9119.266441  5055.221775

                             ****ORCA TERMINATED NORMALLY****
TOTAL RUN TIME: 0 days 0 hours 0 minutes 4 seconds 889 msec
