                         Program Version 5.0.0 -  RELEASE  -
|  1> !BLYP D3BJ RIJCOSX def2-SVPD def2/J TightSCF
|  2> *xyz 0 1
|  3> C         -0.47749        0.60819       -4.10105
|  4> C          0.18467       -0.50664       -4.91676
|  5> O         -0.15869       -1.70109       -4.65798
|  6> F          1.05594       -0.17441       -5.74037
|  7> H         -0.09903        1.55672       -4.42038
|  8> H         -0.25931        0.46828       -3.06292
|  9> H         -1.53664        0.57826       -4.25010
| 10> *
| 11>
| 12> %MaxCore 64000
| 13>
| 14> %pal nprocs 4
| 15> end
| 16>
| 17> %scf
| 18>   MaxIter 150
| 19> end
| 20>
| 21>
| 22>                          ****END OF INPUT****

CARTESIAN COORDINATES (ANGSTROEM)
---------------------------------
  C     -0.477490    0.608190   -4.101050
  C      0.184670   -0.506640   -4.916760
  O     -0.158690   -1.701090   -4.657980
  F      1.055940   -0.174410   -5.740370
  H     -0.099030    1.556720   -4.420380
  H     -0.259310    0.468280   -3.062920
  H     -1.536640    0.578260   -4.250100

 Total Charge           Charge          ....    0
 Multiplicity           Mult            ....    1
 Number of Electrons    NEL             ....   32
 Basis Dimension        Dim             ....  110

ORBITAL ENERGIES
----------------

  NO   OCC          E(Eh)            E(eV)
   0   2.0000     -24.382453      -663.4803
   1   2.0000     -18.799397      -511.5576
   2   2.0000     -10.103862      -274.9401
   3   2.0000      -9.951871      -270.8042
   4   2.0000      -1.208987       -32.8982
   5   2.0000      -0.925968       -25.1969
   6   2.0000      -0.691870       -18.8267
   7   2.0000      -0.595745       -16.2110
   8   2.0000      -0.494554       -13.4575
   9   2.0000      -0.486811       -13.2468
  10   2.0000      -0.442700       -12.0465
  11   2.0000      -0.397634       -10.8202
  12   2.0000      -0.384622       -10.4661
  13   2.0000      -0.349160        -9.5011
  14   2.0000      -0.309009        -8.4086
  15   2.0000      -0.244370        -6.6496
  16   0.0000      -0.072025        -1.9599
  17   0.0000      -0.007660        -0.2084
  18   0.0000       0.040512         1.1024
  19   0.0000       0.064446         1.7537
  20   0.0000       0.068645         1.8679

MULLIKEN ATOMIC CHARGES
-----------------------
   0 C :    0.810888
   1 C :    0.241951
   2 O :   -0.392471
   3 F :   -0.261928
   4 H :   -0.180095
   5 H :   -0.107465
   6 H :   -0.110882
Sum of atomic charges:    0.0000000

LOEWDIN ATOMIC CHARGES
----------------------
   0 C :    0.228988
   1 C :   -0.066295
   2 O :   -0.126580
   3 F :   -0.010079
   4 H :   -0.021387
   5 H :   -0.001833
   6 H :   -0.002813

  Mayer bond orders larger than 0.100000
B(  0-C ,  1-C ) :   1.2441 B(  0-C ,  4-H ) :   0.8117 B(  0-C ,  5-H ) :   0.7377
B(  0-C ,  6-H ) :   0.7272 B(  1-C ,  2-O ) :   1.8667 B(  1-C ,  3-F ) :   0.9046
B(  1-C ,  4-H ) :   0.2085 B(  1-C ,  5-H ) :   0.1888 B(  1-C ,  6-H ) :   0.2004
B(  2-O ,  3-F ) :   0.1067

Dispersion correction           -0.007099992
FINAL SINGLE POINT ENERGY      -252.858891870452

DIPOLE MOMENT
-------------
                                X             Y             Z
Electronic contribution:      3.07167      -2.22571      -3.39157
Nuclear contribution   :     -3.12947       3.39716       3.55645
                        -----------------------------------------
Total Dipole Moment    :     -0.05780       1.17145       0.16488
                        -----------------------------------------
Magnitude (a.u.)       :      1.18441
Magnitude (Debye)      :      3.01053

Rotational constants in cm-1:     0.366922     0.321471     0.176896
Rotational constants in MHz : 11000.056350  9637.461211  5303.212706

                             ****ORCA TERMINATED NORMALLY****
TOTAL RUN TIME: 0 days 0 hours 0 minutes 3 seconds 536 msec
