                         Program Version 5.0.0 -  RELEASE  -
|  1> !BLYP D3BJ RIJCOSX def2-SVPD def2/J TightSCF
|  2> *xyz 0 1
|  3> C          2.48645       -2.67712       -2.56345
|  4> C          3.03764       -2.36672       -3.92351
|  5> N          2.28036       -2.45441       -4.96769
|  6> C          4.32174       -2.01793       -4.01664
|  7> H          4.87994       -1.91167       -3.17382
|  8> H          4.71015       -1.67088       -4.88356
|  9> H          1.27042       -2.41265       -4.86614
| 10> H          2.58183       -2.05528       -5.84688
| 11> H          1.45238       -2.93848       -2.64882
| 12> H          2.58636       -1.81799       -1.93352
| 13> H          3.02742       -3.49632       -2.13781
| 14> *
| 15>
| 16> %MaxCore 64000
| 17>
| 18> %pal nprocs 4
| 19> end
| 20>
| 21> %scf
| 22>   MaxIter 150
| 23> end
| 24>
| 25>
| 26>                          ****END OF INPUT****

CARTESIAN COORDINATES (ANGSTROEM)
---------------------------------
  C      2.486450   -2.677120   -2.563450
  C      3.037640   -2.366720   -3.923510
  N      2.280360   -2.454410   -4.967690
  C      4.321740   -2.017930   -4.016640
  H      4.879940   -1.911670   -3.173820
  H      4.710150   -1.670880   -4.883560
  H      1.270420   -2.412650   -4.866140
  H      2.581830   -2.055280   -5.846880
  H      1.452380   -2.938480   -2.648820
  H      2.586360   -1.817990   -1.933520
  H      3.027420   -3.496320   -2.137810

 Total Charge           Charge          ....    0
 Multiplicity           Mult            ....    1
 Number of Electrons    NEL             ....   32
 Basis Dimension        Dim             ....  136

ORBITAL ENERGIES
----------------

  NO   OCC          E(Eh)            E(eV)
   0   2.0000     -14.030934      -381.8011
   1   2.0000      -9.940836      -270.5039
   2   2.0000      -9.913892      -269.7707
   3   2.0000      -9.854073      -268.1430
   4   2.0000      -0.845410       -23.0048
   5   2.0000      -0.673732       -18.3332
   6   2.0000      -0.607406       -16.5284
   7   2.0000      -0.518598       -14.1118
   8   2.0000      -0.468181       -12.7399
   9   2.0000      -0.417611       -11.3638
  10   2.0000      -0.380432       -10.3521
  11   2.0000      -0.348896        -9.4940
  12   2.0000      -0.341085        -9.2814
  13   2.0000      -0.306801        -8.3485
  14   2.0000      -0.294641        -8.0176
  15   2.0000      -0.152991        -4.1631
  16   0.0000      -0.003654        -0.0994
  17   0.0000       0.014602         0.3973
  18   0.0000       0.034895         0.9495
  19   0.0000       0.041885         1.1398
  20   0.0000       0.066121         1.7993

MULLIKEN ATOMIC CHARGES
-----------------------
   0 C :    1.227080
   1 C :   -0.516940
   2 N :    0.437299
   3 C :    0.629408
   4 H :   -0.344391
   5 H :   -0.579125
   6 H :   -0.169425
   7 H :   -0.183926
   8 H :   -0.267122
   9 H :   -0.118673
  10 H :   -0.114184
Sum of atomic charges:    0.0000000

LOEWDIN ATOMIC CHARGES
----------------------
   0 C :    0.179895
   1 C :   -0.298162
   2 N :    0.183434
   3 C :    0.179230
   4 H :   -0.087021
   5 H :   -0.099882
   6 H :   -0.003729
   7 H :    0.004385
   8 H :   -0.033532
   9 H :   -0.012742
  10 H :   -0.011875

  Mayer bond orders larger than 0.100000
B(  0-C ,  1-C ) :   1.0922 B(  0-C ,  2-N ) :   0.1300 B(  0-C ,  3-C ) :   0.1200
B(  0-C ,  8-H ) :   0.5479 B(  0-C ,  9-H ) :   0.6553 B(  0-C , 10-H ) :   0.6061
B(  1-C ,  2-N ) :   1.1762 B(  1-C ,  3-C ) :   1.6324 B(  1-C ,  4-H ) :   0.1137
B(  1-C ,  5-H ) :   0.1862 B(  1-C ,  8-H ) :   0.4145 B(  1-C ,  9-H ) :   0.2376
B(  1-C , 10-H ) :   0.2653 B(  2-N ,  3-C ) :   0.2809 B(  2-N ,  6-H ) :   1.0263
B(  2-N ,  7-H ) :   1.1200 B(  3-C ,  4-H ) :   0.7266 B(  3-C ,  5-H ) :   0.6738
B(  6-H ,  7-H ) :  -0.1169

Dispersion correction           -0.014890684
FINAL SINGLE POINT ENERGY      -173.052390285691

DIPOLE MOMENT
-------------
                                X             Y             Z
Electronic contribution:     -0.36855      -0.13838      -1.74980
Nuclear contribution   :     -0.41717       0.30469       1.54910
                        -----------------------------------------
Total Dipole Moment    :     -0.78572       0.16630      -0.20069
                        -----------------------------------------
Magnitude (a.u.)       :      0.82783
Magnitude (Debye)      :      2.10416

Rotational constants in cm-1:     0.351587     0.304754     0.168726
Rotational constants in MHz : 10540.302868  9136.286689  5058.281984

                             ****ORCA TERMINATED NORMALLY****
TOTAL RUN TIME: 0 days 0 hours 0 minutes 4 seconds 916 msec
