                         Program Version 5.0.0 -  RELEASE  -
|  1> !TPSS D3BJ RIJCOSX def2-TZVP def2/J TightSCF
|  2> *xyz -1 1
|  3> C         -0.87096        0.24804       -2.66280
|  4> C         -0.47749        0.60819       -4.10105
|  5> H          0.20677        1.45830       -4.11875
|  6> H         -1.36844        0.92942       -4.64785
|  7> C          0.18467       -0.50664       -4.91676
|  8> O         -0.15869       -1.70109       -4.65798
|  9> O          1.05594       -0.17441       -5.74037
| 10> H         -1.54056       -0.58646       -2.67455
| 11> H         -1.35339        1.08600       -2.20455
| 12> H          0.00660       -0.00662       -2.10609
| 13> *
| 14>
| 15> %MaxCore 64000
| 16>
| 17> %pal nprocs 4
| 18> end
| 19>
| 20> %scf
| 21>   MaxIter 150
| 22> end
| 23>
| 24>
| 25>                          ****END OF INPUT****

CARTESIAN COORDINATES (ANGSTROEM)
---------------------------------
  C     -0.870960    0.248040   -2.662800
  C     -0.477490    0.608190   -4.101050
  H      0.206770    1.458300   -4.118750
  H     -1.368440    0.929420   -4.647850
  C      0.184670   -0.506640   -4.916760
  O     -0.158690   -1.701090   -4.657980
  O      1.055940   -0.174410   -5.740370
  H     -1.540560   -0.586460   -2.674550
  H     -1.353390    1.086000   -2.204550
  H      0.006600   -0.006620   -2.106090

 Total Charge           Charge          ....   -1
 Multiplicity           Mult            ....    1
 Number of Electrons    NEL             ....   40
 Basis Dimension        Dim             ....  185

ORBITAL ENERGIES
----------------

  NO   OCC          E(Eh)            E(eV)
   0   2.0000     -18.607551      -506.3372
   1   2.0000     -18.604945      -506.2663
   2   2.0000      -9.847210      -267.9562
   3   2.0000      -9.814833      -267.0752
   4   2.0000      -9.803737      -266.7732
   5   2.0000      -0.739002       -20.1093
   6   2.0000      -0.649469       -17.6730
   7   2.0000      -0.541079       -14.7235
   8   2.0000      -0.418758       -11.3950
   9   2.0000      -0.264511        -7.1977
  10   2.0000      -0.245927        -6.6920
  11   2.0000      -0.209500        -5.7008
  12   2.0000      -0.177548        -4.8313
  13   2.0000      -0.168363        -4.5814
  14   2.0000      -0.154362        -4.2004
  15   2.0000      -0.125108        -3.4044
  16   2.0000      -0.111368        -3.0305
  17   2.0000      -0.000896        -0.0244
  18   2.0000       0.010293         0.2801
  19   2.0000       0.026751         0.7279
  20   0.0000       0.175150         4.7661
  21   0.0000       0.216658         5.8956
  22   0.0000       0.220146         5.9905
  23   0.0000       0.238451         6.4886
  24   0.0000       0.248795         6.7701

MULLIKEN ATOMIC CHARGES
-----------------------
   0 C :   -0.281668
   1 C :   -0.146621
   2 H :    0.035512
   3 H :    0.029131
   4 C :    0.179479
   5 O :   -0.526009
   6 O :   -0.493511
   7 H :    0.085085
   8 H :    0.043901
   9 H :    0.074700
Sum of atomic charges:   -1.0000000

LOEWDIN ATOMIC CHARGES
----------------------
   0 C :   -0.323960
   1 C :   -0.295118
   2 H :    0.116558
   3 H :    0.118309
   4 C :   -0.713891
   5 O :   -0.117172
   6 O :   -0.081911
   7 H :    0.106056
   8 H :    0.087626
   9 H :    0.103504

  Mayer bond orders larger than 0.100000
B(  0-C ,  1-C ) :   0.9751 B(  0-C ,  7-H ) :   0.9650 B(  0-C ,  8-H ) :   0.9543
B(  0-C ,  9-H ) :   0.9744 B(  1-C ,  2-H ) :   0.9425 B(  1-C ,  3-H ) :   0.9410
B(  1-C ,  4-C ) :   0.9569 B(  4-C ,  5-O ) :   1.8317 B(  4-C ,  6-O ) :   1.8920

Dispersion correction           -0.008004854
FINAL SINGLE POINT ENERGY      -267.983620266557

DIPOLE MOMENT
-------------
                                X             Y             Z
Electronic contribution:      2.71844      -3.03445      -4.68685
Nuclear contribution   :     -3.54611       4.15440       5.90446
                        -----------------------------------------
Total Dipole Moment    :     -0.82768       1.11995       1.21761
                        -----------------------------------------
Magnitude (a.u.)       :      1.84984
Magnitude (Debye)      :      4.70192

Rotational constants in cm-1:     0.332789     0.132085     0.101080
Rotational constants in MHz :  9976.755824  3959.803182  3030.288811

                             ****ORCA TERMINATED NORMALLY****
TOTAL RUN TIME: 0 days 0 hours 0 minutes 9 seconds 621 msec
