                         Program Version 5.0.0 -  RELEASE  -
|  1> !TPSS D3BJ RIJCOSX def2-TZVP def2/J TightSCF
|  2> *xyz 1 1
|  3> C          2.48645       -2.67712       -2.56345
|  4> C          3.03764       -2.36672       -3.92351
|  5> N          2.28036       -2.45441       -4.96769
|  6> N          4.32174       -2.01793       -4.01664
|  7> H          4.87994       -1.91167       -3.17382
|  8> H          4.71015       -1.67088       -4.88356
|  9> H          1.27042       -2.41265       -4.86614
| 10> H          2.58183       -2.05528       -5.84688
| 11> C          2.49799       -1.46946       -1.61030
| 12> H          1.47259       -3.05153       -2.69437
| 13> H          3.08320       -3.49064       -2.14147
| 14> H          1.91240       -0.67831       -2.02991
| 15> H          3.50450       -1.13364       -1.47227
| 16> H          2.08509       -1.75655       -0.66585
| 17> *
| 18>
| 19> %MaxCore 64000
| 20>
| 21> %pal nprocs 4
| 22> end
| 23>
| 24> %scf
| 25>   MaxIter 150
| 26> end
| 27>
| 28>
| 29>                          ****END OF INPUT****

CARTESIAN COORDINATES (ANGSTROEM)
---------------------------------
  C      2.486450   -2.677120   -2.563450
  C      3.037640   -2.366720   -3.923510
  N      2.280360   -2.454410   -4.967690
  N      4.321740   -2.017930   -4.016640
  H      4.879940   -1.911670   -3.173820
  H      4.710150   -1.670880   -4.883560
  H      1.270420   -2.412650   -4.866140
  H      2.581830   -2.055280   -5.846880
  C      2.497990   -1.469460   -1.610300
  H      1.472590   -3.051530   -2.694370
  H      3.083200   -3.490640   -2.141470
  H      1.912400   -0.678310   -2.029910
  H      3.504500   -1.133640   -1.472270
  H      2.085090   -1.756550   -0.665850

 Total Charge           Charge          ....    1
 Multiplicity           Mult            ....    1
 Number of Electrons    NEL             ....   40
 Basis Dimension        Dim             ....  209

ORBITAL ENERGIES
----------------

  NO   OCC          E(Eh)            E(eV)
   0   2.0000     -14.349613      -390.4728
   1   2.0000     -14.344931      -390.3454
   2   2.0000     -10.298324      -280.2316
   3   2.0000     -10.184090      -277.1232
   4   2.0000     -10.143374      -276.0152
   5   2.0000      -1.141758       -31.0688
   6   2.0000      -1.051724       -28.6189
   7   2.0000      -0.912845       -24.8398
   8   2.0000      -0.815381       -22.1876
   9   2.0000      -0.766573       -20.8595
  10   2.0000      -0.727038       -19.7837
  11   2.0000      -0.705410       -19.1952
  12   2.0000      -0.658787       -17.9265
  13   2.0000      -0.608673       -16.5628
  14   2.0000      -0.583171       -15.8689
  15   2.0000      -0.567184       -15.4339
  16   2.0000      -0.511030       -13.9058
  17   2.0000      -0.502284       -13.6678
  18   2.0000      -0.493656       -13.4331
  19   2.0000      -0.459200       -12.4955
  20   0.0000      -0.240667        -6.5489
  21   0.0000      -0.172266        -4.6876
  22   0.0000      -0.130320        -3.5462
  23   0.0000      -0.127898        -3.4803
  24   0.0000      -0.097192        -2.6447

MULLIKEN ATOMIC CHARGES
-----------------------
   0 C :   -0.217059
   1 C :    0.277756
   2 N :   -0.302236
   3 N :   -0.342269
   4 H :    0.301481
   5 H :    0.282386
   6 H :    0.301898
   7 H :    0.278374
   8 C :   -0.325709
   9 H :    0.138696
  10 H :    0.173127
  11 H :    0.139309
  12 H :    0.120791
  13 H :    0.173455
Sum of atomic charges:    1.0000000

LOEWDIN ATOMIC CHARGES
----------------------
   0 C :   -0.213595
   1 C :   -0.301565
   2 N :    0.132556
   3 N :    0.112204
   4 H :    0.207238
   5 H :    0.195039
   6 H :    0.212275
   7 H :    0.198915
   8 C :   -0.252321
   9 H :    0.155923
  10 H :    0.169352
  11 H :    0.126934
  12 H :    0.119325
  13 H :    0.137721

  Mayer bond orders larger than 0.100000
B(  0-C ,  1-C ) :   1.0135 B(  0-C ,  8-C ) :   1.0019 B(  0-C ,  9-H ) :   0.9490
B(  0-C , 10-H ) :   0.9209 B(  1-C ,  2-N ) :   1.4947 B(  1-C ,  3-N ) :   1.4382
B(  2-N ,  6-H ) :   0.8746 B(  2-N ,  7-H ) :   0.8842 B(  3-N ,  4-H ) :   0.8815
B(  3-N ,  5-H ) :   0.8847 B(  8-C , 11-H ) :   0.9579 B(  8-C , 12-H ) :   0.9650
B(  8-C , 13-H ) :   0.9534

Dispersion correction           -0.012449758
FINAL SINGLE POINT ENERGY      -229.160313776652

DIPOLE MOMENT
-------------
                                X             Y             Z
Electronic contribution:      1.06677      -1.06443      -3.92196
Nuclear contribution   :     -0.84604       1.34287       2.92710
                        -----------------------------------------
Total Dipole Moment    :      0.22073       0.27844      -0.99486
                        -----------------------------------------
Magnitude (a.u.)       :      1.05641
Magnitude (Debye)      :      2.68518

Rotational constants in cm-1:     0.265816     0.126189     0.097583
Rotational constants in MHz :  7968.948902  3783.040103  2925.457702

                             ****ORCA TERMINATED NORMALLY****
TOTAL RUN TIME: 0 days 0 hours 0 minutes 11 seconds 422 msec
