                         Program Version 5.0.0 -  RELEASE  -
|  1> !TPSS D3BJ RIJCOSX def2-TZVP def2/J TightSCF xyzfile
|  2>
|  3> *xyzfile 0 1 B.xyz
|  4>
|  5> %MaxCore 64000
|  6>
|  7> %pal nprocs 18
|  8> end
|  9>
| 10> %scf
| 11>   MaxIter 150
| 12> end
| 13>
| 14>
| 15>                          ****END OF INPUT****

CARTESIAN COORDINATES (ANGSTROEM)
---------------------------------
  C      2.486452   -2.677121   -2.563447
  C     -0.870963    0.248043   -2.662804
  C     -0.477492    0.608191   -4.101052
  H      0.206773    1.458299   -4.118748
  H     -1.368442    0.929419   -4.647855
  C      0.184673   -0.506640   -4.916760
  C      3.037640   -2.366715   -3.923509
  N      2.280360   -2.454408   -4.967692
  N      4.321736   -2.017932   -4.016641
  H      4.879940   -1.911668   -3.173823
  H      4.710148   -1.670882   -4.883561
  H      1.270423   -2.412650   -4.866143
  H      2.581829   -2.055282   -5.846878
  O     -0.158685   -1.701088   -4.657981
  O      1.055938   -0.174410   -5.740373
  C      2.497991   -1.469464   -1.610303
  C      1.582841   -0.321986   -2.042619
  H      2.193083   -1.833912   -0.625420
  H      3.523356   -1.103982   -1.490392
  C      0.100160   -0.673551   -1.915815
  H      1.822311   -0.040361   -3.072834
  H      1.813180    0.557019   -1.433266
  H     -0.063284   -1.679120   -2.301112
  H     -0.168820   -0.691680   -0.853831
  H     -1.001048    1.181040   -2.104071
  H     -1.844645   -0.246592   -2.663281
  H      1.472592   -3.051527   -2.694366
  H      3.083201   -3.490638   -2.141472

 Total Charge           Charge          ....    0
 Multiplicity           Mult            ....    1
 Number of Electrons    NEL             ....   94
 Basis Dimension        Dim             ....  468

ORBITAL ENERGIES
----------------

  NO   OCC          E(Eh)            E(eV)
   0   2.0000     -18.794413      -511.4220
   1   2.0000     -18.786613      -511.2097
   2   2.0000     -14.180791      -385.8789
   3   2.0000     -14.144393      -384.8885
   4   2.0000     -10.119534      -275.3665
   5   2.0000     -10.028060      -272.8774
   6   2.0000     -10.023303      -272.7479
   7   2.0000     -10.010354      -272.3956
   8   2.0000      -9.980856      -271.5929
   9   2.0000      -9.963167      -271.1115
  10   2.0000      -9.958367      -270.9810
  11   2.0000      -9.946335      -270.6535
  12   2.0000      -0.963794       -26.2262
  13   2.0000      -0.926819       -25.2200
  14   2.0000      -0.871599       -23.7174
  15   2.0000      -0.836449       -22.7609
  16   2.0000      -0.771346       -20.9894
  17   2.0000      -0.719490       -19.5783
  18   2.0000      -0.677564       -18.4375
  19   2.0000      -0.626049       -17.0357
  20   2.0000      -0.607032       -16.5182
  21   2.0000      -0.566074       -15.4037
  22   2.0000      -0.558303       -15.1922
  23   2.0000      -0.531014       -14.4496
  24   2.0000      -0.509365       -13.8605
  25   2.0000      -0.477209       -12.9855
  26   2.0000      -0.453847       -12.3498
  27   2.0000      -0.436263       -11.8713
  28   2.0000      -0.413635       -11.2556
  29   2.0000      -0.407376       -11.0853
  30   2.0000      -0.399763       -10.8781
  31   2.0000      -0.380577       -10.3560
  32   2.0000      -0.370580       -10.0840
  33   2.0000      -0.366251        -9.9662
  34   2.0000      -0.344931        -9.3860
  35   2.0000      -0.337899        -9.1947
  36   2.0000      -0.323925        -8.8144
  37   2.0000      -0.317165        -8.6305
  38   2.0000      -0.311899        -8.4872
  39   2.0000      -0.295426        -8.0390
  40   2.0000      -0.284203        -7.7336
  41   2.0000      -0.277873        -7.5613
  42   2.0000      -0.268136        -7.2964
  43   2.0000      -0.260294        -7.0830
  44   2.0000      -0.187028        -5.0893
  45   2.0000      -0.171359        -4.6629
  46   2.0000      -0.156326        -4.2538
  47   0.0000      -0.066806        -1.8179
  48   0.0000      -0.025432        -0.6921
  49   0.0000       0.015123         0.4115
  50   0.0000       0.035934         0.9778
  51   0.0000       0.041237         1.1221

MULLIKEN ATOMIC CHARGES
-----------------------
   0 C :   -0.224807
   1 C :   -0.110107
   2 C :   -0.181593
   3 H :    0.091327
   4 H :    0.088313
   5 C :    0.221681
   6 C :    0.232524
   7 N :   -0.250295
   8 N :   -0.396819
   9 H :    0.264656
  10 H :    0.260615
  11 H :    0.270780
  12 H :    0.242724
  13 O :   -0.517443
  14 O :   -0.471020
  15 C :   -0.138692
  16 C :   -0.205522
  17 H :    0.096417
  18 H :    0.084459
  19 C :   -0.180393
  20 H :    0.138858
  21 H :    0.070719
  22 H :    0.109505
  23 H :    0.071753
  24 H :    0.068329
  25 H :    0.076330
  26 H :    0.156613
  27 H :    0.131088
Sum of atomic charges:   -0.0000000

LOEWDIN ATOMIC CHARGES
----------------------
   0 C :   -0.204244
   1 C :   -0.259472
   2 C :   -0.249068
   3 H :    0.135512
   4 H :    0.141666
   5 C :   -0.671058
   6 C :   -0.332751
   7 N :    0.153276
   8 N :    0.060090
   9 H :    0.186649
  10 H :    0.181815
  11 H :    0.158777
  12 H :    0.181918
  13 O :   -0.059798
  14 O :   -0.038515
  15 C :   -0.249952
  16 C :   -0.253083
  17 H :    0.141968
  18 H :    0.125752
  19 C :   -0.267052
  20 H :    0.146822
  21 H :    0.132848
  22 H :    0.136670
  23 H :    0.127099
  24 H :    0.127373
  25 H :    0.135860
  26 H :    0.159041
  27 H :    0.151856

  Mayer bond orders larger than 0.100000
B(  0-C ,  6-C ) :   1.0065 B(  0-C , 15-C ) :   1.0002 B(  0-C , 26-H ) :   0.9533
B(  0-C , 27-H ) :   0.9308 B(  1-C ,  2-C ) :   1.0088 B(  1-C , 19-C ) :   1.0354
B(  1-C , 24-H ) :   0.9439 B(  1-C , 25-H ) :   0.9377 B(  2-C ,  3-H ) :   0.9525
B(  2-C ,  4-H ) :   0.9204 B(  2-C ,  5-C ) :   0.9911 B(  5-C , 13-O ) :   1.6004
B(  5-C , 14-O ) :   1.8007 B(  6-C ,  7-N ) :   1.6139 B(  6-C ,  8-N ) :   1.3034
B(  7-N , 11-H ) :   0.7331 B(  7-N , 12-H ) :   0.8868 B(  8-N ,  9-H ) :   0.8962
B(  8-N , 10-H ) :   0.8974 B( 11-H , 13-O ) :   0.2485 B( 15-C , 16-C ) :   0.9893
B( 15-C , 17-H ) :   0.9323 B( 15-C , 18-H ) :   0.9544 B( 16-C , 19-C ) :   1.0071
B( 16-C , 20-H ) :   0.9569 B( 16-C , 21-H ) :   0.9325 B( 19-C , 22-H ) :   0.9521
B( 19-C , 23-H ) :   0.9316

Dispersion correction           -0.039200221
FINAL SINGLE POINT ENERGY      -574.792736509591

DIPOLE MOMENT
-------------
                                X             Y             Z
Electronic contribution:      1.66376      -2.89927      -8.93280
Nuclear contribution   :      1.39386       1.90489      10.36520
                        -----------------------------------------
Total Dipole Moment    :      3.05762      -0.99438       1.43240
                        -----------------------------------------
Magnitude (a.u.)       :      3.51988
Magnitude (Debye)      :      8.94683

Rotational constants in cm-1:     0.041165     0.025922     0.019001
Rotational constants in MHz :  1234.086888   777.109255   569.639629

                             ****ORCA TERMINATED NORMALLY****
TOTAL RUN TIME: 0 days 0 hours 0 minutes 21 seconds 494 msec
