                         Program Version 5.0.0 -  RELEASE  -
|  1> !TPSS D3BJ RIJCOSX def2-TZVP def2/J TightSCF
|  2> *xyz 0 1
|  3> C         -0.87096        0.24804       -2.66280
|  4> C         -0.47749        0.60819       -4.10105
|  5> H          0.20677        1.45830       -4.11875
|  6> H         -1.36844        0.92942       -4.64785
|  7> C          0.18467       -0.50664       -4.91676
|  8> F         -0.15869       -1.70109       -4.65798
|  9> O          1.05594       -0.17441       -5.74037
| 10> H         -1.54056       -0.58646       -2.67455
| 11> H         -1.35339        1.08600       -2.20455
| 12> H          0.00660       -0.00662       -2.10609
| 13> *
| 14>
| 15> %MaxCore 64000
| 16>
| 17> %pal nprocs 4
| 18> end
| 19>
| 20> %scf
| 21>   MaxIter 150
| 22> end
| 23>
| 24>
| 25>                          ****END OF INPUT****

CARTESIAN COORDINATES (ANGSTROEM)
---------------------------------
  C     -0.870960    0.248040   -2.662800
  C     -0.477490    0.608190   -4.101050
  H      0.206770    1.458300   -4.118750
  H     -1.368440    0.929420   -4.647850
  C      0.184670   -0.506640   -4.916760
  F     -0.158690   -1.701090   -4.657980
  O      1.055940   -0.174410   -5.740370
  H     -1.540560   -0.586460   -2.674550
  H     -1.353390    1.086000   -2.204550
  H      0.006600   -0.006620   -2.106090

 Total Charge           Charge          ....    0
 Multiplicity           Mult            ....    1
 Number of Electrons    NEL             ....   40
 Basis Dimension        Dim             ....  185

ORBITAL ENERGIES
----------------

  NO   OCC          E(Eh)            E(eV)
   0   2.0000     -24.470946      -665.8883
   1   2.0000     -18.885727      -513.9068
   2   2.0000     -10.148368      -276.1511
   3   2.0000     -10.016053      -272.5506
   4   2.0000      -9.992261      -271.9033
   5   2.0000      -1.227281       -33.3960
   6   2.0000      -0.967236       -26.3198
   7   2.0000      -0.743869       -20.2417
   8   2.0000      -0.630067       -17.1450
   9   2.0000      -0.584481       -15.9045
  10   2.0000      -0.488982       -13.3059
  11   2.0000      -0.481099       -13.0914
  12   2.0000      -0.444203       -12.0874
  13   2.0000      -0.423115       -11.5135
  14   2.0000      -0.389358       -10.5950
  15   2.0000      -0.357966        -9.7408
  16   2.0000      -0.346871        -9.4388
  17   2.0000      -0.337847        -9.1933
  18   2.0000      -0.310655        -8.4533
  19   2.0000      -0.245986        -6.6936
  20   0.0000      -0.056622        -1.5408
  21   0.0000       0.016383         0.4458
  22   0.0000       0.062857         1.7104
  23   0.0000       0.080877         2.2008
  24   0.0000       0.086731         2.3601

MULLIKEN ATOMIC CHARGES
-----------------------
   0 C :   -0.329967
   1 C :   -0.202310
   2 H :    0.132069
   3 H :    0.117065
   4 C :    0.300721
   5 F :   -0.088328
   6 O :   -0.289944
   7 H :    0.117715
   8 H :    0.123187
   9 H :    0.119792
Sum of atomic charges:   -0.0000000

LOEWDIN ATOMIC CHARGES
----------------------
   0 C :   -0.290607
   1 C :   -0.255298
   2 H :    0.151402
   3 H :    0.150477
   4 C :   -0.513835
   5 F :    0.315223
   6 O :    0.090615
   7 H :    0.116580
   8 H :    0.118006
   9 H :    0.117437

  Mayer bond orders larger than 0.100000
B(  0-C ,  1-C ) :   0.9990 B(  0-C ,  7-H ) :   0.9651 B(  0-C ,  8-H ) :   0.9614
B(  0-C ,  9-H ) :   0.9711 B(  1-C ,  2-H ) :   0.9485 B(  1-C ,  3-H ) :   0.9222
B(  1-C ,  4-C ) :   1.0344 B(  4-C ,  5-F ) :   1.1587 B(  4-C ,  6-O ) :   2.0833

Dispersion correction           -0.007539090
FINAL SINGLE POINT ENERGY      -292.560714934811

DIPOLE MOMENT
-------------
                                X             Y             Z
Electronic contribution:      2.64679      -5.38041      -5.33784
Nuclear contribution   :     -3.42837       5.66737       6.17046
                        -----------------------------------------
Total Dipole Moment    :     -0.78158       0.28696       0.83262
                        -----------------------------------------
Magnitude (a.u.)       :      1.17748
Magnitude (Debye)      :      2.99292

Rotational constants in cm-1:     0.304660     0.130969     0.097716
Rotational constants in MHz :  9133.464515  3926.366384  2929.457090

                             ****ORCA TERMINATED NORMALLY****
TOTAL RUN TIME: 0 days 0 hours 0 minutes 8 seconds 659 msec
