                         Program Version 5.0.0 -  RELEASE  -
|  1> !TPSS D3BJ RIJCOSX def2-TZVP def2/J TightSCF
|  2> *xyz 0 1
|  3> C          2.48645       -2.67712       -2.56345
|  4> C          3.03764       -2.36672       -3.92351
|  5> C          2.28036       -2.45441       -4.96769
|  6> N          4.32174       -2.01793       -4.01664
|  7> H          4.87994       -1.91167       -3.17382
|  8> H          4.71015       -1.67088       -4.88356
|  9> H          1.27042       -2.41265       -4.86614
| 10> H          2.58183       -2.05528       -5.84688
| 11> C          2.49799       -1.46946       -1.61030
| 12> H          1.47259       -3.05153       -2.69437
| 13> H          3.08320       -3.49064       -2.14147
| 14> H          1.91240       -0.67831       -2.02991
| 15> H          3.50450       -1.13364       -1.47227
| 16> H          2.08509       -1.75655       -0.66585
| 17> *
| 18>
| 19> %MaxCore 64000
| 20>
| 21> %pal nprocs 4
| 22> end
| 23>
| 24> %scf
| 25>   MaxIter 150
| 26> end
| 27>
| 28>
| 29>                          ****END OF INPUT****

CARTESIAN COORDINATES (ANGSTROEM)
---------------------------------
  C      2.486450   -2.677120   -2.563450
  C      3.037640   -2.366720   -3.923510
  C      2.280360   -2.454410   -4.967690
  N      4.321740   -2.017930   -4.016640
  H      4.879940   -1.911670   -3.173820
  H      4.710150   -1.670880   -4.883560
  H      1.270420   -2.412650   -4.866140
  H      2.581830   -2.055280   -5.846880
  C      2.497990   -1.469460   -1.610300
  H      1.472590   -3.051530   -2.694370
  H      3.083200   -3.490640   -2.141470
  H      1.912400   -0.678310   -2.029910
  H      3.504500   -1.133640   -1.472270
  H      2.085090   -1.756550   -0.665850

 Total Charge           Charge          ....    0
 Multiplicity           Mult            ....    1
 Number of Electrons    NEL             ....   40
 Basis Dimension        Dim             ....  209

ORBITAL ENERGIES
----------------

  NO   OCC          E(Eh)            E(eV)
   0   2.0000     -14.101183      -383.7127
   1   2.0000      -9.997323      -272.0410
   2   2.0000      -9.983383      -271.6617
   3   2.0000      -9.973474      -271.3920
   4   2.0000      -9.912058      -269.7208
   5   2.0000      -0.861237       -23.4354
   6   2.0000      -0.722010       -19.6469
   7   2.0000      -0.668851       -18.2004
   8   2.0000      -0.585368       -15.9287
   9   2.0000      -0.518992       -14.1225
  10   2.0000      -0.480035       -13.0624
  11   2.0000      -0.432905       -11.7799
  12   2.0000      -0.395666       -10.7666
  13   2.0000      -0.388993       -10.5850
  14   2.0000      -0.347324        -9.4512
  15   2.0000      -0.343025        -9.3342
  16   2.0000      -0.318247        -8.6600
  17   2.0000      -0.295048        -8.0287
  18   2.0000      -0.286302        -7.7907
  19   2.0000      -0.164503        -4.4763
  20   0.0000       0.013185         0.3588
  21   0.0000       0.021895         0.5958
  22   0.0000       0.059135         1.6091
  23   0.0000       0.066194         1.8012
  24   0.0000       0.079149         2.1538

MULLIKEN ATOMIC CHARGES
-----------------------
   0 C :   -0.163288
   1 C :    0.187454
   2 C :   -0.384701
   3 N :   -0.474067
   4 H :    0.230656
   5 H :    0.231750
   6 H :    0.101123
   7 H :    0.075553
   8 C :   -0.321133
   9 H :    0.102951
  10 H :    0.092620
  11 H :    0.115047
  12 H :    0.090131
  13 H :    0.115903
Sum of atomic charges:   -0.0000000

LOEWDIN ATOMIC CHARGES
----------------------
   0 C :   -0.231960
   1 C :   -0.366722
   2 C :   -0.273257
   3 N :    0.000335
   4 H :    0.166626
   5 H :    0.168553
   6 H :    0.108167
   7 H :    0.098077
   8 C :   -0.288043
   9 H :    0.144195
  10 H :    0.136886
  11 H :    0.116605
  12 H :    0.107123
  13 H :    0.113415

  Mayer bond orders larger than 0.100000
B(  0-C ,  1-C ) :   1.0104 B(  0-C ,  8-C ) :   0.9972 B(  0-C ,  9-H ) :   0.9568
B(  0-C , 10-H ) :   0.9476 B(  1-C ,  2-C ) :   1.8321 B(  1-C ,  3-N ) :   1.1552
B(  2-C ,  6-H ) :   0.9721 B(  2-C ,  7-H ) :   0.9751 B(  3-N ,  4-H ) :   0.9203
B(  3-N ,  5-H ) :   0.9121 B(  8-C , 11-H ) :   0.9721 B(  8-C , 12-H ) :   0.9709
B(  8-C , 13-H ) :   0.9661

Dispersion correction           -0.012943051
FINAL SINGLE POINT ENERGY      -212.682600050960

DIPOLE MOMENT
-------------
                                X             Y             Z
Electronic contribution:      1.57514      -0.87186      -2.13972
Nuclear contribution   :     -0.99743       1.27863       2.57190
                        -----------------------------------------
Total Dipole Moment    :      0.57770       0.40676       0.43218
                        -----------------------------------------
Magnitude (a.u.)       :      0.82824
Magnitude (Debye)      :      2.10521

Rotational constants in cm-1:     0.274050     0.130114     0.100964
Rotational constants in MHz :  8215.815505  3900.722919  3026.834930

                             ****ORCA TERMINATED NORMALLY****
TOTAL RUN TIME: 0 days 0 hours 0 minutes 11 seconds 248 msec
