                         Program Version 5.0.0 -  RELEASE  -
|  1> !TPSS D3BJ RIJCOSX def2-TZVP def2/J TightSCF
|  2> *xyz 0 1
|  3> C         -0.87096        0.24804       -2.66280
|  4> C         -0.47749        0.60819       -4.10105
|  5> H          0.20677        1.45830       -4.11875
|  6> H         -1.36844        0.92942       -4.64785
|  7> C          0.18467       -0.50664       -4.91676
|  8> O         -0.15869       -1.70109       -4.65798
|  9> F          1.05594       -0.17441       -5.74037
| 10> H         -1.54056       -0.58646       -2.67455
| 11> H         -1.35339        1.08600       -2.20455
| 12> H          0.00660       -0.00662       -2.10609
| 13> *
| 14>
| 15> %MaxCore 64000
| 16>
| 17> %pal nprocs 4
| 18> end
| 19>
| 20> %scf
| 21>   MaxIter 150
| 22> end
| 23>
| 24>
| 25>                          ****END OF INPUT****

CARTESIAN COORDINATES (ANGSTROEM)
---------------------------------
  C     -0.870960    0.248040   -2.662800
  C     -0.477490    0.608190   -4.101050
  H      0.206770    1.458300   -4.118750
  H     -1.368440    0.929420   -4.647850
  C      0.184670   -0.506640   -4.916760
  O     -0.158690   -1.701090   -4.657980
  F      1.055940   -0.174410   -5.740370
  H     -1.540560   -0.586460   -2.674550
  H     -1.353390    1.086000   -2.204550
  H      0.006600   -0.006620   -2.106090

 Total Charge           Charge          ....    0
 Multiplicity           Mult            ....    1
 Number of Electrons    NEL             ....   40
 Basis Dimension        Dim             ....  185

ORBITAL ENERGIES
----------------

  NO   OCC          E(Eh)            E(eV)
   0   2.0000     -24.480150      -666.1388
   1   2.0000     -18.882699      -513.8244
   2   2.0000     -10.150670      -276.2138
   3   2.0000     -10.017074      -272.5784
   4   2.0000      -9.986838      -271.7557
   5   2.0000      -1.245446       -33.8903
   6   2.0000      -0.952818       -25.9275
   7   2.0000      -0.740175       -20.1412
   8   2.0000      -0.638043       -17.3620
   9   2.0000      -0.584018       -15.8919
  10   2.0000      -0.495459       -13.4821
  11   2.0000      -0.482599       -13.1322
  12   2.0000      -0.455108       -12.3841
  13   2.0000      -0.423036       -11.5114
  14   2.0000      -0.386440       -10.5156
  15   2.0000      -0.353343        -9.6150
  16   2.0000      -0.337831        -9.1929
  17   2.0000      -0.331501        -9.0206
  18   2.0000      -0.305590        -8.3155
  19   2.0000      -0.242901        -6.6097
  20   0.0000      -0.059132        -1.6091
  21   0.0000       0.021713         0.5908
  22   0.0000       0.061564         1.6752
  23   0.0000       0.077671         2.1135
  24   0.0000       0.086048         2.3415

MULLIKEN ATOMIC CHARGES
-----------------------
   0 C :   -0.320070
   1 C :   -0.201946
   2 H :    0.107236
   3 H :    0.119328
   4 C :    0.313397
   5 O :   -0.320588
   6 F :   -0.064915
   7 H :    0.134886
   8 H :    0.118075
   9 H :    0.114597
Sum of atomic charges:   -0.0000000

LOEWDIN ATOMIC CHARGES
----------------------
   0 C :   -0.279882
   1 C :   -0.259995
   2 H :    0.138664
   3 H :    0.151839
   4 C :   -0.519215
   5 O :    0.058619
   6 F :    0.353104
   7 H :    0.122639
   8 H :    0.116169
   9 H :    0.118058

  Mayer bond orders larger than 0.100000
B(  0-C ,  1-C ) :   1.0202 B(  0-C ,  7-H ) :   0.9633 B(  0-C ,  8-H ) :   0.9595
B(  0-C ,  9-H ) :   0.9718 B(  1-C ,  2-H ) :   0.9433 B(  1-C ,  3-H ) :   0.9171
B(  1-C ,  4-C ) :   1.0249 B(  4-C ,  5-O ) :   2.0389 B(  4-C ,  6-F ) :   1.1921

Dispersion correction           -0.007603748
FINAL SINGLE POINT ENERGY      -292.554217810214

DIPOLE MOMENT
-------------
                                X             Y             Z
Electronic contribution:      4.66119      -2.89082      -7.14289
Nuclear contribution   :     -4.75269       4.00281       7.35060
                        -----------------------------------------
Total Dipole Moment    :     -0.09151       1.11199       0.20771
                        -----------------------------------------
Magnitude (a.u.)       :      1.13492
Magnitude (Debye)      :      2.88474

Rotational constants in cm-1:     0.323805     0.124913     0.096140
Rotational constants in MHz :  9707.430323  3744.789513  2882.191141

                             ****ORCA TERMINATED NORMALLY****
TOTAL RUN TIME: 0 days 0 hours 0 minutes 8 seconds 139 msec
