                         Program Version 5.0.0 -  RELEASE  -
|  1> !TPSS D3BJ RIJCOSX def2-TZVP def2/J TightSCF
|  2> *xyz 0 1
|  3> C          2.48645       -2.67712       -2.56345
|  4> C          3.03764       -2.36672       -3.92351
|  5> N          2.28036       -2.45441       -4.96769
|  6> C          4.32174       -2.01793       -4.01664
|  7> H          4.87994       -1.91167       -3.17382
|  8> H          4.71015       -1.67088       -4.88356
|  9> H          1.27042       -2.41265       -4.86614
| 10> H          2.58183       -2.05528       -5.84688
| 11> C          2.49799       -1.46946       -1.61030
| 12> H          1.47259       -3.05153       -2.69437
| 13> H          3.08320       -3.49064       -2.14147
| 14> H          1.91240       -0.67831       -2.02991
| 15> H          3.50450       -1.13364       -1.47227
| 16> H          2.08509       -1.75655       -0.66585
| 17> *
| 18>
| 19> %MaxCore 64000
| 20>
| 21> %pal nprocs 4
| 22> end
| 23>
| 24> %scf
| 25>   MaxIter 150
| 26> end
| 27>
| 28>
| 29>                          ****END OF INPUT****

CARTESIAN COORDINATES (ANGSTROEM)
---------------------------------
  C      2.486450   -2.677120   -2.563450
  C      3.037640   -2.366720   -3.923510
  N      2.280360   -2.454410   -4.967690
  C      4.321740   -2.017930   -4.016640
  H      4.879940   -1.911670   -3.173820
  H      4.710150   -1.670880   -4.883560
  H      1.270420   -2.412650   -4.866140
  H      2.581830   -2.055280   -5.846880
  C      2.497990   -1.469460   -1.610300
  H      1.472590   -3.051530   -2.694370
  H      3.083200   -3.490640   -2.141470
  H      1.912400   -0.678310   -2.029910
  H      3.504500   -1.133640   -1.472270
  H      2.085090   -1.756550   -0.665850

 Total Charge           Charge          ....    0
 Multiplicity           Mult            ....    1
 Number of Electrons    NEL             ....   40
 Basis Dimension        Dim             ....  209

ORBITAL ENERGIES
----------------

  NO   OCC          E(Eh)            E(eV)
   0   2.0000     -14.104656      -383.8072
   1   2.0000      -9.997322      -272.0410
   2   2.0000      -9.984069      -271.6803
   3   2.0000      -9.969564      -271.2856
   4   2.0000      -9.913448      -269.7586
   5   2.0000      -0.875943       -23.8356
   6   2.0000      -0.722840       -19.6695
   7   2.0000      -0.654014       -17.7966
   8   2.0000      -0.590068       -16.0566
   9   2.0000      -0.522351       -14.2139
  10   2.0000      -0.476793       -12.9742
  11   2.0000      -0.437253       -11.8983
  12   2.0000      -0.403458       -10.9786
  13   2.0000      -0.367226        -9.9927
  14   2.0000      -0.353204        -9.6112
  15   2.0000      -0.339630        -9.2418
  16   2.0000      -0.315724        -8.5913
  17   2.0000      -0.298736        -8.1290
  18   2.0000      -0.294282        -8.0078
  19   2.0000      -0.156085        -4.2473
  20   0.0000       0.015248         0.4149
  21   0.0000       0.018084         0.4921
  22   0.0000       0.056971         1.5503
  23   0.0000       0.064757         1.7621
  24   0.0000       0.081437         2.2160

MULLIKEN ATOMIC CHARGES
-----------------------
   0 C :   -0.166787
   1 C :    0.174978
   2 N :   -0.431231
   3 C :   -0.416794
   4 H :    0.101584
   5 H :    0.084170
   6 H :    0.226002
   7 H :    0.231447
   8 C :   -0.313052
   9 H :    0.073361
  10 H :    0.110448
  11 H :    0.102032
  12 H :    0.116066
  13 H :    0.107777
Sum of atomic charges:   -0.0000000

LOEWDIN ATOMIC CHARGES
----------------------
   0 C :   -0.232616
   1 C :   -0.380488
   2 N :    0.019901
   3 C :   -0.275003
   4 H :    0.102862
   5 H :    0.092805
   6 H :    0.167214
   7 H :    0.171923
   8 C :   -0.282195
   9 H :    0.128698
  10 H :    0.147000
  11 H :    0.113562
  12 H :    0.115816
  13 H :    0.110521

  Mayer bond orders larger than 0.100000
B(  0-C ,  1-C ) :   0.9763 B(  0-C ,  8-C ) :   1.0098 B(  0-C ,  9-H ) :   0.9562
B(  0-C , 10-H ) :   0.9599 B(  1-C ,  2-N ) :   1.2132 B(  1-C ,  3-C ) :   1.7618
B(  2-N ,  6-H ) :   0.9129 B(  2-N ,  7-H ) :   0.9115 B(  3-C ,  4-H ) :   0.9833
B(  3-C ,  5-H ) :   0.9703 B(  8-C , 11-H ) :   0.9712 B(  8-C , 12-H ) :   0.9707
B(  8-C , 13-H ) :   0.9622

Dispersion correction           -0.012971900
FINAL SINGLE POINT ENERGY      -212.683355384005

DIPOLE MOMENT
-------------
                                X             Y             Z
Electronic contribution:     -0.27130      -1.20197      -3.00470
Nuclear contribution   :     -0.52463       1.37972       2.79217
                        -----------------------------------------
Total Dipole Moment    :     -0.79593       0.17775      -0.21253
                        -----------------------------------------
Magnitude (a.u.)       :      0.84277
Magnitude (Debye)      :      2.14215

Rotational constants in cm-1:     0.281086     0.127387     0.100311
Rotational constants in MHz :  8426.743103  3818.969834  3007.238026

                             ****ORCA TERMINATED NORMALLY****
TOTAL RUN TIME: 0 days 0 hours 0 minutes 12 seconds 383 msec
