                         Program Version 5.0.0 -  RELEASE  -
|  1> !TPSS D3BJ RIJCOSX def2-TZVP def2/J TightSCF xyzfile
|  2>
|  3> *xyzfile 0 1 D2.xyz
|  4>
|  5> %MaxCore 64000
|  6>
|  7> %pal nprocs 18
|  8> end
|  9>
| 10> %scf
| 11>   MaxIter 150
| 12> end
| 13>
| 14>
| 15>                          ****END OF INPUT****

CARTESIAN COORDINATES (ANGSTROEM)
---------------------------------
  C      2.486452   -2.677121   -2.563447
  C     -0.870963    0.248043   -2.662804
  C     -0.477492    0.608191   -4.101052
  H      0.206773    1.458299   -4.118748
  H     -1.368442    0.929419   -4.647855
  C      0.184673   -0.506640   -4.916760
  C      3.037640   -2.366715   -3.923509
  N      2.280360   -2.454408   -4.967692
  C      4.321736   -2.017932   -4.016641
  H      4.879940   -1.911668   -3.173823
  H      4.710148   -1.670882   -4.883561
  H      1.270423   -2.412650   -4.866143
  H      2.581829   -2.055282   -5.846878
  F     -0.158685   -1.701088   -4.657981
  O      1.055938   -0.174410   -5.740373
  C      2.497991   -1.469464   -1.610303
  C      1.582841   -0.321986   -2.042619
  H      2.193083   -1.833912   -0.625420
  H      3.523356   -1.103982   -1.490392
  C      0.100160   -0.673551   -1.915815
  H      1.822311   -0.040361   -3.072834
  H      1.813180    0.557019   -1.433266
  H     -0.063284   -1.679120   -2.301112
  H     -0.168820   -0.691680   -0.853831
  H     -1.001048    1.181040   -2.104071
  H     -1.844645   -0.246592   -2.663281
  H      1.472592   -3.051527   -2.694366
  H      3.083201   -3.490638   -2.141472

 Total Charge           Charge          ....    0
 Multiplicity           Mult            ....    1
 Number of Electrons    NEL             ....   94
 Basis Dimension        Dim             ....  468

ORBITAL ENERGIES
----------------

  NO   OCC          E(Eh)            E(eV)
   0   2.0000     -24.501068      -666.7079
   1   2.0000     -18.903538      -514.3914
   2   2.0000     -14.078826      -383.1043
   3   2.0000     -10.166713      -276.6503
   4   2.0000     -10.024166      -272.7714
   5   2.0000     -10.005261      -272.2570
   6   2.0000      -9.991620      -271.8858
   7   2.0000      -9.985509      -271.7195
   8   2.0000      -9.984599      -271.6947
   9   2.0000      -9.981153      -271.6010
  10   2.0000      -9.978727      -271.5350
  11   2.0000      -9.901240      -269.4265
  12   2.0000      -1.262008       -34.3410
  13   2.0000      -0.986910       -26.8552
  14   2.0000      -0.859379       -23.3849
  15   2.0000      -0.774579       -21.0774
  16   2.0000      -0.736303       -20.0358
  17   2.0000      -0.696615       -18.9559
  18   2.0000      -0.653170       -17.7737
  19   2.0000      -0.633288       -17.2327
  20   2.0000      -0.611862       -16.6496
  21   2.0000      -0.575033       -15.6474
  22   2.0000      -0.539931       -14.6923
  23   2.0000      -0.531832       -14.4719
  24   2.0000      -0.510896       -13.9022
  25   2.0000      -0.490937       -13.3591
  26   2.0000      -0.463644       -12.6164
  27   2.0000      -0.452317       -12.3082
  28   2.0000      -0.437843       -11.9143
  29   2.0000      -0.432201       -11.7608
  30   2.0000      -0.427260       -11.6263
  31   2.0000      -0.401523       -10.9260
  32   2.0000      -0.384744       -10.4694
  33   2.0000      -0.374713       -10.1965
  34   2.0000      -0.368800       -10.0356
  35   2.0000      -0.352350        -9.5879
  36   2.0000      -0.346412        -9.4264
  37   2.0000      -0.335422        -9.1273
  38   2.0000      -0.329285        -8.9603
  39   2.0000      -0.320224        -8.7137
  40   2.0000      -0.307947        -8.3797
  41   2.0000      -0.301534        -8.2051
  42   2.0000      -0.287666        -7.8278
  43   2.0000      -0.284094        -7.7306
  44   2.0000      -0.278271        -7.5721
  45   2.0000      -0.258981        -7.0472
  46   2.0000      -0.141749        -3.8572
  47   0.0000      -0.075756        -2.0614
  48   0.0000       0.007415         0.2018
  49   0.0000       0.024579         0.6688
  50   0.0000       0.039796         1.0829
  51   0.0000       0.044827         1.2198

MULLIKEN ATOMIC CHARGES
-----------------------
   0 C :   -0.204330
   1 C :   -0.140860
   2 C :   -0.211088
   3 H :    0.147216
   4 H :    0.129604
   5 C :    0.273339
   6 C :    0.128775
   7 N :   -0.390745
   8 C :   -0.416450
   9 H :    0.091305
  10 H :    0.086317
  11 H :    0.213311
  12 H :    0.233526
  13 F :   -0.103848
  14 O :   -0.284716
  15 C :   -0.108088
  16 C :   -0.210028
  17 H :    0.068692
  18 H :    0.103498
  19 C :   -0.224869
  20 H :    0.147475
  21 H :    0.076030
  22 H :    0.099903
  23 H :    0.096625
  24 H :    0.097061
  25 H :    0.099864
  26 H :    0.091077
  27 H :    0.111406
Sum of atomic charges:    0.0000000

LOEWDIN ATOMIC CHARGES
----------------------
   0 C :   -0.211195
   1 C :   -0.259229
   2 C :   -0.230782
   3 H :    0.157958
   4 H :    0.154992
   5 C :   -0.521967
   6 C :   -0.391070
   7 N :    0.039172
   8 C :   -0.282878
   9 H :    0.100100
  10 H :    0.093065
  11 H :    0.142911
  12 H :    0.170630
  13 F :    0.329253
  14 O :    0.108086
  15 C :   -0.246553
  16 C :   -0.255618
  17 H :    0.131811
  18 H :    0.137463
  19 C :   -0.266571
  20 H :    0.144486
  21 H :    0.133475
  22 H :    0.131025
  23 H :    0.136568
  24 H :    0.138956
  25 H :    0.136768
  26 H :    0.129347
  27 H :    0.149794

  Mayer bond orders larger than 0.100000
B(  0-C ,  6-C ) :   0.9606 B(  0-C , 15-C ) :   1.0050 B(  0-C , 26-H ) :   0.9766
B(  0-C , 27-H ) :   0.9423 B(  1-C ,  2-C ) :   0.9981 B(  1-C , 19-C ) :   1.0085
B(  1-C , 24-H ) :   0.9417 B(  1-C , 25-H ) :   0.9525 B(  2-C ,  3-H ) :   0.9452
B(  2-C ,  4-H ) :   0.9146 B(  2-C ,  5-C ) :   1.0411 B(  5-C , 13-F ) :   1.0887
B(  5-C , 14-O ) :   2.0476 B(  6-C ,  7-N ) :   1.2486 B(  6-C ,  8-C ) :   1.7566
B(  7-N , 11-H ) :   0.9051 B(  7-N , 12-H ) :   0.9132 B(  8-C ,  9-H ) :   0.9766
B(  8-C , 10-H ) :   0.9737 B( 15-C , 16-C ) :   1.0145 B( 15-C , 17-H ) :   0.9331
B( 15-C , 18-H ) :   0.9419 B( 16-C , 19-C ) :   1.0077 B( 16-C , 20-H ) :   0.9445
B( 16-C , 21-H ) :   0.9348 B( 19-C , 22-H ) :   0.9643 B( 19-C , 23-H ) :   0.9414

Dispersion correction           -0.038855693
FINAL SINGLE POINT ENERGY      -582.697273845621

DIPOLE MOMENT
-------------
                                X             Y             Z
Electronic contribution:     -5.30671      -1.82151     -10.94579
Nuclear contribution   :      3.65024       2.44123      11.52670
                        -----------------------------------------
Total Dipole Moment    :     -1.65647       0.61973       0.58091
                        -----------------------------------------
Magnitude (a.u.)       :      1.86156
Magnitude (Debye)      :      4.73171

Rotational constants in cm-1:     0.040600     0.026409     0.019262
Rotational constants in MHz :  1217.142957   791.712481   577.449390

                             ****ORCA TERMINATED NORMALLY****
TOTAL RUN TIME: 0 days 0 hours 0 minutes 19 seconds 415 msec
