                         Program Version 5.0.0 -  RELEASE  -
|  1> !TPSS D3BJ RIJCOSX def2-TZVP def2/J TightSCF xyzfile
|  2>
|  3> *xyzfile 0 1 D3.xyz
|  4>
|  5> %MaxCore 64000
|  6>
|  7> %pal nprocs 18
|  8> end
|  9>
| 10> %scf
| 11>   MaxIter 150
| 12> end
| 13>
| 14>
| 15>                          ****END OF INPUT****

CARTESIAN COORDINATES (ANGSTROEM)
---------------------------------
  C      2.486452   -2.677121   -2.563447
  C     -0.870963    0.248043   -2.662804
  C     -0.477492    0.608191   -4.101052
  H      0.206773    1.458299   -4.118748
  H     -1.368442    0.929419   -4.647855
  C      0.184673   -0.506640   -4.916760
  C      3.037640   -2.366715   -3.923509
  C      2.280360   -2.454408   -4.967692
  N      4.321736   -2.017932   -4.016641
  H      4.879940   -1.911668   -3.173823
  H      4.710148   -1.670882   -4.883561
  H      1.270423   -2.412650   -4.866143
  H      2.581829   -2.055282   -5.846878
  O     -0.158685   -1.701088   -4.657981
  F      1.055938   -0.174410   -5.740373
  C      2.497991   -1.469464   -1.610303
  C      1.582841   -0.321986   -2.042619
  H      2.193083   -1.833912   -0.625420
  H      3.523356   -1.103982   -1.490392
  C      0.100160   -0.673551   -1.915815
  H      1.822311   -0.040361   -3.072834
  H      1.813180    0.557019   -1.433266
  H     -0.063284   -1.679120   -2.301112
  H     -0.168820   -0.691680   -0.853831
  H     -1.001048    1.181040   -2.104071
  H     -1.844645   -0.246592   -2.663281
  H      1.472592   -3.051527   -2.694366
  H      3.083201   -3.490638   -2.141472

 Total Charge           Charge          ....    0
 Multiplicity           Mult            ....    1
 Number of Electrons    NEL             ....   94
 Basis Dimension        Dim             ....  468

ORBITAL ENERGIES
----------------

  NO   OCC          E(Eh)            E(eV)
   0   2.0000     -24.478906      -666.1049
   1   2.0000     -18.882813      -513.8275
   2   2.0000     -14.087920      -383.3518
   3   2.0000     -10.151943      -276.2484
   4   2.0000     -10.014364      -272.5047
   5   2.0000      -9.994986      -271.9774
   6   2.0000      -9.980608      -271.5861
   7   2.0000      -9.980532      -271.5841
   8   2.0000      -9.980397      -271.5804
   9   2.0000      -9.977954      -271.5139
  10   2.0000      -9.972831      -271.3745
  11   2.0000      -9.884224      -268.9634
  12   2.0000      -1.244982       -33.8777
  13   2.0000      -0.961804       -26.1720
  14   2.0000      -0.848371       -23.0854
  15   2.0000      -0.761613       -20.7246
  16   2.0000      -0.730997       -19.8914
  17   2.0000      -0.685293       -18.6478
  18   2.0000      -0.661840       -18.0096
  19   2.0000      -0.623394       -16.9634
  20   2.0000      -0.596666       -16.2361
  21   2.0000      -0.561317       -15.2742
  22   2.0000      -0.527717       -14.3599
  23   2.0000      -0.510816       -13.9000
  24   2.0000      -0.494001       -13.4425
  25   2.0000      -0.475599       -12.9417
  26   2.0000      -0.468191       -12.7401
  27   2.0000      -0.459890       -12.5143
  28   2.0000      -0.433061       -11.7842
  29   2.0000      -0.424389       -11.5482
  30   2.0000      -0.409746       -11.1497
  31   2.0000      -0.397800       -10.8247
  32   2.0000      -0.388824       -10.5804
  33   2.0000      -0.360122        -9.7994
  34   2.0000      -0.355243        -9.6666
  35   2.0000      -0.347229        -9.4486
  36   2.0000      -0.338486        -9.2107
  37   2.0000      -0.326238        -8.8774
  38   2.0000      -0.320772        -8.7286
  39   2.0000      -0.311996        -8.4898
  40   2.0000      -0.297868        -8.1054
  41   2.0000      -0.289556        -7.8792
  42   2.0000      -0.280673        -7.6375
  43   2.0000      -0.274402        -7.4669
  44   2.0000      -0.271234        -7.3807
  45   2.0000      -0.223861        -6.0916
  46   2.0000      -0.148899        -4.0517
  47   0.0000      -0.061943        -1.6856
  48   0.0000       0.016461         0.4479
  49   0.0000       0.024873         0.6768
  50   0.0000       0.033245         0.9046
  51   0.0000       0.048929         1.3314

MULLIKEN ATOMIC CHARGES
-----------------------
   0 C :   -0.210878
   1 C :   -0.119175
   2 C :   -0.213556
   3 H :    0.119477
   4 H :    0.126249
   5 C :    0.304629
   6 C :    0.135710
   7 C :   -0.392903
   8 N :   -0.473357
   9 H :    0.223300
  10 H :    0.225241
  11 H :    0.172480
  12 H :    0.049871
  13 O :   -0.325231
  14 F :   -0.065826
  15 C :   -0.113362
  16 C :   -0.192208
  17 H :    0.078561
  18 H :    0.078961
  19 C :   -0.213629
  20 H :    0.116370
  21 H :    0.069468
  22 H :    0.124620
  23 H :    0.086888
  24 H :    0.090065
  25 H :    0.095810
  26 H :    0.127986
  27 H :    0.094441
Sum of atomic charges:   -0.0000000

LOEWDIN ATOMIC CHARGES
----------------------
   0 C :   -0.211369
   1 C :   -0.248950
   2 C :   -0.237248
   3 H :    0.142673
   4 H :    0.154575
   5 C :   -0.515631
   6 C :   -0.383845
   7 C :   -0.264566
   8 N :   -0.008426
   9 H :    0.162050
  10 H :    0.165280
  11 H :    0.097781
  12 H :    0.091865
  13 O :    0.087551
  14 F :    0.370827
  15 C :   -0.254971
  16 C :   -0.254497
  17 H :    0.134598
  18 H :    0.126395
  19 C :   -0.262011
  20 H :    0.139085
  21 H :    0.130398
  22 H :    0.140881
  23 H :    0.133583
  24 H :    0.136464
  25 H :    0.140411
  26 H :    0.148418
  27 H :    0.138678

  Mayer bond orders larger than 0.100000
B(  0-C ,  6-C ) :   0.9940 B(  0-C , 15-C ) :   0.9812 B(  0-C , 26-H ) :   0.9757
B(  0-C , 27-H ) :   0.9393 B(  1-C ,  2-C ) :   1.0221 B(  1-C , 19-C ) :   1.0272
B(  1-C , 24-H ) :   0.9453 B(  1-C , 25-H ) :   0.9412 B(  2-C ,  3-H ) :   0.9389
B(  2-C ,  4-H ) :   0.9117 B(  2-C ,  5-C ) :   1.0392 B(  5-C , 13-O ) :   1.9398
B(  5-C , 14-F ) :   1.1819 B(  6-C ,  7-C ) :   1.7817 B(  6-C ,  8-N ) :   1.1198
B(  7-C , 11-H ) :   0.9594 B(  7-C , 12-H ) :   0.9674 B(  8-N ,  9-H ) :   0.9212
B(  8-N , 10-H ) :   0.9121 B( 15-C , 16-C ) :   1.0076 B( 15-C , 17-H ) :   0.9385
B( 15-C , 18-H ) :   0.9483 B( 16-C , 19-C ) :   1.0237 B( 16-C , 20-H ) :   0.9488
B( 16-C , 21-H ) :   0.9344 B( 19-C , 22-H ) :   0.9543 B( 19-C , 23-H ) :   0.9388

Dispersion correction           -0.039184474
FINAL SINGLE POINT ENERGY      -582.680689202089

DIPOLE MOMENT
-------------
                                X             Y             Z
Electronic contribution:     -1.69339       0.85655     -12.13908
Nuclear contribution   :      1.88979       0.56282      12.66056
                        -----------------------------------------
Total Dipole Moment    :      0.19640       1.41937       0.52148
                        -----------------------------------------
Magnitude (a.u.)       :      1.52483
Magnitude (Debye)      :      3.87582

Rotational constants in cm-1:     0.040271     0.025954     0.018866
Rotational constants in MHz :  1207.302496   778.083475   565.600538

                             ****ORCA TERMINATED NORMALLY****
TOTAL RUN TIME: 0 days 0 hours 0 minutes 23 seconds 772 msec
