                         Program Version 5.0.0 -  RELEASE  -
|  1> !TPSS D3BJ RIJCOSX def2-TZVP def2/J TightSCF xyzfile
|  2>
|  3> *xyzfile 0 1 D4.xyz
|  4>
|  5> %MaxCore 64000
|  6>
|  7> %pal nprocs 18
|  8> end
|  9>
| 10> %scf
| 11>   MaxIter 150
| 12> end
| 13>
| 14>
| 15>                          ****END OF INPUT****

CARTESIAN COORDINATES (ANGSTROEM)
---------------------------------
  C      2.486452   -2.677121   -2.563447
  C     -0.870963    0.248043   -2.662804
  C     -0.477492    0.608191   -4.101052
  H      0.206773    1.458299   -4.118748
  H     -1.368442    0.929419   -4.647855
  C      0.184673   -0.506640   -4.916760
  C      3.037640   -2.366715   -3.923509
  N      2.280360   -2.454408   -4.967692
  C      4.321736   -2.017932   -4.016641
  H      4.879940   -1.911668   -3.173823
  H      4.710148   -1.670882   -4.883561
  H      1.270423   -2.412650   -4.866143
  H      2.581829   -2.055282   -5.846878
  O     -0.158685   -1.701088   -4.657981
  F      1.055938   -0.174410   -5.740373
  C      2.497991   -1.469464   -1.610303
  C      1.582841   -0.321986   -2.042619
  H      2.193083   -1.833912   -0.625420
  H      3.523356   -1.103982   -1.490392
  C      0.100160   -0.673551   -1.915815
  H      1.822311   -0.040361   -3.072834
  H      1.813180    0.557019   -1.433266
  H     -0.063284   -1.679120   -2.301112
  H     -0.168820   -0.691680   -0.853831
  H     -1.001048    1.181040   -2.104071
  H     -1.844645   -0.246592   -2.663281
  H      1.472592   -3.051527   -2.694366
  H      3.083201   -3.490638   -2.141472

 Total Charge           Charge          ....    0
 Multiplicity           Mult            ....    1
 Number of Electrons    NEL             ....   94
 Basis Dimension        Dim             ....  468

ORBITAL ENERGIES
----------------

  NO   OCC          E(Eh)            E(eV)
   0   2.0000     -24.501357      -666.7158
   1   2.0000     -18.909790      -514.5616
   2   2.0000     -14.069992      -382.8640
   3   2.0000     -10.175453      -276.8881
   4   2.0000     -10.027854      -272.8718
   5   2.0000     -10.003698      -272.2144
   6   2.0000      -9.983761      -271.6719
   7   2.0000      -9.983147      -271.6552
   8   2.0000      -9.982572      -271.6396
   9   2.0000      -9.977985      -271.5148
  10   2.0000      -9.973130      -271.3827
  11   2.0000      -9.899068      -269.3673
  12   2.0000      -1.267344       -34.4862
  13   2.0000      -0.988220       -26.8908
  14   2.0000      -0.853585       -23.2272
  15   2.0000      -0.770798       -20.9745
  16   2.0000      -0.734168       -19.9777
  17   2.0000      -0.694726       -18.9045
  18   2.0000      -0.654754       -17.8168
  19   2.0000      -0.628476       -17.1017
  20   2.0000      -0.608947       -16.5703
  21   2.0000      -0.570395       -15.5212
  22   2.0000      -0.535802       -14.5799
  23   2.0000      -0.520763       -14.1707
  24   2.0000      -0.506149       -13.7730
  25   2.0000      -0.491519       -13.3749
  26   2.0000      -0.481188       -13.0938
  27   2.0000      -0.452575       -12.3152
  28   2.0000      -0.437947       -11.9172
  29   2.0000      -0.433360       -11.7923
  30   2.0000      -0.426679       -11.6105
  31   2.0000      -0.400310       -10.8930
  32   2.0000      -0.382740       -10.4149
  33   2.0000      -0.368078       -10.0159
  34   2.0000      -0.364852        -9.9281
  35   2.0000      -0.352206        -9.5840
  36   2.0000      -0.341885        -9.3032
  37   2.0000      -0.332726        -9.0539
  38   2.0000      -0.323517        -8.8033
  39   2.0000      -0.321908        -8.7596
  40   2.0000      -0.303459        -8.2575
  41   2.0000      -0.298049        -8.1103
  42   2.0000      -0.286643        -7.8000
  43   2.0000      -0.280882        -7.6432
  44   2.0000      -0.276372        -7.5205
  45   2.0000      -0.258303        -7.0288
  46   2.0000      -0.139389        -3.7930
  47   0.0000      -0.083799        -2.2803
  48   0.0000       0.011964         0.3255
  49   0.0000       0.026429         0.7192
  50   0.0000       0.040274         1.0959
  51   0.0000       0.043576         1.1858

MULLIKEN ATOMIC CHARGES
-----------------------
   0 C :   -0.196961
   1 C :   -0.117762
   2 C :   -0.225476
   3 H :    0.130745
   4 H :    0.132499
   5 C :    0.313630
   6 C :    0.108356
   7 N :   -0.404263
   8 C :   -0.411272
   9 H :    0.090896
  10 H :    0.077008
  11 H :    0.244307
  12 H :    0.207721
  13 O :   -0.343937
  14 F :   -0.062689
  15 C :   -0.108925
  16 C :   -0.192689
  17 H :    0.069510
  18 H :    0.100340
  19 C :   -0.223855
  20 H :    0.112039
  21 H :    0.073970
  22 H :    0.124521
  23 H :    0.091900
  24 H :    0.095861
  25 H :    0.099127
  26 H :    0.106817
  27 H :    0.108582
Sum of atomic charges:    0.0000000

LOEWDIN ATOMIC CHARGES
----------------------
   0 C :   -0.208674
   1 C :   -0.248111
   2 C :   -0.233576
   3 H :    0.146950
   4 H :    0.157244
   5 C :   -0.511251
   6 C :   -0.391651
   7 N :    0.034354
   8 C :   -0.291408
   9 H :    0.099517
  10 H :    0.090558
  11 H :    0.139444
  12 H :    0.160997
  13 O :    0.076232
  14 F :    0.367832
  15 C :   -0.246189
  16 C :   -0.254801
  17 H :    0.132531
  18 H :    0.136052
  19 C :   -0.263321
  20 H :    0.137550
  21 H :    0.132228
  22 H :    0.138883
  23 H :    0.135323
  24 H :    0.138666
  25 H :    0.140767
  26 H :    0.135062
  27 H :    0.148791

  Mayer bond orders larger than 0.100000
B(  0-C ,  6-C ) :   0.9576 B(  0-C , 15-C ) :   1.0036 B(  0-C , 26-H ) :   0.9753
B(  0-C , 27-H ) :   0.9423 B(  1-C ,  2-C ) :   1.0175 B(  1-C , 19-C ) :   1.0204
B(  1-C , 24-H ) :   0.9446 B(  1-C , 25-H ) :   0.9429 B(  2-C ,  3-H ) :   0.9397
B(  2-C ,  4-H ) :   0.9056 B(  2-C ,  5-C ) :   1.0437 B(  5-C , 13-O ) :   1.9018
B(  5-C , 14-F ) :   1.1847 B(  6-C ,  7-N ) :   1.2569 B(  6-C ,  8-C ) :   1.7549
B(  7-N , 11-H ) :   0.8494 B(  7-N , 12-H ) :   0.9213 B(  8-C ,  9-H ) :   0.9768
B(  8-C , 10-H ) :   0.9727 B( 11-H , 13-O ) :   0.1223 B( 15-C , 16-C ) :   1.0215
B( 15-C , 17-H ) :   0.9331 B( 15-C , 18-H ) :   0.9425 B( 16-C , 19-C ) :   1.0178
B( 16-C , 20-H ) :   0.9413 B( 16-C , 21-H ) :   0.9359 B( 19-C , 22-H ) :   0.9564
B( 19-C , 23-H ) :   0.9400

Dispersion correction           -0.039037705
FINAL SINGLE POINT ENERGY      -582.699701498556

DIPOLE MOMENT
-------------
                                X             Y             Z
Electronic contribution:     -3.42222       0.73754     -12.78317
Nuclear contribution   :      2.21030       0.63135      12.80988
                        -----------------------------------------
Total Dipole Moment    :     -1.21192       1.36889       0.02671
                        -----------------------------------------
Magnitude (a.u.)       :      1.82848
Magnitude (Debye)      :      4.64762

Rotational constants in cm-1:     0.039980     0.026547     0.019089
Rotational constants in MHz :  1198.568620   795.867393   572.288555

                             ****ORCA TERMINATED NORMALLY****
TOTAL RUN TIME: 0 days 0 hours 0 minutes 19 seconds 851 msec
