                         Program Version 5.0.0 -  RELEASE  -
|  1> !CAM-B3LYP RIJCOSX def2-TZVPD def2/J TightSCF
|  2> *xyz -1 1
|  3> C          0.61188        1.65763       -4.50029
|  4> C          1.69499        1.54179       -5.57045
|  5> H          2.69733        1.73466       -5.18400
|  6> H          1.50666        2.27224       -6.35808
|  7> S          1.78029       -0.03313       -6.42874
|  8> O          2.56929        0.21366       -7.60736
|  9> O          0.41688       -0.46297       -6.61859
| 10> O          2.50513       -0.93326       -5.48257
| 11> H         -0.34424        1.45871       -4.93752
| 12> H          0.61845        2.64655       -4.09174
| 13> H          0.80247        0.94882       -3.72173
| 14> *
| 15> %MaxCore 64000
| 16>
| 17> %pal nprocs 4
| 18> end
| 19>
| 20> %scf
| 21>   MaxIter 150
| 22> end
| 23>
| 24>
| 25>                          ****END OF INPUT****

CARTESIAN COORDINATES (ANGSTROEM)
---------------------------------
  C      0.611880    1.657630   -4.500290
  C      1.694990    1.541790   -5.570450
  H      2.697330    1.734660   -5.184000
  H      1.506660    2.272240   -6.358080
  S      1.780290   -0.033130   -6.428740
  O      2.569290    0.213660   -7.607360
  O      0.416880   -0.462970   -6.618590
  O      2.505130   -0.933260   -5.482570
  H     -0.344240    1.458710   -4.937520
  H      0.618450    2.646550   -4.091740
  H      0.802470    0.948820   -3.721730

 Total Charge           Charge          ....   -1
 Multiplicity           Mult            ....    1
 Number of Electrons    NEL             ....   58
 Basis Dimension        Dim             ....  285

ORBITAL ENERGIES
----------------

  NO   OCC          E(Eh)            E(eV)
   0   2.0000     -88.917697     -2419.5735
   1   2.0000     -18.982211      -516.5322
   2   2.0000     -18.981521      -516.5134
   3   2.0000     -18.962834      -516.0050
   4   2.0000     -10.106293      -275.0062
   5   2.0000     -10.099448      -274.8200
   6   2.0000      -7.961344      -216.6392
   7   2.0000      -5.925869      -161.2511
   8   2.0000      -5.924860      -161.2236
   9   2.0000      -5.924522      -161.2144
  10   2.0000      -1.010240       -27.4900
  11   2.0000      -0.881257       -23.9802
  12   2.0000      -0.847512       -23.0620
  13   2.0000      -0.716905       -19.5080
  14   2.0000      -0.588111       -16.0033
  15   2.0000      -0.456507       -12.4222
  16   2.0000      -0.390820       -10.6348
  17   2.0000      -0.387456       -10.5432
  18   2.0000      -0.346758        -9.4358
  19   2.0000      -0.331872        -9.0307
  20   2.0000      -0.325306        -8.8520
  21   2.0000      -0.297400        -8.0927
  22   2.0000      -0.282053        -7.6750
  23   2.0000      -0.222128        -6.0444
  24   2.0000      -0.221233        -6.0201
  25   2.0000      -0.186836        -5.0841
  26   2.0000      -0.176810        -4.8112
  27   2.0000      -0.162250        -4.4151
  28   2.0000      -0.129841        -3.5331
  29   0.0000       0.144956         3.9445
  30   0.0000       0.163254         4.4424
  31   0.0000       0.165945         4.5156
  32   0.0000       0.175731         4.7819
  33   0.0000       0.193785         5.2732

MULLIKEN ATOMIC CHARGES
-----------------------
   0 C :   -1.113756
   1 C :   -0.422580
   2 H :    0.277143
   3 H :    0.286216
   4 S :    1.200559
   5 O :   -0.691917
   6 O :   -0.703260
   7 O :   -0.758553
   8 H :    0.299939
   9 H :    0.328737
  10 H :    0.297472
Sum of atomic charges:   -1.0000000

LOEWDIN ATOMIC CHARGES
----------------------
   0 C :   -0.146340
   1 C :   -0.331156
   2 H :    0.085801
   3 H :    0.080136
   4 S :    0.350061
   5 O :   -0.390599
   6 O :   -0.384715
   7 O :   -0.433594
   8 H :    0.056822
   9 H :    0.049941
  10 H :    0.063643

  Mayer bond orders larger than 0.100000
B(  0-C ,  1-C ) :   0.5986 B(  0-C ,  8-H ) :   0.9860 B(  0-C ,  9-H ) :   0.9247
B(  0-C , 10-H ) :   0.9821 B(  1-C ,  2-H ) :   0.9666 B(  1-C ,  3-H ) :   0.9570
B(  1-C ,  4-S ) :   0.9065 B(  1-C ,  5-O ) :   0.1223 B(  1-C ,  7-O ) :   0.1147
B(  4-S ,  5-O ) :   1.5028 B(  4-S ,  6-O ) :   1.4915 B(  4-S ,  7-O ) :   1.4472

FINAL SINGLE POINT ENERGY      -703.206398895574

DIPOLE MOMENT
-------------
                                X             Y             Z
Electronic contribution:      2.22099      -5.57753      -4.97315
Nuclear contribution   :     -2.69163       7.29476       5.86550
                        -----------------------------------------
Total Dipole Moment    :     -0.47064       1.71723       0.89234
                        -----------------------------------------
Magnitude (a.u.)       :      1.99165
Magnitude (Debye)      :      5.06237

Rotational constants in cm-1:     0.163060     0.082831     0.081111
Rotational constants in MHz :  4888.419330  2483.225008  2431.646841

                             ****ORCA TERMINATED NORMALLY****
TOTAL RUN TIME: 0 days 0 hours 0 minutes 48 seconds 630 msec
