                         Program Version 5.0.0 -  RELEASE  -
|  1> !CAM-B3LYP RIJCOSX def2-TZVPD def2/J TightSCF
|  2> *xyz 1 1
|  3> C          1.96337       -1.74915       -1.89689
|  4> N          2.73849       -2.01517       -3.09711
|  5> C          4.04974       -2.15472       -3.15204
|  6> N          4.65821       -1.98629       -4.31866
|  7> N          4.76423       -2.45444       -2.05049
|  8> H          4.28736       -2.77626       -1.21750
|  9> H          5.75082       -2.65835       -2.12599
| 10> H          2.34518       -1.69027       -3.97145
| 11> H          4.10900       -1.59268       -5.07176
| 12> H          5.64910       -2.15646       -4.42724
| 13> C          2.08852       -0.30091       -1.41520
| 14> H          2.23127       -2.45162       -1.10264
| 15> H          0.93025       -1.97780       -2.15544
| 16> H          1.82118        0.36368       -2.21003
| 17> H          3.09792       -0.11068       -1.11551
| 18> H          1.43391       -0.14382       -0.58352
| 19> *
| 20> %MaxCore 64000
| 21>
| 22> %pal nprocs 4
| 23> end
| 24>
| 25> %scf
| 26>   MaxIter 150
| 27> end
| 28>
| 29>
| 30>                          ****END OF INPUT****

CARTESIAN COORDINATES (ANGSTROEM)
---------------------------------
  C      1.963370   -1.749150   -1.896890
  N      2.738490   -2.015170   -3.097110
  C      4.049740   -2.154720   -3.152040
  N      4.658210   -1.986290   -4.318660
  N      4.764230   -2.454440   -2.050490
  H      4.287360   -2.776260   -1.217500
  H      5.750820   -2.658350   -2.125990
  H      2.345180   -1.690270   -3.971450
  H      4.109000   -1.592680   -5.071760
  H      5.649100   -2.156460   -4.427240
  C      2.088520   -0.300910   -1.415200
  H      2.231270   -2.451620   -1.102640
  H      0.930250   -1.977800   -2.155440
  H      1.821180    0.363680   -2.210030
  H      3.097920   -0.110680   -1.115510
  H      1.433910   -0.143820   -0.583520

 Total Charge           Charge          ....    1
 Multiplicity           Mult            ....    1
 Number of Electrons    NEL             ....   48
 Basis Dimension        Dim             ....  312

ORBITAL ENERGIES
----------------

  NO   OCC          E(Eh)            E(eV)
   0   2.0000     -14.614323      -397.6759
   1   2.0000     -14.612945      -397.6384
   2   2.0000     -14.612188      -397.6179
   3   2.0000     -10.583617      -287.9949
   4   2.0000     -10.451156      -284.3904
   5   2.0000     -10.377829      -282.3951
   6   2.0000      -1.302929       -35.4545
   7   2.0000      -1.188991       -32.3541
   8   2.0000      -1.175928       -31.9986
   9   2.0000      -1.012312       -27.5464
  10   2.0000      -0.919570       -25.0228
  11   2.0000      -0.881501       -23.9869
  12   2.0000      -0.857414       -23.3314
  13   2.0000      -0.818838       -22.2817
  14   2.0000      -0.764792       -20.8111
  15   2.0000      -0.756353       -20.5814
  16   2.0000      -0.728882       -19.8339
  17   2.0000      -0.698077       -18.9957
  18   2.0000      -0.670642       -18.2491
  19   2.0000      -0.632263       -17.2047
  20   2.0000      -0.599229       -16.3059
  21   2.0000      -0.578879       -15.7521
  22   2.0000      -0.543897       -14.8002
  23   2.0000      -0.514201       -13.9921
  24   0.0000      -0.132474        -3.6048
  25   0.0000      -0.124895        -3.3986
  26   0.0000      -0.100035        -2.7221
  27   0.0000      -0.091468        -2.4890
  28   0.0000      -0.064489        -1.7548

MULLIKEN ATOMIC CHARGES
-----------------------
   0 C :   -0.532940
   1 N :   -0.174463
   2 C :    0.695818
   3 N :   -0.311849
   4 N :   -0.305896
   5 H :    0.203819
   6 H :    0.196225
   7 H :    0.189822
   8 H :    0.192361
   9 H :    0.196975
  10 C :   -1.071112
  11 H :    0.334967
  12 H :    0.346243
  13 H :    0.331421
  14 H :    0.329264
  15 H :    0.379346
Sum of atomic charges:    1.0000000

LOEWDIN ATOMIC CHARGES
----------------------
   0 C :   -0.204708
   1 N :    0.079956
   2 C :   -0.436095
   3 N :    0.209975
   4 N :    0.218012
   5 H :    0.127343
   6 H :    0.136587
   7 H :    0.164818
   8 H :    0.139122
   9 H :    0.141687
  10 C :   -0.057775
  11 H :    0.119219
  12 H :    0.130644
  13 H :    0.077749
  14 H :    0.070430
  15 H :    0.083037

  Mayer bond orders larger than 0.100000
B(  0-C ,  1-N ) :   0.8095 B(  0-C , 10-C ) :   0.6376 B(  0-C , 11-H ) :   0.8931
B(  0-C , 12-H ) :   0.9150 B(  1-N ,  2-C ) :   1.2506 B(  1-N ,  7-H ) :   0.9993
B(  2-C ,  3-N ) :   1.0605 B(  2-C ,  4-N ) :   1.1375 B(  3-N ,  8-H ) :   0.9904
B(  3-N ,  9-H ) :   1.0127 B(  4-N ,  5-H ) :   0.9520 B(  4-N ,  6-H ) :   1.0149
B( 10-C , 13-H ) :   0.9674 B( 10-C , 14-H ) :   0.9435 B( 10-C , 15-H ) :   0.9389

FINAL SINGLE POINT ENERGY      -284.363947645423

DIPOLE MOMENT
-------------
                                X             Y             Z
Electronic contribution:      3.01142      -2.70746      -3.08484
Nuclear contribution   :     -2.17768       2.37118       2.44574
                        -----------------------------------------
Total Dipole Moment    :      0.83374      -0.33628      -0.63910
                        -----------------------------------------
Magnitude (a.u.)       :      1.10302
Magnitude (Debye)      :      2.80365

Rotational constants in cm-1:     0.215650     0.075183     0.066454
Rotational constants in MHz :  6465.033740  2253.919004  1992.232519

                             ****ORCA TERMINATED NORMALLY****
TOTAL RUN TIME: 0 days 0 hours 1 minutes 11 seconds 180 msec
