                         Program Version 5.0.0 -  RELEASE  -
|  1> !CAM-B3LYP RIJCOSX def2-TZVPD def2/J TightSCF xyzfile
|  2>
|  3> *xyzfile 0 1 B.xyz
|  4>
|  5> %MaxCore 64000
|  6>
|  7> %pal nprocs 4
|  8> end
|  9>
| 10> %scf
| 11>   MaxIter 150
| 12> end
| 13>
| 14>
| 15>                          ****END OF INPUT****

CARTESIAN COORDINATES (ANGSTROEM)
---------------------------------
  C      1.963365   -1.749150   -1.896887
  N      2.738490   -2.015170   -3.097113
  C      0.611877    1.657634   -4.500288
  C      1.694991    1.541794   -5.570447
  H      2.697326    1.734659   -5.183996
  H      1.506656    2.272239   -6.358076
  S      1.780287   -0.033128   -6.428739
  C      4.049736   -2.154717   -3.152044
  N      4.658206   -1.986293   -4.318655
  N      4.764231   -2.454435   -2.050491
  H      4.287363   -2.776259   -1.217496
  H      5.750825   -2.658351   -2.125988
  H      2.345176   -1.690274   -3.971447
  H      4.109004   -1.592677   -5.071760
  H      5.649095   -2.156462   -4.427237
  O      2.569287    0.213657   -7.607360
  O      0.416880   -0.462969   -6.618595
  C      2.088520   -0.300912   -1.415204
  H      2.231272   -2.451616   -1.102643
  H      0.930249   -1.977801   -2.155438
  C      0.680356    0.655418   -3.348038
  H     -0.356865    1.549231   -4.991128
  H      0.650228    2.675438   -4.096000
  C      1.968993    0.733582   -2.535654
  H      3.051356   -0.168602   -0.911868
  H      1.316501   -0.136231   -0.657252
  O      2.505129   -0.933263   -5.482570
  H      2.824195    0.624726   -3.208464
  H      2.058919    1.730331   -2.093112
  H      0.542252   -0.344731   -3.766662
  H     -0.174219    0.829692   -2.685182

 Total Charge           Charge          ....    0
 Multiplicity           Mult            ....    1
 Number of Electrons    NEL             ....  120
 Basis Dimension        Dim             ....  689

ORBITAL ENERGIES
----------------

  NO   OCC          E(Eh)            E(eV)
   0   2.0000     -89.064956     -2423.5807
   1   2.0000     -19.139016      -520.7991
   2   2.0000     -19.119332      -520.2635
   3   2.0000     -19.118074      -520.2292
   4   2.0000     -14.477515      -393.9532
   5   2.0000     -14.448446      -393.1622
   6   2.0000     -14.444463      -393.0538
   7   2.0000     -10.431726      -283.8617
   8   2.0000     -10.317167      -280.7444
   9   2.0000     -10.266710      -279.3714
  10   2.0000     -10.247163      -278.8395
  11   2.0000     -10.235252      -278.5154
  12   2.0000     -10.233472      -278.4669
  13   2.0000     -10.231591      -278.4158
  14   2.0000      -8.108889      -220.6541
  15   2.0000      -6.073855      -165.2780
  16   2.0000      -6.072546      -165.2424
  17   2.0000      -6.071402      -165.2112
  18   2.0000      -1.159361       -31.5478
  19   2.0000      -1.150187       -31.2982
  20   2.0000      -1.041199       -28.3325
  21   2.0000      -1.026929       -27.9441
  22   2.0000      -1.018143       -27.7051
  23   2.0000      -1.016335       -27.6559
  24   2.0000      -0.906502       -24.6672
  25   2.0000      -0.866450       -23.5773
  26   2.0000      -0.816976       -22.2310
  27   2.0000      -0.776433       -21.1278
  28   2.0000      -0.748332       -20.3632
  29   2.0000      -0.711677       -19.3657
  30   2.0000      -0.704818       -19.1791
  31   2.0000      -0.670867       -18.2552
  32   2.0000      -0.649896       -17.6846
  33   2.0000      -0.629247       -17.1227
  34   2.0000      -0.612919       -16.6784
  35   2.0000      -0.594110       -16.1665
  36   2.0000      -0.577540       -15.7157
  37   2.0000      -0.553014       -15.0483
  38   2.0000      -0.548846       -14.9349
  39   2.0000      -0.541827       -14.7439
  40   2.0000      -0.526546       -14.3280
  41   2.0000      -0.510336       -13.8870
  42   2.0000      -0.497699       -13.5431
  43   2.0000      -0.487440       -13.2639
  44   2.0000      -0.471284       -12.8243
  45   2.0000      -0.463475       -12.6118
  46   2.0000      -0.445521       -12.1232
  47   2.0000      -0.437953       -11.9173
  48   2.0000      -0.431460       -11.7406
  49   2.0000      -0.403750       -10.9866
  50   2.0000      -0.401096       -10.9144
  51   2.0000      -0.394993       -10.7483
  52   2.0000      -0.379213       -10.3189
  53   2.0000      -0.374881       -10.2010
  54   2.0000      -0.367568       -10.0020
  55   2.0000      -0.360241        -9.8027
  56   2.0000      -0.331443        -9.0190
  57   2.0000      -0.321617        -8.7516
  58   2.0000      -0.312360        -8.4997
  59   2.0000      -0.286949        -7.8083
  60   0.0000      -0.014624        -0.3979
  61   0.0000       0.012687         0.3452
  62   0.0000       0.017438         0.4745
  63   0.0000       0.036614         0.9963
  64   0.0000       0.041393         1.1264

MULLIKEN ATOMIC CHARGES
-----------------------
   0 C :   -1.000450
   1 N :   -0.139141
   2 C :   -0.712783
   3 C :   -0.723644
   4 H :    0.310259
   5 H :    0.338581
   6 S :    1.121768
   7 C :    0.584462
   8 N :   -0.264737
   9 N :   -0.306610
  10 H :    0.193278
  11 H :    0.175207
  12 H :    0.523045
  13 H :    0.354155
  14 H :    0.116908
  15 O :   -0.698698
  16 O :   -0.698248
  17 C :   -0.413198
  18 H :    0.372359
  19 H :    0.390189
  20 C :   -0.572491
  21 H :    0.307289
  22 H :    0.306933
  23 C :   -0.455967
  24 H :    0.272341
  25 H :    0.347515
  26 O :   -0.921300
  27 H :    0.228740
  28 H :    0.345481
  29 H :    0.326135
  30 H :    0.292623
Sum of atomic charges:   -0.0000000

LOEWDIN ATOMIC CHARGES
----------------------
   0 C :   -0.168653
   1 N :    0.092451
   2 C :   -0.228031
   3 C :   -0.251857
   4 H :    0.094284
   5 H :    0.100737
   6 S :    0.445597
   7 C :   -0.441118
   8 N :    0.206652
   9 N :    0.189279
  10 H :    0.112500
  11 H :    0.120765
  12 H :    0.084834
  13 H :    0.079557
  14 H :    0.129847
  15 O :   -0.336884
  16 O :   -0.327477
  17 C :   -0.182277
  18 H :    0.111082
  19 H :    0.126992
  20 C :   -0.215396
  21 H :    0.111293
  22 H :    0.113030
  23 C :   -0.209208
  24 H :    0.105995
  25 H :    0.116302
  26 O :   -0.420950
  27 H :    0.101707
  28 H :    0.120491
  29 H :    0.098288
  30 H :    0.120170

  Mayer bond orders larger than 0.100000
B(  0-C ,  1-N ) :   0.8814 B(  0-C ,  7-C ) :  -0.1346 B(  0-C , 12-H ) :  -0.1551
B(  0-C , 17-C ) :   0.6534 B(  0-C , 18-H ) :   0.8483 B(  0-C , 19-H ) :   0.8968
B(  0-C , 20-C ) :   0.1165 B(  1-N ,  7-C ) :   1.2670 B(  1-N , 12-H ) :   0.7686
B(  2-C ,  3-C ) :   0.7989 B(  2-C , 20-C ) :   0.9203 B(  2-C , 21-H ) :   0.9568
B(  2-C , 22-H ) :   0.9514 B(  2-C , 23-C ) :   0.1168 B(  3-C ,  4-H ) :   0.9058
B(  3-C ,  5-H ) :   0.9275 B(  3-C ,  6-S ) :   0.8407 B(  3-C , 15-O ) :   0.1529
B(  3-C , 16-O ) :   0.1135 B(  3-C , 26-O ) :   0.1008 B(  6-S , 15-O ) :   1.4272
B(  6-S , 16-O ) :   1.4897 B(  6-S , 26-O ) :   1.5665 B(  7-C ,  8-N ) :   1.1195
B(  7-C ,  9-N ) :   1.0580 B(  8-N , 13-H ) :   0.8456 B(  8-N , 14-H ) :   1.0757
B(  9-N , 10-H ) :   0.9553 B(  9-N , 11-H ) :   1.0262 B( 12-H , 26-O ) :  -0.1214
B( 17-C , 23-C ) :   0.8398 B( 17-C , 24-H ) :   0.9641 B( 17-C , 25-H ) :   0.9593
B( 20-C , 23-C ) :   0.3218 B( 20-C , 29-H ) :   0.9538 B( 20-C , 30-H ) :   0.9374
B( 23-C , 27-H ) :   1.0682 B( 23-C , 28-H ) :   0.8948 B( 23-C , 29-H ) :  -0.1215

FINAL SINGLE POINT ENERGY     -1065.132396344899

DIPOLE MOMENT
-------------
                                X             Y             Z
Electronic contribution:      2.24956      -4.95518     -14.16507
Nuclear contribution   :      0.44641       3.59123      19.13564
                        -----------------------------------------
Total Dipole Moment    :      2.69597      -1.36395       4.97056
                        -----------------------------------------
Magnitude (a.u.)       :      5.81680
Magnitude (Debye)      :     14.78512

Rotational constants in cm-1:     0.029186     0.014646     0.011115
Rotational constants in MHz :   874.975540   439.070287   333.231642

                             ****ORCA TERMINATED NORMALLY****
TOTAL RUN TIME: 0 days 0 hours 9 minutes 53 seconds 626 msec
