                         Program Version 5.0.0 -  RELEASE  -
|  1> !CAM-B3LYP RIJCOSX def2-TZVPD def2/J TightSCF
|  2> *xyz 0 1
|  3> C          0.61188        1.65763       -4.50029
|  4> C          1.69499        1.54179       -5.57045
|  5> H          2.69733        1.73466       -5.18400
|  6> H          1.50666        2.27224       -6.35808
|  7> S          1.78029       -0.03313       -6.42874
|  8> F          2.56929        0.21366       -7.60736
|  9> O          0.41688       -0.46297       -6.61859
| 10> O          2.50513       -0.93326       -5.48257
| 11> H         -0.34424        1.45871       -4.93752
| 12> H          0.61845        2.64655       -4.09174
| 13> H          0.80247        0.94882       -3.72173
| 14> *
| 15> %MaxCore 64000
| 16>
| 17> %pal nprocs 4
| 18> end
| 19>
| 20> %scf
| 21>   MaxIter 150
| 22> end
| 23>
| 24>
| 25>                          ****END OF INPUT****

CARTESIAN COORDINATES (ANGSTROEM)
---------------------------------
  C      0.611880    1.657630   -4.500290
  C      1.694990    1.541790   -5.570450
  H      2.697330    1.734660   -5.184000
  H      1.506660    2.272240   -6.358080
  S      1.780290   -0.033130   -6.428740
  F      2.569290    0.213660   -7.607360
  O      0.416880   -0.462970   -6.618590
  O      2.505130   -0.933260   -5.482570
  H     -0.344240    1.458710   -4.937520
  H      0.618450    2.646550   -4.091740
  H      0.802470    0.948820   -3.721730

 Total Charge           Charge          ....    0
 Multiplicity           Mult            ....    1
 Number of Electrons    NEL             ....   58
 Basis Dimension        Dim             ....  285

ORBITAL ENERGIES
----------------

  NO   OCC          E(Eh)            E(eV)
   0   2.0000     -89.180794     -2426.7328
   1   2.0000     -24.883420      -677.1123
   2   2.0000     -19.216727      -522.9137
   3   2.0000     -19.197195      -522.3822
   4   2.0000     -10.308378      -280.5052
   5   2.0000     -10.262651      -279.2609
   6   2.0000      -8.224884      -223.8105
   7   2.0000      -6.192665      -168.5110
   8   2.0000      -6.186243      -168.3362
   9   2.0000      -6.185946      -168.3282
  10   2.0000      -1.473746       -40.1027
  11   2.0000      -1.189672       -32.3726
  12   2.0000      -1.083509       -29.4838
  13   2.0000      -0.908045       -24.7092
  14   2.0000      -0.820032       -22.3142
  15   2.0000      -0.757041       -20.6001
  16   2.0000      -0.668310       -18.1856
  17   2.0000      -0.666896       -18.1472
  18   2.0000      -0.632017       -17.1980
  19   2.0000      -0.568411       -15.4672
  20   2.0000      -0.555924       -15.1275
  21   2.0000      -0.513143       -13.9633
  22   2.0000      -0.501679       -13.6514
  23   2.0000      -0.478310       -13.0155
  24   2.0000      -0.458305       -12.4711
  25   2.0000      -0.454557       -12.3691
  26   2.0000      -0.404839       -11.0162
  27   2.0000      -0.386106       -10.5065
  28   2.0000      -0.371958       -10.1215
  29   0.0000       0.015096         0.4108
  30   0.0000       0.034187         0.9303
  31   0.0000       0.043841         1.1930
  32   0.0000       0.046763         1.2725
  33   0.0000       0.070151         1.9089

MULLIKEN ATOMIC CHARGES
-----------------------
   0 C :   -1.159602
   1 C :   -0.438903
   2 H :    0.343832
   3 H :    0.351807
   4 S :    1.157862
   5 F :   -0.119793
   6 O :   -0.558904
   7 O :   -0.601649
   8 H :    0.343576
   9 H :    0.343516
  10 H :    0.338260
Sum of atomic charges:   -0.0000000

LOEWDIN ATOMIC CHARGES
----------------------
   0 C :   -0.101802
   1 C :   -0.287994
   2 H :    0.104002
   3 H :    0.096948
   4 S :    0.598871
   5 F :   -0.049580
   6 O :   -0.272977
   7 O :   -0.315564
   8 H :    0.072467
   9 H :    0.075926
  10 H :    0.079703

  Mayer bond orders larger than 0.100000
B(  0-C ,  1-C ) :   0.6647 B(  0-C ,  8-H ) :   0.9439 B(  0-C ,  9-H ) :   0.9221
B(  0-C , 10-H ) :   0.9468 B(  1-C ,  2-H ) :   0.9101 B(  1-C ,  3-H ) :   0.8766
B(  1-C ,  4-S ) :   0.8872 B(  4-S ,  5-F ) :   1.0140 B(  4-S ,  6-O ) :   1.6956
B(  4-S ,  7-O ) :   1.6429

FINAL SINGLE POINT ENERGY      -727.722742585278

DIPOLE MOMENT
-------------
                                X             Y             Z
Electronic contribution:      3.86487      -5.60502      -7.53525
Nuclear contribution   :     -3.66946       7.33549       7.42434
                        -----------------------------------------
Total Dipole Moment    :      0.19541       1.73047      -0.11091
                        -----------------------------------------
Magnitude (a.u.)       :      1.74500
Magnitude (Debye)      :      4.43543

Rotational constants in cm-1:     0.158379     0.080294     0.077843
Rotational constants in MHz :  4748.076444  2407.152850  2333.668303

                             ****ORCA TERMINATED NORMALLY****
TOTAL RUN TIME: 0 days 0 hours 0 minutes 57 seconds 372 msec
