                         Program Version 5.0.0 -  RELEASE  -
|  1> !CAM-B3LYP RIJCOSX def2-TZVPD def2/J TightSCF
|  2> *xyz 0 1
|  3> C          1.96337       -1.74915       -1.89689
|  4> C          2.73849       -2.01517       -3.09711
|  5> C          4.04974       -2.15472       -3.15204
|  6> N          4.65821       -1.98629       -4.31866
|  7> N          4.76423       -2.45444       -2.05049
|  8> H          4.28736       -2.77626       -1.21750
|  9> H          5.75082       -2.65835       -2.12599
| 10> H          2.34518       -1.69027       -3.97145
| 11> H          4.10900       -1.59268       -5.07176
| 12> H          5.64910       -2.15646       -4.42724
| 13> C          2.08852       -0.30091       -1.41520
| 14> H          2.23127       -2.45162       -1.10264
| 15> H          0.93025       -1.97780       -2.15544
| 16> H          1.82118        0.36368       -2.21003
| 17> H          3.09792       -0.11068       -1.11551
| 18> H          1.43391       -0.14382       -0.58352
| 19> *
| 20> %MaxCore 64000
| 21>
| 22> %pal nprocs 4
| 23> end
| 24>
| 25> %scf
| 26>   MaxIter 150
| 27> end
| 28>
| 29>
| 30>                          ****END OF INPUT****

CARTESIAN COORDINATES (ANGSTROEM)
---------------------------------
  C      1.963370   -1.749150   -1.896890
  C      2.738490   -2.015170   -3.097110
  C      4.049740   -2.154720   -3.152040
  N      4.658210   -1.986290   -4.318660
  N      4.764230   -2.454440   -2.050490
  H      4.287360   -2.776260   -1.217500
  H      5.750820   -2.658350   -2.125990
  H      2.345180   -1.690270   -3.971450
  H      4.109000   -1.592680   -5.071760
  H      5.649100   -2.156460   -4.427240
  C      2.088520   -0.300910   -1.415200
  H      2.231270   -2.451620   -1.102640
  H      0.930250   -1.977800   -2.155440
  H      1.821180    0.363680   -2.210030
  H      3.097920   -0.110680   -1.115510
  H      1.433910   -0.143820   -0.583520

 Total Charge           Charge          ....    0
 Multiplicity           Mult            ....    1
 Number of Electrons    NEL             ....   48
 Basis Dimension        Dim             ....  312

ORBITAL ENERGIES
----------------

  NO   OCC          E(Eh)            E(eV)
   0   2.0000     -14.391039      -391.6001
   1   2.0000     -14.388473      -391.5303
   2   2.0000     -10.289004      -279.9780
   3   2.0000     -10.216667      -278.0096
   4   2.0000     -10.205158      -277.6965
   5   2.0000     -10.162010      -276.5224
   6   2.0000      -1.044498       -28.4222
   7   2.0000      -0.953209       -25.9381
   8   2.0000      -0.856182       -23.2979
   9   2.0000      -0.774145       -21.0656
  10   2.0000      -0.694262       -18.8918
  11   2.0000      -0.653913       -17.7939
  12   2.0000      -0.614380       -16.7181
  13   2.0000      -0.582428       -15.8487
  14   2.0000      -0.542181       -14.7535
  15   2.0000      -0.508659       -13.8413
  16   2.0000      -0.490453       -13.3459
  17   2.0000      -0.455484       -12.3943
  18   2.0000      -0.448841       -12.2136
  19   2.0000      -0.421425       -11.4676
  20   2.0000      -0.393349       -10.7036
  21   2.0000      -0.382866       -10.4183
  22   2.0000      -0.332150        -9.0383
  23   2.0000      -0.217837        -5.9276
  24   0.0000       0.025476         0.6932
  25   0.0000       0.051719         1.4073
  26   0.0000       0.056500         1.5374
  27   0.0000       0.066996         1.8231
  28   0.0000       0.083316         2.2671

MULLIKEN ATOMIC CHARGES
-----------------------
   0 C :   -0.485791
   1 C :   -0.375074
   2 C :    0.313822
   3 N :   -0.358483
   4 N :   -0.357748
   5 H :    0.165646
   6 H :    0.129433
   7 H :    0.243032
   8 H :    0.160521
   9 H :    0.139506
  10 C :   -1.085109
  11 H :    0.341249
  12 H :    0.234881
  13 H :    0.317937
  14 H :    0.294851
  15 H :    0.321328
Sum of atomic charges:    0.0000000

LOEWDIN ATOMIC CHARGES
----------------------
   0 C :   -0.285647
   1 C :   -0.157694
   2 C :   -0.547025
   3 N :    0.109841
   4 N :    0.129924
   5 H :    0.100645
   6 H :    0.096401
   7 H :    0.065779
   8 H :    0.109995
   9 H :    0.099991
  10 C :   -0.103226
  11 H :    0.094580
  12 H :    0.101182
  13 H :    0.066206
  14 H :    0.061521
  15 H :    0.057527

  Mayer bond orders larger than 0.100000
B(  0-C ,  1-C ) :   0.6184 B(  0-C , 10-C ) :   0.5346 B(  0-C , 11-H ) :   0.9408
B(  0-C , 12-H ) :   1.1191 B(  1-C ,  2-C ) :   1.3261 B(  1-C ,  7-H ) :   1.1573
B(  2-C ,  3-N ) :   1.0521 B(  2-C ,  4-N ) :   0.9540 B(  2-C ,  7-H ) :  -0.2462
B(  3-N ,  8-H ) :   1.0031 B(  3-N ,  9-H ) :   1.0637 B(  4-N ,  5-H ) :   0.9819
B(  4-N ,  6-H ) :   1.0750 B( 10-C , 13-H ) :   0.9886 B( 10-C , 14-H ) :   0.9785
B( 10-C , 15-H ) :   0.9599

FINAL SINGLE POINT ENERGY      -267.876107144914

DIPOLE MOMENT
-------------
                                X             Y             Z
Electronic contribution:      3.27806      -2.42951      -2.51940
Nuclear contribution   :     -2.31778       2.31977       2.35294
                        -----------------------------------------
Total Dipole Moment    :      0.96028      -0.10974      -0.16646
                        -----------------------------------------
Magnitude (a.u.)       :      0.98076
Magnitude (Debye)      :      2.49289

Rotational constants in cm-1:     0.219415     0.075373     0.066689
Rotational constants in MHz :  6577.897266  2259.621393  1999.290981

                             ****ORCA TERMINATED NORMALLY****
TOTAL RUN TIME: 0 days 0 hours 1 minutes 9 seconds 377 msec
