                         Program Version 5.0.0 -  RELEASE  -
|  1> !CAM-B3LYP RIJCOSX def2-TZVPD def2/J TightSCF
|  2> *xyz 0 1
|  3> C          0.61188        1.65763       -4.50029
|  4> C          1.69499        1.54179       -5.57045
|  5> H          2.69733        1.73466       -5.18400
|  6> H          1.50666        2.27224       -6.35808
|  7> S          1.78029       -0.03313       -6.42874
|  8> O          2.56929        0.21366       -7.60736
|  9> F          0.41688       -0.46297       -6.61859
| 10> O          2.50513       -0.93326       -5.48257
| 11> H         -0.34424        1.45871       -4.93752
| 12> H          0.61845        2.64655       -4.09174
| 13> H          0.80247        0.94882       -3.72173
| 14> *
| 15> %MaxCore 64000
| 16>
| 17> %pal nprocs 4
| 18> end
| 19>
| 20> %scf
| 21>   MaxIter 150
| 22> end
| 23>
| 24>
| 25>                          ****END OF INPUT****

CARTESIAN COORDINATES (ANGSTROEM)
---------------------------------
  C      0.611880    1.657630   -4.500290
  C      1.694990    1.541790   -5.570450
  H      2.697330    1.734660   -5.184000
  H      1.506660    2.272240   -6.358080
  S      1.780290   -0.033130   -6.428740
  O      2.569290    0.213660   -7.607360
  F      0.416880   -0.462970   -6.618590
  O      2.505130   -0.933260   -5.482570
  H     -0.344240    1.458710   -4.937520
  H      0.618450    2.646550   -4.091740
  H      0.802470    0.948820   -3.721730

 Total Charge           Charge          ....    0
 Multiplicity           Mult            ....    1
 Number of Electrons    NEL             ....   58
 Basis Dimension        Dim             ....  285

ORBITAL ENERGIES
----------------

  NO   OCC          E(Eh)            E(eV)
   0   2.0000     -89.180483     -2426.7243
   1   2.0000     -24.882898      -677.0981
   2   2.0000     -19.216376      -522.9042
   3   2.0000     -19.197343      -522.3863
   4   2.0000     -10.308156      -280.4992
   5   2.0000     -10.268309      -279.4149
   6   2.0000      -8.224600      -223.8028
   7   2.0000      -6.192568      -168.5084
   8   2.0000      -6.185807      -168.3244
   9   2.0000      -6.185637      -168.3197
  10   2.0000      -1.472241       -40.0617
  11   2.0000      -1.190646       -32.3991
  12   2.0000      -1.083294       -29.4779
  13   2.0000      -0.911958       -24.8157
  14   2.0000      -0.816070       -22.2064
  15   2.0000      -0.762088       -20.7375
  16   2.0000      -0.678306       -18.4576
  17   2.0000      -0.666641       -18.1402
  18   2.0000      -0.622266       -16.9327
  19   2.0000      -0.569548       -15.4982
  20   2.0000      -0.550212       -14.9720
  21   2.0000      -0.522880       -14.2283
  22   2.0000      -0.508633       -13.8406
  23   2.0000      -0.482733       -13.1358
  24   2.0000      -0.465807       -12.6753
  25   2.0000      -0.451904       -12.2969
  26   2.0000      -0.403568       -10.9817
  27   2.0000      -0.386166       -10.5081
  28   2.0000      -0.372141       -10.1265
  29   0.0000       0.012762         0.3473
  30   0.0000       0.037573         1.0224
  31   0.0000       0.041349         1.1252
  32   0.0000       0.046429         1.2634
  33   0.0000       0.070310         1.9132

MULLIKEN ATOMIC CHARGES
-----------------------
   0 C :   -1.177457
   1 C :   -0.393044
   2 H :    0.326594
   3 H :    0.347140
   4 S :    1.149297
   5 O :   -0.545789
   6 F :   -0.139483
   7 O :   -0.602938
   8 H :    0.353757
   9 H :    0.337874
  10 H :    0.344050
Sum of atomic charges:   -0.0000000

LOEWDIN ATOMIC CHARGES
----------------------
   0 C :   -0.112259
   1 C :   -0.279473
   2 H :    0.113659
   3 H :    0.100065
   4 S :    0.596417
   5 O :   -0.274426
   6 F :   -0.048726
   7 O :   -0.314790
   8 H :    0.067995
   9 H :    0.075000
  10 H :    0.076538

  Mayer bond orders larger than 0.100000
B(  0-C ,  1-C ) :   0.5836 B(  0-C ,  8-H ) :   0.9156 B(  0-C ,  9-H ) :   0.9437
B(  0-C , 10-H ) :   0.9653 B(  1-C ,  2-H ) :   0.9220 B(  1-C ,  3-H ) :   0.9157
B(  1-C ,  4-S ) :   0.8878 B(  4-S ,  5-O ) :   1.7058 B(  4-S ,  6-F ) :   1.0143
B(  4-S ,  7-O ) :   1.6498

FINAL SINGLE POINT ENERGY      -727.722644385121

DIPOLE MOMENT
-------------
                                X             Y             Z
Electronic contribution:      0.22471      -6.73550      -5.83725
Nuclear contribution   :     -1.42658       8.04056       6.39401
                        -----------------------------------------
Total Dipole Moment    :     -1.20187       1.30505       0.55677
                        -----------------------------------------
Magnitude (a.u.)       :      1.85947
Magnitude (Debye)      :      4.72641

Rotational constants in cm-1:     0.153659     0.082363     0.078978
Rotational constants in MHz :  4606.587369  2469.179541  2367.702074

                             ****ORCA TERMINATED NORMALLY****
TOTAL RUN TIME: 0 days 0 hours 0 minutes 53 seconds 829 msec
