                         Program Version 5.0.0 -  RELEASE  -
|  1> !CAM-B3LYP RIJCOSX def2-TZVPD def2/J TightSCF
|  2> *xyz 0 1
|  3> C          1.96337       -1.74915       -1.89689
|  4> N          2.73849       -2.01517       -3.09711
|  5> C          4.04974       -2.15472       -3.15204
|  6> C          4.65821       -1.98629       -4.31866
|  7> N          4.76423       -2.45444       -2.05049
|  8> H          4.28736       -2.77626       -1.21750
|  9> H          5.75082       -2.65835       -2.12599
| 10> H          2.34518       -1.69027       -3.97145
| 11> H          4.10900       -1.59268       -5.07176
| 12> H          5.64910       -2.15646       -4.42724
| 13> C          2.08852       -0.30091       -1.41520
| 14> H          2.23127       -2.45162       -1.10264
| 15> H          0.93025       -1.97780       -2.15544
| 16> H          1.82118        0.36368       -2.21003
| 17> H          3.09792       -0.11068       -1.11551
| 18> H          1.43391       -0.14382       -0.58352
| 19> *
| 20> %MaxCore 64000
| 21>
| 22> %pal nprocs 4
| 23> end
| 24>
| 25> %scf
| 26>   MaxIter 150
| 27> end
| 28>
| 29>
| 30>                          ****END OF INPUT****

CARTESIAN COORDINATES (ANGSTROEM)
---------------------------------
  C      1.963370   -1.749150   -1.896890
  N      2.738490   -2.015170   -3.097110
  C      4.049740   -2.154720   -3.152040
  C      4.658210   -1.986290   -4.318660
  N      4.764230   -2.454440   -2.050490
  H      4.287360   -2.776260   -1.217500
  H      5.750820   -2.658350   -2.125990
  H      2.345180   -1.690270   -3.971450
  H      4.109000   -1.592680   -5.071760
  H      5.649100   -2.156460   -4.427240
  C      2.088520   -0.300910   -1.415200
  H      2.231270   -2.451620   -1.102640
  H      0.930250   -1.977800   -2.155440
  H      1.821180    0.363680   -2.210030
  H      3.097920   -0.110680   -1.115510
  H      1.433910   -0.143820   -0.583520

 Total Charge           Charge          ....    0
 Multiplicity           Mult            ....    1
 Number of Electrons    NEL             ....   48
 Basis Dimension        Dim             ....  312

ORBITAL ENERGIES
----------------

  NO   OCC          E(Eh)            E(eV)
   0   2.0000     -14.389309      -391.5530
   1   2.0000     -14.387682      -391.5087
   2   2.0000     -10.290471      -280.0180
   3   2.0000     -10.283572      -279.8302
   4   2.0000     -10.230556      -278.3876
   5   2.0000     -10.154046      -276.3056
   6   2.0000      -1.053034       -28.6545
   7   2.0000      -0.965774       -26.2800
   8   2.0000      -0.853148       -23.2153
   9   2.0000      -0.782337       -21.2885
  10   2.0000      -0.708016       -19.2661
  11   2.0000      -0.673296       -18.3213
  12   2.0000      -0.608378       -16.5548
  13   2.0000      -0.567420       -15.4403
  14   2.0000      -0.548903       -14.9364
  15   2.0000      -0.507169       -13.8008
  16   2.0000      -0.503610       -13.7039
  17   2.0000      -0.470709       -12.8086
  18   2.0000      -0.451206       -12.2779
  19   2.0000      -0.441573       -12.0158
  20   2.0000      -0.427287       -11.6271
  21   2.0000      -0.423142       -11.5143
  22   2.0000      -0.319431        -8.6922
  23   2.0000      -0.221763        -6.0345
  24   0.0000       0.026405         0.7185
  25   0.0000       0.050835         1.3833
  26   0.0000       0.055129         1.5001
  27   0.0000       0.057616         1.5678
  28   0.0000       0.086060         2.3418

MULLIKEN ATOMIC CHARGES
-----------------------
   0 C :   -0.501911
   1 N :   -0.209589
   2 C :    0.806444
   3 C :   -1.206917
   4 N :   -0.361371
   5 H :    0.152054
   6 H :    0.150957
   7 H :    0.153069
   8 H :    0.245916
   9 H :    0.244591
  10 C :   -1.047187
  11 H :    0.296563
  12 H :    0.317188
  13 H :    0.288502
  14 H :    0.308487
  15 H :    0.363204
Sum of atomic charges:   -0.0000000

LOEWDIN ATOMIC CHARGES
----------------------
   0 C :   -0.242060
   1 N :    0.008455
   2 C :   -0.568952
   3 C :   -0.000870
   4 N :    0.124541
   5 H :    0.090091
   6 H :    0.108142
   7 H :    0.141485
   8 H :    0.007690
   9 H :    0.006525
  10 C :   -0.084616
  11 H :    0.103802
  12 H :    0.111355
  13 H :    0.067631
  14 H :    0.063891
  15 H :    0.062891

  Mayer bond orders larger than 0.100000
B(  0-C ,  1-N ) :   0.8158 B(  0-C , 10-C ) :   0.6218 B(  0-C , 11-H ) :   0.9257
B(  0-C , 12-H ) :   0.9408 B(  1-N ,  2-C ) :   1.0791 B(  1-N ,  7-H ) :   0.9673
B(  2-C ,  3-C ) :   1.0194 B(  2-C ,  4-N ) :   0.9190 B(  2-C ,  9-H ) :  -0.1209
B(  3-C ,  8-H ) :   1.0164 B(  3-C ,  9-H ) :   1.1206 B(  4-N ,  5-H ) :   1.0157
B(  4-N ,  6-H ) :   1.0283 B( 10-C , 13-H ) :   0.9939 B( 10-C , 14-H ) :   0.9712
B( 10-C , 15-H ) :   0.9483

FINAL SINGLE POINT ENERGY      -267.872074765613

DIPOLE MOMENT
-------------
                                X             Y             Z
Electronic contribution:      1.39311      -2.32967      -1.20033
Nuclear contribution   :     -1.91052       2.32590       2.09379
                        -----------------------------------------
Total Dipole Moment    :     -0.51741      -0.00377       0.89347
                        -----------------------------------------
Magnitude (a.u.)       :      1.03248
Magnitude (Debye)      :      2.62435

Rotational constants in cm-1:     0.219448     0.077923     0.068804
Rotational constants in MHz :  6578.886179  2336.083179  2062.700476

                             ****ORCA TERMINATED NORMALLY****
TOTAL RUN TIME: 0 days 0 hours 1 minutes 16 seconds 239 msec
