                         Program Version 5.0.0 -  RELEASE  -
|  1> !CAM-B3LYP RIJCOSX def2-TZVPD def2/J TightSCF
|  2> *xyz 0 1
|  3> C          0.61188        1.65763       -4.50029
|  4> C          1.69499        1.54179       -5.57045
|  5> H          2.69733        1.73466       -5.18400
|  6> H          1.50666        2.27224       -6.35808
|  7> S          1.78029       -0.03313       -6.42874
|  8> O          2.56929        0.21366       -7.60736
|  9> O          0.41688       -0.46297       -6.61859
| 10> F          2.50513       -0.93326       -5.48257
| 11> H         -0.34424        1.45871       -4.93752
| 12> H          0.61845        2.64655       -4.09174
| 13> H          0.80247        0.94882       -3.72173
| 14> *
| 15> %MaxCore 64000
| 16>
| 17> %pal nprocs 4
| 18> end
| 19>
| 20> %scf
| 21>   MaxIter 150
| 22> end
| 23>
| 24>
| 25>                          ****END OF INPUT****

CARTESIAN COORDINATES (ANGSTROEM)
---------------------------------
  C      0.611880    1.657630   -4.500290
  C      1.694990    1.541790   -5.570450
  H      2.697330    1.734660   -5.184000
  H      1.506660    2.272240   -6.358080
  S      1.780290   -0.033130   -6.428740
  O      2.569290    0.213660   -7.607360
  O      0.416880   -0.462970   -6.618590
  F      2.505130   -0.933260   -5.482570
  H     -0.344240    1.458710   -4.937520
  H      0.618450    2.646550   -4.091740
  H      0.802470    0.948820   -3.721730

 Total Charge           Charge          ....    0
 Multiplicity           Mult            ....    1
 Number of Electrons    NEL             ....   58
 Basis Dimension        Dim             ....  285

ORBITAL ENERGIES
----------------

  NO   OCC          E(Eh)            E(eV)
   0   2.0000     -89.177893     -2426.6538
   1   2.0000     -24.855019      -676.3395
   2   2.0000     -19.216355      -522.9036
   3   2.0000     -19.215654      -522.8845
   4   2.0000     -10.307085      -280.4701
   5   2.0000     -10.263217      -279.2763
   6   2.0000      -8.221962      -223.7310
   7   2.0000      -6.189966      -168.4375
   8   2.0000      -6.183476      -168.2609
   9   2.0000      -6.182865      -168.2443
  10   2.0000      -1.428461       -38.8704
  11   2.0000      -1.202383       -32.7185
  12   2.0000      -1.111187       -30.2369
  13   2.0000      -0.908368       -24.7179
  14   2.0000      -0.801247       -21.8030
  15   2.0000      -0.748901       -20.3786
  16   2.0000      -0.651614       -17.7313
  17   2.0000      -0.635553       -17.2943
  18   2.0000      -0.623496       -16.9662
  19   2.0000      -0.567719       -15.4484
  20   2.0000      -0.552052       -15.0221
  21   2.0000      -0.530185       -14.4271
  22   2.0000      -0.504501       -13.7282
  23   2.0000      -0.475939       -12.9510
  24   2.0000      -0.473263       -12.8781
  25   2.0000      -0.451985       -12.2991
  26   2.0000      -0.411930       -11.2092
  27   2.0000      -0.402801       -10.9608
  28   2.0000      -0.392899       -10.6913
  29   0.0000       0.016048         0.4367
  30   0.0000       0.039776         1.0824
  31   0.0000       0.042310         1.1513
  32   0.0000       0.046118         1.2549
  33   0.0000       0.071358         1.9417

MULLIKEN ATOMIC CHARGES
-----------------------
   0 C :   -1.125782
   1 C :   -0.444661
   2 H :    0.357818
   3 H :    0.332755
   4 S :    1.164684
   5 O :   -0.556317
   6 O :   -0.562308
   7 F :   -0.183894
   8 H :    0.339740
   9 H :    0.343726
  10 H :    0.334238
Sum of atomic charges:    0.0000000

LOEWDIN ATOMIC CHARGES
----------------------
   0 C :   -0.111569
   1 C :   -0.279909
   2 H :    0.103200
   3 H :    0.108225
   4 S :    0.598638
   5 O :   -0.275955
   6 O :   -0.271360
   7 F :   -0.091064
   8 H :    0.071565
   9 H :    0.074273
  10 H :    0.073956

  Mayer bond orders larger than 0.100000
B(  0-C ,  1-C ) :   0.6223 B(  0-C ,  8-H ) :   0.9700 B(  0-C ,  9-H ) :   0.9349
B(  0-C , 10-H ) :   0.9304 B(  1-C ,  2-H ) :   0.8895 B(  1-C ,  3-H ) :   0.9190
B(  1-C ,  4-S ) :   0.8916 B(  4-S ,  5-O ) :   1.6952 B(  4-S ,  6-O ) :   1.6930
B(  4-S ,  7-F ) :   0.9586

FINAL SINGLE POINT ENERGY      -727.746284427764

DIPOLE MOMENT
-------------
                                X             Y             Z
Electronic contribution:      3.77722      -7.57316      -3.89679
Nuclear contribution   :     -3.60260       8.53062       5.21025
                        -----------------------------------------
Total Dipole Moment    :      0.17462       0.95746       1.31346
                        -----------------------------------------
Magnitude (a.u.)       :      1.63475
Magnitude (Debye)      :      4.15520

Rotational constants in cm-1:     0.154011     0.080858     0.079602
Rotational constants in MHz :  4617.134198  2424.070332  2386.404775

                             ****ORCA TERMINATED NORMALLY****
TOTAL RUN TIME: 0 days 0 hours 0 minutes 53 seconds 475 msec
