                         Program Version 5.0.0 -  RELEASE  -
|  1> !CAM-B3LYP RIJCOSX def2-TZVPD def2/J TightSCF
|  2> *xyz 0 1
|  3> C          1.96337       -1.74915       -1.89689
|  4> N          2.73849       -2.01517       -3.09711
|  5> C          4.04974       -2.15472       -3.15204
|  6> N          4.65821       -1.98629       -4.31866
|  7> C          4.76423       -2.45444       -2.05049
|  8> H          4.28736       -2.77626       -1.21750
|  9> H          5.75082       -2.65835       -2.12599
| 10> H          2.34518       -1.69027       -3.97145
| 11> H          4.10900       -1.59268       -5.07176
| 12> H          5.64910       -2.15646       -4.42724
| 13> C          2.08852       -0.30091       -1.41520
| 14> H          2.23127       -2.45162       -1.10264
| 15> H          0.93025       -1.97780       -2.15544
| 16> H          1.82118        0.36368       -2.21003
| 17> H          3.09792       -0.11068       -1.11551
| 18> H          1.43391       -0.14382       -0.58352
| 19> *
| 20> %MaxCore 64000
| 21>
| 22> %pal nprocs 4
| 23> end
| 24>
| 25> %scf
| 26>   MaxIter 150
| 27> end
| 28>
| 29>
| 30>                          ****END OF INPUT****

CARTESIAN COORDINATES (ANGSTROEM)
---------------------------------
  C      1.963370   -1.749150   -1.896890
  N      2.738490   -2.015170   -3.097110
  C      4.049740   -2.154720   -3.152040
  N      4.658210   -1.986290   -4.318660
  C      4.764230   -2.454440   -2.050490
  H      4.287360   -2.776260   -1.217500
  H      5.750820   -2.658350   -2.125990
  H      2.345180   -1.690270   -3.971450
  H      4.109000   -1.592680   -5.071760
  H      5.649100   -2.156460   -4.427240
  C      2.088520   -0.300910   -1.415200
  H      2.231270   -2.451620   -1.102640
  H      0.930250   -1.977800   -2.155440
  H      1.821180    0.363680   -2.210030
  H      3.097920   -0.110680   -1.115510
  H      1.433910   -0.143820   -0.583520

 Total Charge           Charge          ....    0
 Multiplicity           Mult            ....    1
 Number of Electrons    NEL             ....   48
 Basis Dimension        Dim             ....  312

ORBITAL ENERGIES
----------------

  NO   OCC          E(Eh)            E(eV)
   0   2.0000     -14.392159      -391.6306
   1   2.0000     -14.391481      -391.6121
   2   2.0000     -10.292383      -280.0700
   3   2.0000     -10.277191      -279.6566
   4   2.0000     -10.223877      -278.2058
   5   2.0000     -10.154341      -276.3137
   6   2.0000      -1.058931       -28.8150
   7   2.0000      -0.970053       -26.3965
   8   2.0000      -0.835885       -22.7456
   9   2.0000      -0.787968       -21.4417
  10   2.0000      -0.721143       -19.6233
  11   2.0000      -0.636945       -17.3321
  12   2.0000      -0.619262       -16.8510
  13   2.0000      -0.596819       -16.2403
  14   2.0000      -0.537875       -14.6363
  15   2.0000      -0.510051       -13.8792
  16   2.0000      -0.487166       -13.2565
  17   2.0000      -0.467165       -12.7122
  18   2.0000      -0.448839       -12.2135
  19   2.0000      -0.436066       -11.8659
  20   2.0000      -0.430481       -11.7140
  21   2.0000      -0.412725       -11.2308
  22   2.0000      -0.316557        -8.6140
  23   2.0000      -0.223438        -6.0800
  24   0.0000       0.026217         0.7134
  25   0.0000       0.047666         1.2971
  26   0.0000       0.058337         1.5874
  27   0.0000       0.060289         1.6405
  28   0.0000       0.086086         2.3425

MULLIKEN ATOMIC CHARGES
-----------------------
   0 C :   -0.454487
   1 N :   -0.241315
   2 C :    0.754370
   3 N :   -0.334577
   4 C :   -1.210510
   5 H :    0.243297
   6 H :    0.287263
   7 H :    0.147795
   8 H :    0.142921
   9 H :    0.158082
  10 C :   -1.099704
  11 H :    0.299474
  12 H :    0.319231
  13 H :    0.296888
  14 H :    0.325801
  15 H :    0.365471
Sum of atomic charges:    0.0000000

LOEWDIN ATOMIC CHARGES
----------------------
   0 C :   -0.237063
   1 N :    0.006959
   2 C :   -0.571277
   3 N :    0.116694
   4 C :    0.006021
   5 H :    0.000742
   6 H :    0.003738
   7 H :    0.133796
   8 H :    0.099350
   9 H :    0.113274
  10 C :   -0.083811
  11 H :    0.109388
  12 H :    0.110920
  13 H :    0.064353
  14 H :    0.062866
  15 H :    0.064053

  Mayer bond orders larger than 0.100000
B(  0-C ,  1-N ) :   0.7638 B(  0-C , 10-C ) :   0.6164 B(  0-C , 11-H ) :   0.9198
B(  0-C , 12-H ) :   0.9094 B(  1-N ,  2-C ) :   1.0110 B(  1-N ,  7-H ) :   1.0313
B(  2-C ,  3-N ) :   0.9079 B(  2-C ,  4-C ) :   1.1902 B(  2-C ,  6-H ) :  -0.1012
B(  3-N ,  8-H ) :   1.0423 B(  3-N ,  9-H ) :   1.0216 B(  4-C ,  5-H ) :   1.0096
B(  4-C ,  6-H ) :   1.0398 B( 10-C , 13-H ) :   0.9774 B( 10-C , 14-H ) :   0.9871
B( 10-C , 15-H ) :   0.9284

FINAL SINGLE POINT ENERGY      -267.871467107578

DIPOLE MOMENT
-------------
                                X             Y             Z
Electronic contribution:      1.33008      -1.82017      -3.40940
Nuclear contribution   :     -1.88803       2.22658       2.57497
                        -----------------------------------------
Total Dipole Moment    :     -0.55795       0.40641      -0.83443
                        -----------------------------------------
Magnitude (a.u.)       :      1.08293
Magnitude (Debye)      :      2.75260

Rotational constants in cm-1:     0.226509     0.075782     0.067928
Rotational constants in MHz :  6790.555051  2271.890226  2036.439218

                             ****ORCA TERMINATED NORMALLY****
TOTAL RUN TIME: 0 days 0 hours 1 minutes 15 seconds 387 msec
