                         Program Version 5.0.0 -  RELEASE  -
|  1> !CAM-B3LYP RIJCOSX def2-TZVPD def2/J TightSCF xyzfile
|  2>
|  3> *xyzfile 0 1 D1.xyz
|  4>
|  5> %MaxCore 64000
|  6>
|  7> %pal nprocs 4
|  8> end
|  9>
| 10> %scf
| 11>   MaxIter 150
| 12> end
| 13>
| 14>
| 15>                          ****END OF INPUT****

CARTESIAN COORDINATES (ANGSTROEM)
---------------------------------
  C      1.963365   -1.749150   -1.896887
  C      2.738490   -2.015170   -3.097113
  C      0.611877    1.657634   -4.500288
  C      1.694991    1.541794   -5.570447
  H      2.697326    1.734659   -5.183996
  H      1.506656    2.272239   -6.358076
  S      1.780287   -0.033128   -6.428739
  C      4.049736   -2.154717   -3.152044
  N      4.658206   -1.986293   -4.318655
  N      4.764231   -2.454435   -2.050491
  H      4.287363   -2.776259   -1.217496
  H      5.750825   -2.658351   -2.125988
  H      2.345176   -1.690274   -3.971447
  H      4.109004   -1.592677   -5.071760
  H      5.649095   -2.156462   -4.427237
  F      2.569287    0.213657   -7.607360
  O      0.416880   -0.462969   -6.618595
  C      2.088520   -0.300912   -1.415204
  H      2.231272   -2.451616   -1.102643
  H      0.930249   -1.977801   -2.155438
  C      0.680356    0.655418   -3.348038
  H     -0.356865    1.549231   -4.991128
  H      0.650228    2.675438   -4.096000
  C      1.968993    0.733582   -2.535654
  H      3.051356   -0.168602   -0.911868
  H      1.316501   -0.136231   -0.657252
  O      2.505129   -0.933263   -5.482570
  H      2.824195    0.624726   -3.208464
  H      2.058919    1.730331   -2.093112
  H      0.542252   -0.344731   -3.766662
  H     -0.174219    0.829692   -2.685182

 Total Charge           Charge          ....    0
 Multiplicity           Mult            ....    1
 Number of Electrons    NEL             ....  120
 Basis Dimension        Dim             ....  689

ORBITAL ENERGIES
----------------

  NO   OCC          E(Eh)            E(eV)
   0   2.0000     -89.190131     -2426.9868
   1   2.0000     -24.891097      -677.3212
   2   2.0000     -19.225363      -523.1487
   3   2.0000     -19.210924      -522.7558
   4   2.0000     -14.372760      -391.1027
   5   2.0000     -14.357551      -390.6888
   6   2.0000     -10.308924      -280.5201
   7   2.0000     -10.268396      -279.4173
   8   2.0000     -10.265682      -279.3434
   9   2.0000     -10.236578      -278.5515
  10   2.0000     -10.225158      -278.2407
  11   2.0000     -10.214924      -277.9622
  12   2.0000     -10.202992      -277.6375
  13   2.0000     -10.130322      -275.6601
  14   2.0000      -8.234702      -224.0776
  15   2.0000      -6.202500      -168.7786
  16   2.0000      -6.195945      -168.6002
  17   2.0000      -6.195790      -168.5960
  18   2.0000      -1.481938       -40.3256
  19   2.0000      -1.201587       -32.6968
  20   2.0000      -1.101808       -29.9817
  21   2.0000      -1.021750       -27.8032
  22   2.0000      -0.931167       -25.3383
  23   2.0000      -0.921191       -25.0669
  24   2.0000      -0.875326       -23.8188
  25   2.0000      -0.837510       -22.7898
  26   2.0000      -0.806782       -21.9537
  27   2.0000      -0.771927       -21.0052
  28   2.0000      -0.732489       -19.9320
  29   2.0000      -0.698235       -19.0000
  30   2.0000      -0.681402       -18.5419
  31   2.0000      -0.665471       -18.1084
  32   2.0000      -0.663540       -18.0558
  33   2.0000      -0.626776       -17.0554
  34   2.0000      -0.623217       -16.9586
  35   2.0000      -0.596915       -16.2429
  36   2.0000      -0.571373       -15.5479
  37   2.0000      -0.565690       -15.3932
  38   2.0000      -0.557982       -15.1835
  39   2.0000      -0.537748       -14.6329
  40   2.0000      -0.534720       -14.5505
  41   2.0000      -0.513935       -13.9849
  42   2.0000      -0.503748       -13.7077
  43   2.0000      -0.494946       -13.4682
  44   2.0000      -0.482759       -13.1365
  45   2.0000      -0.470097       -12.7920
  46   2.0000      -0.451483       -12.2855
  47   2.0000      -0.445964       -12.1353
  48   2.0000      -0.437476       -11.9043
  49   2.0000      -0.429058       -11.6753
  50   2.0000      -0.418145       -11.3783
  51   2.0000      -0.401278       -10.9193
  52   2.0000      -0.396291       -10.7836
  53   2.0000      -0.390213       -10.6182
  54   2.0000      -0.388330       -10.5670
  55   2.0000      -0.376313       -10.2400
  56   2.0000      -0.362745        -9.8708
  57   2.0000      -0.348855        -9.4928
  58   2.0000      -0.309811        -8.4304
  59   2.0000      -0.195420        -5.3177
  60   0.0000       0.010105         0.2750
  61   0.0000       0.029301         0.7973
  62   0.0000       0.033984         0.9248
  63   0.0000       0.039945         1.0870
  64   0.0000       0.053242         1.4488

MULLIKEN ATOMIC CHARGES
-----------------------
   0 C :   -0.621246
   1 C :   -0.563593
   2 C :   -0.724031
   3 C :   -0.730697
   4 H :    0.400299
   5 H :    0.394934
   6 S :    1.040934
   7 C :   -0.278045
   8 N :   -0.316306
   9 N :   -0.337444
  10 H :    0.179939
  11 H :    0.119790
  12 H :    0.977816
  13 H :    0.303343
  14 H :    0.072935
  15 F :   -0.118049
  16 O :   -0.601615
  17 C :   -0.585967
  18 H :    0.484368
  19 H :    0.234114
  20 C :   -0.504025
  21 H :    0.302862
  22 H :    0.323427
  23 C :   -0.502894
  24 H :    0.262919
  25 H :    0.289484
  26 O :   -0.707594
  27 H :    0.294973
  28 H :    0.326104
  29 H :    0.253665
  30 H :    0.329599
Sum of atomic charges:    0.0000000

LOEWDIN ATOMIC CHARGES
----------------------
   0 C :   -0.227256
   1 C :   -0.151430
   2 C :   -0.215155
   3 C :   -0.224937
   4 H :    0.107765
   5 H :    0.103413
   6 S :    0.661758
   7 C :   -0.530968
   8 N :    0.116903
   9 N :    0.126612
  10 H :    0.096940
  11 H :    0.092191
  12 H :    0.020214
  13 H :    0.058496
  14 H :    0.098504
  15 F :   -0.038403
  16 O :   -0.246741
  17 C :   -0.197381
  18 H :    0.098230
  19 H :    0.104573
  20 C :   -0.206577
  21 H :    0.113062
  22 H :    0.123015
  23 C :   -0.210921
  24 H :    0.107537
  25 H :    0.105256
  26 O :   -0.330827
  27 H :    0.103107
  28 H :    0.114221
  29 H :    0.104598
  30 H :    0.124202

  Mayer bond orders larger than 0.100000
B(  0-C ,  1-C ) :   0.3346 B(  0-C ,  7-C ) :   0.2278 B(  0-C , 17-C ) :   0.6978
B(  0-C , 18-H ) :   0.8319 B(  0-C , 19-H ) :   1.0710 B(  1-C ,  7-C ) :   1.5524
B(  1-C ,  8-N ) :  -0.1254 B(  1-C , 12-H ) :   0.5277 B(  1-C , 17-C ) :  -0.1700
B(  1-C , 18-H ) :  -0.1567 B(  1-C , 23-C ) :   0.1248 B(  1-C , 26-O ) :   0.2300
B(  2-C ,  3-C ) :   0.8671 B(  2-C , 20-C ) :   0.8629 B(  2-C , 21-H ) :   0.9594
B(  2-C , 22-H ) :   0.9340 B(  2-C , 23-C ) :   0.1023 B(  3-C ,  4-H ) :   0.8491
B(  3-C ,  5-H ) :   0.8371 B(  3-C ,  6-S ) :   0.8243 B(  3-C , 16-O ) :   0.1101
B(  3-C , 23-C ) :   0.1037 B(  6-S , 15-F ) :   0.9426 B(  6-S , 16-O ) :   1.6810
B(  6-S , 26-O ) :   1.7949 B(  7-C ,  8-N ) :   1.0528 B(  7-C ,  9-N ) :   0.9805
B(  7-C , 12-H ) :  -0.3305 B(  7-C , 17-C ) :   0.1165 B(  8-N , 13-H ) :   0.9053
B(  8-N , 14-H ) :   1.1163 B(  9-N , 10-H ) :   0.9725 B(  9-N , 11-H ) :   1.0730
B( 12-H , 26-O ) :  -0.4345 B( 17-C , 20-C ) :   0.1244 B( 17-C , 23-C ) :   0.8852
B( 17-C , 24-H ) :   0.9783 B( 17-C , 25-H ) :   0.9311 B( 20-C , 23-C ) :   0.3520
B( 20-C , 29-H ) :   1.0196 B( 20-C , 30-H ) :   0.8978 B( 23-C , 27-H ) :   1.0475
B( 23-C , 28-H ) :   0.9264

FINAL SINGLE POINT ENERGY     -1072.988305923833

DIPOLE MOMENT
-------------
                                X             Y             Z
Electronic contribution:      0.70469      -0.96618     -23.53598
Nuclear contribution   :      0.18720       2.58739      22.98820
                        -----------------------------------------
Total Dipole Moment    :      0.89189       1.62122      -0.54778
                        -----------------------------------------
Magnitude (a.u.)       :      1.92973
Magnitude (Debye)      :      4.90499

Rotational constants in cm-1:     0.028798     0.014448     0.010940
Rotational constants in MHz :   863.355869   433.126694   327.985023

                             ****ORCA TERMINATED NORMALLY****
TOTAL RUN TIME: 0 days 0 hours 10 minutes 31 seconds 243 msec
