                         Program Version 5.0.0 -  RELEASE  -
|  1> !CAM-B3LYP RIJCOSX def2-TZVPD def2/J TightSCF xyzfile
|  2>
|  3> *xyzfile 0 1 D2.xyz
|  4>
|  5> %MaxCore 64000
|  6>
|  7> %pal nprocs 4
|  8> end
|  9>
| 10> %scf
| 11>   MaxIter 150
| 12> end
| 13>
| 14>
| 15>                          ****END OF INPUT****

CARTESIAN COORDINATES (ANGSTROEM)
---------------------------------
  C      1.963365   -1.749150   -1.896887
  N      2.738490   -2.015170   -3.097113
  C      0.611877    1.657634   -4.500288
  C      1.694991    1.541794   -5.570447
  H      2.697326    1.734659   -5.183996
  H      1.506656    2.272239   -6.358076
  S      1.780287   -0.033128   -6.428739
  C      4.049736   -2.154717   -3.152044
  C      4.658206   -1.986293   -4.318655
  N      4.764231   -2.454435   -2.050491
  H      4.287363   -2.776259   -1.217496
  H      5.750825   -2.658351   -2.125988
  H      2.345176   -1.690274   -3.971447
  H      4.109004   -1.592677   -5.071760
  H      5.649095   -2.156462   -4.427237
  F      2.569287    0.213657   -7.607360
  O      0.416880   -0.462969   -6.618595
  C      2.088520   -0.300912   -1.415204
  H      2.231272   -2.451616   -1.102643
  H      0.930249   -1.977801   -2.155438
  C      0.680356    0.655418   -3.348038
  H     -0.356865    1.549231   -4.991128
  H      0.650228    2.675438   -4.096000
  C      1.968993    0.733582   -2.535654
  H      3.051356   -0.168602   -0.911868
  H      1.316501   -0.136231   -0.657252
  O      2.505129   -0.933263   -5.482570
  H      2.824195    0.624726   -3.208464
  H      2.058919    1.730331   -2.093112
  H      0.542252   -0.344731   -3.766662
  H     -0.174219    0.829692   -2.685182

 Total Charge           Charge          ....    0
 Multiplicity           Mult            ....    1
 Number of Electrons    NEL             ....  120
 Basis Dimension        Dim             ....  689

ORBITAL ENERGIES
----------------

  NO   OCC          E(Eh)            E(eV)
   0   2.0000     -89.192666     -2427.0558
   1   2.0000     -24.892437      -677.3577
   2   2.0000     -19.226996      -523.1932
   3   2.0000     -19.210236      -522.7371
   4   2.0000     -14.370214      -391.0334
   5   2.0000     -14.354977      -390.6188
   6   2.0000     -10.312201      -280.6093
   7   2.0000     -10.276115      -279.6273
   8   2.0000     -10.266559      -279.3673
   9   2.0000     -10.266378      -279.3623
  10   2.0000     -10.250310      -278.9251
  11   2.0000     -10.240398      -278.6554
  12   2.0000     -10.235623      -278.5255
  13   2.0000     -10.123535      -275.4754
  14   2.0000      -8.237030      -224.1410
  15   2.0000      -6.204623      -168.8364
  16   2.0000      -6.198423      -168.6677
  17   2.0000      -6.198207      -168.6618
  18   2.0000      -1.482773       -40.3483
  19   2.0000      -1.203121       -32.7386
  20   2.0000      -1.102516       -30.0010
  21   2.0000      -1.029885       -28.0246
  22   2.0000      -0.946730       -25.7618
  23   2.0000      -0.927511       -25.2389
  24   2.0000      -0.877072       -23.8664
  25   2.0000      -0.842613       -22.9287
  26   2.0000      -0.804177       -21.8828
  27   2.0000      -0.778059       -21.1721
  28   2.0000      -0.739805       -20.1311
  29   2.0000      -0.705972       -19.2105
  30   2.0000      -0.683136       -18.5891
  31   2.0000      -0.672013       -18.2864
  32   2.0000      -0.665403       -18.1065
  33   2.0000      -0.641462       -17.4551
  34   2.0000      -0.632298       -17.2057
  35   2.0000      -0.589272       -16.0349
  36   2.0000      -0.575353       -15.6561
  37   2.0000      -0.572216       -15.5708
  38   2.0000      -0.549057       -14.9406
  39   2.0000      -0.546006       -14.8576
  40   2.0000      -0.536139       -14.5891
  41   2.0000      -0.527976       -14.3670
  42   2.0000      -0.511021       -13.9056
  43   2.0000      -0.501114       -13.6360
  44   2.0000      -0.485560       -13.2128
  45   2.0000      -0.470579       -12.8051
  46   2.0000      -0.455992       -12.4082
  47   2.0000      -0.451818       -12.2946
  48   2.0000      -0.439764       -11.9666
  49   2.0000      -0.431807       -11.7501
  50   2.0000      -0.422693       -11.5021
  51   2.0000      -0.421796       -11.4776
  52   2.0000      -0.414714       -11.2849
  53   2.0000      -0.399743       -10.8776
  54   2.0000      -0.395112       -10.7516
  55   2.0000      -0.388469       -10.5708
  56   2.0000      -0.384129       -10.4527
  57   2.0000      -0.370115       -10.0713
  58   2.0000      -0.296856        -8.0779
  59   2.0000      -0.198041        -5.3890
  60   0.0000       0.011109         0.3023
  61   0.0000       0.029024         0.7898
  62   0.0000       0.035355         0.9620
  63   0.0000       0.035975         0.9789
  64   0.0000       0.051527         1.4021

MULLIKEN ATOMIC CHARGES
-----------------------
   0 C :   -0.966894
   1 N :   -0.181244
   2 C :   -0.734430
   3 C :   -0.740080
   4 H :    0.404370
   5 H :    0.402343
   6 S :    1.061426
   7 C :    0.726423
   8 C :   -1.363042
   9 N :   -0.347695
  10 H :    0.151819
  11 H :    0.160573
  12 H :    0.419325
  13 H :    0.506837
  14 H :    0.262925
  15 F :   -0.116756
  16 O :   -0.611223
  17 C :   -0.477483
  18 H :    0.358833
  19 H :    0.348568
  20 C :   -0.545770
  21 H :    0.304638
  22 H :    0.321174
  23 C :   -0.525811
  24 H :    0.302779
  25 H :    0.339165
  26 O :   -0.722483
  27 H :    0.320444
  28 H :    0.329375
  29 H :    0.298497
  30 H :    0.313399
Sum of atomic charges:   -0.0000000

LOEWDIN ATOMIC CHARGES
----------------------
   0 C :   -0.190791
   1 N :    0.025119
   2 C :   -0.214082
   3 C :   -0.223569
   4 H :    0.109530
   5 H :    0.104247
   6 S :    0.663489
   7 C :   -0.552996
   8 C :    0.003149
   9 N :    0.121217
  10 H :    0.086233
  11 H :    0.104362
  12 H :    0.076755
  13 H :   -0.027702
  14 H :    0.008390
  15 F :   -0.030083
  16 O :   -0.250939
  17 C :   -0.185345
  18 H :    0.107031
  19 H :    0.113967
  20 C :   -0.210779
  21 H :    0.113806
  22 H :    0.124048
  23 C :   -0.207315
  24 H :    0.108255
  25 H :    0.108896
  26 O :   -0.331690
  27 H :    0.104344
  28 H :    0.117375
  29 H :    0.100894
  30 H :    0.124184

  Mayer bond orders larger than 0.100000
B(  0-C ,  1-N ) :   0.9055 B(  0-C ,  7-C ) :  -0.1320 B(  0-C ,  9-N ) :   0.1005
B(  0-C , 12-H ) :  -0.1350 B(  0-C , 17-C ) :   0.6284 B(  0-C , 18-H ) :   0.8728
B(  0-C , 19-H ) :   0.9480 B(  1-N ,  7-C ) :   0.9711 B(  1-N , 12-H ) :   0.7921
B(  2-C ,  3-C ) :   0.8586 B(  2-C , 20-C ) :   0.8746 B(  2-C , 21-H ) :   0.9586
B(  2-C , 22-H ) :   0.9334 B(  3-C ,  4-H ) :   0.8514 B(  3-C ,  5-H ) :   0.8348
B(  3-C ,  6-S ) :   0.8171 B(  3-C , 23-C ) :   0.1129 B(  6-S , 15-F ) :   0.9516
B(  6-S , 16-O ) :   1.6726 B(  6-S , 26-O ) :   1.8000 B(  7-C ,  8-C ) :   1.1118
B(  7-C ,  9-N ) :   0.9396 B(  7-C , 14-H ) :  -0.1601 B(  8-C , 13-H ) :   0.8278
B(  8-C , 14-H ) :   1.1351 B(  8-C , 26-O ) :   0.1718 B(  9-N , 10-H ) :   1.0127
B(  9-N , 11-H ) :   1.0197 B( 13-H , 26-O ) :  -0.2288 B( 17-C , 23-C ) :   0.9062
B( 17-C , 24-H ) :   0.9392 B( 17-C , 25-H ) :   0.9840 B( 20-C , 23-C ) :   0.3165
B( 20-C , 29-H ) :   0.9889 B( 20-C , 30-H ) :   0.9304 B( 23-C , 27-H ) :   1.0177
B( 23-C , 28-H ) :   0.9071 B( 23-C , 29-H ) :  -0.1099

FINAL SINGLE POINT ENERGY     -1072.985489652999

DIPOLE MOMENT
-------------
                                X             Y             Z
Electronic contribution:     -0.90221      -0.77998     -22.49814
Nuclear contribution   :      0.43347       2.59110      22.83150
                        -----------------------------------------
Total Dipole Moment    :     -0.46875       1.81112       0.33336
                        -----------------------------------------
Magnitude (a.u.)       :      1.90027
Magnitude (Debye)      :      4.83010

Rotational constants in cm-1:     0.029257     0.014415     0.010996
Rotational constants in MHz :   877.098782   432.159206   329.643335

                             ****ORCA TERMINATED NORMALLY****
TOTAL RUN TIME: 0 days 0 hours 9 minutes 54 seconds 182 msec
