                         Program Version 5.0.0 -  RELEASE  -
|  1> !CAM-B3LYP RIJCOSX def2-TZVPD def2/J TightSCF xyzfile
|  2>
|  3> *xyzfile 0 1 D3.xyz
|  4>
|  5> %MaxCore 64000
|  6>
|  7> %pal nprocs 4
|  8> end
|  9>
| 10> %scf
| 11>   MaxIter 150
| 12> end
| 13>
| 14>
| 15>                          ****END OF INPUT****

CARTESIAN COORDINATES (ANGSTROEM)
---------------------------------
  C      1.963365   -1.749150   -1.896887
  N      2.738490   -2.015170   -3.097113
  C      0.611877    1.657634   -4.500288
  C      1.694991    1.541794   -5.570447
  H      2.697326    1.734659   -5.183996
  H      1.506656    2.272239   -6.358076
  S      1.780287   -0.033128   -6.428739
  C      4.049736   -2.154717   -3.152044
  N      4.658206   -1.986293   -4.318655
  C      4.764231   -2.454435   -2.050491
  H      4.287363   -2.776259   -1.217496
  H      5.750825   -2.658351   -2.125988
  H      2.345176   -1.690274   -3.971447
  H      4.109004   -1.592677   -5.071760
  H      5.649095   -2.156462   -4.427237
  F      2.569287    0.213657   -7.607360
  O      0.416880   -0.462969   -6.618595
  C      2.088520   -0.300912   -1.415204
  H      2.231272   -2.451616   -1.102643
  H      0.930249   -1.977801   -2.155438
  C      0.680356    0.655418   -3.348038
  H     -0.356865    1.549231   -4.991128
  H      0.650228    2.675438   -4.096000
  C      1.968993    0.733582   -2.535654
  H      3.051356   -0.168602   -0.911868
  H      1.316501   -0.136231   -0.657252
  O      2.505129   -0.933263   -5.482570
  H      2.824195    0.624726   -3.208464
  H      2.058919    1.730331   -2.093112
  H      0.542252   -0.344731   -3.766662
  H     -0.174219    0.829692   -2.685182

 Total Charge           Charge          ....    0
 Multiplicity           Mult            ....    1
 Number of Electrons    NEL             ....  120
 Basis Dimension        Dim             ....  689

ORBITAL ENERGIES
----------------

  NO   OCC          E(Eh)            E(eV)
   0   2.0000     -89.209215     -2427.5062
   1   2.0000     -24.907249      -677.7607
   2   2.0000     -19.241569      -523.5897
   3   2.0000     -19.232215      -523.3352
   4   2.0000     -14.356956      -390.6726
   5   2.0000     -14.356571      -390.6622
   6   2.0000     -10.323069      -280.9050
   7   2.0000     -10.282319      -279.7961
   8   2.0000     -10.268496      -279.4200
   9   2.0000     -10.259704      -279.1807
  10   2.0000     -10.253379      -279.0086
  11   2.0000     -10.241178      -278.6766
  12   2.0000     -10.230045      -278.3737
  13   2.0000     -10.132025      -275.7064
  14   2.0000      -8.253515      -224.5896
  15   2.0000      -6.221187      -169.2871
  16   2.0000      -6.215064      -169.1205
  17   2.0000      -6.214492      -169.1049
  18   2.0000      -1.497751       -40.7559
  19   2.0000      -1.219511       -33.1846
  20   2.0000      -1.121502       -30.5176
  21   2.0000      -1.031061       -28.0566
  22   2.0000      -0.945737       -25.7348
  23   2.0000      -0.934808       -25.4374
  24   2.0000      -0.880529       -23.9604
  25   2.0000      -0.843296       -22.9473
  26   2.0000      -0.806054       -21.9338
  27   2.0000      -0.770099       -20.9555
  28   2.0000      -0.759330       -20.6624
  29   2.0000      -0.717837       -19.5333
  30   2.0000      -0.695036       -18.9129
  31   2.0000      -0.682844       -18.5811
  32   2.0000      -0.667273       -18.1574
  33   2.0000      -0.647464       -17.6184
  34   2.0000      -0.614740       -16.7279
  35   2.0000      -0.597395       -16.2559
  36   2.0000      -0.589906       -16.0522
  37   2.0000      -0.580724       -15.8023
  38   2.0000      -0.568795       -15.4777
  39   2.0000      -0.551662       -15.0115
  40   2.0000      -0.533337       -14.5128
  41   2.0000      -0.527116       -14.3436
  42   2.0000      -0.511191       -13.9102
  43   2.0000      -0.494616       -13.4592
  44   2.0000      -0.490128       -13.3371
  45   2.0000      -0.486082       -13.2270
  46   2.0000      -0.458613       -12.4795
  47   2.0000      -0.453957       -12.3528
  48   2.0000      -0.439989       -11.9727
  49   2.0000      -0.435009       -11.8372
  50   2.0000      -0.431403       -11.7391
  51   2.0000      -0.418996       -11.4015
  52   2.0000      -0.416758       -11.3406
  53   2.0000      -0.409026       -11.1302
  54   2.0000      -0.403105       -10.9690
  55   2.0000      -0.395375       -10.7587
  56   2.0000      -0.391235       -10.6461
  57   2.0000      -0.379402       -10.3241
  58   2.0000      -0.288920        -7.8619
  59   2.0000      -0.200222        -5.4483
  60   0.0000       0.001983         0.0540
  61   0.0000       0.021730         0.5913
  62   0.0000       0.028821         0.7843
  63   0.0000       0.038383         1.0445
  64   0.0000       0.051443         1.3998

MULLIKEN ATOMIC CHARGES
-----------------------
   0 C :   -0.957054
   1 N :   -0.247562
   2 C :   -0.731671
   3 C :   -0.731637
   4 H :    0.402136
   5 H :    0.399130
   6 S :    1.062006
   7 C :    0.737305
   8 N :   -0.298809
   9 C :   -1.346523
  10 H :    0.263680
  11 H :    0.324346
  12 H :    0.521613
  13 H :    0.314203
  14 H :    0.086544
  15 F :   -0.114476
  16 O :   -0.589507
  17 C :   -0.498780
  18 H :    0.363788
  19 H :    0.356583
  20 C :   -0.530466
  21 H :    0.306342
  22 H :    0.327449
  23 C :   -0.524251
  24 H :    0.314170
  25 H :    0.342064
  26 O :   -0.759214
  27 H :    0.286596
  28 H :    0.325237
  29 H :    0.285466
  30 H :    0.311292
Sum of atomic charges:   -0.0000000

LOEWDIN ATOMIC CHARGES
----------------------
   0 C :   -0.185632
   1 N :    0.023180
   2 C :   -0.213322
   3 C :   -0.222526
   4 H :    0.109319
   5 H :    0.105673
   6 S :    0.667901
   7 C :   -0.558495
   8 N :    0.120566
   9 C :   -0.000851
  10 H :   -0.005159
  11 H :   -0.002080
  12 H :    0.071578
  13 H :    0.050788
  14 H :    0.111863
  15 F :   -0.030114
  16 O :   -0.242581
  17 C :   -0.181330
  18 H :    0.112510
  19 H :    0.113707
  20 C :   -0.210990
  21 H :    0.114305
  22 H :    0.125288
  23 C :   -0.208547
  24 H :    0.108572
  25 H :    0.110726
  26 O :   -0.330471
  27 H :    0.102990
  28 H :    0.117556
  29 H :    0.100267
  30 H :    0.125310

  Mayer bond orders larger than 0.100000
B(  0-C ,  1-N ) :   0.8490 B(  0-C ,  9-C ) :   0.1121 B(  0-C , 12-H ) :  -0.1731
B(  0-C , 17-C ) :   0.6657 B(  0-C , 18-H ) :   0.8828 B(  0-C , 19-H ) :   0.9150
B(  1-N ,  7-C ) :   0.9401 B(  1-N ,  9-C ) :   0.1128 B(  1-N , 12-H ) :   0.7092
B(  2-C ,  3-C ) :   0.8563 B(  2-C , 20-C ) :   0.8720 B(  2-C , 21-H ) :   0.9619
B(  2-C , 22-H ) :   0.9306 B(  2-C , 23-C ) :   0.1011 B(  3-C ,  4-H ) :   0.8484
B(  3-C ,  5-H ) :   0.8325 B(  3-C ,  6-S ) :   0.8200 B(  3-C , 16-O ) :   0.1039
B(  3-C , 23-C ) :   0.1040 B(  6-S , 15-F ) :   0.9572 B(  6-S , 16-O ) :   1.6880
B(  6-S , 26-O ) :   1.7730 B(  7-C ,  8-N ) :   0.9291 B(  7-C ,  9-C ) :   1.0739
B(  7-C , 11-H ) :  -0.1116 B(  8-N , 13-H ) :   0.8959 B(  8-N , 14-H ) :   1.0773
B(  9-C , 10-H ) :   1.0281 B(  9-C , 11-H ) :   1.0292 B( 12-H , 26-O ) :  -0.1144
B( 17-C , 23-C ) :   0.9444 B( 17-C , 24-H ) :   0.9328 B( 17-C , 25-H ) :   0.9597
B( 20-C , 23-C ) :   0.3146 B( 20-C , 29-H ) :   0.9979 B( 20-C , 30-H ) :   0.9281
B( 23-C , 27-H ) :   1.0381 B( 23-C , 28-H ) :   0.9052 B( 23-C , 29-H ) :  -0.1115

FINAL SINGLE POINT ENERGY     -1072.996948135050

DIPOLE MOMENT
-------------
                                X             Y             Z
Electronic contribution:     -1.14116      -0.19017     -24.53319
Nuclear contribution   :      0.44707       2.53104      23.12246
                        -----------------------------------------
Total Dipole Moment    :     -0.69410       2.34088      -1.41072
                        -----------------------------------------
Magnitude (a.u.)       :      2.81986
Magnitude (Debye)      :      7.16752

Rotational constants in cm-1:     0.028906     0.014696     0.011110
Rotational constants in MHz :   866.591909   440.585554   333.081943

                             ****ORCA TERMINATED NORMALLY****
TOTAL RUN TIME: 0 days 0 hours 11 minutes 10 seconds 37 msec
