                         Program Version 5.0.0 -  RELEASE  -
|  1> !CAM-B3LYP RIJCOSX def2-TZVPD def2/J TightSCF xyzfile
|  2>
|  3> *xyzfile 0 1 D4.xyz
|  4>
|  5> %MaxCore 64000
|  6>
|  7> %pal nprocs 4
|  8> end
|  9>
| 10> %scf
| 11>   MaxIter 150
| 12> end
| 13>
| 14>
| 15>                          ****END OF INPUT****

CARTESIAN COORDINATES (ANGSTROEM)
---------------------------------
  C      1.963365   -1.749150   -1.896887
  C      2.738490   -2.015170   -3.097113
  C      0.611877    1.657634   -4.500288
  C      1.694991    1.541794   -5.570447
  H      2.697326    1.734659   -5.183996
  H      1.506656    2.272239   -6.358076
  S      1.780287   -0.033128   -6.428739
  C      4.049736   -2.154717   -3.152044
  N      4.658206   -1.986293   -4.318655
  N      4.764231   -2.454435   -2.050491
  H      4.287363   -2.776259   -1.217496
  H      5.750825   -2.658351   -2.125988
  H      2.345176   -1.690274   -3.971447
  H      4.109004   -1.592677   -5.071760
  H      5.649095   -2.156462   -4.427237
  O      2.569287    0.213657   -7.607360
  F      0.416880   -0.462969   -6.618595
  C      2.088520   -0.300912   -1.415204
  H      2.231272   -2.451616   -1.102643
  H      0.930249   -1.977801   -2.155438
  C      0.680356    0.655418   -3.348038
  H     -0.356865    1.549231   -4.991128
  H      0.650228    2.675438   -4.096000
  C      1.968993    0.733582   -2.535654
  H      3.051356   -0.168602   -0.911868
  H      1.316501   -0.136231   -0.657252
  O      2.505129   -0.933263   -5.482570
  H      2.824195    0.624726   -3.208464
  H      2.058919    1.730331   -2.093112
  H      0.542252   -0.344731   -3.766662
  H     -0.174219    0.829692   -2.685182

 Total Charge           Charge          ....    0
 Multiplicity           Mult            ....    1
 Number of Electrons    NEL             ....  120
 Basis Dimension        Dim             ....  689

ORBITAL ENERGIES
----------------

  NO   OCC          E(Eh)            E(eV)
   0   2.0000     -89.190586     -2426.9992
   1   2.0000     -24.890848      -677.3144
   2   2.0000     -19.224703      -523.1308
   3   2.0000     -19.208908      -522.7010
   4   2.0000     -14.373292      -391.1172
   5   2.0000     -14.356875      -390.6704
   6   2.0000     -10.308748      -280.5153
   7   2.0000     -10.273248      -279.5493
   8   2.0000     -10.266406      -279.3631
   9   2.0000     -10.245109      -278.7836
  10   2.0000     -10.229611      -278.3619
  11   2.0000     -10.218009      -278.0462
  12   2.0000     -10.205718      -277.7117
  13   2.0000     -10.130107      -275.6542
  14   2.0000      -8.235045      -224.0870
  15   2.0000      -6.202881      -168.7890
  16   2.0000      -6.196510      -168.6156
  17   2.0000      -6.195883      -168.5985
  18   2.0000      -1.480218       -40.2788
  19   2.0000      -1.202376       -32.7183
  20   2.0000      -1.100998       -29.9597
  21   2.0000      -1.021791       -27.8043
  22   2.0000      -0.931343       -25.3431
  23   2.0000      -0.926105       -25.2006
  24   2.0000      -0.877379       -23.8747
  25   2.0000      -0.836360       -22.7585
  26   2.0000      -0.808060       -21.9884
  27   2.0000      -0.776239       -21.1225
  28   2.0000      -0.733902       -19.9705
  29   2.0000      -0.700991       -19.0749
  30   2.0000      -0.680712       -18.5231
  31   2.0000      -0.677409       -18.4332
  32   2.0000      -0.660344       -17.9689
  33   2.0000      -0.629869       -17.1396
  34   2.0000      -0.619278       -16.8514
  35   2.0000      -0.594957       -16.1896
  36   2.0000      -0.570093       -15.5130
  37   2.0000      -0.567961       -15.4550
  38   2.0000      -0.550550       -14.9812
  39   2.0000      -0.544685       -14.8216
  40   2.0000      -0.538400       -14.6506
  41   2.0000      -0.514924       -14.0118
  42   2.0000      -0.508032       -13.8243
  43   2.0000      -0.501758       -13.6535
  44   2.0000      -0.488681       -13.2977
  45   2.0000      -0.465322       -12.6621
  46   2.0000      -0.455426       -12.3928
  47   2.0000      -0.448235       -12.1971
  48   2.0000      -0.440511       -11.9869
  49   2.0000      -0.434058       -11.8113
  50   2.0000      -0.420616       -11.4456
  51   2.0000      -0.407585       -11.0910
  52   2.0000      -0.403389       -10.9768
  53   2.0000      -0.395929       -10.7738
  54   2.0000      -0.384586       -10.4651
  55   2.0000      -0.378824       -10.3083
  56   2.0000      -0.366222        -9.9654
  57   2.0000      -0.345057        -9.3895
  58   2.0000      -0.309645        -8.4259
  59   2.0000      -0.196044        -5.3346
  60   0.0000       0.011803         0.3212
  61   0.0000       0.030740         0.8365
  62   0.0000       0.034415         0.9365
  63   0.0000       0.038317         1.0427
  64   0.0000       0.051676         1.4062

MULLIKEN ATOMIC CHARGES
-----------------------
   0 C :   -0.620490
   1 C :   -0.536583
   2 C :   -0.733388
   3 C :   -0.662988
   4 H :    0.379083
   5 H :    0.349898
   6 S :    1.045513
   7 C :   -0.278383
   8 N :   -0.312015
   9 N :   -0.338240
  10 H :    0.178623
  11 H :    0.121669
  12 H :    0.959068
  13 H :    0.291805
  14 H :    0.077421
  15 O :   -0.592713
  16 F :   -0.160676
  17 C :   -0.584340
  18 H :    0.480734
  19 H :    0.227355
  20 C :   -0.395380
  21 H :    0.305688
  22 H :    0.324883
  23 C :   -0.517416
  24 H :    0.266533
  25 H :    0.289401
  26 O :   -0.702317
  27 H :    0.290248
  28 H :    0.332790
  29 H :    0.196013
  30 H :    0.318204
Sum of atomic charges:   -0.0000000

LOEWDIN ATOMIC CHARGES
----------------------
   0 C :   -0.229642
   1 C :   -0.156435
   2 C :   -0.225035
   3 C :   -0.215630
   4 H :    0.117212
   5 H :    0.106489
   6 S :    0.659925
   7 C :   -0.530587
   8 N :    0.122358
   9 N :    0.127039
  10 H :    0.096778
  11 H :    0.092830
  12 H :    0.015615
  13 H :    0.064281
  14 H :    0.100609
  15 O :   -0.258934
  16 F :   -0.028097
  17 C :   -0.197143
  18 H :    0.098121
  19 H :    0.102524
  20 C :   -0.211656
  21 H :    0.109035
  22 H :    0.121928
  23 C :   -0.208728
  24 H :    0.108332
  25 H :    0.105123
  26 O :   -0.330729
  27 H :    0.104692
  28 H :    0.115462
  29 H :    0.100655
  30 H :    0.123604

  Mayer bond orders larger than 0.100000
B(  0-C ,  1-C ) :   0.3294 B(  0-C ,  7-C ) :   0.2266 B(  0-C , 17-C ) :   0.6958
B(  0-C , 18-H ) :   0.8377 B(  0-C , 19-H ) :   1.0720 B(  1-C ,  7-C ) :   1.5550
B(  1-C ,  8-N ) :  -0.1293 B(  1-C , 12-H ) :   0.6389 B(  1-C , 17-C ) :  -0.1747
B(  1-C , 18-H ) :  -0.1582 B(  1-C , 23-C ) :   0.1153 B(  1-C , 26-O ) :   0.2842
B(  2-C ,  3-C ) :   0.7742 B(  2-C , 20-C ) :   0.7866 B(  2-C , 21-H ) :   0.9839
B(  2-C , 22-H ) :   0.9367 B(  2-C , 23-C ) :   0.1128 B(  3-C ,  4-H ) :   0.8680
B(  3-C ,  5-H ) :   0.9404 B(  3-C ,  6-S ) :   0.8377 B(  3-C , 15-O ) :   0.1121
B(  3-C , 23-C ) :   0.1004 B(  6-S , 15-O ) :   1.6073 B(  6-S , 16-F ) :   0.9870
B(  6-S , 26-O ) :   1.8173 B(  7-C ,  8-N ) :   1.0513 B(  7-C ,  9-N ) :   0.9841
B(  7-C , 12-H ) :  -0.3348 B(  7-C , 17-C ) :   0.1170 B(  8-N , 13-H ) :   0.9077
B(  8-N , 14-H ) :   1.1118 B(  9-N , 10-H ) :   0.9731 B(  9-N , 11-H ) :   1.0717
B( 12-H , 26-O ) :  -0.5222 B( 17-C , 20-C ) :   0.1261 B( 17-C , 23-C ) :   0.8904
B( 17-C , 24-H ) :   0.9746 B( 17-C , 25-H ) :   0.9296 B( 20-C , 23-C ) :   0.4179
B( 20-C , 29-H ) :   1.0166 B( 20-C , 30-H ) :   0.9204 B( 23-C , 27-H ) :   1.0468
B( 23-C , 28-H ) :   0.9193

FINAL SINGLE POINT ENERGY     -1072.988022053770

DIPOLE MOMENT
-------------
                                X             Y             Z
Electronic contribution:     -3.04688      -2.13469     -21.73659
Nuclear contribution   :      2.64598       3.36033      21.85869
                        -----------------------------------------
Total Dipole Moment    :     -0.40090       1.22564       0.12210
                        -----------------------------------------
Magnitude (a.u.)       :      1.29531
Magnitude (Debye)      :      3.29241

Rotational constants in cm-1:     0.028973     0.014435     0.011026
Rotational constants in MHz :   868.588266   432.748309   330.548534

                             ****ORCA TERMINATED NORMALLY****
TOTAL RUN TIME: 0 days 0 hours 10 minutes 26 seconds 655 msec
