                         Program Version 5.0.0 -  RELEASE  -
|  1> !CAM-B3LYP RIJCOSX def2-TZVPD def2/J TightSCF xyzfile
|  2>
|  3> *xyzfile 0 1 D5.xyz
|  4>
|  5> %MaxCore 64000
|  6>
|  7> %pal nprocs 4
|  8> end
|  9>
| 10> %scf
| 11>   MaxIter 150
| 12> end
| 13>
| 14>
| 15>                          ****END OF INPUT****

CARTESIAN COORDINATES (ANGSTROEM)
---------------------------------
  C      1.963365   -1.749150   -1.896887
  N      2.738490   -2.015170   -3.097113
  C      0.611877    1.657634   -4.500288
  C      1.694991    1.541794   -5.570447
  H      2.697326    1.734659   -5.183996
  H      1.506656    2.272239   -6.358076
  S      1.780287   -0.033128   -6.428739
  C      4.049736   -2.154717   -3.152044
  C      4.658206   -1.986293   -4.318655
  N      4.764231   -2.454435   -2.050491
  H      4.287363   -2.776259   -1.217496
  H      5.750825   -2.658351   -2.125988
  H      2.345176   -1.690274   -3.971447
  H      4.109004   -1.592677   -5.071760
  H      5.649095   -2.156462   -4.427237
  O      2.569287    0.213657   -7.607360
  F      0.416880   -0.462969   -6.618595
  C      2.088520   -0.300912   -1.415204
  H      2.231272   -2.451616   -1.102643
  H      0.930249   -1.977801   -2.155438
  C      0.680356    0.655418   -3.348038
  H     -0.356865    1.549231   -4.991128
  H      0.650228    2.675438   -4.096000
  C      1.968993    0.733582   -2.535654
  H      3.051356   -0.168602   -0.911868
  H      1.316501   -0.136231   -0.657252
  O      2.505129   -0.933263   -5.482570
  H      2.824195    0.624726   -3.208464
  H      2.058919    1.730331   -2.093112
  H      0.542252   -0.344731   -3.766662
  H     -0.174219    0.829692   -2.685182

 Total Charge           Charge          ....    0
 Multiplicity           Mult            ....    1
 Number of Electrons    NEL             ....  120
 Basis Dimension        Dim             ....  689

ORBITAL ENERGIES
----------------

  NO   OCC          E(Eh)            E(eV)
   0   2.0000     -89.191422     -2427.0220
   1   2.0000     -24.891885      -677.3426
   2   2.0000     -19.225744      -523.1591
   3   2.0000     -19.211109      -522.7609
   4   2.0000     -14.370145      -391.0315
   5   2.0000     -14.355132      -390.6230
   6   2.0000     -10.311452      -280.5889
   7   2.0000     -10.280715      -279.7525
   8   2.0000     -10.269136      -279.4374
   9   2.0000     -10.265997      -279.3520
  10   2.0000     -10.258649      -279.1520
  11   2.0000     -10.244790      -278.7749
  12   2.0000     -10.238711      -278.6095
  13   2.0000     -10.123305      -275.4691
  14   2.0000      -8.235891      -224.1100
  15   2.0000      -6.203854      -168.8154
  16   2.0000      -6.197271      -168.6363
  17   2.0000      -6.196718      -168.6213
  18   2.0000      -1.481606       -40.3166
  19   2.0000      -1.203029       -32.7361
  20   2.0000      -1.102277       -29.9945
  21   2.0000      -1.030303       -28.0360
  22   2.0000      -0.947483       -25.7823
  23   2.0000      -0.932568       -25.3765
  24   2.0000      -0.879058       -23.9204
  25   2.0000      -0.841365       -22.8947
  26   2.0000      -0.806012       -21.9327
  27   2.0000      -0.781497       -21.2656
  28   2.0000      -0.741172       -20.1683
  29   2.0000      -0.708440       -19.2776
  30   2.0000      -0.683503       -18.5991
  31   2.0000      -0.681766       -18.5518
  32   2.0000      -0.666712       -18.1422
  33   2.0000      -0.647031       -17.6066
  34   2.0000      -0.623582       -16.9685
  35   2.0000      -0.590355       -16.0644
  36   2.0000      -0.575670       -15.6648
  37   2.0000      -0.568275       -15.4635
  38   2.0000      -0.551586       -15.0094
  39   2.0000      -0.545517       -14.8443
  40   2.0000      -0.540258       -14.7012
  41   2.0000      -0.529693       -14.4137
  42   2.0000      -0.514953       -14.0126
  43   2.0000      -0.500991       -13.6327
  44   2.0000      -0.494679       -13.4609
  45   2.0000      -0.468700       -12.7540
  46   2.0000      -0.465474       -12.6662
  47   2.0000      -0.454888       -12.3781
  48   2.0000      -0.445853       -12.1323
  49   2.0000      -0.433048       -11.7838
  50   2.0000      -0.428777       -11.6676
  51   2.0000      -0.418712       -11.3937
  52   2.0000      -0.407136       -11.0787
  53   2.0000      -0.399951       -10.8832
  54   2.0000      -0.396234       -10.7821
  55   2.0000      -0.391992       -10.6667
  56   2.0000      -0.385723       -10.4961
  57   2.0000      -0.376809       -10.2535
  58   2.0000      -0.297537        -8.0964
  59   2.0000      -0.197693        -5.3795
  60   0.0000       0.009116         0.2481
  61   0.0000       0.028312         0.7704
  62   0.0000       0.031764         0.8643
  63   0.0000       0.036885         1.0037
  64   0.0000       0.049720         1.3529

MULLIKEN ATOMIC CHARGES
-----------------------
   0 C :   -0.969196
   1 N :   -0.188519
   2 C :   -0.748752
   3 C :   -0.676248
   4 H :    0.380039
   5 H :    0.356595
   6 S :    1.054994
   7 C :    0.749768
   8 C :   -1.418758
   9 N :   -0.349665
  10 H :    0.150339
  11 H :    0.161005
  12 H :    0.433863
  13 H :    0.556983
  14 H :    0.254822
  15 O :   -0.584881
  16 F :   -0.162449
  17 C :   -0.480002
  18 H :    0.360055
  19 H :    0.339076
  20 C :   -0.432352
  21 H :    0.306855
  22 H :    0.323075
  23 C :   -0.542561
  24 H :    0.305815
  25 H :    0.340303
  26 O :   -0.714459
  27 H :    0.319895
  28 H :    0.335826
  29 H :    0.234209
  30 H :    0.304324
Sum of atomic charges:   -0.0000000

LOEWDIN ATOMIC CHARGES
----------------------
   0 C :   -0.192794
   1 N :    0.020948
   2 C :   -0.224018
   3 C :   -0.214896
   4 H :    0.118737
   5 H :    0.107207
   6 S :    0.659748
   7 C :   -0.553597
   8 C :    0.009742
   9 N :    0.120740
  10 H :    0.085715
  11 H :    0.104613
  12 H :    0.072172
  13 H :   -0.021456
  14 H :    0.010799
  15 O :   -0.249457
  16 F :   -0.032357
  17 C :   -0.184987
  18 H :    0.107024
  19 H :    0.112070
  20 C :   -0.216102
  21 H :    0.109822
  22 H :    0.122903
  23 C :   -0.205106
  24 H :    0.109069
  25 H :    0.108779
  26 O :   -0.330086
  27 H :    0.105913
  28 H :    0.118619
  29 H :    0.096688
  30 H :    0.123548

  Mayer bond orders larger than 0.100000
B(  0-C ,  1-N ) :   0.9038 B(  0-C ,  7-C ) :  -0.1336 B(  0-C ,  9-N ) :   0.1018
B(  0-C , 12-H ) :  -0.1358 B(  0-C , 17-C ) :   0.6240 B(  0-C , 18-H ) :   0.8703
B(  0-C , 19-H ) :   0.9559 B(  1-N ,  7-C ) :   0.9731 B(  1-N , 12-H ) :   0.7944
B(  2-C ,  3-C ) :   0.7645 B(  2-C , 20-C ) :   0.7994 B(  2-C , 21-H ) :   0.9853
B(  2-C , 22-H ) :   0.9363 B(  2-C , 23-C ) :   0.1084 B(  3-C ,  4-H ) :   0.8745
B(  3-C ,  5-H ) :   0.9372 B(  3-C ,  6-S ) :   0.8374 B(  3-C , 15-O ) :   0.1199
B(  3-C , 23-C ) :   0.1056 B(  6-S , 15-O ) :   1.6156 B(  6-S , 16-F ) :   0.9667
B(  6-S , 26-O ) :   1.7994 B(  7-C ,  8-C ) :   1.0803 B(  7-C ,  9-N ) :   0.9364
B(  7-C , 14-H ) :  -0.1644 B(  8-C , 13-H ) :   0.7755 B(  8-C , 14-H ) :   1.1494
B(  8-C , 26-O ) :   0.1910 B(  9-N , 10-H ) :   1.0145 B(  9-N , 11-H ) :   1.0195
B( 12-H , 26-O ) :  -0.1207 B( 13-H , 26-O ) :  -0.2013 B( 17-C , 23-C ) :   0.9146
B( 17-C , 24-H ) :   0.9374 B( 17-C , 25-H ) :   0.9830 B( 20-C , 23-C ) :   0.3839
B( 20-C , 29-H ) :   0.9930 B( 20-C , 30-H ) :   0.9526 B( 23-C , 27-H ) :   1.0167
B( 23-C , 28-H ) :   0.8971

FINAL SINGLE POINT ENERGY     -1072.984855599113

DIPOLE MOMENT
-------------
                                X             Y             Z
Electronic contribution:     -4.65183      -1.95705     -20.70965
Nuclear contribution   :      2.89225       3.36404      21.70199
                        -----------------------------------------
Total Dipole Moment    :     -1.75958       1.40699       0.99235
                        -----------------------------------------
Magnitude (a.u.)       :      2.46180
Magnitude (Debye)      :      6.25741

Rotational constants in cm-1:     0.029431     0.014408     0.011084
Rotational constants in MHz :   882.306106   431.946714   332.288152

                             ****ORCA TERMINATED NORMALLY****
TOTAL RUN TIME: 0 days 0 hours 9 minutes 44 seconds 271 msec
