                         Program Version 5.0.0 -  RELEASE  -
|  1> !CAM-B3LYP RIJCOSX def2-TZVPD def2/J TightSCF xyzfile
|  2>
|  3> *xyzfile 0 1 D6.xyz
|  4>
|  5> %MaxCore 64000
|  6>
|  7> %pal nprocs 4
|  8> end
|  9>
| 10> %scf
| 11>   MaxIter 150
| 12> end
| 13>
| 14>
| 15>                          ****END OF INPUT****

CARTESIAN COORDINATES (ANGSTROEM)
---------------------------------
  C      1.963365   -1.749150   -1.896887
  N      2.738490   -2.015170   -3.097113
  C      0.611877    1.657634   -4.500288
  C      1.694991    1.541794   -5.570447
  H      2.697326    1.734659   -5.183996
  H      1.506656    2.272239   -6.358076
  S      1.780287   -0.033128   -6.428739
  C      4.049736   -2.154717   -3.152044
  N      4.658206   -1.986293   -4.318655
  C      4.764231   -2.454435   -2.050491
  H      4.287363   -2.776259   -1.217496
  H      5.750825   -2.658351   -2.125988
  H      2.345176   -1.690274   -3.971447
  H      4.109004   -1.592677   -5.071760
  H      5.649095   -2.156462   -4.427237
  O      2.569287    0.213657   -7.607360
  F      0.416880   -0.462969   -6.618595
  C      2.088520   -0.300912   -1.415204
  H      2.231272   -2.451616   -1.102643
  H      0.930249   -1.977801   -2.155438
  C      0.680356    0.655418   -3.348038
  H     -0.356865    1.549231   -4.991128
  H      0.650228    2.675438   -4.096000
  C      1.968993    0.733582   -2.535654
  H      3.051356   -0.168602   -0.911868
  H      1.316501   -0.136231   -0.657252
  O      2.505129   -0.933263   -5.482570
  H      2.824195    0.624726   -3.208464
  H      2.058919    1.730331   -2.093112
  H      0.542252   -0.344731   -3.766662
  H     -0.174219    0.829692   -2.685182

 Total Charge           Charge          ....    0
 Multiplicity           Mult            ....    1
 Number of Electrons    NEL             ....  120
 Basis Dimension        Dim             ....  689

ORBITAL ENERGIES
----------------

  NO   OCC          E(Eh)            E(eV)
   0   2.0000     -89.208792     -2427.4946
   1   2.0000     -24.906342      -677.7360
   2   2.0000     -19.240889      -523.5712
   3   2.0000     -19.231716      -523.3216
   4   2.0000     -14.357107      -390.6767
   5   2.0000     -14.356099      -390.6493
   6   2.0000     -10.322674      -280.8942
   7   2.0000     -10.286998      -279.9235
   8   2.0000     -10.268620      -279.4233
   9   2.0000     -10.262732      -279.2631
  10   2.0000     -10.261900      -279.2405
  11   2.0000     -10.245735      -278.8006
  12   2.0000     -10.233346      -278.4635
  13   2.0000     -10.132297      -275.7138
  14   2.0000      -8.253103      -224.5783
  15   2.0000      -6.220956      -169.2808
  16   2.0000      -6.214736      -169.1116
  17   2.0000      -6.213825      -169.0868
  18   2.0000      -1.495836       -40.7038
  19   2.0000      -1.220033       -33.1988
  20   2.0000      -1.121098       -30.5066
  21   2.0000      -1.031429       -28.0666
  22   2.0000      -0.947299       -25.7773
  23   2.0000      -0.938634       -25.5415
  24   2.0000      -0.882011       -24.0007
  25   2.0000      -0.841481       -22.8979
  26   2.0000      -0.810495       -22.0547
  27   2.0000      -0.771861       -21.0034
  28   2.0000      -0.760624       -20.6976
  29   2.0000      -0.720300       -19.6004
  30   2.0000      -0.695450       -18.9242
  31   2.0000      -0.692870       -18.8540
  32   2.0000      -0.664656       -18.0862
  33   2.0000      -0.650190       -17.6926
  34   2.0000      -0.611215       -16.6320
  35   2.0000      -0.597710       -16.2645
  36   2.0000      -0.583575       -15.8799
  37   2.0000      -0.581390       -15.8204
  38   2.0000      -0.570337       -15.5197
  39   2.0000      -0.557471       -15.1696
  40   2.0000      -0.537788       -14.6340
  41   2.0000      -0.528956       -14.3936
  42   2.0000      -0.512450       -13.9445
  43   2.0000      -0.503624       -13.7043
  44   2.0000      -0.495548       -13.4845
  45   2.0000      -0.480404       -13.0725
  46   2.0000      -0.464023       -12.6267
  47   2.0000      -0.460033       -12.5181
  48   2.0000      -0.444565       -12.0972
  49   2.0000      -0.437113       -11.8944
  50   2.0000      -0.429372       -11.6838
  51   2.0000      -0.428464       -11.6591
  52   2.0000      -0.416272       -11.3273
  53   2.0000      -0.408292       -11.1102
  54   2.0000      -0.402337       -10.9481
  55   2.0000      -0.396935       -10.8012
  56   2.0000      -0.394995       -10.7484
  57   2.0000      -0.382527       -10.4091
  58   2.0000      -0.289190        -7.8693
  59   2.0000      -0.200546        -5.4571
  60   0.0000       0.001801         0.0490
  61   0.0000       0.023327         0.6347
  62   0.0000       0.027372         0.7448
  63   0.0000       0.036206         0.9852
  64   0.0000       0.047927         1.3042

MULLIKEN ATOMIC CHARGES
-----------------------
   0 C :   -0.958875
   1 N :   -0.256371
   2 C :   -0.747098
   3 C :   -0.667472
   4 H :    0.382118
   5 H :    0.355807
   6 S :    1.062759
   7 C :    0.741712
   8 N :   -0.297796
   9 C :   -1.343752
  10 H :    0.262215
  11 H :    0.325402
  12 H :    0.543286
  13 H :    0.305650
  14 H :    0.090322
  15 O :   -0.580868
  16 F :   -0.153959
  17 C :   -0.499774
  18 H :    0.364981
  19 H :    0.346666
  20 C :   -0.417657
  21 H :    0.310125
  22 H :    0.328569
  23 C :   -0.542323
  24 H :    0.317206
  25 H :    0.343121
  26 O :   -0.753757
  27 H :    0.286095
  28 H :    0.331815
  29 H :    0.221076
  30 H :    0.300778
Sum of atomic charges:   -0.0000000

LOEWDIN ATOMIC CHARGES
----------------------
   0 C :   -0.187479
   1 N :    0.019541
   2 C :   -0.223388
   3 C :   -0.213360
   4 H :    0.118716
   5 H :    0.108744
   6 S :    0.665231
   7 C :   -0.558802
   8 N :    0.125678
   9 C :   -0.000751
  10 H :   -0.005524
  11 H :   -0.001545
  12 H :    0.067112
  13 H :    0.056457
  14 H :    0.113658
  15 O :   -0.248555
  16 F :   -0.025774
  17 C :   -0.180946
  18 H :    0.112547
  19 H :    0.111869
  20 C :   -0.216216
  21 H :    0.110278
  22 H :    0.124117
  23 C :   -0.206279
  24 H :    0.109374
  25 H :    0.110662
  26 O :   -0.329664
  27 H :    0.104630
  28 H :    0.118836
  29 H :    0.096119
  30 H :    0.124713

  Mayer bond orders larger than 0.100000
B(  0-C ,  1-N ) :   0.8480 B(  0-C ,  9-C ) :   0.1121 B(  0-C , 12-H ) :  -0.1739
B(  0-C , 17-C ) :   0.6626 B(  0-C , 18-H ) :   0.8817 B(  0-C , 19-H ) :   0.9216
B(  1-N ,  7-C ) :   0.9404 B(  1-N ,  9-C ) :   0.1146 B(  1-N , 12-H ) :   0.7115
B(  2-C ,  3-C ) :   0.7616 B(  2-C , 20-C ) :   0.7961 B(  2-C , 21-H ) :   0.9865
B(  2-C , 22-H ) :   0.9338 B(  2-C , 23-C ) :   0.1109 B(  3-C ,  4-H ) :   0.8693
B(  3-C ,  5-H ) :   0.9352 B(  3-C ,  6-S ) :   0.8337 B(  3-C , 15-O ) :   0.1121
B(  6-S , 15-O ) :   1.6254 B(  6-S , 16-F ) :   0.9900 B(  6-S , 26-O ) :   1.7878
B(  7-C ,  8-N ) :   0.9199 B(  7-C ,  9-C ) :   1.0733 B(  7-C , 11-H ) :  -0.1107
B(  8-N , 13-H ) :   0.8973 B(  8-N , 14-H ) :   1.0740 B(  9-C , 10-H ) :   1.0301
B(  9-C , 11-H ) :   1.0275 B( 12-H , 26-O ) :  -0.1403 B( 17-C , 23-C ) :   0.9511
B( 17-C , 24-H ) :   0.9317 B( 17-C , 25-H ) :   0.9590 B( 20-C , 23-C ) :   0.3801
B( 20-C , 29-H ) :   1.0022 B( 20-C , 30-H ) :   0.9517 B( 23-C , 27-H ) :   1.0379
B( 23-C , 28-H ) :   0.8967

FINAL SINGLE POINT ENERGY     -1072.996916116085

DIPOLE MOMENT
-------------
                                X             Y             Z
Electronic contribution:     -4.89318      -1.36118     -22.73468
Nuclear contribution   :      2.90585       3.30398      21.99296
                        -----------------------------------------
Total Dipole Moment    :     -1.98733       1.94280      -0.74172
                        -----------------------------------------
Magnitude (a.u.)       :      2.87648
Magnitude (Debye)      :      7.31142

Rotational constants in cm-1:     0.029065     0.014689     0.011200
Rotational constants in MHz :   871.338526   440.374927   335.770911

                             ****ORCA TERMINATED NORMALLY****
TOTAL RUN TIME: 0 days 0 hours 9 minutes 43 seconds 71 msec
