                         Program Version 5.0.0 -  RELEASE  -
|  1> !CAM-B3LYP RIJCOSX def2-TZVPD def2/J TightSCF xyzfile
|  2>
|  3> *xyzfile 0 1 D7.xyz
|  4>
|  5> %MaxCore 64000
|  6>
|  7> %pal nprocs 4
|  8> end
|  9>
| 10> %scf
| 11>   MaxIter 150
| 12> end
| 13>
| 14>
| 15>                          ****END OF INPUT****

CARTESIAN COORDINATES (ANGSTROEM)
---------------------------------
  C      1.963365   -1.749150   -1.896887
  C      2.738490   -2.015170   -3.097113
  C      0.611877    1.657634   -4.500288
  C      1.694991    1.541794   -5.570447
  H      2.697326    1.734659   -5.183996
  H      1.506656    2.272239   -6.358076
  S      1.780287   -0.033128   -6.428739
  C      4.049736   -2.154717   -3.152044
  N      4.658206   -1.986293   -4.318655
  N      4.764231   -2.454435   -2.050491
  H      4.287363   -2.776259   -1.217496
  H      5.750825   -2.658351   -2.125988
  H      2.345176   -1.690274   -3.971447
  H      4.109004   -1.592677   -5.071760
  H      5.649095   -2.156462   -4.427237
  O      2.569287    0.213657   -7.607360
  O      0.416880   -0.462969   -6.618595
  C      2.088520   -0.300912   -1.415204
  H      2.231272   -2.451616   -1.102643
  H      0.930249   -1.977801   -2.155438
  C      0.680356    0.655418   -3.348038
  H     -0.356865    1.549231   -4.991128
  H      0.650228    2.675438   -4.096000
  C      1.968993    0.733582   -2.535654
  H      3.051356   -0.168602   -0.911868
  H      1.316501   -0.136231   -0.657252
  F      2.505129   -0.933263   -5.482570
  H      2.824195    0.624726   -3.208464
  H      2.058919    1.730331   -2.093112
  H      0.542252   -0.344731   -3.766662
  H     -0.174219    0.829692   -2.685182

 Total Charge           Charge          ....    0
 Multiplicity           Mult            ....    1
 Number of Electrons    NEL             ....  120
 Basis Dimension        Dim             ....  689

ORBITAL ENERGIES
----------------

  NO   OCC          E(Eh)            E(eV)
   0   2.0000     -89.180019     -2426.7117
   1   2.0000     -24.864600      -676.6002
   2   2.0000     -19.218827      -522.9709
   3   2.0000     -19.218329      -522.9573
   4   2.0000     -14.392661      -391.6442
   5   2.0000     -14.387567      -391.5056
   6   2.0000     -10.303204      -280.3644
   7   2.0000     -10.290930      -280.0304
   8   2.0000     -10.265943      -279.3505
   9   2.0000     -10.246217      -278.8137
  10   2.0000     -10.237844      -278.5859
  11   2.0000     -10.228476      -278.3310
  12   2.0000     -10.220538      -278.1150
  13   2.0000     -10.158976      -276.4398
  14   2.0000      -8.224607      -223.8029
  15   2.0000      -6.192796      -168.5145
  16   2.0000      -6.185899      -168.3269
  17   2.0000      -6.185369      -168.3125
  18   2.0000      -1.443746       -39.2863
  19   2.0000      -1.206498       -32.8305
  20   2.0000      -1.113900       -30.3108
  21   2.0000      -1.046580       -28.4789
  22   2.0000      -0.955771       -26.0079
  23   2.0000      -0.922316       -25.0975
  24   2.0000      -0.885037       -24.0831
  25   2.0000      -0.838478       -22.8162
  26   2.0000      -0.814915       -22.1750
  27   2.0000      -0.777135       -21.1469
  28   2.0000      -0.746745       -20.3200
  29   2.0000      -0.705305       -19.1923
  30   2.0000      -0.667712       -18.1694
  31   2.0000      -0.658220       -17.9111
  32   2.0000      -0.652353       -17.7514
  33   2.0000      -0.642489       -17.4830
  34   2.0000      -0.620154       -16.8753
  35   2.0000      -0.614441       -16.7198
  36   2.0000      -0.580215       -15.7884
  37   2.0000      -0.566640       -15.4191
  38   2.0000      -0.561558       -15.2808
  39   2.0000      -0.542313       -14.7571
  40   2.0000      -0.539913       -14.6918
  41   2.0000      -0.528452       -14.3799
  42   2.0000      -0.517178       -14.0731
  43   2.0000      -0.502223       -13.6662
  44   2.0000      -0.491080       -13.3630
  45   2.0000      -0.468548       -12.7498
  46   2.0000      -0.467531       -12.7222
  47   2.0000      -0.461583       -12.5603
  48   2.0000      -0.453931       -12.3521
  49   2.0000      -0.434877       -11.8336
  50   2.0000      -0.424566       -11.5530
  51   2.0000      -0.411291       -11.1918
  52   2.0000      -0.409044       -11.1306
  53   2.0000      -0.399698       -10.8763
  54   2.0000      -0.395537       -10.7631
  55   2.0000      -0.388245       -10.5647
  56   2.0000      -0.378245       -10.2926
  57   2.0000      -0.373190       -10.1550
  58   2.0000      -0.333502        -9.0750
  59   2.0000      -0.220232        -5.9928
  60   0.0000       0.018208         0.4955
  61   0.0000       0.026605         0.7240
  62   0.0000       0.036215         0.9855
  63   0.0000       0.039766         1.0821
  64   0.0000       0.050468         1.3733

MULLIKEN ATOMIC CHARGES
-----------------------
   0 C :   -0.609712
   1 C :   -0.493647
   2 C :   -0.645271
   3 C :   -0.691111
   4 H :    0.383990
   5 H :    0.366416
   6 S :    1.031228
   7 C :   -0.218527
   8 N :   -0.333178
   9 N :   -0.341022
  10 H :    0.184774
  11 H :    0.125756
  12 H :    0.839744
  13 H :    0.276704
  14 H :    0.079820
  15 O :   -0.589512
  16 O :   -0.593047
  17 C :   -0.606160
  18 H :    0.488189
  19 H :    0.236018
  20 C :   -0.545219
  21 H :    0.307326
  22 H :    0.332145
  23 C :   -0.443510
  24 H :    0.271683
  25 H :    0.292180
  26 F :   -0.266565
  27 H :    0.271781
  28 H :    0.330072
  29 H :    0.248294
  30 H :    0.310360
Sum of atomic charges:   -0.0000000

LOEWDIN ATOMIC CHARGES
----------------------
   0 C :   -0.224895
   1 C :   -0.150217
   2 C :   -0.222683
   3 C :   -0.221069
   4 H :    0.106181
   5 H :    0.113843
   6 S :    0.625309
   7 C :   -0.526586
   8 N :    0.125310
   9 N :    0.134357
  10 H :    0.100725
  11 H :    0.096925
  12 H :    0.035614
  13 H :    0.079604
  14 H :    0.106824
  15 O :   -0.266060
  16 O :   -0.251446
  17 C :   -0.195967
  18 H :    0.101086
  19 H :    0.106560
  20 C :   -0.209861
  21 H :    0.113188
  22 H :    0.121240
  23 C :   -0.211946
  24 H :    0.108574
  25 H :    0.107716
  26 F :   -0.145985
  27 H :    0.100606
  28 H :    0.116951
  29 H :    0.100989
  30 H :    0.125111

  Mayer bond orders larger than 0.100000
B(  0-C ,  1-C ) :   0.3318 B(  0-C ,  7-C ) :   0.1986 B(  0-C , 17-C ) :   0.7114
B(  0-C , 18-H ) :   0.8221 B(  0-C , 19-H ) :   1.0783 B(  1-C ,  7-C ) :   1.5389
B(  1-C , 12-H ) :   0.5799 B(  1-C , 17-C ) :  -0.1565 B(  1-C , 18-H ) :  -0.1621
B(  1-C , 23-C ) :   0.1142 B(  1-C , 26-F ) :   0.1843 B(  2-C ,  3-C ) :   0.8051
B(  2-C , 20-C ) :   0.8864 B(  2-C , 21-H ) :   0.9724 B(  2-C , 22-H ) :   0.9359
B(  3-C ,  4-H ) :   0.8613 B(  3-C ,  5-H ) :   0.8875 B(  3-C ,  6-S ) :   0.8527
B(  3-C , 15-O ) :   0.1036 B(  3-C , 23-C ) :   0.1010 B(  6-S , 15-O ) :   1.5410
B(  6-S , 16-O ) :   1.5919 B(  6-S , 26-F ) :   1.1820 B(  7-C ,  8-N ) :   0.9766
B(  7-C ,  9-N ) :   0.9860 B(  7-C , 12-H ) :  -0.2776 B(  7-C , 17-C ) :   0.1109
B(  8-N , 13-H ) :   0.9363 B(  8-N , 14-H ) :   1.1170 B(  9-N , 10-H ) :   0.9677
B(  9-N , 11-H ) :   1.0719 B( 12-H , 26-F ) :  -0.2763 B( 17-C , 20-C ) :   0.1288
B( 17-C , 23-C ) :   0.9106 B( 17-C , 24-H ) :   0.9743 B( 17-C , 25-H ) :   0.9307
B( 20-C , 23-C ) :   0.2697 B( 20-C , 27-H ) :  -0.1132 B( 20-C , 29-H ) :   1.0511
B( 20-C , 30-H ) :   0.9020 B( 23-C , 27-H ) :   1.0823 B( 23-C , 28-H ) :   0.9145
B( 23-C , 29-H ) :  -0.1467

FINAL SINGLE POINT ENERGY     -1073.006714118573

DIPOLE MOMENT
-------------
                                X             Y             Z
Electronic contribution:      0.76017      -3.10889     -19.37632
Nuclear contribution   :      0.26049       3.89757      20.56096
                        -----------------------------------------
Total Dipole Moment    :      1.02066       0.78868       1.18464
                        -----------------------------------------
Magnitude (a.u.)       :      1.75133
Magnitude (Debye)      :      4.45152

Rotational constants in cm-1:     0.029090     0.014735     0.011139
Rotational constants in MHz :   872.086433   441.731892   333.928051

                             ****ORCA TERMINATED NORMALLY****
TOTAL RUN TIME: 0 days 0 hours 10 minutes 21 seconds 883 msec
