                         Program Version 5.0.0 -  RELEASE  -
|  1> !CAM-B3LYP RIJCOSX def2-TZVPD def2/J TightSCF xyzfile
|  2>
|  3> *xyzfile 0 1 D8.xyz
|  4>
|  5> %MaxCore 64000
|  6>
|  7> %pal nprocs 4
|  8> end
|  9>
| 10> %scf
| 11>   MaxIter 150
| 12> end
| 13>
| 14>
| 15>                          ****END OF INPUT****

CARTESIAN COORDINATES (ANGSTROEM)
---------------------------------
  C      1.963365   -1.749150   -1.896887
  N      2.738490   -2.015170   -3.097113
  C      0.611877    1.657634   -4.500288
  C      1.694991    1.541794   -5.570447
  H      2.697326    1.734659   -5.183996
  H      1.506656    2.272239   -6.358076
  S      1.780287   -0.033128   -6.428739
  C      4.049736   -2.154717   -3.152044
  C      4.658206   -1.986293   -4.318655
  N      4.764231   -2.454435   -2.050491
  H      4.287363   -2.776259   -1.217496
  H      5.750825   -2.658351   -2.125988
  H      2.345176   -1.690274   -3.971447
  H      4.109004   -1.592677   -5.071760
  H      5.649095   -2.156462   -4.427237
  O      2.569287    0.213657   -7.607360
  O      0.416880   -0.462969   -6.618595
  C      2.088520   -0.300912   -1.415204
  H      2.231272   -2.451616   -1.102643
  H      0.930249   -1.977801   -2.155438
  C      0.680356    0.655418   -3.348038
  H     -0.356865    1.549231   -4.991128
  H      0.650228    2.675438   -4.096000
  C      1.968993    0.733582   -2.535654
  H      3.051356   -0.168602   -0.911868
  H      1.316501   -0.136231   -0.657252
  F      2.505129   -0.933263   -5.482570
  H      2.824195    0.624726   -3.208464
  H      2.058919    1.730331   -2.093112
  H      0.542252   -0.344731   -3.766662
  H     -0.174219    0.829692   -2.685182

 Total Charge           Charge          ....    0
 Multiplicity           Mult            ....    1
 Number of Electrons    NEL             ....  120
 Basis Dimension        Dim             ....  689

ORBITAL ENERGIES
----------------

  NO   OCC          E(Eh)            E(eV)
   0   2.0000     -89.181403     -2426.7494
   1   2.0000     -24.865364      -676.6210
   2   2.0000     -19.220335      -523.0119
   3   2.0000     -19.218522      -522.9626
   4   2.0000     -14.390134      -391.5754
   5   2.0000     -14.385009      -391.4360
   6   2.0000     -10.306392      -280.4512
   7   2.0000     -10.291611      -280.0490
   8   2.0000     -10.284878      -279.8658
   9   2.0000     -10.273942      -279.5682
  10   2.0000     -10.260823      -279.2112
  11   2.0000     -10.253774      -279.0194
  12   2.0000     -10.249866      -278.9130
  13   2.0000     -10.151901      -276.2473
  14   2.0000      -8.225905      -223.8383
  15   2.0000      -6.194082      -168.5495
  16   2.0000      -6.187294      -168.3648
  17   2.0000      -6.186615      -168.3464
  18   2.0000      -1.444302       -39.3015
  19   2.0000      -1.207318       -32.8528
  20   2.0000      -1.114669       -30.3317
  21   2.0000      -1.055136       -28.7117
  22   2.0000      -0.969056       -26.3694
  23   2.0000      -0.929716       -25.2989
  24   2.0000      -0.885043       -24.0832
  25   2.0000      -0.848744       -23.0955
  26   2.0000      -0.802561       -21.8388
  27   2.0000      -0.792605       -21.5679
  28   2.0000      -0.753573       -20.5058
  29   2.0000      -0.714947       -19.4547
  30   2.0000      -0.674470       -18.3533
  31   2.0000      -0.672533       -18.3006
  32   2.0000      -0.652567       -17.7572
  33   2.0000      -0.647399       -17.6166
  34   2.0000      -0.626898       -17.0587
  35   2.0000      -0.606349       -16.4996
  36   2.0000      -0.577075       -15.7030
  37   2.0000      -0.571863       -15.5612
  38   2.0000      -0.560606       -15.2549
  39   2.0000      -0.554416       -15.0864
  40   2.0000      -0.543271       -14.7832
  41   2.0000      -0.535061       -14.5598
  42   2.0000      -0.517454       -14.0806
  43   2.0000      -0.508645       -13.8409
  44   2.0000      -0.494761       -13.4631
  45   2.0000      -0.477629       -12.9969
  46   2.0000      -0.471701       -12.8356
  47   2.0000      -0.464067       -12.6279
  48   2.0000      -0.453317       -12.3354
  49   2.0000      -0.444752       -12.1023
  50   2.0000      -0.437739       -11.9115
  51   2.0000      -0.433041       -11.7836
  52   2.0000      -0.417165       -11.3516
  53   2.0000      -0.412222       -11.2171
  54   2.0000      -0.406399       -11.0587
  55   2.0000      -0.398271       -10.8375
  56   2.0000      -0.397385       -10.8134
  57   2.0000      -0.394661       -10.7393
  58   2.0000      -0.320032        -8.7085
  59   2.0000      -0.223202        -6.0736
  60   0.0000       0.018966         0.5161
  61   0.0000       0.026305         0.7158
  62   0.0000       0.033766         0.9188
  63   0.0000       0.037637         1.0242
  64   0.0000       0.049605         1.3498

MULLIKEN ATOMIC CHARGES
-----------------------
   0 C :   -0.952280
   1 N :   -0.207374
   2 C :   -0.660783
   3 C :   -0.703928
   4 H :    0.388806
   5 H :    0.372503
   6 S :    1.055245
   7 C :    0.741054
   8 C :   -1.402452
   9 N :   -0.350919
  10 H :    0.155500
  11 H :    0.163911
  12 H :    0.418444
  13 H :    0.533994
  14 H :    0.254440
  15 O :   -0.581609
  16 O :   -0.601587
  17 C :   -0.480782
  18 H :    0.358062
  19 H :    0.341599
  20 C :   -0.565738
  21 H :    0.310908
  22 H :    0.331679
  23 C :   -0.476602
  24 H :    0.305272
  25 H :    0.342447
  26 F :   -0.291562
  27 H :    0.293970
  28 H :    0.332612
  29 H :    0.284326
  30 H :    0.290845
Sum of atomic charges:   -0.0000000

LOEWDIN ATOMIC CHARGES
----------------------
   0 C :   -0.187742
   1 N :    0.025640
   2 C :   -0.221859
   3 C :   -0.219680
   4 H :    0.108004
   5 H :    0.114749
   6 S :    0.625536
   7 C :   -0.548584
   8 C :    0.012581
   9 N :    0.129067
  10 H :    0.090198
  11 H :    0.108555
  12 H :    0.094320
  13 H :   -0.009931
  14 H :    0.015488
  15 O :   -0.257608
  16 O :   -0.255530
  17 C :   -0.183847
  18 H :    0.109927
  19 H :    0.115777
  20 C :   -0.213529
  21 H :    0.113966
  22 H :    0.122290
  23 C :   -0.207970
  24 H :    0.109437
  25 H :    0.111449
  26 F :   -0.146134
  27 H :    0.102357
  28 H :    0.120225
  29 H :    0.097609
  30 H :    0.125239

  Mayer bond orders larger than 0.100000
B(  0-C ,  1-N ) :   0.9106 B(  0-C ,  7-C ) :  -0.1390 B(  0-C ,  9-N ) :   0.1056
B(  0-C , 12-H ) :  -0.1376 B(  0-C , 17-C ) :   0.6300 B(  0-C , 18-H ) :   0.8747
B(  0-C , 19-H ) :   0.9504 B(  1-N ,  7-C ) :   0.9656 B(  1-N , 12-H ) :   0.7640
B(  2-C ,  3-C ) :   0.7814 B(  2-C , 20-C ) :   0.9085 B(  2-C , 21-H ) :   0.9719
B(  2-C , 22-H ) :   0.9335 B(  3-C ,  4-H ) :   0.8703 B(  3-C ,  5-H ) :   0.8830
B(  3-C ,  6-S ) :   0.8323 B(  3-C , 15-O ) :   0.1141 B(  3-C , 23-C ) :   0.1063
B(  6-S , 15-O ) :   1.5474 B(  6-S , 16-O ) :   1.5987 B(  6-S , 26-F ) :   1.1896
B(  7-C ,  8-C ) :   1.1226 B(  7-C ,  9-N ) :   0.9497 B(  7-C , 14-H ) :  -0.1597
B(  8-C , 13-H ) :   0.7339 B(  8-C , 14-H ) :   1.1571 B(  8-C , 26-F ) :   0.1874
B(  9-N , 10-H ) :   1.0096 B(  9-N , 11-H ) :   1.0168 B( 12-H , 26-F ) :  -0.1029
B( 17-C , 23-C ) :   0.9292 B( 17-C , 24-H ) :   0.9437 B( 17-C , 25-H ) :   0.9858
B( 20-C , 23-C ) :   0.2100 B( 20-C , 27-H ) :  -0.1064 B( 20-C , 29-H ) :   1.0248
B( 20-C , 30-H ) :   0.9362 B( 23-C , 27-H ) :   1.0639 B( 23-C , 28-H ) :   0.8909
B( 23-C , 29-H ) :  -0.1723

FINAL SINGLE POINT ENERGY     -1073.003798583654

DIPOLE MOMENT
-------------
                                X             Y             Z
Electronic contribution:     -0.87236      -2.91822     -18.31175
Nuclear contribution   :      0.50676       3.90127      20.40426
                        -----------------------------------------
Total Dipole Moment    :     -0.36561       0.98306       2.09251
                        -----------------------------------------
Magnitude (a.u.)       :      2.34065
Magnitude (Debye)      :      5.94947

Rotational constants in cm-1:     0.029548     0.014706     0.011197
Rotational constants in MHz :   885.834387   440.871746   335.667619

                             ****ORCA TERMINATED NORMALLY****
TOTAL RUN TIME: 0 days 0 hours 10 minutes 19 seconds 608 msec
