                         Program Version 5.0.0 -  RELEASE  -
|  1> !CAM-B3LYP RIJCOSX def2-TZVPD def2/J TightSCF xyzfile
|  2>
|  3> *xyzfile 0 1 D9.xyz
|  4>
|  5> %MaxCore 64000
|  6>
|  7> %pal nprocs 4
|  8> end
|  9>
| 10> %scf
| 11>   MaxIter 150
| 12> end
| 13>
| 14>
| 15>                          ****END OF INPUT****

CARTESIAN COORDINATES (ANGSTROEM)
---------------------------------
  C      1.963365   -1.749150   -1.896887
  N      2.738490   -2.015170   -3.097113
  C      0.611877    1.657634   -4.500288
  C      1.694991    1.541794   -5.570447
  H      2.697326    1.734659   -5.183996
  H      1.506656    2.272239   -6.358076
  S      1.780287   -0.033128   -6.428739
  C      4.049736   -2.154717   -3.152044
  N      4.658206   -1.986293   -4.318655
  C      4.764231   -2.454435   -2.050491
  H      4.287363   -2.776259   -1.217496
  H      5.750825   -2.658351   -2.125988
  H      2.345176   -1.690274   -3.971447
  H      4.109004   -1.592677   -5.071760
  H      5.649095   -2.156462   -4.427237
  O      2.569287    0.213657   -7.607360
  O      0.416880   -0.462969   -6.618595
  C      2.088520   -0.300912   -1.415204
  H      2.231272   -2.451616   -1.102643
  H      0.930249   -1.977801   -2.155438
  C      0.680356    0.655418   -3.348038
  H     -0.356865    1.549231   -4.991128
  H      0.650228    2.675438   -4.096000
  C      1.968993    0.733582   -2.535654
  H      3.051356   -0.168602   -0.911868
  H      1.316501   -0.136231   -0.657252
  F      2.505129   -0.933263   -5.482570
  H      2.824195    0.624726   -3.208464
  H      2.058919    1.730331   -2.093112
  H      0.542252   -0.344731   -3.766662
  H     -0.174219    0.829692   -2.685182

 Total Charge           Charge          ....    0
 Multiplicity           Mult            ....    1
 Number of Electrons    NEL             ....  120
 Basis Dimension        Dim             ....  689

ORBITAL ENERGIES
----------------

  NO   OCC          E(Eh)            E(eV)
   0   2.0000     -89.195015     -2427.1198
   1   2.0000     -24.887479      -677.2227
   2   2.0000     -19.233015      -523.3569
   3   2.0000     -19.232703      -523.3485
   4   2.0000     -14.387094      -391.4927
   5   2.0000     -14.386725      -391.4827
   6   2.0000     -10.316335      -280.7217
   7   2.0000     -10.291670      -280.0506
   8   2.0000     -10.279371      -279.7159
   9   2.0000     -10.278215      -279.6844
  10   2.0000     -10.263288      -279.2783
  11   2.0000     -10.254281      -279.0332
  12   2.0000     -10.244231      -278.7597
  13   2.0000     -10.153744      -276.2974
  14   2.0000      -8.239710      -224.2139
  15   2.0000      -6.208101      -168.9310
  16   2.0000      -6.200866      -168.7341
  17   2.0000      -6.200325      -168.7194
  18   2.0000      -1.465747       -39.8850
  19   2.0000      -1.221266       -33.2323
  20   2.0000      -1.127925       -30.6924
  21   2.0000      -1.059259       -28.8239
  22   2.0000      -0.971261       -26.4294
  23   2.0000      -0.935566       -25.4580
  24   2.0000      -0.885747       -24.1024
  25   2.0000      -0.846257       -23.0278
  26   2.0000      -0.816950       -22.2303
  27   2.0000      -0.780319       -21.2336
  28   2.0000      -0.774931       -21.0870
  29   2.0000      -0.719893       -19.5893
  30   2.0000      -0.686510       -18.6809
  31   2.0000      -0.680289       -18.5116
  32   2.0000      -0.663564       -18.0565
  33   2.0000      -0.643606       -17.5134
  34   2.0000      -0.624347       -16.9893
  35   2.0000      -0.614139       -16.7116
  36   2.0000      -0.592850       -16.1323
  37   2.0000      -0.581471       -15.8226
  38   2.0000      -0.574800       -15.6411
  39   2.0000      -0.556854       -15.1528
  40   2.0000      -0.546124       -14.8608
  41   2.0000      -0.535005       -14.5582
  42   2.0000      -0.518394       -14.1062
  43   2.0000      -0.509767       -13.8715
  44   2.0000      -0.498831       -13.5739
  45   2.0000      -0.483379       -13.1534
  46   2.0000      -0.471553       -12.8316
  47   2.0000      -0.470209       -12.7950
  48   2.0000      -0.450891       -12.2694
  49   2.0000      -0.442480       -12.0405
  50   2.0000      -0.440209       -11.9787
  51   2.0000      -0.434362       -11.8196
  52   2.0000      -0.427731       -11.6392
  53   2.0000      -0.416111       -11.3230
  54   2.0000      -0.410590       -11.1727
  55   2.0000      -0.407942       -11.1007
  56   2.0000      -0.403742       -10.9864
  57   2.0000      -0.393287       -10.7019
  58   2.0000      -0.315350        -8.5811
  59   2.0000      -0.222863        -6.0644
  60   0.0000       0.012868         0.3502
  61   0.0000       0.027183         0.7397
  62   0.0000       0.030279         0.8239
  63   0.0000       0.034485         0.9384
  64   0.0000       0.052726         1.4348

MULLIKEN ATOMIC CHARGES
-----------------------
   0 C :   -0.944020
   1 N :   -0.283572
   2 C :   -0.656514
   3 C :   -0.701423
   4 H :    0.389954
   5 H :    0.370543
   6 S :    1.041246
   7 C :    0.758049
   8 N :   -0.313787
   9 C :   -1.343766
  10 H :    0.269051
  11 H :    0.328455
  12 H :    0.511312
  13 H :    0.288480
  14 H :    0.092579
  15 O :   -0.581802
  16 O :   -0.584240
  17 C :   -0.505214
  18 H :    0.365331
  19 H :    0.352254
  20 C :   -0.552786
  21 H :    0.313014
  22 H :    0.335802
  23 C :   -0.471816
  24 H :    0.312571
  25 H :    0.344983
  26 F :   -0.281577
  27 H :    0.254811
  28 H :    0.329578
  29 H :    0.273049
  30 H :    0.289454
Sum of atomic charges:   -0.0000000

LOEWDIN ATOMIC CHARGES
----------------------
   0 C :   -0.182743
   1 N :    0.022979
   2 C :   -0.221220
   3 C :   -0.219274
   4 H :    0.107487
   5 H :    0.115896
   6 S :    0.627038
   7 C :   -0.556356
   8 N :    0.128254
   9 C :    0.010953
  10 H :    0.000541
  11 H :    0.004067
  12 H :    0.089073
  13 H :    0.071373
  14 H :    0.118988
  15 O :   -0.257630
  16 O :   -0.248786
  17 C :   -0.179804
  18 H :    0.115222
  19 H :    0.115561
  20 C :   -0.213913
  21 H :    0.114393
  22 H :    0.123347
  23 C :   -0.209361
  24 H :    0.109932
  25 H :    0.113159
  26 F :   -0.143321
  27 H :    0.100636
  28 H :    0.120336
  29 H :    0.096938
  30 H :    0.126236

  Mayer bond orders larger than 0.100000
B(  0-C ,  1-N ) :   0.8804 B(  0-C ,  9-C ) :   0.1088 B(  0-C , 12-H ) :  -0.1747
B(  0-C , 17-C ) :   0.6777 B(  0-C , 18-H ) :   0.8766 B(  0-C , 19-H ) :   0.9140
B(  1-N ,  7-C ) :   0.9095 B(  1-N ,  9-C ) :   0.1091 B(  1-N , 12-H ) :   0.6959
B(  2-C ,  3-C ) :   0.7804 B(  2-C , 20-C ) :   0.9073 B(  2-C , 21-H ) :   0.9740
B(  2-C , 22-H ) :   0.9336 B(  3-C ,  4-H ) :   0.8612 B(  3-C ,  5-H ) :   0.8817
B(  3-C ,  6-S ) :   0.8432 B(  3-C , 15-O ) :   0.1033 B(  6-S , 15-O ) :   1.5633
B(  6-S , 16-O ) :   1.6181 B(  6-S , 26-F ) :   1.1579 B(  7-C ,  8-N ) :   0.8683
B(  7-C ,  9-C ) :   1.0716 B(  7-C , 11-H ) :  -0.1173 B(  8-N , 13-H ) :   0.9207
B(  8-N , 14-H ) :   1.0791 B(  9-C , 10-H ) :   1.0184 B(  9-C , 11-H ) :   1.0227
B( 12-H , 26-F ) :  -0.1094 B( 17-C , 23-C ) :   0.9696 B( 17-C , 24-H ) :   0.9394
B( 17-C , 25-H ) :   0.9608 B( 20-C , 23-C ) :   0.2083 B( 20-C , 27-H ) :  -0.1227
B( 20-C , 29-H ) :   1.0302 B( 20-C , 30-H ) :   0.9317 B( 23-C , 27-H ) :   1.0874
B( 23-C , 28-H ) :   0.8880 B( 23-C , 29-H ) :  -0.1713

FINAL SINGLE POINT ENERGY     -1073.006615143378

DIPOLE MOMENT
-------------
                                X             Y             Z
Electronic contribution:     -1.05978      -2.35827     -20.30417
Nuclear contribution   :      0.52036       3.84122      20.69523
                        -----------------------------------------
Total Dipole Moment    :     -0.53942       1.48295       0.39105
                        -----------------------------------------
Magnitude (a.u.)       :      1.62574
Magnitude (Debye)      :      4.13230

Rotational constants in cm-1:     0.029184     0.014996     0.011314
Rotational constants in MHz :   874.907122   449.569665   339.178205

                             ****ORCA TERMINATED NORMALLY****
TOTAL RUN TIME: 0 days 0 hours 10 minutes 20 seconds 311 msec
