                         Program Version 5.0.0 -  RELEASE  -
|  1> !CAM-B3LYP RIJCOSX def2-SVP def2/J TightSCF
|  2> *xyz -1 1
|  3> C          1.44442        5.26658       -0.97546
|  4> O          1.56525        4.23349       -1.86489
|  5> C          0.14812        5.21087       -0.13809
|  6> H          1.47425        6.26464       -1.47692
|  7> H          2.28962        5.30327       -0.26445
|  8> H         -0.69779        5.17417       -0.79230
|  9> H          0.08430        6.08276        0.47887
| 10> H          0.15965        4.33708        0.47938
| 11> *
| 12> %MaxCore 64000
| 13>
| 14> %pal nprocs 4
| 15> end
| 16>
| 17> %scf
| 18>   MaxIter 150
| 19> end
| 20>
| 21>
| 22>                          ****END OF INPUT****

CARTESIAN COORDINATES (ANGSTROEM)
---------------------------------
  C      1.444420    5.266580   -0.975460
  O      1.565250    4.233490   -1.864890
  C      0.148120    5.210870   -0.138090
  H      1.474250    6.264640   -1.476920
  H      2.289620    5.303270   -0.264450
  H     -0.697790    5.174170   -0.792300
  H      0.084300    6.082760    0.478870
  H      0.159650    4.337080    0.479380

 Total Charge           Charge          ....   -1
 Multiplicity           Mult            ....    1
 Number of Electrons    NEL             ....   26
 Basis Dimension        Dim             ....   67

ORBITAL ENERGIES
----------------

  NO   OCC          E(Eh)            E(eV)
   0   2.0000     -18.813977      -511.9543
   1   2.0000     -10.046731      -273.3854
   2   2.0000     -10.035384      -273.0767
   3   2.0000      -0.704229       -19.1630
   4   2.0000      -0.578380       -15.7385
   5   2.0000      -0.419378       -11.4118
   6   2.0000      -0.301326        -8.1995
   7   2.0000      -0.278506        -7.5785
   8   2.0000      -0.218961        -5.9582
   9   2.0000      -0.201336        -5.4786
  10   2.0000      -0.131920        -3.5897
  11   2.0000       0.016452         0.4477
  12   2.0000       0.019512         0.5309
  13   0.0000       0.293664         7.9910
  14   0.0000       0.339093         9.2272
  15   0.0000       0.352921         9.6035
  16   0.0000       0.362171         9.8552
  17   0.0000       0.405956        11.0466

MULLIKEN ATOMIC CHARGES
-----------------------
   0 C :    0.263755
   1 O :   -0.705594
   2 C :    0.068853
   3 H :   -0.184779
   4 H :   -0.181067
   5 H :   -0.070183
   6 H :   -0.121378
   7 H :   -0.069608
Sum of atomic charges:   -1.0000000

LOEWDIN ATOMIC CHARGES
----------------------
   0 C :    0.010669
   1 O :   -0.669768
   2 C :   -0.108844
   3 H :   -0.086081
   4 H :   -0.082392
   5 H :   -0.014942
   6 H :   -0.033954
   7 H :   -0.014688

  Mayer bond orders larger than 0.100000
B(  0-C ,  1-O ) :   1.5246 B(  0-C ,  2-C ) :   0.9975 B(  0-C ,  3-H ) :   0.8658
B(  0-C ,  4-H ) :   0.8690 B(  2-C ,  5-H ) :   0.9552 B(  2-C ,  6-H ) :   0.9215
B(  2-C ,  7-H ) :   0.9583

FINAL SINGLE POINT ENERGY      -154.198465079155

DIPOLE MOMENT
-------------
                                X             Y             Z
Electronic contribution:      1.19798      -1.88453      -2.25282
Nuclear contribution   :     -1.83256       2.47114       3.17273
                        -----------------------------------------
Total Dipole Moment    :     -0.63457       0.58661       0.91992
                        -----------------------------------------
Magnitude (a.u.)       :      1.26216
Magnitude (Debye)      :      3.20816

Rotational constants in cm-1:     1.286062     0.322579     0.284728
Rotational constants in MHz : 38555.180127  9670.683110  8535.939140

                             ****ORCA TERMINATED NORMALLY****
TOTAL RUN TIME: 0 days 0 hours 0 minutes 9 seconds 677 msec
