                         Program Version 5.0.0 -  RELEASE  -
|  1> !CAM-B3LYP RIJCOSX def2-SVP def2/J TightSCF
|  2> *xyz 1 1
|  3> C         -0.70169        4.07250       -4.00392
|  4> N          0.68053        4.61482       -4.04800
|  5> H          0.69993        5.58489       -4.38827
|  6> H          1.27804        4.05598       -4.66824
|  7> H          1.08573        4.53358       -3.10652
|  8> C         -1.70347        5.09320       -3.47740
|  9> H         -0.99590        3.74039       -5.00065
| 10> H         -0.64358        3.20191       -3.35153
| 11> H         -1.73704        5.93384       -4.13853
| 12> H         -1.40338        5.41759       -2.50291
| 13> H         -2.67335        4.64479       -3.42108
| 14> *
| 15> %MaxCore 64000
| 16>
| 17> %pal nprocs 4
| 18> end
| 19>
| 20> %scf
| 21>   MaxIter 150
| 22> end
| 23>
| 24>
| 25>                          ****END OF INPUT****

CARTESIAN COORDINATES (ANGSTROEM)
---------------------------------
  C     -0.701690    4.072500   -4.003920
  N      0.680530    4.614820   -4.048000
  H      0.699930    5.584890   -4.388270
  H      1.278040    4.055980   -4.668240
  H      1.085730    4.533580   -3.106520
  C     -1.703470    5.093200   -3.477400
  H     -0.995900    3.740390   -5.000650
  H     -0.643580    3.201910   -3.351530
  H     -1.737040    5.933840   -4.138530
  H     -1.403380    5.417590   -2.502910
  H     -2.673350    4.644790   -3.421080

 Total Charge           Charge          ....    1
 Multiplicity           Mult            ....    1
 Number of Electrons    NEL             ....   26
 Basis Dimension        Dim             ....   82

ORBITAL ENERGIES
----------------

  NO   OCC          E(Eh)            E(eV)
   0   2.0000     -14.744022      -401.2052
   1   2.0000     -10.512651      -286.0638
   2   2.0000     -10.434518      -283.9377
   3   2.0000      -1.294013       -35.2119
   4   2.0000      -1.041031       -28.3279
   5   2.0000      -0.918726       -24.9998
   6   2.0000      -0.879435       -23.9307
   7   2.0000      -0.860525       -23.4161
   8   2.0000      -0.767275       -20.8786
   9   2.0000      -0.712330       -19.3835
  10   2.0000      -0.649960       -17.6863
  11   2.0000      -0.633730       -17.2447
  12   2.0000      -0.616289       -16.7701
  13   0.0000      -0.143174        -3.8960
  14   0.0000      -0.083121        -2.2618
  15   0.0000      -0.077121        -2.0986
  16   0.0000      -0.047612        -1.2956
  17   0.0000      -0.005631        -0.1532

MULLIKEN ATOMIC CHARGES
-----------------------
   0 C :   -0.042696
   1 N :    0.009426
   2 H :    0.214783
   3 H :    0.216692
   4 H :    0.218976
   5 C :   -0.014884
   6 H :    0.102429
   7 H :    0.093097
   8 H :    0.057920
   9 H :    0.051956
  10 H :    0.092302
Sum of atomic charges:    1.0000000

LOEWDIN ATOMIC CHARGES
----------------------
   0 C :    0.049340
   1 N :    0.294495
   2 H :    0.145235
   3 H :    0.149454
   4 H :    0.149619
   5 C :   -0.039331
   6 H :    0.055672
   7 H :    0.052860
   8 H :    0.039986
   9 H :    0.038491
  10 H :    0.064179

  Mayer bond orders larger than 0.100000
B(  0-C ,  1-N ) :   0.9258 B(  0-C ,  5-C ) :   1.0993 B(  0-C ,  6-H ) :   0.9560
B(  0-C ,  7-H ) :   0.9555 B(  1-N ,  2-H ) :   0.9324 B(  1-N ,  3-H ) :   0.9338
B(  1-N ,  4-H ) :   0.9373 B(  5-C ,  8-H ) :   0.9680 B(  5-C ,  9-H ) :   0.9716
B(  5-C , 10-H ) :   0.9584

FINAL SINGLE POINT ENERGY      -135.351056515044

DIPOLE MOMENT
-------------
                                X             Y             Z
Electronic contribution:      1.83259      -0.32436      -0.46583
Nuclear contribution   :     -0.23930       0.27560       0.19485
                        -----------------------------------------
Total Dipole Moment    :      1.59329      -0.04876      -0.27098
                        -----------------------------------------
Magnitude (a.u.)       :      1.61690
Magnitude (Debye)      :      4.10984

Rotational constants in cm-1:     1.018556     0.279088     0.248454
Rotational constants in MHz : 30535.536069  8366.847891  7448.451392

                             ****ORCA TERMINATED NORMALLY****
TOTAL RUN TIME: 0 days 0 hours 0 minutes 11 seconds 467 msec
