                         Program Version 5.0.0 -  RELEASE  -
|  1> !CAM-B3LYP RIJCOSX def2-TZVP def2/J TightSCF xyzfile
|  2>
|  3> *xyzfile 0 1 B.xyz
|  4>
|  5> %MaxCore 64000
|  6>
|  7> %pal nprocs 18
|  8> end
|  9>
| 10> %scf
| 11>   MaxIter 150
| 12> end
| 13>
| 14>
| 15>                          ****END OF INPUT****

CARTESIAN COORDINATES (ANGSTROEM)
---------------------------------
  C     -0.701686    4.072499   -4.003920
  N      0.680528    4.614820   -4.048005
  C      1.444422    5.266576   -0.975463
  O      1.565248    4.233493   -1.864885
  H      0.699926    5.584890   -4.388272
  H      1.278044    4.055977   -4.668235
  H      1.085729    4.533581   -3.106524
  C     -1.703475    5.093197   -3.477396
  H     -0.995895    3.740394   -5.000654
  H     -0.643580    3.201910   -3.351533
  C     -1.313997    5.785995   -2.169271
  H     -1.877057    5.850103   -4.251154
  H     -2.653264    4.564475   -3.354796
  H     -2.097137    6.509395   -1.929558
  H     -0.416875    6.387594   -2.339097
  C     -1.073895    4.844728   -0.979904
  H     -1.968893    4.809608   -0.352568
  C      0.148120    5.210874   -0.138092
  H     -0.909754    3.827531   -1.338975
  H      1.474250    6.264638   -1.476917
  H      2.289622    5.303267   -0.264450
  H      0.261827    4.450942    0.640711
  H     -0.002516    6.171031    0.371483

 Total Charge           Charge          ....    0
 Multiplicity           Mult            ....    1
 Number of Electrons    NEL             ....   66
 Basis Dimension        Dim             ....  338

ORBITAL ENERGIES
----------------

  NO   OCC          E(Eh)            E(eV)
   0   2.0000     -19.059620      -518.6386
   1   2.0000     -14.468432      -393.7060
   2   2.0000     -10.309260      -280.5292
   3   2.0000     -10.263680      -279.2889
   4   2.0000     -10.238140      -278.5940
   5   2.0000     -10.225350      -278.2459
   6   2.0000     -10.216212      -277.9973
   7   2.0000     -10.197538      -277.4891
   8   2.0000      -1.072256       -29.1776
   9   2.0000      -0.968647       -26.3582
  10   2.0000      -0.893417       -24.3111
  11   2.0000      -0.828233       -22.5374
  12   2.0000      -0.774199       -21.0670
  13   2.0000      -0.713814       -19.4239
  14   2.0000      -0.665248       -18.1023
  15   2.0000      -0.642642       -17.4872
  16   2.0000      -0.640929       -17.4406
  17   2.0000      -0.593609       -16.1529
  18   2.0000      -0.559958       -15.2372
  19   2.0000      -0.534635       -14.5482
  20   2.0000      -0.526343       -14.3225
  21   2.0000      -0.487345       -13.2613
  22   2.0000      -0.475362       -12.9353
  23   2.0000      -0.461603       -12.5609
  24   2.0000      -0.441262       -12.0074
  25   2.0000      -0.420362       -11.4386
  26   2.0000      -0.414726       -11.2853
  27   2.0000      -0.394582       -10.7371
  28   2.0000      -0.372082       -10.1249
  29   2.0000      -0.363591        -9.8938
  30   2.0000      -0.355690        -9.6788
  31   2.0000      -0.240523        -6.5450
  32   2.0000      -0.235919        -6.4197
  33   0.0000       0.029359         0.7989
  34   0.0000       0.071204         1.9376
  35   0.0000       0.077333         2.1043
  36   0.0000       0.098349         2.6762
  37   0.0000       0.107952         2.9375

MULLIKEN ATOMIC CHARGES
-----------------------
   0 C :   -0.195192
   1 N :   -0.293060
   2 C :   -0.045825
   3 O :   -0.697381
   4 H :    0.253955
   5 H :    0.265294
   6 H :    0.298187
   7 C :   -0.233757
   8 H :    0.136744
   9 H :    0.173290
  10 C :   -0.229979
  11 H :    0.118655
  12 H :    0.119947
  13 H :    0.109268
  14 H :    0.096603
  15 C :   -0.156473
  16 H :    0.092457
  17 C :   -0.119734
  18 H :    0.086636
  19 H :    0.024240
  20 H :    0.055885
  21 H :    0.077761
  22 H :    0.062479
Sum of atomic charges:   -0.0000000

LOEWDIN ATOMIC CHARGES
----------------------
   0 C :   -0.281054
   1 N :    0.141704
   2 C :   -0.480207
   3 O :   -0.278472
   4 H :    0.188840
   5 H :    0.192171
   6 H :    0.085949
   7 C :   -0.276588
   8 H :    0.129363
   9 H :    0.144990
  10 C :   -0.264489
  11 H :    0.135185
  12 H :    0.147091
  13 H :    0.136009
  14 H :    0.133678
  15 C :   -0.273350
  16 H :    0.128302
  17 C :   -0.284284
  18 H :    0.136890
  19 H :    0.080378
  20 H :    0.104191
  21 H :    0.129683
  22 H :    0.124020

  Mayer bond orders larger than 0.100000
B(  0-C ,  1-N ) :   0.8639 B(  0-C ,  7-C ) :   0.9655 B(  0-C ,  8-H ) :   0.9761
B(  0-C ,  9-H ) :   0.9756 B(  1-N ,  4-H ) :   0.9072 B(  1-N ,  5-H ) :   0.9137
B(  1-N ,  6-H ) :   0.6204 B(  2-C ,  3-O ) :   1.2294 B(  2-C , 17-C ) :   0.9033
B(  2-C , 19-H ) :   0.9870 B(  2-C , 20-H ) :   0.9742 B(  3-O ,  6-H ) :   0.4314
B(  3-O , 17-C ) :  -0.1148 B(  7-C , 10-C ) :   0.9382 B(  7-C , 11-H ) :   0.9856
B(  7-C , 12-H ) :   0.9721 B( 10-C , 13-H ) :   0.9796 B( 10-C , 14-H ) :   0.9847
B( 10-C , 15-C ) :   0.9166 B( 15-C , 16-H ) :   0.9729 B( 15-C , 17-C ) :   0.9672
B( 15-C , 18-H ) :   0.9685 B( 17-C , 21-H ) :   0.9628 B( 17-C , 22-H ) :   0.9624

FINAL SINGLE POINT ENERGY      -367.539653688086

DIPOLE MOMENT
-------------
                                X             Y             Z
Electronic contribution:      2.01575      -1.56733      -1.32547
Nuclear contribution   :     -3.16446       1.92310      -1.11926
                        -----------------------------------------
Total Dipole Moment    :     -1.14872       0.35577      -2.44473
                        -----------------------------------------
Magnitude (a.u.)       :      2.72449
Magnitude (Debye)      :      6.92509

Rotational constants in cm-1:     0.085554     0.055600     0.038553
Rotational constants in MHz :  2564.854379  1666.836664  1155.798427

                             ****ORCA TERMINATED NORMALLY****
TOTAL RUN TIME: 0 days 0 hours 0 minutes 33 seconds 962 msec
