                         Program Version 5.0.0 -  RELEASE  -
|  1> !CAM-B3LYP RIJCOSX def2-SVP def2/J TightSCF
|  2> *xyz 0 1
|  3> C          1.44442        5.26658       -0.97546
|  4> F          1.56525        4.23349       -1.86489
|  5> C          0.14812        5.21087       -0.13809
|  6> H          1.47425        6.26464       -1.47692
|  7> H          2.28962        5.30327       -0.26445
|  8> H         -0.69779        5.17417       -0.79230
|  9> H          0.08430        6.08276        0.47887
| 10> H          0.15965        4.33708        0.47938
| 11> *
| 12> %MaxCore 64000
| 13>
| 14> %pal nprocs 4
| 15> end
| 16>
| 17> %scf
| 18>   MaxIter 150
| 19> end
| 20>
| 21>
| 22>                          ****END OF INPUT****

CARTESIAN COORDINATES (ANGSTROEM)
---------------------------------
  C      1.444420    5.266580   -0.975460
  F      1.565250    4.233490   -1.864890
  C      0.148120    5.210870   -0.138090
  H      1.474250    6.264640   -1.476920
  H      2.289620    5.303270   -0.264450
  H     -0.697790    5.174170   -0.792300
  H      0.084300    6.082760    0.478870
  H      0.159650    4.337080    0.479380

 Total Charge           Charge          ....    0
 Multiplicity           Mult            ....    1
 Number of Electrons    NEL             ....   26
 Basis Dimension        Dim             ....   67

ORBITAL ENERGIES
----------------

  NO   OCC          E(Eh)            E(eV)
   0   2.0000     -24.737762      -673.1487
   1   2.0000     -10.333770      -281.1962
   2   2.0000     -10.253904      -279.0229
   3   2.0000      -1.248786       -33.9812
   4   2.0000      -0.834881       -22.7183
   5   2.0000      -0.698513       -19.0075
   6   2.0000      -0.570952       -15.5364
   7   2.0000      -0.561248       -15.2723
   8   2.0000      -0.521333       -14.1862
   9   2.0000      -0.468606       -12.7514
  10   2.0000      -0.465808       -12.6753
  11   2.0000      -0.395387       -10.7590
  12   2.0000      -0.389525       -10.5995
  13   0.0000       0.105392         2.8679
  14   0.0000       0.151382         4.1193
  15   0.0000       0.160316         4.3624
  16   0.0000       0.179751         4.8913
  17   0.0000       0.198455         5.4002

MULLIKEN ATOMIC CHARGES
-----------------------
   0 C :    0.223605
   1 F :   -0.260232
   2 C :   -0.034380
   3 H :    0.005559
   4 H :    0.003917
   5 H :    0.024581
   6 H :    0.013274
   7 H :    0.023677
Sum of atomic charges:   -0.0000000

LOEWDIN ATOMIC CHARGES
----------------------
   0 C :    0.107875
   1 F :   -0.134747
   2 C :   -0.071985
   3 H :    0.010191
   4 H :    0.008871
   5 H :    0.025649
   6 H :    0.029449
   7 H :    0.024697

  Mayer bond orders larger than 0.100000
B(  0-C ,  1-F ) :   1.0124 B(  0-C ,  2-C ) :   1.0929 B(  0-C ,  3-H ) :   0.9600
B(  0-C ,  4-H ) :   0.9597 B(  2-C ,  5-H ) :   0.9716 B(  2-C ,  6-H ) :   0.9620
B(  2-C ,  7-H ) :   0.9729

FINAL SINGLE POINT ENERGY      -178.843930067500

DIPOLE MOMENT
-------------
                                X             Y             Z
Electronic contribution:      2.31474      -2.77111      -3.72982
Nuclear contribution   :     -2.43357       3.25919       4.19687
                        -----------------------------------------
Total Dipole Moment    :     -0.11883       0.48809       0.46705
                        -----------------------------------------
Magnitude (a.u.)       :      0.68592
Magnitude (Debye)      :      1.74347

Rotational constants in cm-1:     1.264662     0.300144     0.266170
Rotational constants in MHz : 37913.611527  8998.095216  7979.576054

                             ****ORCA TERMINATED NORMALLY****
TOTAL RUN TIME: 0 days 0 hours 0 minutes 9 seconds 217 msec
