                         Program Version 5.0.0 -  RELEASE  -
|  1> !CAM-B3LYP RIJCOSX def2-SVP def2/J TightSCF
|  2> *xyz 0 1
|  3> C         -0.70169        4.07250       -4.00392
|  4> C          0.68053        4.61482       -4.04800
|  5> H          0.69993        5.58489       -4.38827
|  6> H          1.27804        4.05598       -4.66824
|  7> H          1.08573        4.53358       -3.10652
|  8> C         -1.70347        5.09320       -3.47740
|  9> H         -0.99590        3.74039       -5.00065
| 10> H         -0.64358        3.20191       -3.35153
| 11> H         -1.73704        5.93384       -4.13853
| 12> H         -1.40338        5.41759       -2.50291
| 13> H         -2.67335        4.64479       -3.42108
| 14> *
| 15> %MaxCore 64000
| 16>
| 17> %pal nprocs 4
| 18> end
| 19>
| 20> %scf
| 21>   MaxIter 150
| 22> end
| 23>
| 24>
| 25>                          ****END OF INPUT****

CARTESIAN COORDINATES (ANGSTROEM)
---------------------------------
  C     -0.701690    4.072500   -4.003920
  C      0.680530    4.614820   -4.048000
  H      0.699930    5.584890   -4.388270
  H      1.278040    4.055980   -4.668240
  H      1.085730    4.533580   -3.106520
  C     -1.703470    5.093200   -3.477400
  H     -0.995900    3.740390   -5.000650
  H     -0.643580    3.201910   -3.351530
  H     -1.737040    5.933840   -4.138530
  H     -1.403380    5.417590   -2.502910
  H     -2.673350    4.644790   -3.421080

 Total Charge           Charge          ....    0
 Multiplicity           Mult            ....    1
 Number of Electrons    NEL             ....   26
 Basis Dimension        Dim             ....   82

ORBITAL ENERGIES
----------------

  NO   OCC          E(Eh)            E(eV)
   0   2.0000     -10.242648      -278.7166
   1   2.0000     -10.236735      -278.5557
   2   2.0000     -10.220092      -278.1028
   3   2.0000      -0.866399       -23.5759
   4   2.0000      -0.762431       -20.7468
   5   2.0000      -0.653921       -17.7941
   6   2.0000      -0.538852       -14.6629
   7   2.0000      -0.513031       -13.9603
   8   2.0000      -0.468534       -12.7495
   9   2.0000      -0.457055       -12.4371
  10   2.0000      -0.400593       -10.9007
  11   2.0000      -0.397014       -10.8033
  12   2.0000      -0.388596       -10.5742
  13   0.0000       0.104906         2.8546
  14   0.0000       0.153152         4.1675
  15   0.0000       0.156634         4.2622
  16   0.0000       0.160549         4.3688
  17   0.0000       0.190230         5.1764

MULLIKEN ATOMIC CHARGES
-----------------------
   0 C :   -0.064751
   1 C :    0.082619
   2 H :   -0.016557
   3 H :   -0.018430
   4 H :   -0.013680
   5 C :    0.021096
   6 H :    0.000016
   7 H :   -0.001821
   8 H :    0.004788
   9 H :    0.001804
  10 H :    0.004916
Sum of atomic charges:   -0.0000000

LOEWDIN ATOMIC CHARGES
----------------------
   0 C :   -0.038159
   1 C :   -0.043809
   2 H :    0.011226
   3 H :    0.015275
   4 H :    0.014898
   5 C :   -0.051164
   6 H :    0.016292
   7 H :    0.018540
   8 H :    0.018712
   9 H :    0.018358
  10 H :    0.019829

  Mayer bond orders larger than 0.100000
B(  0-C ,  1-C ) :   1.1047 B(  0-C ,  5-C ) :   1.1028 B(  0-C ,  6-H ) :   0.9590
B(  0-C ,  7-H ) :   0.9578 B(  1-C ,  2-H ) :   0.9701 B(  1-C ,  3-H ) :   0.9598
B(  1-C ,  4-H ) :   0.9692 B(  5-C ,  8-H ) :   0.9731 B(  5-C ,  9-H ) :   0.9754
B(  5-C , 10-H ) :   0.9705

FINAL SINGLE POINT ENERGY      -118.954902116239

DIPOLE MOMENT
-------------
                                X             Y             Z
Electronic contribution:     -0.13526      -0.29879      -0.13286
Nuclear contribution   :      0.16058       0.27975       0.12812
                        -----------------------------------------
Total Dipole Moment    :      0.02532      -0.01904      -0.00474
                        -----------------------------------------
Magnitude (a.u.)       :      0.03203
Magnitude (Debye)      :      0.08141

Rotational constants in cm-1:     1.027122     0.293327     0.260229
Rotational constants in MHz : 30792.337141  8793.723318  7801.458329

                             ****ORCA TERMINATED NORMALLY****
TOTAL RUN TIME: 0 days 0 hours 0 minutes 11 seconds 165 msec
