                         Program Version 5.0.0 -  RELEASE  -
|  1> !CAM-B3LYP RIJCOSX def2-TZVP def2/J TightSCF xyzfile
|  2>
|  3> *xyzfile 0 1 D.xyz
|  4>
|  5> %MaxCore 64000
|  6>
|  7> %pal nprocs 18
|  8> end
|  9>
| 10> %scf
| 11>   MaxIter 150
| 12> end
| 13>
| 14>
| 15>                          ****END OF INPUT****

CARTESIAN COORDINATES (ANGSTROEM)
---------------------------------
  C     -0.701686    4.072499   -4.003920
  C      0.680528    4.614820   -4.048005
  C      1.444422    5.266576   -0.975463
  F      1.565248    4.233493   -1.864885
  H      0.699926    5.584890   -4.388272
  H      1.278044    4.055977   -4.668235
  H      1.085729    4.533581   -3.106524
  C     -1.703475    5.093197   -3.477396
  H     -0.995895    3.740394   -5.000654
  H     -0.643580    3.201910   -3.351533
  C     -1.313997    5.785995   -2.169271
  H     -1.877057    5.850103   -4.251154
  H     -2.653264    4.564475   -3.354796
  H     -2.097137    6.509395   -1.929558
  H     -0.416875    6.387594   -2.339097
  C     -1.073895    4.844728   -0.979904
  H     -1.968893    4.809608   -0.352568
  C      0.148120    5.210874   -0.138092
  H     -0.909754    3.827531   -1.338975
  H      1.474250    6.264638   -1.476917
  H      2.289622    5.303267   -0.264450
  H      0.261827    4.450942    0.640711
  H     -0.002516    6.171031    0.371483

 Total Charge           Charge          ....    0
 Multiplicity           Mult            ....    1
 Number of Electrons    NEL             ....   66
 Basis Dimension        Dim             ....  338

ORBITAL ENERGIES
----------------

  NO   OCC          E(Eh)            E(eV)
   0   2.0000     -24.762736      -673.8283
   1   2.0000     -10.330938      -281.1191
   2   2.0000     -10.253139      -279.0021
   3   2.0000     -10.238267      -278.5974
   4   2.0000     -10.231659      -278.4176
   5   2.0000     -10.224597      -278.2254
   6   2.0000     -10.211623      -277.8724
   7   2.0000     -10.157243      -276.3926
   8   2.0000      -1.314613       -35.7724
   9   2.0000      -0.898509       -24.4497
  10   2.0000      -0.867223       -23.5983
  11   2.0000      -0.805190       -21.9103
  12   2.0000      -0.771244       -20.9866
  13   2.0000      -0.709872       -19.3166
  14   2.0000      -0.673685       -18.3319
  15   2.0000      -0.618451       -16.8289
  16   2.0000      -0.611134       -16.6298
  17   2.0000      -0.594583       -16.1794
  18   2.0000      -0.566236       -15.4081
  19   2.0000      -0.530636       -14.4393
  20   2.0000      -0.523539       -14.2462
  21   2.0000      -0.498124       -13.5546
  22   2.0000      -0.483539       -13.1578
  23   2.0000      -0.456978       -12.4350
  24   2.0000      -0.447634       -12.1807
  25   2.0000      -0.435421       -11.8484
  26   2.0000      -0.425879       -11.5887
  27   2.0000      -0.405522       -11.0348
  28   2.0000      -0.394701       -10.7404
  29   2.0000      -0.378490       -10.2992
  30   2.0000      -0.366342        -9.9687
  31   2.0000      -0.363679        -9.8962
  32   2.0000      -0.341454        -9.2914
  33   0.0000       0.070974         1.9313
  34   0.0000       0.086251         2.3470
  35   0.0000       0.091108         2.4792
  36   0.0000       0.108867         2.9624
  37   0.0000       0.118576         3.2266

MULLIKEN ATOMIC CHARGES
-----------------------
   0 C :   -0.174632
   1 C :   -0.433236
   2 C :   -0.040662
   3 F :   -0.187291
   4 H :    0.095685
   5 H :    0.104046
   6 H :    0.177904
   7 C :   -0.200619
   8 H :    0.091779
   9 H :    0.089523
  10 C :   -0.207251
  11 H :    0.101535
  12 H :    0.092077
  13 H :    0.102727
  14 H :    0.100262
  15 C :   -0.195943
  16 H :    0.110304
  17 C :   -0.207201
  18 H :    0.114625
  19 H :    0.124735
  20 H :    0.120695
  21 H :    0.110983
  22 H :    0.109954
Sum of atomic charges:   -0.0000000

LOEWDIN ATOMIC CHARGES
----------------------
   0 C :   -0.306204
   1 C :   -0.321469
   2 C :   -0.345890
   3 F :    0.171728
   4 H :    0.102273
   5 H :    0.103734
   6 H :    0.067334
   7 C :   -0.270740
   8 H :    0.129857
   9 H :    0.129718
  10 C :   -0.263446
  11 H :    0.135345
  12 H :    0.133490
  13 H :    0.133105
  14 H :    0.134975
  15 C :   -0.264707
  16 H :    0.135179
  17 C :   -0.274328
  18 H :    0.140707
  19 H :    0.126182
  20 H :    0.125536
  21 H :    0.136081
  22 H :    0.141539

  Mayer bond orders larger than 0.100000
B(  0-C ,  1-C ) :   0.8910 B(  0-C ,  7-C ) :   0.9586 B(  0-C ,  8-H ) :   0.9860
B(  0-C ,  9-H ) :   0.9892 B(  1-C ,  4-H ) :   0.9843 B(  1-C ,  5-H ) :   0.9925
B(  1-C ,  6-H ) :   0.9571 B(  2-C ,  3-F ) :   0.9378 B(  2-C , 17-C ) :   0.9591
B(  2-C , 19-H ) :   0.9887 B(  2-C , 20-H ) :   0.9770 B(  7-C , 10-C ) :   0.9445
B(  7-C , 11-H ) :   0.9805 B(  7-C , 12-H ) :   0.9802 B( 10-C , 13-H ) :   0.9777
B( 10-C , 14-H ) :   0.9859 B( 10-C , 15-C ) :   0.9149 B( 15-C , 16-H ) :   0.9774
B( 15-C , 17-C ) :   0.9495 B( 15-C , 18-H ) :   0.9842 B( 17-C , 21-H ) :   0.9764
B( 17-C , 22-H ) :   0.9589

FINAL SINGLE POINT ENERGY      -375.511837650992

DIPOLE MOMENT
-------------
                                X             Y             Z
Electronic contribution:      5.12921      -2.26328       2.79302
Nuclear contribution   :     -5.08831       2.68947      -1.99048
                        -----------------------------------------
Total Dipole Moment    :      0.04090       0.42620       0.80255
                        -----------------------------------------
Magnitude (a.u.)       :      0.90961
Magnitude (Debye)      :      2.31205

Rotational constants in cm-1:     0.084646     0.055672     0.038419
Rotational constants in MHz :  2537.625105  1668.992890  1151.781380

                             ****ORCA TERMINATED NORMALLY****
TOTAL RUN TIME: 0 days 0 hours 0 minutes 40 seconds 636 msec
