                         Program Version 5.0.0 -  RELEASE  -
|  1> !LC-BLYP RIJCOSX def2-TZVPD def2/J TightSCF
|  2> *xyz -1 1
|  3> C         -1.10433        0.25137       -2.86006
|  4> C         -0.71189        0.84252       -4.21834
|  5> H          0.15463        1.49980       -4.13091
|  6> H         -1.53813        1.45922       -4.58267
|  7> C         -0.39762       -0.20587       -5.28802
|  8> O          0.61717       -0.00535       -5.99827
|  9> O         -1.13317       -1.22138       -5.34147
| 10> H         -1.95489       -0.38644       -2.98099
| 11> H         -1.34603        1.04362       -2.18269
| 12> H         -0.28606       -0.31581       -2.46809
| 13> *
| 14>
| 15> %MaxCore 64000
| 16>
| 17> %pal nprocs 4
| 18> end
| 19>
| 20> %scf
| 21>   MaxIter 150
| 22> end
| 23>
| 24>
| 25>                          ****END OF INPUT****

CARTESIAN COORDINATES (ANGSTROEM)
---------------------------------
  C     -1.104330    0.251370   -2.860060
  C     -0.711890    0.842520   -4.218340
  H      0.154630    1.499800   -4.130910
  H     -1.538130    1.459220   -4.582670
  C     -0.397620   -0.205870   -5.288020
  O      0.617170   -0.005350   -5.998270
  O     -1.133170   -1.221380   -5.341470
  H     -1.954890   -0.386440   -2.980990
  H     -1.346030    1.043620   -2.182690
  H     -0.286060   -0.315810   -2.468090

 Total Charge           Charge          ....   -1
 Multiplicity           Mult            ....    1
 Number of Electrons    NEL             ....   40
 Basis Dimension        Dim             ....  236

ORBITAL ENERGIES
----------------

  NO   OCC          E(Eh)            E(eV)
   0   2.0000     -18.675857      -508.1959
   1   2.0000     -18.675020      -508.1731
   2   2.0000      -9.955290      -270.8972
   3   2.0000      -9.903571      -269.4899
   4   2.0000      -9.895808      -269.2786
   5   2.0000      -0.916004       -24.9257
   6   2.0000      -0.821803       -22.3624
   7   2.0000      -0.715441       -19.4681
   8   2.0000      -0.583776       -15.8853
   9   2.0000      -0.426810       -11.6141
  10   2.0000      -0.400867       -10.9082
  11   2.0000      -0.364588        -9.9209
  12   2.0000      -0.335761        -9.1365
  13   2.0000      -0.319069        -8.6823
  14   2.0000      -0.309418        -8.4197
  15   2.0000      -0.280341        -7.6285
  16   2.0000      -0.264688        -7.2025
  17   2.0000      -0.149766        -4.0753
  18   2.0000      -0.142443        -3.8761
  19   2.0000      -0.129271        -3.5176
  20   0.0000       0.176228         4.7954
  21   0.0000       0.197921         5.3857
  22   0.0000       0.205966         5.6046
  23   0.0000       0.222659         6.0589
  24   0.0000       0.242133         6.5888

MULLIKEN ATOMIC CHARGES
-----------------------
   0 C :   -1.209951
   1 C :   -0.422628
   2 H :    0.312264
   3 H :    0.278611
   4 C :    0.304504
   5 O :   -0.673310
   6 O :   -0.656713
   7 H :    0.325704
   8 H :    0.389761
   9 H :    0.351759
Sum of atomic charges:   -1.0000000

LOEWDIN ATOMIC CHARGES
----------------------
   0 C :   -0.146376
   1 C :   -0.224991
   2 H :    0.092911
   3 H :    0.100583
   4 C :   -0.804393
   5 O :   -0.098005
   6 O :   -0.089073
   7 H :    0.057107
   8 H :    0.047258
   9 H :    0.064980

  Mayer bond orders larger than 0.100000
B(  0-C ,  1-C ) :   0.4480 B(  0-C ,  7-H ) :   0.9922 B(  0-C ,  8-H ) :   0.8841
B(  0-C ,  9-H ) :   0.9313 B(  1-C ,  2-H ) :   0.9826 B(  1-C ,  3-H ) :   0.9506
B(  1-C ,  4-C ) :   0.9157 B(  4-C ,  5-O ) :   1.5063 B(  4-C ,  6-O ) :   1.5181

FINAL SINGLE POINT ENERGY      -267.355082277829

DIPOLE MOMENT
-------------
                                X             Y             Z
Electronic contribution:      1.53136      -2.33593      -5.18429
Nuclear contribution   :     -2.09607       3.44215       6.87744
                        -----------------------------------------
Total Dipole Moment    :     -0.56471       1.10621       1.69315
                        -----------------------------------------
Magnitude (a.u.)       :      2.09985
Magnitude (Debye)      :      5.33739

Rotational constants in cm-1:     0.324698     0.133739     0.103466
Rotational constants in MHz :  9734.203431  4009.406827  3101.846422

                             ****ORCA TERMINATED NORMALLY****
TOTAL RUN TIME: 0 days 0 hours 0 minutes 40 seconds 626 msec
