                         Program Version 5.0.0 -  RELEASE  -
|  1> !LC-BLYP RIJCOSX def2-TZVPD def2/J TightSCF
|  2> *xyz 1 1
|  3> C          2.23447       -2.98975       -2.39762
|  4> N          2.75680       -2.94555       -3.76503
|  5> C          1.98721       -2.59045       -4.81898
|  6> N          0.74322       -3.01749       -4.91352
|  7> N          2.49964       -1.84860       -5.80324
|  8> H          3.30978       -1.29282       -5.55895
|  9> H          1.80103       -1.30430       -6.28913
| 10> H          3.71612       -2.62880       -3.82953
| 11> H          0.39583       -3.62775       -4.18502
| 12> H          0.03920       -2.45438       -5.37137
| 13> C          2.19120       -1.61950       -1.71549
| 14> H          2.87278       -3.66637       -1.82801
| 15> H          1.24619       -3.44744       -2.40784
| 16> H          1.56387       -0.96046       -2.27853
| 17> H          3.18033       -1.21449       -1.66568
| 18> H          1.79916       -1.72608       -0.72562
| 19> *
| 20>
| 21> %MaxCore 64000
| 22>
| 23> %pal nprocs 4
| 24> end
| 25>
| 26> %scf
| 27>   MaxIter 150
| 28> end
| 29>
| 30>
| 31>                          ****END OF INPUT****

CARTESIAN COORDINATES (ANGSTROEM)
---------------------------------
  C      2.234470   -2.989750   -2.397620
  N      2.756800   -2.945550   -3.765030
  C      1.987210   -2.590450   -4.818980
  N      0.743220   -3.017490   -4.913520
  N      2.499640   -1.848600   -5.803240
  H      3.309780   -1.292820   -5.558950
  H      1.801030   -1.304300   -6.289130
  H      3.716120   -2.628800   -3.829530
  H      0.395830   -3.627750   -4.185020
  H      0.039200   -2.454380   -5.371370
  C      2.191200   -1.619500   -1.715490
  H      2.872780   -3.666370   -1.828010
  H      1.246190   -3.447440   -2.407840
  H      1.563870   -0.960460   -2.278530
  H      3.180330   -1.214490   -1.665680
  H      1.799160   -1.726080   -0.725620

 Total Charge           Charge          ....    1
 Multiplicity           Mult            ....    1
 Number of Electrons    NEL             ....   48
 Basis Dimension        Dim             ....  312

ORBITAL ENERGIES
----------------

  NO   OCC          E(Eh)            E(eV)
   0   2.0000     -14.400292      -391.8519
   1   2.0000     -14.396434      -391.7469
   2   2.0000     -14.394218      -391.6866
   3   2.0000     -10.412509      -283.3388
   4   2.0000     -10.278003      -279.6787
   5   2.0000     -10.208602      -277.7902
   6   2.0000      -1.323609       -36.0172
   7   2.0000      -1.209667       -32.9167
   8   2.0000      -1.204715       -32.7820
   9   2.0000      -1.039056       -28.2741
  10   2.0000      -0.950479       -25.8639
  11   2.0000      -0.913669       -24.8622
  12   2.0000      -0.892937       -24.2980
  13   2.0000      -0.846691       -23.0396
  14   2.0000      -0.807326       -21.9684
  15   2.0000      -0.786978       -21.4148
  16   2.0000      -0.756296       -20.5799
  17   2.0000      -0.728200       -19.8153
  18   2.0000      -0.707550       -19.2534
  19   2.0000      -0.673775       -18.3343
  20   2.0000      -0.636237       -17.3129
  21   2.0000      -0.615700       -16.7540
  22   2.0000      -0.589885       -16.0516
  23   2.0000      -0.549723       -14.9587
  24   0.0000      -0.121223        -3.2986
  25   0.0000      -0.106854        -2.9076
  26   0.0000      -0.079105        -2.1525
  27   0.0000      -0.066897        -1.8204
  28   0.0000      -0.048419        -1.3176

MULLIKEN ATOMIC CHARGES
-----------------------
   0 C :   -0.607369
   1 N :   -0.242964
   2 C :    0.613600
   3 N :   -0.325121
   4 N :   -0.430107
   5 H :    0.256688
   6 H :    0.260639
   7 H :    0.217431
   8 H :    0.267655
   9 H :    0.248197
  10 C :   -1.277729
  11 H :    0.421374
  12 H :    0.377187
  13 H :    0.367148
  14 H :    0.400593
  15 H :    0.452778
Sum of atomic charges:    1.0000000

LOEWDIN ATOMIC CHARGES
----------------------
   0 C :   -0.222811
   1 N :    0.088533
   2 C :   -0.452815
   3 N :    0.230757
   4 N :    0.214864
   5 H :    0.137266
   6 H :    0.136635
   7 H :    0.159805
   8 H :    0.131770
   9 H :    0.147723
  10 C :   -0.066860
  11 H :    0.135055
  12 H :    0.113282
  13 H :    0.076638
  14 H :    0.081534
  15 H :    0.088623

  Mayer bond orders larger than 0.100000
B(  0-C ,  1-N ) :   0.7248 B(  0-C , 10-C ) :   0.5113 B(  0-C , 11-H ) :   0.8791
B(  0-C , 12-H ) :   0.8746 B(  1-N ,  2-C ) :   1.2440 B(  1-N ,  7-H ) :   0.9568
B(  2-C ,  3-N ) :   1.1067 B(  2-C ,  4-N ) :   1.0817 B(  3-N ,  8-H ) :   0.8964
B(  3-N ,  9-H ) :   0.9614 B(  4-N ,  5-H ) :   0.9318 B(  4-N ,  6-H ) :   0.9164
B( 10-C , 13-H ) :   0.9182 B( 10-C , 14-H ) :   0.9155 B( 10-C , 15-H ) :   0.8854

FINAL SINGLE POINT ENERGY      -283.768800609129

DIPOLE MOMENT
-------------
                                X             Y             Z
Electronic contribution:      0.18036      -1.67672      -5.18235
Nuclear contribution   :     -0.59121       2.30298       4.63196
                        -----------------------------------------
Total Dipole Moment    :     -0.41084       0.62626      -0.55039
                        -----------------------------------------
Magnitude (a.u.)       :      0.92947
Magnitude (Debye)      :      2.36254

Rotational constants in cm-1:     0.205874     0.074757     0.066901
Rotational constants in MHz :  6171.937773  2241.151057  2005.629823

                             ****ORCA TERMINATED NORMALLY****
TOTAL RUN TIME: 0 days 0 hours 1 minutes 5 seconds 406 msec
