                         Program Version 5.0.0 -  RELEASE  -
|  1> !LC-BLYP RIJCOSX def2-TZVPD def2/J TightSCF xyzfile
|  2>
|  3> *xyzfile 0 1 B.xyz
|  4>
|  5> %MaxCore 64000
|  6>
|  7> %pal nprocs 4
|  8> end
|  9>
| 10> %scf
| 11>   MaxIter 150
| 12> end
| 13>
| 14>
| 15>                          ****END OF INPUT****

CARTESIAN COORDINATES (ANGSTROEM)
---------------------------------
  C      2.234473   -2.989754   -2.397622
  N      2.756799   -2.945553   -3.765029
  C     -1.104325    0.251374   -2.860056
  C     -0.711893    0.842517   -4.218344
  H      0.154626    1.499800   -4.130909
  H     -1.538134    1.459222   -4.582671
  C     -0.397624   -0.205875   -5.288018
  C      1.987208   -2.590451   -4.818975
  N      0.743221   -3.017493   -4.913524
  N      2.499636   -1.848598   -5.803241
  H      3.309780   -1.292818   -5.558947
  H      1.801025   -1.304298   -6.289129
  H      3.716116   -2.628797   -3.829533
  H      0.395828   -3.627747   -4.185024
  H      0.039201   -2.454383   -5.371367
  O      0.617165   -0.005348   -5.998273
  O     -1.133173   -1.221380   -5.341465
  C      2.191199   -1.619503   -1.715492
  H      2.872783   -3.666368   -1.828014
  H      1.246188   -3.447444   -2.407842
  C      1.298729   -0.554314   -2.359773
  H      1.872917   -1.787955   -0.681310
  H      3.216809   -1.238432   -1.654428
  C     -0.196255   -0.863365   -2.325763
  H      1.612531   -0.371346   -3.393065
  H      1.480944    0.388638   -1.834444
  H     -0.404105   -1.761825   -2.909448
  H     -0.490439   -1.087880   -1.294131
  H     -1.143842    1.066711   -2.129680
  H     -2.114401   -0.156834   -2.930323

 Total Charge           Charge          ....    0
 Multiplicity           Mult            ....    1
 Number of Electrons    NEL             ....  102
 Basis Dimension        Dim             ....  640

ORBITAL ENERGIES
----------------

  NO   OCC          E(Eh)            E(eV)
   0   2.0000     -18.857642      -513.1425
   1   2.0000     -18.855841      -513.0935
   2   2.0000     -14.239613      -387.4796
   3   2.0000     -14.208823      -386.6417
   4   2.0000     -14.207945      -386.6178
   5   2.0000     -10.238826      -278.6126
   6   2.0000     -10.144237      -276.0387
   7   2.0000     -10.131469      -275.6913
   8   2.0000     -10.093773      -274.6655
   9   2.0000     -10.073850      -274.1234
  10   2.0000     -10.060200      -273.7520
  11   2.0000     -10.050827      -273.4969
  12   2.0000     -10.038499      -273.1614
  13   2.0000      -1.152420       -31.3589
  14   2.0000      -1.102518       -30.0010
  15   2.0000      -1.047266       -28.4976
  16   2.0000      -1.025848       -27.9147
  17   2.0000      -1.004384       -27.3307
  18   2.0000      -0.930838       -25.3294
  19   2.0000      -0.888007       -24.1639
  20   2.0000      -0.836114       -22.7518
  21   2.0000      -0.791421       -21.5357
  22   2.0000      -0.762813       -20.7572
  23   2.0000      -0.731737       -19.9116
  24   2.0000      -0.720939       -19.6177
  25   2.0000      -0.688353       -18.7310
  26   2.0000      -0.664296       -18.0764
  27   2.0000      -0.643342       -17.5062
  28   2.0000      -0.617076       -16.7915
  29   2.0000      -0.605793       -16.4845
  30   2.0000      -0.589112       -16.0306
  31   2.0000      -0.579216       -15.7613
  32   2.0000      -0.569176       -15.4881
  33   2.0000      -0.555706       -15.1215
  34   2.0000      -0.544277       -14.8105
  35   2.0000      -0.532619       -14.4933
  36   2.0000      -0.516391       -14.0517
  37   2.0000      -0.512429       -13.9439
  38   2.0000      -0.492850       -13.4111
  39   2.0000      -0.484884       -13.1944
  40   2.0000      -0.469770       -12.7831
  41   2.0000      -0.459125       -12.4934
  42   2.0000      -0.446175       -12.1410
  43   2.0000      -0.427728       -11.6391
  44   2.0000      -0.414934       -11.2909
  45   2.0000      -0.407153       -11.0792
  46   2.0000      -0.402434       -10.9508
  47   2.0000      -0.392749       -10.6872
  48   2.0000      -0.331468        -9.0197
  49   2.0000      -0.320549        -8.7226
  50   2.0000      -0.314366        -8.5543
  51   0.0000       0.024424         0.6646
  52   0.0000       0.040296         1.0965
  53   0.0000       0.048113         1.3092
  54   0.0000       0.057675         1.5694
  55   0.0000       0.063525         1.7286

MULLIKEN ATOMIC CHARGES
-----------------------
   0 C :   -0.996138
   1 N :   -0.217057
   2 C :   -0.915113
   3 C :   -0.652215
   4 H :    0.377420
   5 H :    0.413441
   6 C :    0.501403
   7 C :    0.467524
   8 N :   -0.382405
   9 N :   -0.472469
  10 H :    0.215161
  11 H :    0.370152
  12 H :    0.202739
  13 H :    0.228361
  14 H :    0.355227
  15 O :   -0.769820
  16 O :   -0.746120
  17 C :   -0.698975
  18 H :    0.423718
  19 H :    0.410296
  20 C :   -0.712323
  21 H :    0.437181
  22 H :    0.402221
  23 C :   -0.576935
  24 H :    0.365510
  25 H :    0.433855
  26 H :    0.319794
  27 H :    0.410590
  28 H :    0.405061
  29 H :    0.399919
Sum of atomic charges:   -0.0000000

LOEWDIN ATOMIC CHARGES
----------------------
   0 C :   -0.191173
   1 N :    0.078804
   2 C :   -0.212171
   3 C :   -0.139222
   4 H :    0.111444
   5 H :    0.123471
   6 C :   -0.703681
   7 C :   -0.468135
   8 N :    0.235579
   9 N :    0.199902
  10 H :    0.125398
  11 H :    0.066925
  12 H :    0.147370
  13 H :    0.123459
  14 H :    0.059073
  15 O :   -0.045766
  16 O :   -0.038055
  17 C :   -0.194417
  18 H :    0.125366
  19 H :    0.112284
  20 C :   -0.210830
  21 H :    0.121759
  22 H :    0.116385
  23 C :   -0.220206
  24 H :    0.106645
  25 H :    0.127491
  26 H :    0.092011
  27 H :    0.120782
  28 H :    0.113929
  29 H :    0.115582

  Mayer bond orders larger than 0.100000
B(  0-C ,  1-N ) :   0.7293 B(  0-C ,  7-C ) :  -0.1136 B(  0-C ,  8-N ) :   0.1216
B(  0-C , 17-C ) :   0.4779 B(  0-C , 18-H ) :   0.9072 B(  0-C , 19-H ) :   0.9477
B(  1-N ,  7-C ) :   1.0936 B(  1-N , 12-H ) :   0.9400 B(  2-C ,  3-C ) :   0.5857
B(  2-C , 23-C ) :   0.6874 B(  2-C , 28-H ) :   0.9313 B(  2-C , 29-H ) :   0.9083
B(  3-C ,  4-H ) :   0.9968 B(  3-C ,  5-H ) :   0.8694 B(  3-C ,  6-C ) :   0.8003
B(  3-C , 16-O ) :  -0.1110 B(  3-C , 23-C ) :  -0.1204 B(  6-C , 15-O ) :   1.1987
B(  6-C , 16-O ) :   1.3179 B(  7-C ,  8-N ) :   1.2272 B(  7-C ,  9-N ) :   1.0679
B(  8-N , 13-H ) :   0.9094 B(  8-N , 14-H ) :   0.6719 B(  9-N , 10-H ) :   0.9440
B(  9-N , 11-H ) :   0.7199 B( 14-H , 16-O ) :   0.1211 B( 15-O , 16-O ) :   0.1097
B( 17-C , 20-C ) :   0.6077 B( 17-C , 21-H ) :   0.9239 B( 17-C , 22-H ) :   0.9346
B( 20-C , 23-C ) :   0.2090 B( 20-C , 24-H ) :   1.0477 B( 20-C , 25-H ) :   0.8282
B( 20-C , 26-H ) :  -0.1850 B( 23-C , 24-H ) :  -0.1079 B( 23-C , 26-H ) :   1.1499
B( 23-C , 27-H ) :   0.8629

FINAL SINGLE POINT ENERGY      -628.553232299815

DIPOLE MOMENT
-------------
                                X             Y             Z
Electronic contribution:      0.57931      -2.82434     -10.19697
Nuclear contribution   :      1.76912       1.50070      12.36652
                        -----------------------------------------
Total Dipole Moment    :      2.34842      -1.32365       2.16955
                        -----------------------------------------
Magnitude (a.u.)       :      3.46036
Magnitude (Debye)      :      8.79553

Rotational constants in cm-1:     0.033272     0.023886     0.017112
Rotational constants in MHz :   997.469575   716.074432   513.001395

                             ****ORCA TERMINATED NORMALLY****
TOTAL RUN TIME: 0 days 0 hours 6 minutes 41 seconds 59 msec
