                         Program Version 5.0.0 -  RELEASE  -
|  1> !LC-BLYP RIJCOSX def2-TZVPD def2/J TightSCF
|  2> *xyz 0 1
|  3> C         -1.10433        0.25137       -2.86006
|  4> C         -0.71189        0.84252       -4.21834
|  5> H          0.15463        1.49980       -4.13091
|  6> H         -1.53813        1.45922       -4.58267
|  7> C         -0.39762       -0.20587       -5.28802
|  8> F          0.61717       -0.00535       -5.99827
|  9> O         -1.13317       -1.22138       -5.34147
| 10> H         -1.95489       -0.38644       -2.98099
| 11> H         -1.34603        1.04362       -2.18269
| 12> H         -0.28606       -0.31581       -2.46809
| 13> *
| 14>
| 15> %MaxCore 64000
| 16>
| 17> %pal nprocs 4
| 18> end
| 19>
| 20> %scf
| 21>   MaxIter 150
| 22> end
| 23>
| 24>
| 25>                          ****END OF INPUT****

CARTESIAN COORDINATES (ANGSTROEM)
---------------------------------
  C     -1.104330    0.251370   -2.860060
  C     -0.711890    0.842520   -4.218340
  H      0.154630    1.499800   -4.130910
  H     -1.538130    1.459220   -4.582670
  C     -0.397620   -0.205870   -5.288020
  F      0.617170   -0.005350   -5.998270
  O     -1.133170   -1.221380   -5.341470
  H     -1.954890   -0.386440   -2.980990
  H     -1.346030    1.043620   -2.182690
  H     -0.286060   -0.315810   -2.468090

 Total Charge           Charge          ....    0
 Multiplicity           Mult            ....    1
 Number of Electrons    NEL             ....   40
 Basis Dimension        Dim             ....  236

ORBITAL ENERGIES
----------------

  NO   OCC          E(Eh)            E(eV)
   0   2.0000     -24.526674      -667.4047
   1   2.0000     -18.947503      -515.5878
   2   2.0000     -10.251902      -278.9684
   3   2.0000     -10.102863      -274.9129
   4   2.0000     -10.070670      -274.0369
   5   2.0000      -1.401379       -38.1335
   6   2.0000      -1.128868       -30.7181
   7   2.0000      -0.910755       -24.7829
   8   2.0000      -0.799366       -21.7519
   9   2.0000      -0.744196       -20.2506
  10   2.0000      -0.659177       -17.9371
  11   2.0000      -0.642297       -17.4778
  12   2.0000      -0.613899       -16.7050
  13   2.0000      -0.572164       -15.5694
  14   2.0000      -0.538647       -14.6573
  15   2.0000      -0.499069       -13.5804
  16   2.0000      -0.477785       -13.0012
  17   2.0000      -0.475706       -12.9446
  18   2.0000      -0.451276       -12.2798
  19   2.0000      -0.396542       -10.7905
  20   0.0000       0.042100         1.1456
  21   0.0000       0.052424         1.4265
  22   0.0000       0.071194         1.9373
  23   0.0000       0.077786         2.1167
  24   0.0000       0.090107         2.4519

MULLIKEN ATOMIC CHARGES
-----------------------
   0 C :   -1.258037
   1 C :   -0.484353
   2 H :    0.365401
   3 H :    0.342769
   4 C :    0.483496
   5 F :   -0.174371
   6 O :   -0.436580
   7 H :    0.368982
   8 H :    0.403815
   9 H :    0.388877
Sum of atomic charges:    0.0000000

LOEWDIN ATOMIC CHARGES
----------------------
   0 C :   -0.101227
   1 C :   -0.170854
   2 H :    0.114641
   3 H :    0.127277
   4 C :   -0.516559
   5 F :    0.223889
   6 O :    0.094691
   7 H :    0.075066
   8 H :    0.073618
   9 H :    0.079458

  Mayer bond orders larger than 0.100000
B(  0-C ,  1-C ) :   0.5232 B(  0-C ,  7-H ) :   0.9530 B(  0-C ,  8-H ) :   0.8851
B(  0-C ,  9-H ) :   0.8955 B(  1-C ,  2-H ) :   0.9134 B(  1-C ,  3-H ) :   0.9166
B(  1-C ,  4-C ) :   0.9093 B(  4-C ,  5-F ) :   1.0484 B(  4-C ,  6-O ) :   1.7815

FINAL SINGLE POINT ENERGY      -291.905585753342

DIPOLE MOMENT
-------------
                                X             Y             Z
Electronic contribution:      3.60155      -2.33950      -7.69626
Nuclear contribution   :     -3.36368       3.36392       8.24820
                        -----------------------------------------
Total Dipole Moment    :      0.23787       1.02442       0.55193
                        -----------------------------------------
Magnitude (a.u.)       :      1.18771
Magnitude (Debye)      :      3.01891

Rotational constants in cm-1:     0.315013     0.126712     0.098430
Rotational constants in MHz :  9443.861322  3798.734540  2950.846388

                             ****ORCA TERMINATED NORMALLY****
TOTAL RUN TIME: 0 days 0 hours 0 minutes 35 seconds 298 msec
