                         Program Version 5.0.0 -  RELEASE  -
|  1> !LC-BLYP RIJCOSX def2-TZVPD def2/J TightSCF
|  2> *xyz 0 1
|  3> C          2.23447       -2.98975       -2.39762
|  4> C          2.75680       -2.94555       -3.76503
|  5> C          1.98721       -2.59045       -4.81898
|  6> N          0.74322       -3.01749       -4.91352
|  7> N          2.49964       -1.84860       -5.80324
|  8> H          3.30978       -1.29282       -5.55895
|  9> H          1.80103       -1.30430       -6.28913
| 10> H          3.71612       -2.62880       -3.82953
| 11> H          0.39583       -3.62775       -4.18502
| 12> H          0.03920       -2.45438       -5.37137
| 13> C          2.19120       -1.61950       -1.71549
| 14> H          2.87278       -3.66637       -1.82801
| 15> H          1.24619       -3.44744       -2.40784
| 16> H          1.56387       -0.96046       -2.27853
| 17> H          3.18033       -1.21449       -1.66568
| 18> H          1.79916       -1.72608       -0.72562
| 19> *
| 20>
| 21> %MaxCore 64000
| 22>
| 23> %pal nprocs 4
| 24> end
| 25>
| 26> %scf
| 27>   MaxIter 150
| 28> end
| 29>
| 30>
| 31>                          ****END OF INPUT****

CARTESIAN COORDINATES (ANGSTROEM)
---------------------------------
  C      2.234470   -2.989750   -2.397620
  C      2.756800   -2.945550   -3.765030
  C      1.987210   -2.590450   -4.818980
  N      0.743220   -3.017490   -4.913520
  N      2.499640   -1.848600   -5.803240
  H      3.309780   -1.292820   -5.558950
  H      1.801030   -1.304300   -6.289130
  H      3.716120   -2.628800   -3.829530
  H      0.395830   -3.627750   -4.185020
  H      0.039200   -2.454380   -5.371370
  C      2.191200   -1.619500   -1.715490
  H      2.872780   -3.666370   -1.828010
  H      1.246190   -3.447440   -2.407840
  H      1.563870   -0.960460   -2.278530
  H      3.180330   -1.214490   -1.665680
  H      1.799160   -1.726080   -0.725620

 Total Charge           Charge          ....    0
 Multiplicity           Mult            ....    1
 Number of Electrons    NEL             ....   48
 Basis Dimension        Dim             ....  312

ORBITAL ENERGIES
----------------

  NO   OCC          E(Eh)            E(eV)
   0   2.0000     -14.177174      -385.7805
   1   2.0000     -14.173095      -385.6695
   2   2.0000     -10.120755      -275.3997
   3   2.0000     -10.045930      -273.3636
   4   2.0000     -10.036401      -273.1043
   5   2.0000      -9.995484      -271.9909
   6   2.0000      -1.074646       -29.2426
   7   2.0000      -0.982239       -26.7281
   8   2.0000      -0.884594       -24.0710
   9   2.0000      -0.801431       -21.8080
  10   2.0000      -0.727487       -19.7959
  11   2.0000      -0.687907       -18.7189
  12   2.0000      -0.650053       -17.6888
  13   2.0000      -0.613735       -16.7006
  14   2.0000      -0.571476       -15.5506
  15   2.0000      -0.559496       -15.2246
  16   2.0000      -0.518897       -14.1199
  17   2.0000      -0.500565       -13.6211
  18   2.0000      -0.476129       -12.9561
  19   2.0000      -0.462788       -12.5931
  20   2.0000      -0.427318       -11.6279
  21   2.0000      -0.419023       -11.4022
  22   2.0000      -0.377590       -10.2747
  23   2.0000      -0.255731        -6.9588
  24   0.0000       0.043565         1.1855
  25   0.0000       0.070946         1.9305
  26   0.0000       0.075142         2.0447
  27   0.0000       0.083471         2.2714
  28   0.0000       0.102970         2.8020

MULLIKEN ATOMIC CHARGES
-----------------------
   0 C :   -0.613312
   1 C :   -0.554522
   2 C :    0.355210
   3 N :   -0.385991
   4 N :   -0.518284
   5 H :    0.232323
   6 H :    0.213618
   7 H :    0.346515
   8 H :    0.216983
   9 H :    0.159403
  10 C :   -1.295616
  11 H :    0.322081
  12 H :    0.379289
  13 H :    0.341512
  14 H :    0.381841
  15 H :    0.418951
Sum of atomic charges:   -0.0000000

LOEWDIN ATOMIC CHARGES
----------------------
   0 C :   -0.304963
   1 C :   -0.143488
   2 C :   -0.569000
   3 N :    0.135048
   4 N :    0.121251
   5 H :    0.107135
   6 H :    0.096289
   7 H :    0.063292
   8 H :    0.104283
   9 H :    0.105374
  10 C :   -0.112022
  11 H :    0.104758
  12 H :    0.090739
  13 H :    0.068241
  14 H :    0.069372
  15 H :    0.063691

  Mayer bond orders larger than 0.100000
B(  0-C ,  1-C ) :   0.5018 B(  0-C , 10-C ) :   0.4263 B(  0-C , 11-H ) :   1.0670
B(  0-C , 12-H ) :   0.9130 B(  1-C ,  2-C ) :   1.2883 B(  1-C ,  7-H ) :   1.0831
B(  2-C ,  3-N ) :   0.8624 B(  2-C ,  4-N ) :   0.9677 B(  2-C ,  7-H ) :  -0.2187
B(  3-N ,  8-H ) :   0.9392 B(  3-N ,  9-H ) :   1.0390 B(  4-N ,  5-H ) :   0.9304
B(  4-N ,  6-H ) :   0.9585 B( 10-C , 13-H ) :   0.9562 B( 10-C , 14-H ) :   0.9511
B( 10-C , 15-H ) :   0.9039 B( 11-H , 12-H ) :   0.1372

FINAL SINGLE POINT ENERGY      -267.292504981913

DIPOLE MOMENT
-------------
                                X             Y             Z
Electronic contribution:     -0.32236      -1.37223      -4.95604
Nuclear contribution   :     -0.44240       2.20379       4.66256
                        -----------------------------------------
Total Dipole Moment    :     -0.76475       0.83156      -0.29347
                        -----------------------------------------
Magnitude (a.u.)       :      1.16725
Magnitude (Debye)      :      2.96690

Rotational constants in cm-1:     0.209447     0.075194     0.066975
Rotational constants in MHz :  6279.068019  2254.272519  2007.845458

                             ****ORCA TERMINATED NORMALLY****
TOTAL RUN TIME: 0 days 0 hours 1 minutes 9 seconds 820 msec
