                         Program Version 5.0.0 -  RELEASE  -
|  1> !LC-BLYP RIJCOSX def2-TZVPD def2/J TightSCF
|  2> *xyz 0 1
|  3> C         -1.10433        0.25137       -2.86006
|  4> C         -0.71189        0.84252       -4.21834
|  5> H          0.15463        1.49980       -4.13091
|  6> H         -1.53813        1.45922       -4.58267
|  7> C         -0.39762       -0.20587       -5.28802
|  8> O          0.61717       -0.00535       -5.99827
|  9> F         -1.13317       -1.22138       -5.34147
| 10> H         -1.95489       -0.38644       -2.98099
| 11> H         -1.34603        1.04362       -2.18269
| 12> H         -0.28606       -0.31581       -2.46809
| 13> *
| 14>
| 15> %MaxCore 64000
| 16>
| 17> %pal nprocs 4
| 18> end
| 19>
| 20> %scf
| 21>   MaxIter 150
| 22> end
| 23>
| 24>
| 25>                          ****END OF INPUT****

CARTESIAN COORDINATES (ANGSTROEM)
---------------------------------
  C     -1.104330    0.251370   -2.860060
  C     -0.711890    0.842520   -4.218340
  H      0.154630    1.499800   -4.130910
  H     -1.538130    1.459220   -4.582670
  C     -0.397620   -0.205870   -5.288020
  O      0.617170   -0.005350   -5.998270
  F     -1.133170   -1.221380   -5.341470
  H     -1.954890   -0.386440   -2.980990
  H     -1.346030    1.043620   -2.182690
  H     -0.286060   -0.315810   -2.468090

 Total Charge           Charge          ....    0
 Multiplicity           Mult            ....    1
 Number of Electrons    NEL             ....   40
 Basis Dimension        Dim             ....  236

ORBITAL ENERGIES
----------------

  NO   OCC          E(Eh)            E(eV)
   0   2.0000     -24.527481      -667.4267
   1   2.0000     -18.946424      -515.5584
   2   2.0000     -10.251299      -278.9520
   3   2.0000     -10.102047      -274.8907
   4   2.0000     -10.076599      -274.1982
   5   2.0000      -1.401864       -38.1467
   6   2.0000      -1.127863       -30.6907
   7   2.0000      -0.915061       -24.9001
   8   2.0000      -0.794251       -21.6127
   9   2.0000      -0.751770       -20.4567
  10   2.0000      -0.661073       -17.9887
  11   2.0000      -0.650134       -17.6910
  12   2.0000      -0.603413       -16.4197
  13   2.0000      -0.573267       -15.5994
  14   2.0000      -0.537979       -14.6391
  15   2.0000      -0.505582       -13.7576
  16   2.0000      -0.487644       -13.2695
  17   2.0000      -0.479137       -13.0380
  18   2.0000      -0.451679       -12.2908
  19   2.0000      -0.391330       -10.6486
  20   0.0000       0.041553         1.1307
  21   0.0000       0.054004         1.4695
  22   0.0000       0.070438         1.9167
  23   0.0000       0.076455         2.0804
  24   0.0000       0.090123         2.4524

MULLIKEN ATOMIC CHARGES
-----------------------
   0 C :   -1.284424
   1 C :   -0.434838
   2 H :    0.329666
   3 H :    0.353141
   4 C :    0.476741
   5 O :   -0.448063
   6 F :   -0.170838
   7 H :    0.381131
   8 H :    0.392294
   9 H :    0.405190
Sum of atomic charges:    0.0000000

LOEWDIN ATOMIC CHARGES
----------------------
   0 C :   -0.105314
   1 C :   -0.166526
   2 H :    0.122711
   3 H :    0.125925
   4 C :   -0.520130
   5 O :    0.090908
   6 F :    0.226816
   7 H :    0.072099
   8 H :    0.074107
   9 H :    0.079404

  Mayer bond orders larger than 0.100000
B(  0-C ,  1-C ) :   0.4553 B(  0-C ,  7-H ) :   0.9220 B(  0-C ,  8-H ) :   0.9108
B(  0-C ,  9-H ) :   0.9005 B(  1-C ,  2-H ) :   0.9528 B(  1-C ,  3-H ) :   0.9091
B(  1-C ,  4-C ) :   0.8975 B(  4-C ,  5-O ) :   1.7781 B(  4-C ,  6-F ) :   1.0549

FINAL SINGLE POINT ENERGY      -291.904664450754

DIPOLE MOMENT
-------------
                                X             Y             Z
Electronic contribution:      0.66952      -4.35426      -6.57042
Nuclear contribution   :     -1.45527       4.68977       7.53208
                        -----------------------------------------
Total Dipole Moment    :     -0.78575       0.33551       0.96166
                        -----------------------------------------
Magnitude (a.u.)       :      1.28637
Magnitude (Debye)      :      3.26970

Rotational constants in cm-1:     0.298240     0.132464     0.099915
Rotational constants in MHz :  8940.998095  3971.171647  2995.369122

                             ****ORCA TERMINATED NORMALLY****
TOTAL RUN TIME: 0 days 0 hours 0 minutes 44 seconds 167 msec
