                         Program Version 5.0.0 -  RELEASE  -
|  1> !LC-BLYP RIJCOSX def2-TZVPD def2/J TightSCF
|  2> *xyz 0 1
|  3> C          2.23447       -2.98975       -2.39762
|  4> N          2.75680       -2.94555       -3.76503
|  5> C          1.98721       -2.59045       -4.81898
|  6> C          0.74322       -3.01749       -4.91352
|  7> N          2.49964       -1.84860       -5.80324
|  8> H          3.30978       -1.29282       -5.55895
|  9> H          1.80103       -1.30430       -6.28913
| 10> H          3.71612       -2.62880       -3.82953
| 11> H          0.39583       -3.62775       -4.18502
| 12> H          0.03920       -2.45438       -5.37137
| 13> C          2.19120       -1.61950       -1.71549
| 14> H          2.87278       -3.66637       -1.82801
| 15> H          1.24619       -3.44744       -2.40784
| 16> H          1.56387       -0.96046       -2.27853
| 17> H          3.18033       -1.21449       -1.66568
| 18> H          1.79916       -1.72608       -0.72562
| 19> *
| 20>
| 21> %MaxCore 64000
| 22>
| 23> %pal nprocs 4
| 24> end
| 25>
| 26> %scf
| 27>   MaxIter 150
| 28> end
| 29>
| 30>
| 31>                          ****END OF INPUT****

CARTESIAN COORDINATES (ANGSTROEM)
---------------------------------
  C      2.234470   -2.989750   -2.397620
  N      2.756800   -2.945550   -3.765030
  C      1.987210   -2.590450   -4.818980
  C      0.743220   -3.017490   -4.913520
  N      2.499640   -1.848600   -5.803240
  H      3.309780   -1.292820   -5.558950
  H      1.801030   -1.304300   -6.289130
  H      3.716120   -2.628800   -3.829530
  H      0.395830   -3.627750   -4.185020
  H      0.039200   -2.454380   -5.371370
  C      2.191200   -1.619500   -1.715490
  H      2.872780   -3.666370   -1.828010
  H      1.246190   -3.447440   -2.407840
  H      1.563870   -0.960460   -2.278530
  H      3.180330   -1.214490   -1.665680
  H      1.799160   -1.726080   -0.725620

 Total Charge           Charge          ....    0
 Multiplicity           Mult            ....    1
 Number of Electrons    NEL             ....   48
 Basis Dimension        Dim             ....  312

ORBITAL ENERGIES
----------------

  NO   OCC          E(Eh)            E(eV)
   0   2.0000     -14.173233      -385.6733
   1   2.0000     -14.171360      -385.6223
   2   2.0000     -10.117878      -275.3215
   3   2.0000     -10.101396      -274.8730
   4   2.0000     -10.056862      -273.6611
   5   2.0000      -9.986979      -271.7595
   6   2.0000      -1.071508       -29.1572
   7   2.0000      -0.991944       -26.9922
   8   2.0000      -0.865459       -23.5503
   9   2.0000      -0.823661       -22.4130
  10   2.0000      -0.749830       -20.4039
  11   2.0000      -0.668943       -18.2029
  12   2.0000      -0.650959       -17.7135
  13   2.0000      -0.617789       -16.8109
  14   2.0000      -0.568015       -15.4565
  15   2.0000      -0.551996       -15.0206
  16   2.0000      -0.522308       -14.2127
  17   2.0000      -0.499851       -13.6016
  18   2.0000      -0.496600       -13.5132
  19   2.0000      -0.471309       -12.8250
  20   2.0000      -0.462816       -12.5939
  21   2.0000      -0.446654       -12.1541
  22   2.0000      -0.352631        -9.5956
  23   2.0000      -0.273318        -7.4373
  24   0.0000       0.046680         1.2702
  25   0.0000       0.069003         1.8777
  26   0.0000       0.076692         2.0869
  27   0.0000       0.078475         2.1354
  28   0.0000       0.104499         2.8436

MULLIKEN ATOMIC CHARGES
-----------------------
   0 C :   -0.565438
   1 N :   -0.327597
   2 C :    0.385327
   3 C :   -0.893872
   4 N :   -0.492373
   5 H :    0.216383
   6 H :    0.210936
   7 H :    0.176594
   8 H :    0.421283
   9 H :    0.224899
  10 C :   -1.271993
  11 H :    0.407371
  12 H :    0.358571
  13 H :    0.346127
  14 H :    0.361225
  15 H :    0.442554
Sum of atomic charges:   -0.0000000

LOEWDIN ATOMIC CHARGES
----------------------
   0 C :   -0.255521
   1 N :    0.017109
   2 C :   -0.579514
   3 C :    0.004410
   4 N :    0.118510
   5 H :    0.095228
   6 H :    0.104933
   7 H :    0.128176
   8 H :    0.012801
   9 H :    0.022020
  10 C :   -0.094602
  11 H :    0.115149
  12 H :    0.104487
  13 H :    0.070692
  14 H :    0.066521
  15 H :    0.069601

  Mayer bond orders larger than 0.100000
B(  0-C ,  1-N ) :   0.6865 B(  0-C , 10-C ) :   0.4549 B(  0-C , 11-H ) :   0.8633
B(  0-C , 12-H ) :   0.9243 B(  1-N ,  2-C ) :   0.9239 B(  1-N ,  7-H ) :   1.0052
B(  2-C ,  3-C ) :   1.4538 B(  2-C ,  4-N ) :   0.8337 B(  2-C ,  9-H ) :  -0.1057
B(  3-C ,  8-H ) :   0.8407 B(  3-C ,  9-H ) :   1.1530 B(  4-N ,  5-H ) :   0.9637
B(  4-N ,  6-H ) :   0.9520 B( 10-C , 13-H ) :   0.9564 B( 10-C , 14-H ) :   0.9417
B( 10-C , 15-H ) :   0.8759

FINAL SINGLE POINT ENERGY      -267.288271568535

DIPOLE MOMENT
-------------
                                X             Y             Z
Electronic contribution:      1.48416      -1.24482      -3.82131
Nuclear contribution   :     -0.86957       2.18853       4.41892
                        -----------------------------------------
Total Dipole Moment    :      0.61459       0.94370       0.59761
                        -----------------------------------------
Magnitude (a.u.)       :      1.27493
Magnitude (Debye)      :      3.24061

Rotational constants in cm-1:     0.214718     0.075736     0.068547
Rotational constants in MHz :  6437.075121  2270.519635  2054.974198

                             ****ORCA TERMINATED NORMALLY****
TOTAL RUN TIME: 0 days 0 hours 1 minutes 16 seconds 166 msec
