                         Program Version 5.0.0 -  RELEASE  -
|  1> !LC-BLYP RIJCOSX def2-TZVPD def2/J TightSCF
|  2> *xyz 0 1
|  3> C          2.23447       -2.98975       -2.39762
|  4> N          2.75680       -2.94555       -3.76503
|  5> C          1.98721       -2.59045       -4.81898
|  6> N          0.74322       -3.01749       -4.91352
|  7> C          2.49964       -1.84860       -5.80324
|  8> H          3.30978       -1.29282       -5.55895
|  9> H          1.80103       -1.30430       -6.28913
| 10> H          3.71612       -2.62880       -3.82953
| 11> H          0.39583       -3.62775       -4.18502
| 12> H          0.03920       -2.45438       -5.37137
| 13> C          2.19120       -1.61950       -1.71549
| 14> H          2.87278       -3.66637       -1.82801
| 15> H          1.24619       -3.44744       -2.40784
| 16> H          1.56387       -0.96046       -2.27853
| 17> H          3.18033       -1.21449       -1.66568
| 18> H          1.79916       -1.72608       -0.72562
| 19> *
| 20>
| 21> %MaxCore 64000
| 22>
| 23> %pal nprocs 4
| 24> end
| 25>
| 26> %scf
| 27>   MaxIter 150
| 28> end
| 29>
| 30>
| 31>                          ****END OF INPUT****

CARTESIAN COORDINATES (ANGSTROEM)
---------------------------------
  C      2.234470   -2.989750   -2.397620
  N      2.756800   -2.945550   -3.765030
  C      1.987210   -2.590450   -4.818980
  N      0.743220   -3.017490   -4.913520
  C      2.499640   -1.848600   -5.803240
  H      3.309780   -1.292820   -5.558950
  H      1.801030   -1.304300   -6.289130
  H      3.716120   -2.628800   -3.829530
  H      0.395830   -3.627750   -4.185020
  H      0.039200   -2.454380   -5.371370
  C      2.191200   -1.619500   -1.715490
  H      2.872780   -3.666370   -1.828010
  H      1.246190   -3.447440   -2.407840
  H      1.563870   -0.960460   -2.278530
  H      3.180330   -1.214490   -1.665680
  H      1.799160   -1.726080   -0.725620

 Total Charge           Charge          ....    0
 Multiplicity           Mult            ....    1
 Number of Electrons    NEL             ....   48
 Basis Dimension        Dim             ....  312

ORBITAL ENERGIES
----------------

  NO   OCC          E(Eh)            E(eV)
   0   2.0000     -14.174219      -385.7001
   1   2.0000     -14.172245      -385.6464
   2   2.0000     -10.121674      -275.4248
   3   2.0000     -10.109855      -275.1031
   4   2.0000     -10.060845      -273.7695
   5   2.0000      -9.982043      -271.6252
   6   2.0000      -1.073673       -29.2161
   7   2.0000      -0.991720       -26.9861
   8   2.0000      -0.878238       -23.8981
   9   2.0000      -0.816923       -22.2296
  10   2.0000      -0.739042       -20.1104
  11   2.0000      -0.708726       -19.2854
  12   2.0000      -0.646729       -17.5984
  13   2.0000      -0.597986       -16.2720
  14   2.0000      -0.594862       -16.1870
  15   2.0000      -0.542403       -14.7595
  16   2.0000      -0.533778       -14.5248
  17   2.0000      -0.506378       -13.7792
  18   2.0000      -0.478385       -13.0175
  19   2.0000      -0.470801       -12.8111
  20   2.0000      -0.465859       -12.6767
  21   2.0000      -0.455067       -12.3830
  22   2.0000      -0.355463        -9.6726
  23   2.0000      -0.267829        -7.2880
  24   0.0000       0.045248         1.2313
  25   0.0000       0.067628         1.8403
  26   0.0000       0.073811         2.0085
  27   0.0000       0.079768         2.1706
  28   0.0000       0.107772         2.9326

MULLIKEN ATOMIC CHARGES
-----------------------
   0 C :   -0.659258
   1 N :   -0.298594
   2 C :    0.414523
   3 N :   -0.376677
   4 C :   -0.888646
   5 H :    0.264515
   6 H :    0.282914
   7 H :    0.197315
   8 H :    0.217579
   9 H :    0.185106
  10 C :   -1.223559
  11 H :    0.406176
  12 H :    0.342368
  13 H :    0.343906
  14 H :    0.359660
  15 H :    0.432671
Sum of atomic charges:    0.0000000

LOEWDIN ATOMIC CHARGES
----------------------
   0 C :   -0.259492
   1 N :    0.020084
   2 C :   -0.581511
   3 N :    0.132622
   4 C :   -0.013223
   5 H :    0.010265
   6 H :    0.011378
   7 H :    0.135529
   8 H :    0.094421
   9 H :    0.116474
  10 C :   -0.092771
  11 H :    0.114540
  12 H :    0.100034
  13 H :    0.071968
  14 H :    0.070617
  15 H :    0.069064

  Mayer bond orders larger than 0.100000
B(  0-C ,  1-N ) :   0.7548 B(  0-C ,  2-C ) :  -0.1206 B(  0-C , 10-C ) :   0.5107
B(  0-C , 11-H ) :   0.8819 B(  0-C , 12-H ) :   0.9294 B(  1-N ,  2-C ) :   1.0081
B(  1-N ,  7-H ) :   0.9409 B(  2-C ,  3-N ) :   0.8874 B(  2-C ,  4-C ) :   1.2220
B(  2-C ,  5-H ) :  -0.1323 B(  3-N ,  8-H ) :   0.9482 B(  3-N ,  9-H ) :   0.9932
B(  4-C ,  5-H ) :   1.1331 B(  4-C ,  6-H ) :   1.0571 B( 10-C , 13-H ) :   0.9465
B( 10-C , 14-H ) :   0.9372 B( 10-C , 15-H ) :   0.9010

FINAL SINGLE POINT ENERGY      -267.282634706636

DIPOLE MOMENT
-------------
                                X             Y             Z
Electronic contribution:     -0.12431      -2.37802      -2.93821
Nuclear contribution   :     -0.49695       2.43650       4.23017
                        -----------------------------------------
Total Dipole Moment    :     -0.62126       0.05848       1.29196
                        -----------------------------------------
Magnitude (a.u.)       :      1.43477
Magnitude (Debye)      :      3.64689

Rotational constants in cm-1:     0.211102     0.077011     0.069221
Rotational constants in MHz :  6328.667765  2308.731604  2075.192956

                             ****ORCA TERMINATED NORMALLY****
TOTAL RUN TIME: 0 days 0 hours 1 minutes 9 seconds 406 msec
