                         Program Version 5.0.0 -  RELEASE  -
|  1> !LC-BLYP RIJCOSX def2-TZVPD def2/J TightSCF xyzfile
|  2>
|  3> *xyzfile 0 1 D1.xyz
|  4>
|  5> %MaxCore 64000
|  6>
|  7> %pal nprocs 4
|  8> end
|  9>
| 10> %scf
| 11>   MaxIter 150
| 12> end
| 13>
| 14>
| 15>                          ****END OF INPUT****

CARTESIAN COORDINATES (ANGSTROEM)
---------------------------------
  C      2.234473   -2.989754   -2.397622
  C      2.756799   -2.945553   -3.765029
  C     -1.104325    0.251374   -2.860056
  C     -0.711893    0.842517   -4.218344
  H      0.154626    1.499800   -4.130909
  H     -1.538134    1.459222   -4.582671
  C     -0.397624   -0.205875   -5.288018
  C      1.987208   -2.590451   -4.818975
  N      0.743221   -3.017493   -4.913524
  N      2.499636   -1.848598   -5.803241
  H      3.309780   -1.292818   -5.558947
  H      1.801025   -1.304298   -6.289129
  H      3.716116   -2.628797   -3.829533
  H      0.395828   -3.627747   -4.185024
  H      0.039201   -2.454383   -5.371367
  F      0.617165   -0.005348   -5.998273
  O     -1.133173   -1.221380   -5.341465
  C      2.191199   -1.619503   -1.715492
  H      2.872783   -3.666368   -1.828014
  H      1.246188   -3.447444   -2.407842
  C      1.298729   -0.554314   -2.359773
  H      1.872917   -1.787955   -0.681310
  H      3.216809   -1.238432   -1.654428
  C     -0.196255   -0.863365   -2.325763
  H      1.612531   -0.371346   -3.393065
  H      1.480944    0.388638   -1.834444
  H     -0.404105   -1.761825   -2.909448
  H     -0.490439   -1.087880   -1.294131
  H     -1.143842    1.066711   -2.129680
  H     -2.114401   -0.156834   -2.930323

 Total Charge           Charge          ....    0
 Multiplicity           Mult            ....    1
 Number of Electrons    NEL             ....  102
 Basis Dimension        Dim             ....  640

ORBITAL ENERGIES
----------------

  NO   OCC          E(Eh)            E(eV)
   0   2.0000     -24.561411      -668.3500
   1   2.0000     -18.979066      -516.4466
   2   2.0000     -14.158523      -385.2730
   3   2.0000     -14.148628      -385.0037
   4   2.0000     -10.281583      -279.7761
   5   2.0000     -10.115556      -275.2583
   6   2.0000     -10.108742      -275.0728
   7   2.0000     -10.088849      -274.5315
   8   2.0000     -10.068049      -273.9655
   9   2.0000     -10.064461      -273.8679
  10   2.0000     -10.051725      -273.5213
  11   2.0000     -10.040783      -273.2236
  12   2.0000      -9.983571      -271.6668
  13   2.0000      -1.438591       -39.1461
  14   2.0000      -1.166475       -31.7414
  15   2.0000      -1.060464       -28.8567
  16   2.0000      -0.967033       -26.3143
  17   2.0000      -0.943331       -25.6693
  18   2.0000      -0.901766       -24.5383
  19   2.0000      -0.864296       -23.5187
  20   2.0000      -0.819048       -22.2874
  21   2.0000      -0.797950       -21.7133
  22   2.0000      -0.762188       -20.7402
  23   2.0000      -0.724169       -19.7057
  24   2.0000      -0.701271       -19.0826
  25   2.0000      -0.690028       -18.7766
  26   2.0000      -0.677252       -18.4290
  27   2.0000      -0.658336       -17.9142
  28   2.0000      -0.650398       -17.6982
  29   2.0000      -0.624210       -16.9856
  30   2.0000      -0.600073       -16.3288
  31   2.0000      -0.591447       -16.0941
  32   2.0000      -0.583001       -15.8643
  33   2.0000      -0.559952       -15.2371
  34   2.0000      -0.549631       -14.9562
  35   2.0000      -0.543642       -14.7933
  36   2.0000      -0.527591       -14.3565
  37   2.0000      -0.514555       -14.0017
  38   2.0000      -0.498421       -13.5627
  39   2.0000      -0.490836       -13.3563
  40   2.0000      -0.479906       -13.0589
  41   2.0000      -0.472766       -12.8646
  42   2.0000      -0.458733       -12.4828
  43   2.0000      -0.446871       -12.1600
  44   2.0000      -0.436973       -11.8907
  45   2.0000      -0.426732       -11.6120
  46   2.0000      -0.415010       -11.2930
  47   2.0000      -0.409109       -11.1324
  48   2.0000      -0.401878       -10.9357
  49   2.0000      -0.358115        -9.7448
  50   2.0000      -0.244117        -6.6428
  51   0.0000       0.019090         0.5195
  52   0.0000       0.037403         1.0178
  53   0.0000       0.054981         1.4961
  54   0.0000       0.058975         1.6048
  55   0.0000       0.065896         1.7931

MULLIKEN ATOMIC CHARGES
-----------------------
   0 C :   -0.777326
   1 C :   -0.601844
   2 C :   -0.913864
   3 C :   -0.667242
   4 H :    0.432383
   5 H :    0.432441
   6 C :    0.552793
   7 C :    0.041184
   8 N :   -0.443782
   9 N :   -0.609390
  10 H :    0.214897
  11 H :    0.358565
  12 H :    0.412547
  13 H :    0.224400
  14 H :    0.297833
  15 F :   -0.274849
  16 O :   -0.538542
  17 C :   -0.825155
  18 H :    0.335692
  19 H :    0.471127
  20 C :   -0.716822
  21 H :    0.400588
  22 H :    0.422478
  23 C :   -0.619589
  24 H :    0.374948
  25 H :    0.395681
  26 H :    0.353631
  27 H :    0.427527
  28 H :    0.426953
  29 H :    0.412735
Sum of atomic charges:    0.0000000

LOEWDIN ATOMIC CHARGES
----------------------
   0 C :   -0.252133
   1 C :   -0.134328
   2 C :   -0.201329
   3 C :   -0.108922
   4 H :    0.122788
   5 H :    0.134838
   6 C :   -0.477824
   7 C :   -0.561969
   8 N :    0.155887
   9 N :    0.133244
  10 H :    0.111591
  11 H :    0.066919
  12 H :    0.063611
  13 H :    0.111603
  14 H :    0.042254
  15 F :    0.213093
  16 O :    0.093493
  17 C :   -0.208685
  18 H :    0.108728
  19 H :    0.096387
  20 C :   -0.213921
  21 H :    0.113021
  22 H :    0.116849
  23 C :   -0.215087
  24 H :    0.103084
  25 H :    0.121912
  26 H :    0.096253
  27 H :    0.126430
  28 H :    0.122529
  29 H :    0.119685

  Mayer bond orders larger than 0.100000
B(  0-C ,  1-C ) :   0.4959 B(  0-C , 17-C ) :   0.5260 B(  0-C , 18-H ) :   1.1220
B(  0-C , 19-H ) :   0.8013 B(  0-C , 23-C ) :   0.1135 B(  1-C ,  7-C ) :   1.1820
B(  1-C , 12-H ) :   1.1519 B(  1-C , 17-C ) :  -0.1393 B(  2-C ,  3-C ) :   0.6208
B(  2-C , 23-C ) :   0.6451 B(  2-C , 28-H ) :   0.9101 B(  2-C , 29-H ) :   0.9134
B(  3-C ,  4-H ) :   0.9185 B(  3-C ,  5-H ) :   0.8685 B(  3-C ,  6-C ) :   0.8025
B(  3-C , 23-C ) :  -0.1240 B(  6-C , 15-F ) :   0.8245 B(  6-C , 16-O ) :   1.6220
B(  7-C ,  8-N ) :   0.8933 B(  7-C ,  9-N ) :   0.7875 B(  7-C , 12-H ) :  -0.2065
B(  8-N , 13-H ) :   0.8971 B(  8-N , 14-H ) :   0.7173 B(  9-N , 10-H ) :   0.9409
B(  9-N , 11-H ) :   0.6806 B( 17-C , 20-C ) :   0.7089 B( 17-C , 21-H ) :   0.9022
B( 17-C , 22-H ) :   0.9164 B( 20-C , 23-C ) :   0.1059 B( 20-C , 24-H ) :   1.0784
B( 20-C , 25-H ) :   0.8990 B( 20-C , 26-H ) :  -0.1595 B( 23-C , 24-H ) :  -0.1765
B( 23-C , 26-H ) :   1.1544 B( 23-C , 27-H ) :   0.8275

FINAL SINGLE POINT ENERGY      -636.433704424752

DIPOLE MOMENT
-------------
                                X             Y             Z
Electronic contribution:     -3.11906       2.27709     -14.48187
Nuclear contribution   :      2.31842      -0.27661      14.74721
                        -----------------------------------------
Total Dipole Moment    :     -0.80063       2.00048       0.26533
                        -----------------------------------------
Magnitude (a.u.)       :      2.17102
Magnitude (Debye)      :      5.51830

Rotational constants in cm-1:     0.032691     0.023990     0.017099
Rotational constants in MHz :   980.050971   719.190545   512.606858

                             ****ORCA TERMINATED NORMALLY****
TOTAL RUN TIME: 0 days 0 hours 7 minutes 23 seconds 130 msec
