                         Program Version 5.0.0 -  RELEASE  -
|  1> !LC-BLYP RIJCOSX def2-TZVPD def2/J TightSCF xyzfile
|  2>
|  3> *xyzfile 0 1 D2.xyz
|  4>
|  5> %MaxCore 64000
|  6>
|  7> %pal nprocs 4
|  8> end
|  9>
| 10> %scf
| 11>   MaxIter 150
| 12> end
| 13>
| 14>
| 15>                          ****END OF INPUT****

CARTESIAN COORDINATES (ANGSTROEM)
---------------------------------
  C      2.234473   -2.989754   -2.397622
  N      2.756799   -2.945553   -3.765029
  C     -1.104325    0.251374   -2.860056
  C     -0.711893    0.842517   -4.218344
  H      0.154626    1.499800   -4.130909
  H     -1.538134    1.459222   -4.582671
  C     -0.397624   -0.205875   -5.288018
  C      1.987208   -2.590451   -4.818975
  C      0.743221   -3.017493   -4.913524
  N      2.499636   -1.848598   -5.803241
  H      3.309780   -1.292818   -5.558947
  H      1.801025   -1.304298   -6.289129
  H      3.716116   -2.628797   -3.829533
  H      0.395828   -3.627747   -4.185024
  H      0.039201   -2.454383   -5.371367
  F      0.617165   -0.005348   -5.998273
  O     -1.133173   -1.221380   -5.341465
  C      2.191199   -1.619503   -1.715492
  H      2.872783   -3.666368   -1.828014
  H      1.246188   -3.447444   -2.407842
  C      1.298729   -0.554314   -2.359773
  H      1.872917   -1.787955   -0.681310
  H      3.216809   -1.238432   -1.654428
  C     -0.196255   -0.863365   -2.325763
  H      1.612531   -0.371346   -3.393065
  H      1.480944    0.388638   -1.834444
  H     -0.404105   -1.761825   -2.909448
  H     -0.490439   -1.087880   -1.294131
  H     -1.143842    1.066711   -2.129680
  H     -2.114401   -0.156834   -2.930323

 Total Charge           Charge          ....    0
 Multiplicity           Mult            ....    1
 Number of Electrons    NEL             ....  102
 Basis Dimension        Dim             ....  640

ORBITAL ENERGIES
----------------

  NO   OCC          E(Eh)            E(eV)
   0   2.0000     -24.544303      -667.8844
   1   2.0000     -18.954129      -515.7681
   2   2.0000     -14.163819      -385.4171
   3   2.0000     -14.156154      -385.2085
   4   2.0000     -10.260038      -279.1898
   5   2.0000     -10.104919      -274.9688
   6   2.0000     -10.103023      -274.9172
   7   2.0000     -10.096309      -274.7345
   8   2.0000     -10.082405      -274.3562
   9   2.0000     -10.070930      -274.0439
  10   2.0000     -10.070206      -274.0242
  11   2.0000     -10.064167      -273.8599
  12   2.0000      -9.964486      -271.1474
  13   2.0000      -1.421276       -38.6749
  14   2.0000      -1.141844       -31.0711
  15   2.0000      -1.061574       -28.8869
  16   2.0000      -0.984141       -26.7798
  17   2.0000      -0.935536       -25.4572
  18   2.0000      -0.896112       -24.3844
  19   2.0000      -0.844650       -22.9841
  20   2.0000      -0.817006       -22.2319
  21   2.0000      -0.800274       -21.7766
  22   2.0000      -0.770982       -20.9795
  23   2.0000      -0.728995       -19.8370
  24   2.0000      -0.698062       -18.9952
  25   2.0000      -0.677807       -18.4441
  26   2.0000      -0.655129       -17.8270
  27   2.0000      -0.650782       -17.7087
  28   2.0000      -0.638977       -17.3874
  29   2.0000      -0.630710       -17.1625
  30   2.0000      -0.601180       -16.3590
  31   2.0000      -0.591002       -16.0820
  32   2.0000      -0.577370       -15.7110
  33   2.0000      -0.554481       -15.0882
  34   2.0000      -0.549093       -14.9416
  35   2.0000      -0.529256       -14.4018
  36   2.0000      -0.519789       -14.1442
  37   2.0000      -0.512477       -13.9452
  38   2.0000      -0.500744       -13.6259
  39   2.0000      -0.486365       -13.2347
  40   2.0000      -0.477470       -12.9926
  41   2.0000      -0.466483       -12.6937
  42   2.0000      -0.464016       -12.6265
  43   2.0000      -0.454608       -12.3705
  44   2.0000      -0.446498       -12.1498
  45   2.0000      -0.428999       -11.6737
  46   2.0000      -0.420418       -11.4401
  47   2.0000      -0.416427       -11.3316
  48   2.0000      -0.385285       -10.4841
  49   2.0000      -0.342451        -9.3186
  50   2.0000      -0.258572        -7.0361
  51   0.0000       0.035919         0.9774
  52   0.0000       0.040556         1.1036
  53   0.0000       0.054766         1.4902
  54   0.0000       0.058278         1.5858
  55   0.0000       0.066397         1.8068

MULLIKEN ATOMIC CHARGES
-----------------------
   0 C :   -0.893439
   1 N :   -0.286036
   2 C :   -0.912888
   3 C :   -0.708909
   4 H :    0.432492
   5 H :    0.440794
   6 C :    0.550966
   7 C :    0.067588
   8 C :   -1.554976
   9 N :   -0.537728
  10 H :    0.208064
  11 H :    0.293259
  12 H :    0.174366
  13 H :    0.681651
  14 H :    0.846412
  15 F :   -0.293476
  16 O :   -0.480579
  17 C :   -0.779906
  18 H :    0.422180
  19 H :    0.372574
  20 C :   -0.649109
  21 H :    0.429544
  22 H :    0.397604
  23 C :   -0.616313
  24 H :    0.334233
  25 H :    0.424990
  26 H :    0.367661
  27 H :    0.428165
  28 H :    0.420625
  29 H :    0.420192
Sum of atomic charges:    0.0000000

LOEWDIN ATOMIC CHARGES
----------------------
   0 C :   -0.203582
   1 N :    0.033630
   2 C :   -0.200701
   3 C :   -0.111089
   4 H :    0.120061
   5 H :    0.132882
   6 C :   -0.484986
   7 C :   -0.569489
   8 C :    0.010710
   9 N :    0.126750
  10 H :    0.099260
  11 H :    0.073914
  12 H :    0.128994
  13 H :    0.034143
  14 H :   -0.016011
  15 F :    0.209990
  16 O :    0.089276
  17 C :   -0.196417
  18 H :    0.119252
  19 H :    0.109450
  20 C :   -0.213864
  21 H :    0.117130
  22 H :    0.113437
  23 C :   -0.213145
  24 H :    0.102729
  25 H :    0.122388
  26 H :    0.099135
  27 H :    0.125292
  28 H :    0.120518
  29 H :    0.120344

  Mayer bond orders larger than 0.100000
B(  0-C ,  1-N ) :   0.7244 B(  0-C , 17-C ) :   0.5463 B(  0-C , 18-H ) :   0.9004
B(  0-C , 19-H ) :   0.9705 B(  0-C , 23-C ) :   0.1001 B(  1-N ,  7-C ) :   0.8394
B(  1-N , 12-H ) :   0.9666 B(  2-C ,  3-C ) :   0.6189 B(  2-C , 23-C ) :   0.6358
B(  2-C , 28-H ) :   0.9209 B(  2-C , 29-H ) :   0.8913 B(  3-C ,  4-H ) :   0.9168
B(  3-C ,  5-H ) :   0.8675 B(  3-C ,  6-C ) :   0.8023 B(  3-C , 23-C ) :  -0.1299
B(  6-C , 15-F ) :   0.7786 B(  6-C , 16-O ) :   1.7667 B(  7-C ,  8-C ) :   1.7114
B(  7-C ,  9-N ) :   0.6834 B(  7-C , 14-H ) :  -0.2833 B(  8-C , 13-H ) :   0.7032
B(  8-C , 14-H ) :   0.4095 B(  9-N , 10-H ) :   0.9387 B(  9-N , 11-H ) :   0.7767
B( 13-H , 14-H ) :   0.2446 B( 14-H , 16-O ) :  -0.1400 B( 17-C , 20-C ) :   0.6534
B( 17-C , 21-H ) :   0.9185 B( 17-C , 22-H ) :   0.9290 B( 20-C , 23-C ) :   0.1532
B( 20-C , 24-H ) :   1.0593 B( 20-C , 25-H ) :   0.8668 B( 20-C , 26-H ) :  -0.1561
B( 23-C , 24-H ) :  -0.1389 B( 23-C , 26-H ) :   1.1282 B( 23-C , 27-H ) :   0.8313

FINAL SINGLE POINT ENERGY      -636.414534413250

DIPOLE MOMENT
-------------
                                X             Y             Z
Electronic contribution:     -1.51655       2.19507     -13.50657
Nuclear contribution   :      2.00823      -0.28769      14.57028
                        -----------------------------------------
Total Dipole Moment    :      0.49168       1.90738       1.06370
                        -----------------------------------------
Magnitude (a.u.)       :      2.23860
Magnitude (Debye)      :      5.69007

Rotational constants in cm-1:     0.033070     0.023715     0.016943
Rotational constants in MHz :   991.423248   710.957140   507.940500

                             ****ORCA TERMINATED NORMALLY****
TOTAL RUN TIME: 0 days 0 hours 6 minutes 48 seconds 922 msec
