                         Program Version 5.0.0 -  RELEASE  -
|  1> !LC-BLYP RIJCOSX def2-TZVPD def2/J TightSCF xyzfile
|  2>
|  3> *xyzfile 0 1 D3.xyz
|  4>
|  5> %MaxCore 64000
|  6>
|  7> %pal nprocs 4
|  8> end
|  9>
| 10> %scf
| 11>   MaxIter 150
| 12> end
| 13>
| 14>
| 15>                          ****END OF INPUT****

CARTESIAN COORDINATES (ANGSTROEM)
---------------------------------
  C      2.234473   -2.989754   -2.397622
  N      2.756799   -2.945553   -3.765029
  C     -1.104325    0.251374   -2.860056
  C     -0.711893    0.842517   -4.218344
  H      0.154626    1.499800   -4.130909
  H     -1.538134    1.459222   -4.582671
  C     -0.397624   -0.205875   -5.288018
  C      1.987208   -2.590451   -4.818975
  N      0.743221   -3.017493   -4.913524
  C      2.499636   -1.848598   -5.803241
  H      3.309780   -1.292818   -5.558947
  H      1.801025   -1.304298   -6.289129
  H      3.716116   -2.628797   -3.829533
  H      0.395828   -3.627747   -4.185024
  H      0.039201   -2.454383   -5.371367
  F      0.617165   -0.005348   -5.998273
  O     -1.133173   -1.221380   -5.341465
  C      2.191199   -1.619503   -1.715492
  H      2.872783   -3.666368   -1.828014
  H      1.246188   -3.447444   -2.407842
  C      1.298729   -0.554314   -2.359773
  H      1.872917   -1.787955   -0.681310
  H      3.216809   -1.238432   -1.654428
  C     -0.196255   -0.863365   -2.325763
  H      1.612531   -0.371346   -3.393065
  H      1.480944    0.388638   -1.834444
  H     -0.404105   -1.761825   -2.909448
  H     -0.490439   -1.087880   -1.294131
  H     -1.143842    1.066711   -2.129680
  H     -2.114401   -0.156834   -2.930323

 Total Charge           Charge          ....    0
 Multiplicity           Mult            ....    1
 Number of Electrons    NEL             ....  102
 Basis Dimension        Dim             ....  640

ORBITAL ENERGIES
----------------

  NO   OCC          E(Eh)            E(eV)
   0   2.0000     -24.537714      -667.7051
   1   2.0000     -18.967518      -516.1324
   2   2.0000     -14.163778      -385.4160
   3   2.0000     -14.146013      -384.9326
   4   2.0000     -10.270447      -279.4731
   5   2.0000     -10.109954      -275.1058
   6   2.0000     -10.109102      -275.0827
   7   2.0000     -10.103901      -274.9411
   8   2.0000     -10.088984      -274.5352
   9   2.0000     -10.073666      -274.1184
  10   2.0000     -10.073442      -274.1123
  11   2.0000     -10.073146      -274.1042
  12   2.0000      -9.967783      -271.2372
  13   2.0000      -1.416037       -38.5323
  14   2.0000      -1.155402       -31.4401
  15   2.0000      -1.061397       -28.8821
  16   2.0000      -0.978908       -26.6374
  17   2.0000      -0.941929       -25.6312
  18   2.0000      -0.901846       -24.5405
  19   2.0000      -0.855227       -23.2719
  20   2.0000      -0.819852       -22.3093
  21   2.0000      -0.796860       -21.6837
  22   2.0000      -0.761261       -20.7150
  23   2.0000      -0.728022       -19.8105
  24   2.0000      -0.705428       -19.1957
  25   2.0000      -0.689354       -18.7583
  26   2.0000      -0.669960       -18.2305
  27   2.0000      -0.647954       -17.6317
  28   2.0000      -0.638908       -17.3856
  29   2.0000      -0.632160       -17.2019
  30   2.0000      -0.603188       -16.4136
  31   2.0000      -0.588586       -16.0162
  32   2.0000      -0.580113       -15.7857
  33   2.0000      -0.567504       -15.4426
  34   2.0000      -0.554476       -15.0881
  35   2.0000      -0.540245       -14.7008
  36   2.0000      -0.518782       -14.1168
  37   2.0000      -0.513256       -13.9664
  38   2.0000      -0.494467       -13.4551
  39   2.0000      -0.485187       -13.2026
  40   2.0000      -0.480019       -13.0620
  41   2.0000      -0.470194       -12.7946
  42   2.0000      -0.464434       -12.6379
  43   2.0000      -0.460955       -12.5432
  44   2.0000      -0.445647       -12.1267
  45   2.0000      -0.433361       -11.7924
  46   2.0000      -0.431719       -11.7477
  47   2.0000      -0.423133       -11.5140
  48   2.0000      -0.409988       -11.1563
  49   2.0000      -0.340088        -9.2543
  50   2.0000      -0.255598        -6.9552
  51   0.0000       0.028764         0.7827
  52   0.0000       0.043301         1.1783
  53   0.0000       0.052506         1.4288
  54   0.0000       0.055591         1.5127
  55   0.0000       0.063387         1.7248

MULLIKEN ATOMIC CHARGES
-----------------------
   0 C :   -1.012376
   1 N :   -0.278920
   2 C :   -0.886068
   3 C :   -0.706186
   4 H :    0.431721
   5 H :    0.437585
   6 C :    0.541513
   7 C :    0.104801
   8 N :   -0.446655
   9 C :   -0.980113
  10 H :    0.330593
  11 H :    0.527389
  12 H :    0.211936
  13 H :    0.232228
  14 H :    0.306632
  15 F :   -0.237727
  16 O :   -0.556891
  17 C :   -0.700162
  18 H :    0.405861
  19 H :    0.377471
  20 C :   -0.738230
  21 H :    0.419293
  22 H :    0.403454
  23 C :   -0.593948
  24 H :    0.397068
  25 H :    0.418608
  26 H :    0.333914
  27 H :    0.419396
  28 H :    0.422328
  29 H :    0.415488
Sum of atomic charges:   -0.0000000

LOEWDIN ATOMIC CHARGES
----------------------
   0 C :   -0.207569
   1 N :    0.038637
   2 C :   -0.201088
   3 C :   -0.107256
   4 H :    0.123466
   5 H :    0.134516
   6 C :   -0.476702
   7 C :   -0.573524
   8 N :    0.151480
   9 C :   -0.011028
  10 H :    0.019802
  11 H :   -0.006362
  12 H :    0.136305
  13 H :    0.103156
  14 H :    0.049409
  15 F :    0.211714
  16 O :    0.089196
  17 C :   -0.195895
  18 H :    0.118572
  19 H :    0.105722
  20 C :   -0.211104
  21 H :    0.116259
  22 H :    0.116609
  23 C :   -0.217143
  24 H :    0.106702
  25 H :    0.123759
  26 H :    0.095434
  27 H :    0.125043
  28 H :    0.122006
  29 H :    0.119886

  Mayer bond orders larger than 0.100000
B(  0-C ,  1-N ) :   0.7719 B(  0-C ,  7-C ) :  -0.1602 B(  0-C ,  8-N ) :   0.1196
B(  0-C , 17-C ) :   0.4750 B(  0-C , 18-H ) :   0.9516 B(  0-C , 19-H ) :   0.9803
B(  1-N ,  7-C ) :   0.9247 B(  1-N , 12-H ) :   0.9025 B(  2-C ,  3-C ) :   0.6218
B(  2-C , 23-C ) :   0.6314 B(  2-C , 28-H ) :   0.9168 B(  2-C , 29-H ) :   0.9016
B(  3-C ,  4-H ) :   0.9166 B(  3-C ,  5-H ) :   0.8628 B(  3-C ,  6-C ) :   0.8023
B(  3-C , 23-C ) :  -0.1166 B(  6-C , 15-F ) :   0.8763 B(  6-C , 16-O ) :   1.6092
B(  7-C ,  8-N ) :   0.7998 B(  7-C ,  9-C ) :   1.4479 B(  7-C , 10-H ) :  -0.1820
B(  7-C , 11-H ) :  -0.1104 B(  8-N , 13-H ) :   0.8709 B(  8-N , 14-H ) :   0.7369
B(  9-C , 10-H ) :   1.2353 B(  9-C , 11-H ) :   0.7217 B( 17-C , 20-C ) :   0.6619
B( 17-C , 21-H ) :   0.9495 B( 17-C , 22-H ) :   0.9216 B( 20-C , 23-C ) :   0.1157
B( 20-C , 24-H ) :   1.0451 B( 20-C , 25-H ) :   0.8599 B( 20-C , 26-H ) :  -0.1648
B( 23-C , 24-H ) :  -0.1448 B( 23-C , 26-H ) :   1.1551 B( 23-C , 27-H ) :   0.8495

FINAL SINGLE POINT ENERGY      -636.419948970403

DIPOLE MOMENT
-------------
                                X             Y             Z
Electronic contribution:     -2.87654       1.37900     -12.70296
Nuclear contribution   :      2.27881      -0.10762      14.43322
                        -----------------------------------------
Total Dipole Moment    :     -0.59773       1.27138       1.73025
                        -----------------------------------------
Magnitude (a.u.)       :      2.22878
Magnitude (Debye)      :      5.66511

Rotational constants in cm-1:     0.033336     0.023673     0.017062
Rotational constants in MHz :   999.388459   709.685364   511.514310

                             ****ORCA TERMINATED NORMALLY****
TOTAL RUN TIME: 0 days 0 hours 6 minutes 47 seconds 891 msec
