                         Program Version 5.0.0 -  RELEASE  -
|  1> !LC-BLYP RIJCOSX def2-TZVPD def2/J TightSCF xyzfile
|  2>
|  3> *xyzfile 0 1 D4.xyz
|  4>
|  5> %MaxCore 64000
|  6>
|  7> %pal nprocs 4
|  8> end
|  9>
| 10> %scf
| 11>   MaxIter 150
| 12> end
| 13>
| 14>
| 15>                          ****END OF INPUT****

CARTESIAN COORDINATES (ANGSTROEM)
---------------------------------
  C      2.234473   -2.989754   -2.397622
  C      2.756799   -2.945553   -3.765029
  C     -1.104325    0.251374   -2.860056
  C     -0.711893    0.842517   -4.218344
  H      0.154626    1.499800   -4.130909
  H     -1.538134    1.459222   -4.582671
  C     -0.397624   -0.205875   -5.288018
  C      1.987208   -2.590451   -4.818975
  N      0.743221   -3.017493   -4.913524
  N      2.499636   -1.848598   -5.803241
  H      3.309780   -1.292818   -5.558947
  H      1.801025   -1.304298   -6.289129
  H      3.716116   -2.628797   -3.829533
  H      0.395828   -3.627747   -4.185024
  H      0.039201   -2.454383   -5.371367
  O      0.617165   -0.005348   -5.998273
  F     -1.133173   -1.221380   -5.341465
  C      2.191199   -1.619503   -1.715492
  H      2.872783   -3.666368   -1.828014
  H      1.246188   -3.447444   -2.407842
  C      1.298729   -0.554314   -2.359773
  H      1.872917   -1.787955   -0.681310
  H      3.216809   -1.238432   -1.654428
  C     -0.196255   -0.863365   -2.325763
  H      1.612531   -0.371346   -3.393065
  H      1.480944    0.388638   -1.834444
  H     -0.404105   -1.761825   -2.909448
  H     -0.490439   -1.087880   -1.294131
  H     -1.143842    1.066711   -2.129680
  H     -2.114401   -0.156834   -2.930323

 Total Charge           Charge          ....    0
 Multiplicity           Mult            ....    1
 Number of Electrons    NEL             ....  102
 Basis Dimension        Dim             ....  640

ORBITAL ENERGIES
----------------

  NO   OCC          E(Eh)            E(eV)
   0   2.0000     -24.561884      -668.3628
   1   2.0000     -18.978819      -516.4399
   2   2.0000     -14.160970      -385.3396
   3   2.0000     -14.143230      -384.8568
   4   2.0000     -10.280700      -279.7521
   5   2.0000     -10.114396      -275.2267
   6   2.0000     -10.107189      -275.0306
   7   2.0000     -10.092648      -274.6349
   8   2.0000     -10.073700      -274.1193
   9   2.0000     -10.062824      -273.8234
  10   2.0000     -10.051186      -273.5067
  11   2.0000     -10.041003      -273.2296
  12   2.0000      -9.982132      -271.6276
  13   2.0000      -1.439934       -39.1826
  14   2.0000      -1.164163       -31.6785
  15   2.0000      -1.058537       -28.8042
  16   2.0000      -0.964714       -26.2512
  17   2.0000      -0.947188       -25.7743
  18   2.0000      -0.901998       -24.5446
  19   2.0000      -0.863462       -23.4960
  20   2.0000      -0.814946       -22.1758
  21   2.0000      -0.797895       -21.7118
  22   2.0000      -0.765934       -20.8421
  23   2.0000      -0.725698       -19.7472
  24   2.0000      -0.707940       -19.2640
  25   2.0000      -0.690557       -18.7910
  26   2.0000      -0.679720       -18.4961
  27   2.0000      -0.669932       -18.2298
  28   2.0000      -0.633851       -17.2480
  29   2.0000      -0.623458       -16.9652
  30   2.0000      -0.594987       -16.1904
  31   2.0000      -0.593237       -16.1428
  32   2.0000      -0.582717       -15.8565
  33   2.0000      -0.553758       -15.0685
  34   2.0000      -0.546574       -14.8730
  35   2.0000      -0.542989       -14.7755
  36   2.0000      -0.535681       -14.5766
  37   2.0000      -0.508519       -13.8375
  38   2.0000      -0.502904       -13.6847
  39   2.0000      -0.498322       -13.5600
  40   2.0000      -0.486705       -13.2439
  41   2.0000      -0.467020       -12.7083
  42   2.0000      -0.462778       -12.5928
  43   2.0000      -0.445934       -12.1345
  44   2.0000      -0.437919       -11.9164
  45   2.0000      -0.425077       -11.5669
  46   2.0000      -0.415947       -11.3185
  47   2.0000      -0.405733       -11.0406
  48   2.0000      -0.402791       -10.9605
  49   2.0000      -0.357332        -9.7235
  50   2.0000      -0.242615        -6.6019
  51   0.0000       0.021978         0.5980
  52   0.0000       0.037003         1.0069
  53   0.0000       0.053592         1.4583
  54   0.0000       0.058964         1.6045
  55   0.0000       0.065340         1.7780

MULLIKEN ATOMIC CHARGES
-----------------------
   0 C :   -0.777141
   1 C :   -0.566129
   2 C :   -0.942435
   3 C :   -0.618996
   4 H :    0.389979
   5 H :    0.442882
   6 C :    0.549819
   7 C :   -0.043616
   8 N :   -0.469876
   9 N :   -0.586514
  10 H :    0.206835
  11 H :    0.389907
  12 H :    0.408994
  13 H :    0.231855
  14 H :    0.335289
  15 O :   -0.559499
  16 F :   -0.277381
  17 C :   -0.819642
  18 H :    0.330880
  19 H :    0.468868
  20 C :   -0.716550
  21 H :    0.401409
  22 H :    0.422585
  23 C :   -0.593011
  24 H :    0.411183
  25 H :    0.398688
  26 H :    0.319143
  27 H :    0.424723
  28 H :    0.419257
  29 H :    0.418497
Sum of atomic charges:   -0.0000000

LOEWDIN ATOMIC CHARGES
----------------------
   0 C :   -0.253674
   1 C :   -0.133507
   2 C :   -0.207530
   3 C :   -0.104393
   4 H :    0.130284
   5 H :    0.133427
   6 C :   -0.479824
   7 C :   -0.560318
   8 N :    0.156907
   9 N :    0.132767
  10 H :    0.112157
  11 H :    0.048351
  12 H :    0.064859
  13 H :    0.110516
  14 H :    0.063977
  15 O :    0.088674
  16 F :    0.213732
  17 C :   -0.208837
  18 H :    0.108472
  19 H :    0.094796
  20 C :   -0.211890
  21 H :    0.112255
  22 H :    0.117629
  23 C :   -0.217621
  24 H :    0.106400
  25 H :    0.122802
  26 H :    0.094372
  27 H :    0.126077
  28 H :    0.122695
  29 H :    0.116446

  Mayer bond orders larger than 0.100000
B(  0-C ,  1-C ) :   0.5029 B(  0-C , 17-C ) :   0.5205 B(  0-C , 18-H ) :   1.1269
B(  0-C , 19-H ) :   0.7985 B(  0-C , 23-C ) :   0.1087 B(  1-C ,  7-C ) :   1.1805
B(  1-C , 12-H ) :   1.1451 B(  1-C , 17-C ) :  -0.1421 B(  2-C ,  3-C ) :   0.5523
B(  2-C , 23-C ) :   0.5650 B(  2-C , 28-H ) :   0.9199 B(  2-C , 29-H ) :   0.9407
B(  3-C ,  4-H ) :   0.9679 B(  3-C ,  5-H ) :   0.8726 B(  3-C ,  6-C ) :   0.8006
B(  3-C , 23-C ) :  -0.1559 B(  6-C , 15-O ) :   1.5607 B(  6-C , 16-F ) :   0.8564
B(  7-C ,  8-N ) :   0.9358 B(  7-C ,  9-N ) :   0.8341 B(  7-C , 12-H ) :  -0.1946
B(  7-C , 20-C ) :   0.1004 B(  8-N , 13-H ) :   0.8938 B(  8-N , 14-H ) :   0.6780
B(  9-N , 10-H ) :   0.9402 B(  9-N , 11-H ) :   0.6616 B( 17-C , 20-C ) :   0.6916
B( 17-C , 21-H ) :   0.9049 B( 17-C , 22-H ) :   0.9153 B( 20-C , 23-C ) :   0.1288
B( 20-C , 24-H ) :   1.0669 B( 20-C , 25-H ) :   0.8888 B( 20-C , 26-H ) :  -0.1606
B( 23-C , 24-H ) :  -0.1619 B( 23-C , 26-H ) :   1.1661 B( 23-C , 27-H ) :   0.8406

FINAL SINGLE POINT ENERGY      -636.433640902099

DIPOLE MOMENT
-------------
                                X             Y             Z
Electronic contribution:     -6.04356       0.26192     -13.37501
Nuclear contribution   :      4.38568       1.15960      13.97148
                        -----------------------------------------
Total Dipole Moment    :     -1.65788       1.42152       0.59647
                        -----------------------------------------
Magnitude (a.u.)       :      2.26386
Magnitude (Debye)      :      5.75428

Rotational constants in cm-1:     0.032892     0.023844     0.017123
Rotational constants in MHz :   986.091711   714.821905   513.334630

                             ****ORCA TERMINATED NORMALLY****
TOTAL RUN TIME: 0 days 0 hours 6 minutes 52 seconds 373 msec
