                         Program Version 5.0.0 -  RELEASE  -
|  1> !LC-BLYP RIJCOSX def2-TZVPD def2/J TightSCF xyzfile
|  2>
|  3> *xyzfile 0 1 D5.xyz
|  4>
|  5> %MaxCore 64000
|  6>
|  7> %pal nprocs 4
|  8> end
|  9>
| 10> %scf
| 11>   MaxIter 150
| 12> end
| 13>
| 14>
| 15>                          ****END OF INPUT****

CARTESIAN COORDINATES (ANGSTROEM)
---------------------------------
  C      2.234473   -2.989754   -2.397622
  N      2.756799   -2.945553   -3.765029
  C     -1.104325    0.251374   -2.860056
  C     -0.711893    0.842517   -4.218344
  H      0.154626    1.499800   -4.130909
  H     -1.538134    1.459222   -4.582671
  C     -0.397624   -0.205875   -5.288018
  C      1.987208   -2.590451   -4.818975
  C      0.743221   -3.017493   -4.913524
  N      2.499636   -1.848598   -5.803241
  H      3.309780   -1.292818   -5.558947
  H      1.801025   -1.304298   -6.289129
  H      3.716116   -2.628797   -3.829533
  H      0.395828   -3.627747   -4.185024
  H      0.039201   -2.454383   -5.371367
  O      0.617165   -0.005348   -5.998273
  F     -1.133173   -1.221380   -5.341465
  C      2.191199   -1.619503   -1.715492
  H      2.872783   -3.666368   -1.828014
  H      1.246188   -3.447444   -2.407842
  C      1.298729   -0.554314   -2.359773
  H      1.872917   -1.787955   -0.681310
  H      3.216809   -1.238432   -1.654428
  C     -0.196255   -0.863365   -2.325763
  H      1.612531   -0.371346   -3.393065
  H      1.480944    0.388638   -1.834444
  H     -0.404105   -1.761825   -2.909448
  H     -0.490439   -1.087880   -1.294131
  H     -1.143842    1.066711   -2.129680
  H     -2.114401   -0.156834   -2.930323

 Total Charge           Charge          ....    0
 Multiplicity           Mult            ....    1
 Number of Electrons    NEL             ....  102
 Basis Dimension        Dim             ....  640

ORBITAL ENERGIES
----------------

  NO   OCC          E(Eh)            E(eV)
   0   2.0000     -24.533944      -667.6026
   1   2.0000     -18.961566      -515.9704
   2   2.0000     -14.164015      -385.4225
   3   2.0000     -14.143107      -384.8535
   4   2.0000     -10.264526      -279.3119
   5   2.0000     -10.104991      -274.9708
   6   2.0000     -10.104870      -274.9675
   7   2.0000     -10.097105      -274.7562
   8   2.0000     -10.086810      -274.4760
   9   2.0000     -10.070227      -274.0248
  10   2.0000     -10.069593      -274.0075
  11   2.0000     -10.069404      -274.0024
  12   2.0000      -9.971147      -271.3287
  13   2.0000      -1.413189       -38.4548
  14   2.0000      -1.147184       -31.2165
  15   2.0000      -1.057837       -28.7852
  16   2.0000      -0.977843       -26.6085
  17   2.0000      -0.939799       -25.5732
  18   2.0000      -0.896411       -24.3926
  19   2.0000      -0.844853       -22.9896
  20   2.0000      -0.814305       -22.1584
  21   2.0000      -0.796878       -21.6842
  22   2.0000      -0.770093       -20.9553
  23   2.0000      -0.729251       -19.8439
  24   2.0000      -0.696899       -18.9636
  25   2.0000      -0.681568       -18.5464
  26   2.0000      -0.661385       -17.9972
  27   2.0000      -0.649363       -17.6701
  28   2.0000      -0.634963       -17.2782
  29   2.0000      -0.623295       -16.9607
  30   2.0000      -0.594836       -16.1863
  31   2.0000      -0.589189       -16.0326
  32   2.0000      -0.581171       -15.8145
  33   2.0000      -0.556241       -15.1361
  34   2.0000      -0.548771       -14.9328
  35   2.0000      -0.525762       -14.3067
  36   2.0000      -0.518166       -14.1000
  37   2.0000      -0.514855       -14.0099
  38   2.0000      -0.495580       -13.4854
  39   2.0000      -0.493647       -13.4328
  40   2.0000      -0.479270       -13.0416
  41   2.0000      -0.472231       -12.8500
  42   2.0000      -0.459244       -12.4967
  43   2.0000      -0.457439       -12.4476
  44   2.0000      -0.444171       -12.0865
  45   2.0000      -0.428679       -11.6650
  46   2.0000      -0.428216       -11.6523
  47   2.0000      -0.417834       -11.3698
  48   2.0000      -0.401663       -10.9298
  49   2.0000      -0.336942        -9.1686
  50   2.0000      -0.261138        -7.1059
  51   0.0000       0.035603         0.9688
  52   0.0000       0.044055         1.1988
  53   0.0000       0.054643         1.4869
  54   0.0000       0.057418         1.5624
  55   0.0000       0.066799         1.8177

MULLIKEN ATOMIC CHARGES
-----------------------
   0 C :   -0.895221
   1 N :   -0.278211
   2 C :   -0.939900
   3 C :   -0.662288
   4 H :    0.393698
   5 H :    0.449955
   6 C :    0.566073
   7 C :    0.052096
   8 C :   -1.462194
   9 N :   -0.522141
  10 H :    0.203675
  11 H :    0.317660
  12 H :    0.176587
  13 H :    0.704186
  14 H :    0.702341
  15 O :   -0.577268
  16 F :   -0.224334
  17 C :   -0.769088
  18 H :    0.422071
  19 H :    0.363674
  20 C :   -0.660246
  21 H :    0.429673
  22 H :    0.397010
  23 C :   -0.581203
  24 H :    0.369693
  25 H :    0.426648
  26 H :    0.335079
  27 H :    0.425598
  28 H :    0.413248
  29 H :    0.423128
Sum of atomic charges:   -0.0000000

LOEWDIN ATOMIC CHARGES
----------------------
   0 C :   -0.204100
   1 N :    0.036818
   2 C :   -0.206036
   3 C :   -0.104871
   4 H :    0.128073
   5 H :    0.132317
   6 C :   -0.481302
   7 C :   -0.565230
   8 C :    0.005604
   9 N :    0.130465
  10 H :    0.101095
  11 H :    0.055792
  12 H :    0.130707
  13 H :    0.029704
  14 H :   -0.000931
  15 O :    0.081900
  16 F :    0.206328
  17 C :   -0.196219
  18 H :    0.119199
  19 H :    0.108441
  20 C :   -0.211969
  21 H :    0.116591
  22 H :    0.114221
  23 C :   -0.216054
  24 H :    0.105734
  25 H :    0.123248
  26 H :    0.097238
  27 H :    0.124897
  28 H :    0.120869
  29 H :    0.117471

  Mayer bond orders larger than 0.100000
B(  0-C ,  1-N ) :   0.7281 B(  0-C , 17-C ) :   0.5442 B(  0-C , 18-H ) :   0.9013
B(  0-C , 19-H ) :   0.9746 B(  1-N ,  7-C ) :   0.8558 B(  1-N , 12-H ) :   0.9601
B(  2-C ,  3-C ) :   0.5477 B(  2-C , 23-C ) :   0.5665 B(  2-C , 28-H ) :   0.9312
B(  2-C , 29-H ) :   0.9212 B(  3-C ,  4-H ) :   0.9678 B(  3-C ,  5-H ) :   0.8681
B(  3-C ,  6-C ) :   0.8055 B(  3-C , 23-C ) :  -0.1626 B(  6-C , 15-O ) :   1.5176
B(  6-C , 16-F ) :   0.9499 B(  7-C ,  8-C ) :   1.6988 B(  7-C ,  9-N ) :   0.7507
B(  7-C , 13-H ) :  -0.1152 B(  7-C , 14-H ) :  -0.2118 B(  8-C , 13-H ) :   0.6589
B(  8-C , 14-H ) :   0.5029 B(  9-N , 10-H ) :   0.9346 B(  9-N , 11-H ) :   0.7555
B( 13-H , 14-H ) :   0.2115 B( 17-C , 20-C ) :   0.6413 B( 17-C , 21-H ) :   0.9196
B( 17-C , 22-H ) :   0.9288 B( 20-C , 23-C ) :   0.1680 B( 20-C , 24-H ) :   1.0404
B( 20-C , 25-H ) :   0.8607 B( 20-C , 26-H ) :  -0.1605 B( 23-C , 24-H ) :  -0.1284
B( 23-C , 26-H ) :   1.1448 B( 23-C , 27-H ) :   0.8389

FINAL SINGLE POINT ENERGY      -636.424804555311

DIPOLE MOMENT
-------------
                                X             Y             Z
Electronic contribution:     -4.39665       0.22929     -12.37177
Nuclear contribution   :      4.07548       1.14852      13.79455
                        -----------------------------------------
Total Dipole Moment    :     -0.32117       1.37781       1.42278
                        -----------------------------------------
Magnitude (a.u.)       :      2.00645
Magnitude (Debye)      :      5.09998

Rotational constants in cm-1:     0.033274     0.023559     0.016968
Rotational constants in MHz :   997.539108   706.293545   508.690532

                             ****ORCA TERMINATED NORMALLY****
TOTAL RUN TIME: 0 days 0 hours 7 minutes 23 seconds 631 msec
