                         Program Version 5.0.0 -  RELEASE  -
|  1> !LC-BLYP RIJCOSX def2-TZVPD def2/J TightSCF xyzfile
|  2>
|  3> *xyzfile 0 1 D6.xyz
|  4>
|  5> %MaxCore 64000
|  6>
|  7> %pal nprocs 4
|  8> end
|  9>
| 10> %scf
| 11>   MaxIter 150
| 12> end
| 13>
| 14>
| 15>                          ****END OF INPUT****

CARTESIAN COORDINATES (ANGSTROEM)
---------------------------------
  C      2.234473   -2.989754   -2.397622
  N      2.756799   -2.945553   -3.765029
  C     -1.104325    0.251374   -2.860056
  C     -0.711893    0.842517   -4.218344
  H      0.154626    1.499800   -4.130909
  H     -1.538134    1.459222   -4.582671
  C     -0.397624   -0.205875   -5.288018
  C      1.987208   -2.590451   -4.818975
  N      0.743221   -3.017493   -4.913524
  C      2.499636   -1.848598   -5.803241
  H      3.309780   -1.292818   -5.558947
  H      1.801025   -1.304298   -6.289129
  H      3.716116   -2.628797   -3.829533
  H      0.395828   -3.627747   -4.185024
  H      0.039201   -2.454383   -5.371367
  O      0.617165   -0.005348   -5.998273
  F     -1.133173   -1.221380   -5.341465
  C      2.191199   -1.619503   -1.715492
  H      2.872783   -3.666368   -1.828014
  H      1.246188   -3.447444   -2.407842
  C      1.298729   -0.554314   -2.359773
  H      1.872917   -1.787955   -0.681310
  H      3.216809   -1.238432   -1.654428
  C     -0.196255   -0.863365   -2.325763
  H      1.612531   -0.371346   -3.393065
  H      1.480944    0.388638   -1.834444
  H     -0.404105   -1.761825   -2.909448
  H     -0.490439   -1.087880   -1.294131
  H     -1.143842    1.066711   -2.129680
  H     -2.114401   -0.156834   -2.930323

 Total Charge           Charge          ....    0
 Multiplicity           Mult            ....    1
 Number of Electrons    NEL             ....  102
 Basis Dimension        Dim             ....  640

ORBITAL ENERGIES
----------------

  NO   OCC          E(Eh)            E(eV)
   0   2.0000     -24.548018      -667.9855
   1   2.0000     -18.958126      -515.8768
   2   2.0000     -14.161467      -385.3531
   3   2.0000     -14.157788      -385.2530
   4   2.0000     -10.261530      -279.2304
   5   2.0000     -10.106482      -275.0114
   6   2.0000     -10.104490      -274.9572
   7   2.0000     -10.103408      -274.9277
   8   2.0000     -10.091001      -274.5901
   9   2.0000     -10.078089      -274.2387
  10   2.0000     -10.072637      -274.0904
  11   2.0000     -10.071258      -274.0529
  12   2.0000      -9.958430      -270.9827
  13   2.0000      -1.426401       -38.8143
  14   2.0000      -1.143212       -31.1084
  15   2.0000      -1.062602       -28.9149
  16   2.0000      -0.982868       -26.7452
  17   2.0000      -0.944477       -25.7005
  18   2.0000      -0.901289       -24.5253
  19   2.0000      -0.852681       -23.2026
  20   2.0000      -0.819169       -22.2907
  21   2.0000      -0.790937       -21.5225
  22   2.0000      -0.771813       -21.0021
  23   2.0000      -0.727561       -19.7979
  24   2.0000      -0.714271       -19.4363
  25   2.0000      -0.691680       -18.8216
  26   2.0000      -0.674316       -18.3491
  27   2.0000      -0.665699       -18.1146
  28   2.0000      -0.636331       -17.3155
  29   2.0000      -0.615777       -16.7562
  30   2.0000      -0.602315       -16.3898
  31   2.0000      -0.589265       -16.0347
  32   2.0000      -0.575632       -15.6637
  33   2.0000      -0.565498       -15.3880
  34   2.0000      -0.551192       -14.9987
  35   2.0000      -0.542583       -14.7644
  36   2.0000      -0.518727       -14.1153
  37   2.0000      -0.513166       -13.9640
  38   2.0000      -0.494417       -13.4538
  39   2.0000      -0.486444       -13.2368
  40   2.0000      -0.482784       -13.1372
  41   2.0000      -0.472548       -12.8587
  42   2.0000      -0.468873       -12.7587
  43   2.0000      -0.461515       -12.5585
  44   2.0000      -0.438920       -11.9436
  45   2.0000      -0.432520       -11.7695
  46   2.0000      -0.430824       -11.7233
  47   2.0000      -0.422823       -11.5056
  48   2.0000      -0.386473       -10.5165
  49   2.0000      -0.343786        -9.3549
  50   2.0000      -0.250259        -6.8099
  51   0.0000       0.034403         0.9361
  52   0.0000       0.041977         1.1423
  53   0.0000       0.052925         1.4402
  54   0.0000       0.053932         1.4676
  55   0.0000       0.062878         1.7110

MULLIKEN ATOMIC CHARGES
-----------------------
   0 C :   -1.009777
   1 N :   -0.278845
   2 C :   -0.921776
   3 C :   -0.643747
   4 H :    0.389725
   5 H :    0.440507
   6 C :    0.495913
   7 C :    0.021885
   8 N :   -0.465886
   9 C :   -0.963087
  10 H :    0.310939
  11 H :    0.606993
  12 H :    0.216727
  13 H :    0.247378
  14 H :    0.331887
  15 O :   -0.493744
  16 F :   -0.290870
  17 C :   -0.699074
  18 H :    0.403927
  19 H :    0.372286
  20 C :   -0.730693
  21 H :    0.418703
  22 H :    0.404274
  23 C :   -0.565760
  24 H :    0.418320
  25 H :    0.428132
  26 H :    0.300641
  27 H :    0.418209
  28 H :    0.414768
  29 H :    0.422044
Sum of atomic charges:    0.0000000

LOEWDIN ATOMIC CHARGES
----------------------
   0 C :   -0.209434
   1 N :    0.036679
   2 C :   -0.208045
   3 C :   -0.105047
   4 H :    0.130041
   5 H :    0.132032
   6 C :   -0.485877
   7 C :   -0.573328
   8 N :    0.152090
   9 C :   -0.006305
  10 H :    0.024385
  11 H :   -0.018560
  12 H :    0.136744
  13 H :    0.101851
  14 H :    0.071512
  15 O :    0.091391
  16 F :    0.208436
  17 C :   -0.196256
  18 H :    0.118216
  19 H :    0.104185
  20 C :   -0.208887
  21 H :    0.115495
  22 H :    0.117230
  23 C :   -0.219749
  24 H :    0.110102
  25 H :    0.124686
  26 H :    0.093593
  27 H :    0.124569
  28 H :    0.121765
  29 H :    0.116486

  Mayer bond orders larger than 0.100000
B(  0-C ,  1-N ) :   0.7748 B(  0-C ,  7-C ) :  -0.1640 B(  0-C ,  8-N ) :   0.1125
B(  0-C , 17-C ) :   0.4724 B(  0-C , 18-H ) :   0.9572 B(  0-C , 19-H ) :   0.9802
B(  1-N ,  7-C ) :   0.9153 B(  1-N , 12-H ) :   0.8958 B(  1-N , 17-C ) :  -0.1012
B(  2-C ,  3-C ) :   0.5572 B(  2-C , 23-C ) :   0.5577 B(  2-C , 28-H ) :   0.9248
B(  2-C , 29-H ) :   0.9289 B(  3-C ,  4-H ) :   0.9616 B(  3-C ,  5-H ) :   0.8782
B(  3-C ,  6-C ) :   0.8029 B(  3-C , 23-C ) :  -0.1524 B(  6-C , 15-O ) :   1.6600
B(  6-C , 16-F ) :   0.8297 B(  7-C ,  8-N ) :   0.8240 B(  7-C ,  9-C ) :   1.5023
B(  7-C , 10-H ) :  -0.1685 B(  7-C , 11-H ) :  -0.1304 B(  8-N , 13-H ) :   0.8603
B(  8-N , 14-H ) :   0.7072 B(  9-C , 10-H ) :   1.2411 B(  9-C , 11-H ) :   0.6774
B( 11-H , 15-O ) :  -0.1456 B( 17-C , 20-C ) :   0.6568 B( 17-C , 21-H ) :   0.9520
B( 17-C , 22-H ) :   0.9207 B( 20-C , 23-C ) :   0.1366 B( 20-C , 24-H ) :   1.0369
B( 20-C , 25-H ) :   0.8430 B( 20-C , 26-H ) :  -0.1677 B( 23-C , 24-H ) :  -0.1337
B( 23-C , 26-H ) :   1.1693 B( 23-C , 27-H ) :   0.8602

FINAL SINGLE POINT ENERGY      -636.409463499999

DIPOLE MOMENT
-------------
                                X             Y             Z
Electronic contribution:     -5.72823      -0.65623     -11.66803
Nuclear contribution   :      4.34606       1.32859      13.65749
                        -----------------------------------------
Total Dipole Moment    :     -1.38216       0.67236       1.98945
                        -----------------------------------------
Magnitude (a.u.)       :      2.51403
Magnitude (Debye)      :      6.39016

Rotational constants in cm-1:     0.033551     0.023540     0.017085
Rotational constants in MHz :  1005.818710   705.725032   512.192443

                             ****ORCA TERMINATED NORMALLY****
TOTAL RUN TIME: 0 days 0 hours 6 minutes 43 seconds 764 msec
