                         Program Version 5.0.0 -  RELEASE  -
|  1> !wB97X-D3 RIJCOSX def2-SVP def2/J TightSCF
|  2> *xyz -1 1
|  3> C          1.72854        1.42432       -5.63944
|  4> S          2.25263       -0.18811       -6.27184
|  5> O          3.56261       -0.44446       -5.63155
|  6> O          2.34494       -0.03374       -7.69650
|  7> O          1.26606       -1.15918       -5.80536
|  8> H          0.77944        1.68154       -6.06127
|  9> H          2.45151        2.16548       -5.90944
| 10> H          1.64478        1.37937       -4.57367
| 11> *
| 12>
| 13> %MaxCore 64000
| 14>
| 15> %pal nprocs 8
| 16> end
| 17>
| 18> %scf
| 19>   MaxIter 150
| 20> end
| 21>
| 22>
| 23>                          ****END OF INPUT****

CARTESIAN COORDINATES (ANGSTROEM)
---------------------------------
  C      1.728540    1.424320   -5.639440
  S      2.252630   -0.188110   -6.271840
  O      3.562610   -0.444460   -5.631550
  O      2.344940   -0.033740   -7.696500
  O      1.266060   -1.159180   -5.805360
  H      0.779440    1.681540   -6.061270
  H      2.451510    2.165480   -5.909440
  H      1.644780    1.379370   -4.573670

 Total Charge           Charge          ....   -1
 Multiplicity           Mult            ....    1
 Number of Electrons    NEL             ....   50
 Basis Dimension        Dim             ....   89

ORBITAL ENERGIES
----------------

  NO   OCC          E(Eh)            E(eV)
   0   2.0000     -88.936781     -2420.0929
   1   2.0000     -18.988263      -516.6969
   2   2.0000     -18.980580      -516.4878
   3   2.0000     -18.971097      -516.2298
   4   2.0000     -10.127418      -275.5810
   5   2.0000      -8.016934      -218.1519
   6   2.0000      -5.976073      -162.6172
   7   2.0000      -5.975759      -162.6087
   8   2.0000      -5.975670      -162.6063
   9   2.0000      -1.015122       -27.6229
  10   2.0000      -0.871156       -23.7053
  11   2.0000      -0.846727       -23.0406
  12   2.0000      -0.679784       -18.4979
  13   2.0000      -0.470455       -12.8017
  14   2.0000      -0.378699       -10.3049
  15   2.0000      -0.375196       -10.2096
  16   2.0000      -0.374095       -10.1797
  17   2.0000      -0.321515        -8.7489
  18   2.0000      -0.319962        -8.7066
  19   2.0000      -0.216144        -5.8816
  20   2.0000      -0.214599        -5.8395
  21   2.0000      -0.179385        -4.8813
  22   2.0000      -0.174776        -4.7559
  23   2.0000      -0.163113        -4.4385
  24   2.0000      -0.124599        -3.3905
  25   0.0000       0.310857         8.4588
  26   0.0000       0.360989         9.8230
  27   0.0000       0.362940         9.8761
  28   0.0000       0.394637        10.7386
  29   0.0000       0.474081        12.9004

MULLIKEN ATOMIC CHARGES
-----------------------
   0 C :   -0.079087
   1 S :    0.865334
   2 O :   -0.632524
   3 O :   -0.584065
   4 O :   -0.608372
   5 H :    0.009487
   6 H :    0.014176
   7 H :    0.015050
Sum of atomic charges:   -1.0000000

LOEWDIN ATOMIC CHARGES
----------------------
   0 C :   -0.213169
   1 S :    1.104132
   2 O :   -0.662772
   3 O :   -0.613460
   4 O :   -0.638620
   5 H :    0.005936
   6 H :    0.008757
   7 H :    0.009195

  Mayer bond orders larger than 0.100000
B(  0-C ,  1-S ) :   0.9016 B(  0-C ,  5-H ) :   0.9645 B(  0-C ,  6-H ) :   0.9662
B(  0-C ,  7-H ) :   0.9672 B(  1-S ,  2-O ) :   1.5941 B(  1-S ,  3-O ) :   1.6436
B(  1-S ,  4-O ) :   1.6182

Dispersion correction           -0.001522137
FINAL SINGLE POINT ENERGY      -663.357276524219

DIPOLE MOMENT
-------------
                                X             Y             Z
Electronic contribution:      1.20707      -3.89150      -1.63647
Nuclear contribution   :     -1.71379       5.17769       1.98321
                        -----------------------------------------
Total Dipole Moment    :     -0.50672       1.28619       0.34673
                        -----------------------------------------
Magnitude (a.u.)       :      1.42523
Magnitude (Debye)      :      3.62265

Rotational constants in cm-1:     0.172739     0.155771     0.153412
Rotational constants in MHz :  5178.588083  4669.889924  4599.189984

                             ****ORCA TERMINATED NORMALLY****
TOTAL RUN TIME: 0 days 0 hours 0 minutes 6 seconds 217 msec
