                         Program Version 5.0.0 -  RELEASE  -
|  1> !wB97X-D3 RIJCOSX def2-SVP def2/J TightSCF
|  2> *xyz 1 1
|  3> C          2.91632       -1.24259       -1.54313
|  4> C          3.46659       -1.59097       -2.88908
|  5> N          4.65227       -1.14316       -3.25969
|  6> N          2.75226       -2.29204       -3.72803
|  7> H          1.77836       -2.48960       -3.51274
|  8> H          2.94861       -2.20854       -4.71681
|  9> H          5.14672       -0.51251       -2.63385
| 10> H          4.78303       -1.00720       -4.25350
| 11> H          1.95294       -1.69278       -1.42424
| 12> H          2.82618       -0.17973       -1.45886
| 13> H          3.57606       -1.60596       -0.78312
| 14> *
| 15>
| 16> %MaxCore 64000
| 17>
| 18> %pal nprocs 8
| 19> end
| 20>
| 21> %scf
| 22>   MaxIter 150
| 23> end
| 24>
| 25>
| 26>                          ****END OF INPUT****

CARTESIAN COORDINATES (ANGSTROEM)
---------------------------------
  C      2.916320   -1.242590   -1.543130
  C      3.466590   -1.590970   -2.889080
  N      4.652270   -1.143160   -3.259690
  N      2.752260   -2.292040   -3.728030
  H      1.778360   -2.489600   -3.512740
  H      2.948610   -2.208540   -4.716810
  H      5.146720   -0.512510   -2.633850
  H      4.783030   -1.007200   -4.253500
  H      1.952940   -1.692780   -1.424240
  H      2.826180   -0.179730   -1.458860
  H      3.576060   -1.605960   -0.783120

 Total Charge           Charge          ....    1
 Multiplicity           Mult            ....    1
 Number of Electrons    NEL             ....   32
 Basis Dimension        Dim             ....   91

ORBITAL ENERGIES
----------------

  NO   OCC          E(Eh)            E(eV)
   0   2.0000     -14.691566      -399.7778
   1   2.0000     -14.686434      -399.6382
   2   2.0000     -10.625627      -289.1380
   3   2.0000     -10.491248      -285.4814
   4   2.0000      -1.328671       -36.1550
   5   2.0000      -1.225149       -33.3380
   6   2.0000      -1.068917       -29.0867
   7   2.0000      -0.950692       -25.8696
   8   2.0000      -0.880764       -23.9668
   9   2.0000      -0.875860       -23.8334
  10   2.0000      -0.804621       -21.8948
  11   2.0000      -0.771374       -20.9902
  12   2.0000      -0.719558       -19.5802
  13   2.0000      -0.703645       -19.1471
  14   2.0000      -0.674751       -18.3609
  15   2.0000      -0.597779       -16.2664
  16   0.0000      -0.138877        -3.7790
  17   0.0000      -0.059047        -1.6068
  18   0.0000      -0.018272        -0.4972
  19   0.0000      -0.004792        -0.1304
  20   0.0000       0.017198         0.4680

MULLIKEN ATOMIC CHARGES
-----------------------
   0 C :    0.048652
   1 C :   -0.080617
   2 N :   -0.033586
   3 N :   -0.016779
   4 H :    0.198683
   5 H :    0.184172
   6 H :    0.197169
   7 H :    0.186274
   8 H :    0.077015
   9 H :    0.118896
  10 H :    0.120121
Sum of atomic charges:    1.0000000

LOEWDIN ATOMIC CHARGES
----------------------
   0 C :   -0.027634
   1 C :    0.160297
   2 N :    0.083093
   3 N :    0.098530
   4 H :    0.125302
   5 H :    0.115351
   6 H :    0.124600
   7 H :    0.114262
   8 H :    0.058008
   9 H :    0.073481
  10 H :    0.074710

  Mayer bond orders larger than 0.100000
B(  0-C ,  1-C ) :   1.0478 B(  0-C ,  8-H ) :   0.9463 B(  0-C ,  9-H ) :   0.9401
B(  0-C , 10-H ) :   0.9397 B(  1-C ,  2-N ) :   1.4777 B(  1-C ,  3-N ) :   1.5144
B(  2-N ,  6-H ) :   0.9268 B(  2-N ,  7-H ) :   0.9305 B(  3-N ,  4-H ) :   0.9196
B(  3-N ,  5-H ) :   0.9318

Dispersion correction           -0.001676977
FINAL SINGLE POINT ENERGY      -189.521185716741

DIPOLE MOMENT
-------------
                                X             Y             Z
Electronic contribution:      0.89495      -0.69778      -1.82337
Nuclear contribution   :     -1.03256       1.11747       1.26949
                        -----------------------------------------
Total Dipole Moment    :     -0.13761       0.41969      -0.55388
                        -----------------------------------------
Magnitude (a.u.)       :      0.70842
Magnitude (Debye)      :      1.80067

Rotational constants in cm-1:     0.336859     0.298586     0.163958
Rotational constants in MHz : 10098.776812  8951.369850  4915.333652

                             ****ORCA TERMINATED NORMALLY****
TOTAL RUN TIME: 0 days 0 hours 0 minutes 6 seconds 319 msec
