                         Program Version 5.0.0 -  RELEASE  -
|  1> !wB97X-D3 RIJCOSX def2-SVP def2/J TightSCF
|  2> *xyz 0 1
|  3> C          1.72854        1.42432       -5.63944
|  4> S          2.25263       -0.18811       -6.27184
|  5> F          3.56261       -0.44446       -5.63155
|  6> O          2.34494       -0.03374       -7.69650
|  7> O          1.26606       -1.15918       -5.80536
|  8> H          0.77944        1.68154       -6.06127
|  9> H          2.45151        2.16548       -5.90944
| 10> H          1.64478        1.37937       -4.57367
| 11> *
| 12>
| 13> %MaxCore 64000
| 14>
| 15> %pal nprocs 8
| 16> end
| 17>
| 18> %scf
| 19>   MaxIter 150
| 20> end
| 21>
| 22>
| 23>                          ****END OF INPUT****

CARTESIAN COORDINATES (ANGSTROEM)
---------------------------------
  C      1.728540    1.424320   -5.639440
  S      2.252630   -0.188110   -6.271840
  F      3.562610   -0.444460   -5.631550
  O      2.344940   -0.033740   -7.696500
  O      1.266060   -1.159180   -5.805360
  H      0.779440    1.681540   -6.061270
  H      2.451510    2.165480   -5.909440
  H      1.644780    1.379370   -4.573670

 Total Charge           Charge          ....    0
 Multiplicity           Mult            ....    1
 Number of Electrons    NEL             ....   50
 Basis Dimension        Dim             ....   89

ORBITAL ENERGIES
----------------

  NO   OCC          E(Eh)            E(eV)
   0   2.0000     -89.217923     -2427.7431
   1   2.0000     -24.890772      -677.3123
   2   2.0000     -19.247007      -523.7377
   3   2.0000     -19.239816      -523.5420
   4   2.0000     -10.346896      -281.5533
   5   2.0000      -8.300130      -225.8580
   6   2.0000      -6.263096      -170.4275
   7   2.0000      -6.256691      -170.2532
   8   2.0000      -6.256017      -170.2349
   9   2.0000      -1.458023       -39.6748
  10   2.0000      -1.225165       -33.3384
  11   2.0000      -1.124692       -30.6044
  12   2.0000      -0.910730       -24.7822
  13   2.0000      -0.806080       -21.9345
  14   2.0000      -0.694823       -18.9071
  15   2.0000      -0.668246       -18.1839
  16   2.0000      -0.649834       -17.6829
  17   2.0000      -0.577532       -15.7155
  18   2.0000      -0.574435       -15.6312
  19   2.0000      -0.563569       -15.3355
  20   2.0000      -0.532807       -14.4984
  21   2.0000      -0.482677       -13.1343
  22   2.0000      -0.430315       -11.7095
  23   2.0000      -0.423391       -11.5211
  24   2.0000      -0.404721       -11.0130
  25   0.0000       0.116104         3.1594
  26   0.0000       0.147366         4.0100
  27   0.0000       0.161489         4.3943
  28   0.0000       0.176897         4.8136
  29   0.0000       0.184993         5.0339

MULLIKEN ATOMIC CHARGES
-----------------------
   0 C :   -0.099889
   1 S :    0.941121
   2 F :   -0.212701
   3 O :   -0.443218
   4 O :   -0.467205
   5 H :    0.111425
   6 H :    0.085047
   7 H :    0.085420
Sum of atomic charges:   -0.0000000

LOEWDIN ATOMIC CHARGES
----------------------
   0 C :   -0.154935
   1 S :    1.168733
   2 F :   -0.157624
   3 O :   -0.483339
   4 O :   -0.508176
   5 H :    0.055733
   6 H :    0.039716
   7 H :    0.039893

  Mayer bond orders larger than 0.100000
B(  0-C ,  1-S ) :   0.9322 B(  0-C ,  5-H ) :   0.9590 B(  0-C ,  6-H ) :   0.9550
B(  0-C ,  7-H ) :   0.9560 B(  1-S ,  2-F ) :   0.9810 B(  1-S ,  3-O ) :   1.7977
B(  1-S ,  4-O ) :   1.7729

Dispersion correction           -0.001528875
FINAL SINGLE POINT ENERGY      -687.874266567923

DIPOLE MOMENT
-------------
                                X             Y             Z
Electronic contribution:      3.36741      -4.20482      -0.53416
Nuclear contribution   :     -3.03874       5.51823       1.39394
                        -----------------------------------------
Total Dipole Moment    :      0.32867       1.31341       0.85977
                        -----------------------------------------
Magnitude (a.u.)       :      1.60384
Magnitude (Debye)      :      4.07663

Rotational constants in cm-1:     0.164301     0.151617     0.146802
Rotational constants in MHz :  4925.615104  4545.361281  4401.017554

                             ****ORCA TERMINATED NORMALLY****
TOTAL RUN TIME: 0 days 0 hours 0 minutes 6 seconds 426 msec
