                         Program Version 5.0.0 -  RELEASE  -
|  1> !wB97X-D3 RIJCOSX def2-SVP def2/J TightSCF
|  2> *xyz 0 1
|  3> C          2.91632       -1.24259       -1.54313
|  4> C          3.46659       -1.59097       -2.88908
|  5> C          4.65227       -1.14316       -3.25969
|  6> N          2.75226       -2.29204       -3.72803
|  7> H          1.77836       -2.48960       -3.51274
|  8> H          2.94861       -2.20854       -4.71681
|  9> H          5.14672       -0.51251       -2.63385
| 10> H          4.78303       -1.00720       -4.25350
| 11> H          1.95294       -1.69278       -1.42424
| 12> H          2.82618       -0.17973       -1.45886
| 13> H          3.57606       -1.60596       -0.78312
| 14> *
| 15>
| 16> %MaxCore 64000
| 17>
| 18> %pal nprocs 8
| 19> end
| 20>
| 21> %scf
| 22>   MaxIter 150
| 23> end
| 24>
| 25>
| 26>                          ****END OF INPUT****

CARTESIAN COORDINATES (ANGSTROEM)
---------------------------------
  C      2.916320   -1.242590   -1.543130
  C      3.466590   -1.590970   -2.889080
  C      4.652270   -1.143160   -3.259690
  N      2.752260   -2.292040   -3.728030
  H      1.778360   -2.489600   -3.512740
  H      2.948610   -2.208540   -4.716810
  H      5.146720   -0.512510   -2.633850
  H      4.783030   -1.007200   -4.253500
  H      1.952940   -1.692780   -1.424240
  H      2.826180   -0.179730   -1.458860
  H      3.576060   -1.605960   -0.783120

 Total Charge           Charge          ....    0
 Multiplicity           Mult            ....    1
 Number of Electrons    NEL             ....   32
 Basis Dimension        Dim             ....   91

ORBITAL ENERGIES
----------------

  NO   OCC          E(Eh)            E(eV)
   0   2.0000     -14.432707      -392.7339
   1   2.0000     -10.307476      -280.4807
   2   2.0000     -10.280548      -279.7479
   3   2.0000     -10.210716      -277.8477
   4   2.0000      -1.040128       -28.3033
   5   2.0000      -0.863787       -23.5048
   6   2.0000      -0.794925       -21.6310
   7   2.0000      -0.672902       -18.3106
   8   2.0000      -0.621205       -16.9038
   9   2.0000      -0.566862       -15.4251
  10   2.0000      -0.532189       -14.4816
  11   2.0000      -0.493778       -13.4364
  12   2.0000      -0.479787       -13.0557
  13   2.0000      -0.454037       -12.3550
  14   2.0000      -0.422983       -11.5100
  15   2.0000      -0.270320        -7.3558
  16   0.0000       0.127637         3.4732
  17   0.0000       0.145834         3.9683
  18   0.0000       0.187403         5.0995
  19   0.0000       0.192113         5.2277
  20   0.0000       0.228569         6.2197

MULLIKEN ATOMIC CHARGES
-----------------------
   0 C :    0.078734
   1 C :   -0.196821
   2 C :   -0.075194
   3 N :   -0.096856
   4 H :    0.115025
   5 H :    0.123772
   6 H :   -0.025683
   7 H :   -0.029932
   8 H :    0.002073
   9 H :    0.051902
  10 H :    0.052980
Sum of atomic charges:   -0.0000000

LOEWDIN ATOMIC CHARGES
----------------------
   0 C :   -0.043039
   1 C :    0.004993
   2 C :   -0.195967
   3 N :   -0.007139
   4 H :    0.069801
   5 H :    0.078240
   6 H :   -0.001644
   7 H :   -0.005802
   8 H :    0.018772
   9 H :    0.039420
  10 H :    0.042365

  Mayer bond orders larger than 0.100000
B(  0-C ,  1-C ) :   1.0188 B(  0-C ,  8-H ) :   0.9610 B(  0-C ,  9-H ) :   0.9622
B(  0-C , 10-H ) :   0.9618 B(  1-C ,  2-C ) :   1.8538 B(  1-C ,  3-N ) :   1.2582
B(  2-C ,  6-H ) :   0.9625 B(  2-C ,  7-H ) :   0.9669 B(  3-N ,  4-H ) :   0.9530
B(  3-N ,  5-H ) :   0.9534

Dispersion correction           -0.001675319
FINAL SINGLE POINT ENERGY      -173.061101370056

DIPOLE MOMENT
-------------
                                X             Y             Z
Electronic contribution:     -0.21982      -1.19056      -1.31308
Nuclear contribution   :     -0.76183       1.20997       1.18381
                        -----------------------------------------
Total Dipole Moment    :     -0.98165       0.01941      -0.12927
                        -----------------------------------------
Magnitude (a.u.)       :      0.99031
Magnitude (Debye)      :      2.51718

Rotational constants in cm-1:     0.357745     0.302571     0.170012
Rotational constants in MHz : 10724.926457  9070.849165  5096.845195

                             ****ORCA TERMINATED NORMALLY****
TOTAL RUN TIME: 0 days 0 hours 0 minutes 6 seconds 441 msec
