                         Program Version 5.0.0 -  RELEASE  -
|  1> !wB97X-D3 RIJCOSX def2-SVP def2/J TightSCF
|  2> *xyz 0 1
|  3> C          1.72854        1.42432       -5.63944
|  4> S          2.25263       -0.18811       -6.27184
|  5> O          3.56261       -0.44446       -5.63155
|  6> F          2.34494       -0.03374       -7.69650
|  7> O          1.26606       -1.15918       -5.80536
|  8> H          0.77944        1.68154       -6.06127
|  9> H          2.45151        2.16548       -5.90944
| 10> H          1.64478        1.37937       -4.57367
| 11> *
| 12>
| 13> %MaxCore 64000
| 14>
| 15> %pal nprocs 8
| 16> end
| 17>
| 18> %scf
| 19>   MaxIter 150
| 20> end
| 21>
| 22>
| 23>                          ****END OF INPUT****

CARTESIAN COORDINATES (ANGSTROEM)
---------------------------------
  C      1.728540    1.424320   -5.639440
  S      2.252630   -0.188110   -6.271840
  O      3.562610   -0.444460   -5.631550
  F      2.344940   -0.033740   -7.696500
  O      1.266060   -1.159180   -5.805360
  H      0.779440    1.681540   -6.061270
  H      2.451510    2.165480   -5.909440
  H      1.644780    1.379370   -4.573670

 Total Charge           Charge          ....    0
 Multiplicity           Mult            ....    1
 Number of Electrons    NEL             ....   50
 Basis Dimension        Dim             ....   89

ORBITAL ENERGIES
----------------

  NO   OCC          E(Eh)            E(eV)
   0   2.0000     -89.219287     -2427.7802
   1   2.0000     -24.913804      -677.9391
   2   2.0000     -19.239672      -523.5381
   3   2.0000     -19.230493      -523.2883
   4   2.0000     -10.347639      -281.5736
   5   2.0000      -8.301690      -225.9005
   6   2.0000      -6.264914      -170.4770
   7   2.0000      -6.257989      -170.2885
   8   2.0000      -6.257305      -170.2699
   9   2.0000      -1.496721       -40.7279
  10   2.0000      -1.210673       -32.9441
  11   2.0000      -1.103525       -30.0284
  12   2.0000      -0.913175       -24.8488
  13   2.0000      -0.825458       -22.4618
  14   2.0000      -0.712739       -19.3946
  15   2.0000      -0.695536       -18.9265
  16   2.0000      -0.653956       -17.7951
  17   2.0000      -0.577643       -15.7185
  18   2.0000      -0.571699       -15.5567
  19   2.0000      -0.563730       -15.3399
  20   2.0000      -0.524194       -14.2640
  21   2.0000      -0.474375       -12.9084
  22   2.0000      -0.421465       -11.4686
  23   2.0000      -0.411923       -11.2090
  24   2.0000      -0.388265       -10.5652
  25   0.0000       0.116343         3.1659
  26   0.0000       0.148848         4.0504
  27   0.0000       0.160350         4.3633
  28   0.0000       0.167621         4.5612
  29   0.0000       0.186620         5.0782

MULLIKEN ATOMIC CHARGES
-----------------------
   0 C :   -0.097309
   1 S :    0.929832
   2 O :   -0.485361
   3 F :   -0.168239
   4 O :   -0.460824
   5 H :    0.082458
   6 H :    0.085680
   7 H :    0.113763
Sum of atomic charges:   -0.0000000

LOEWDIN ATOMIC CHARGES
----------------------
   0 C :   -0.153947
   1 S :    1.162444
   2 O :   -0.527844
   3 F :   -0.112562
   4 O :   -0.503336
   5 H :    0.037699
   6 H :    0.039996
   7 H :    0.057550

  Mayer bond orders larger than 0.100000
B(  0-C ,  1-S ) :   0.9301 B(  0-C ,  5-H ) :   0.9545 B(  0-C ,  6-H ) :   0.9549
B(  0-C ,  7-H ) :   0.9591 B(  1-S ,  2-O ) :   1.7450 B(  1-S ,  3-F ) :   1.0310
B(  1-S ,  4-O ) :   1.7690

Dispersion correction           -0.001531397
FINAL SINGLE POINT ENERGY      -687.853856593947

DIPOLE MOMENT
-------------
                                X             Y             Z
Electronic contribution:      1.30506      -3.52038      -4.01227
Nuclear contribution   :     -1.82220       5.10789       3.45696
                        -----------------------------------------
Total Dipole Moment    :     -0.51714       1.58752      -0.55532
                        -----------------------------------------
Magnitude (a.u.)       :      1.75955
Magnitude (Debye)      :      4.47243

Rotational constants in cm-1:     0.163267     0.154654     0.145086
Rotational constants in MHz :  4894.631475  4636.404456  4349.567403

                             ****ORCA TERMINATED NORMALLY****
TOTAL RUN TIME: 0 days 0 hours 0 minutes 6 seconds 21 msec
