                         Program Version 5.0.0 -  RELEASE  -
|  1> !wB97X-D3 RIJCOSX def2-SVP def2/J TightSCF
|  2> *xyz 0 1
|  3> C          2.91632       -1.24259       -1.54313
|  4> C          3.46659       -1.59097       -2.88908
|  5> N          4.65227       -1.14316       -3.25969
|  6> C          2.75226       -2.29204       -3.72803
|  7> H          1.77836       -2.48960       -3.51274
|  8> H          2.94861       -2.20854       -4.71681
|  9> H          5.14672       -0.51251       -2.63385
| 10> H          4.78303       -1.00720       -4.25350
| 11> H          1.95294       -1.69278       -1.42424
| 12> H          2.82618       -0.17973       -1.45886
| 13> H          3.57606       -1.60596       -0.78312
| 14> *
| 15>
| 16> %MaxCore 64000
| 17>
| 18> %pal nprocs 8
| 19> end
| 20>
| 21> %scf
| 22>   MaxIter 150
| 23> end
| 24>
| 25>
| 26>                          ****END OF INPUT****

CARTESIAN COORDINATES (ANGSTROEM)
---------------------------------
  C      2.916320   -1.242590   -1.543130
  C      3.466590   -1.590970   -2.889080
  N      4.652270   -1.143160   -3.259690
  C      2.752260   -2.292040   -3.728030
  H      1.778360   -2.489600   -3.512740
  H      2.948610   -2.208540   -4.716810
  H      5.146720   -0.512510   -2.633850
  H      4.783030   -1.007200   -4.253500
  H      1.952940   -1.692780   -1.424240
  H      2.826180   -0.179730   -1.458860
  H      3.576060   -1.605960   -0.783120

 Total Charge           Charge          ....    0
 Multiplicity           Mult            ....    1
 Number of Electrons    NEL             ....   32
 Basis Dimension        Dim             ....   91

ORBITAL ENERGIES
----------------

  NO   OCC          E(Eh)            E(eV)
   0   2.0000     -14.429315      -392.6416
   1   2.0000     -10.306108      -280.4435
   2   2.0000     -10.279448      -279.7180
   3   2.0000     -10.215736      -277.9843
   4   2.0000      -1.034901       -28.1611
   5   2.0000      -0.864455       -23.5230
   6   2.0000      -0.796498       -21.6738
   7   2.0000      -0.666610       -18.1394
   8   2.0000      -0.622149       -16.9295
   9   2.0000      -0.569662       -15.5013
  10   2.0000      -0.533220       -14.5096
  11   2.0000      -0.493063       -13.4169
  12   2.0000      -0.483964       -13.1693
  13   2.0000      -0.449324       -12.2267
  14   2.0000      -0.418881       -11.3983
  15   2.0000      -0.278037        -7.5658
  16   0.0000       0.130027         3.5382
  17   0.0000       0.149768         4.0754
  18   0.0000       0.188856         5.1390
  19   0.0000       0.200638         5.4596
  20   0.0000       0.212275         5.7763

MULLIKEN ATOMIC CHARGES
-----------------------
   0 C :    0.084413
   1 C :   -0.178862
   2 N :   -0.114960
   3 C :   -0.071102
   4 H :   -0.022505
   5 H :   -0.032150
   6 H :    0.115325
   7 H :    0.127956
   8 H :    0.028115
   9 H :    0.031704
  10 H :    0.032066
Sum of atomic charges:   -0.0000000

LOEWDIN ATOMIC CHARGES
----------------------
   0 C :   -0.043330
   1 C :    0.004939
   2 N :   -0.021460
   3 C :   -0.178885
   4 H :    0.000234
   5 H :   -0.005209
   6 H :    0.070802
   7 H :    0.078408
   8 H :    0.036636
   9 H :    0.029382
  10 H :    0.028482

  Mayer bond orders larger than 0.100000
B(  0-C ,  1-C ) :   1.0374 B(  0-C ,  8-H ) :   0.9586 B(  0-C ,  9-H ) :   0.9567
B(  0-C , 10-H ) :   0.9568 B(  1-C ,  2-N ) :   1.2293 B(  1-C ,  3-C ) :   1.8803
B(  2-N ,  6-H ) :   0.9586 B(  2-N ,  7-H ) :   0.9524 B(  3-C ,  4-H ) :   0.9507
B(  3-C ,  5-H ) :   0.9686

Dispersion correction           -0.001687471
FINAL SINGLE POINT ENERGY      -173.064948813442

DIPOLE MOMENT
-------------
                                X             Y             Z
Electronic contribution:      1.56906      -0.12559      -0.90257
Nuclear contribution   :     -1.18794       0.95232       1.07877
                        -----------------------------------------
Total Dipole Moment    :      0.38112       0.82673       0.17621
                        -----------------------------------------
Magnitude (a.u.)       :      0.92724
Magnitude (Debye)      :      2.35687

Rotational constants in cm-1:     0.358436     0.301769     0.169913
Rotational constants in MHz : 10745.629007  9046.806054  5093.859032

                             ****ORCA TERMINATED NORMALLY****
TOTAL RUN TIME: 0 days 0 hours 0 minutes 6 seconds 446 msec
