                         Program Version 5.0.0 -  RELEASE  -
|  1> !wB97X-D3 RIJCOSX def2-SVP def2/J TightSCF
|  2> *xyz 0 1
|  3> C          1.72854        1.42432       -5.63944
|  4> S          2.25263       -0.18811       -6.27184
|  5> O          3.56261       -0.44446       -5.63155
|  6> O          2.34494       -0.03374       -7.69650
|  7> F          1.26606       -1.15918       -5.80536
|  8> H          0.77944        1.68154       -6.06127
|  9> H          2.45151        2.16548       -5.90944
| 10> H          1.64478        1.37937       -4.57367
| 11> *
| 12>
| 13> %MaxCore 64000
| 14>
| 15> %pal nprocs 8
| 16> end
| 17>
| 18> %scf
| 19>   MaxIter 150
| 20> end
| 21>
| 22>
| 23>                          ****END OF INPUT****

CARTESIAN COORDINATES (ANGSTROEM)
---------------------------------
  C      1.728540    1.424320   -5.639440
  S      2.252630   -0.188110   -6.271840
  O      3.562610   -0.444460   -5.631550
  O      2.344940   -0.033740   -7.696500
  F      1.266060   -1.159180   -5.805360
  H      0.779440    1.681540   -6.061270
  H      2.451510    2.165480   -5.909440
  H      1.644780    1.379370   -4.573670

 Total Charge           Charge          ....    0
 Multiplicity           Mult            ....    1
 Number of Electrons    NEL             ....   50
 Basis Dimension        Dim             ....   89

ORBITAL ENERGIES
----------------

  NO   OCC          E(Eh)            E(eV)
   0   2.0000     -89.218340     -2427.7545
   1   2.0000     -24.902193      -677.6231
   2   2.0000     -19.247119      -523.7407
   3   2.0000     -19.230723      -523.2946
   4   2.0000     -10.347313      -281.5647
   5   2.0000      -8.300691      -225.8733
   6   2.0000      -6.263751      -170.4453
   7   2.0000      -6.257134      -170.2653
   8   2.0000      -6.256455      -170.2468
   9   2.0000      -1.475512       -40.1507
  10   2.0000      -1.221077       -33.2272
  11   2.0000      -1.112537       -30.2737
  12   2.0000      -0.911031       -24.7904
  13   2.0000      -0.815467       -22.1900
  14   2.0000      -0.702497       -19.1159
  15   2.0000      -0.680490       -18.5171
  16   2.0000      -0.651959       -17.7407
  17   2.0000      -0.577792       -15.7225
  18   2.0000      -0.573044       -15.5933
  19   2.0000      -0.565077       -15.3765
  20   2.0000      -0.528964       -14.3938
  21   2.0000      -0.479640       -13.0517
  22   2.0000      -0.428581       -11.6623
  23   2.0000      -0.413415       -11.2496
  24   2.0000      -0.395676       -10.7669
  25   0.0000       0.111533         3.0350
  26   0.0000       0.147739         4.0202
  27   0.0000       0.161358         4.3908
  28   0.0000       0.174679         4.7533
  29   0.0000       0.186841         5.0842

MULLIKEN ATOMIC CHARGES
-----------------------
   0 C :   -0.097166
   1 S :    0.935421
   2 O :   -0.488338
   3 O :   -0.439790
   4 F :   -0.191933
   5 H :    0.082915
   6 H :    0.113737
   7 H :    0.085152
Sum of atomic charges:    0.0000000

LOEWDIN ATOMIC CHARGES
----------------------
   0 C :   -0.153149
   1 S :    1.165449
   2 O :   -0.530008
   3 O :   -0.480612
   4 F :   -0.136814
   5 H :    0.037972
   6 H :    0.057379
   7 H :    0.039784

  Mayer bond orders larger than 0.100000
B(  0-C ,  1-S ) :   0.9321 B(  0-C ,  5-H ) :   0.9547 B(  0-C ,  6-H ) :   0.9587
B(  0-C ,  7-H ) :   0.9559 B(  1-S ,  2-O ) :   1.7474 B(  1-S ,  3-O ) :   1.7962
B(  1-S ,  4-F ) :   1.0041

Dispersion correction           -0.001528799
FINAL SINGLE POINT ENERGY      -687.863724563499

DIPOLE MOMENT
-------------
                                X             Y             Z
Electronic contribution:     -0.51334      -5.40842      -0.83397
Nuclear contribution   :     -0.74433       6.23228       1.56758
                        -----------------------------------------
Total Dipole Moment    :     -1.25767       0.82386       0.73361
                        -----------------------------------------
Magnitude (a.u.)       :      1.67292
Magnitude (Debye)      :      4.25223

Rotational constants in cm-1:     0.164764     0.152261     0.145794
Rotational constants in MHz :  4939.488001  4564.674339  4370.797804

                             ****ORCA TERMINATED NORMALLY****
TOTAL RUN TIME: 0 days 0 hours 0 minutes 6 seconds 254 msec
