                         Program Version 5.0.0 -  RELEASE  -
|  1> !wB97X-D3 RIJCOSX def2-SVP def2/J TightSCF xyzfile
|  2>
|  3> *xyzfile 0 1 D1.xyz
|  4>
|  5> %MaxCore 64000
|  6>
|  7> %pal nprocs 18
|  8> end
|  9>
| 10> %scf
| 11>   MaxIter 150
| 12> end
| 13>
| 14>
| 15>                          ****END OF INPUT****

CARTESIAN COORDINATES (ANGSTROEM)
---------------------------------
  C      2.916324   -1.242589   -1.543125
  C      0.704661    1.443129   -4.503630
  C      1.728539    1.424320   -5.639443
  H      2.646718    1.953794   -5.381054
  H      1.299916    1.930613   -6.503614
  S      2.252625   -0.188115   -6.271840
  C      3.466585   -1.590971   -2.889082
  C      4.652275   -1.143164   -3.259692
  N      2.752264   -2.292043   -3.728029
  H      1.778364   -2.489604   -3.512738
  H      2.948612   -2.208544   -4.716813
  H      5.146723   -0.512508   -2.633852
  H      4.783030   -1.007203   -4.253498
  F      3.562607   -0.444464   -5.631552
  O      2.344944   -0.033742   -7.696501
  C      2.804084    0.290698   -1.359243
  C      1.052550    0.695659   -3.214915
  H     -0.232483    1.032925   -4.884449
  H      0.511700    2.495794   -4.267966
  C      2.388380    1.093669   -2.597108
  H      3.763425    0.674718   -0.999889
  H      2.094788    0.461222   -0.545756
  O      1.266058   -1.159177   -5.805365
  H      3.167316    1.013242   -3.359430
  H      2.357690    2.149375   -2.310997
  H      1.039284   -0.368429   -3.449329
  H      0.250787    0.865605   -2.488283
  H      1.940472   -1.716529   -1.441161
  H      3.558569   -1.663433   -0.766371

 Total Charge           Charge          ....    0
 Multiplicity           Mult            ....    1
 Number of Electrons    NEL             ....  112
 Basis Dimension        Dim             ....  266

ORBITAL ENERGIES
----------------

  NO   OCC          E(Eh)            E(eV)
   0   2.0000     -89.223247     -2427.8880
   1   2.0000     -24.901501      -677.6043
   2   2.0000     -19.255797      -523.9769
   3   2.0000     -19.253762      -523.9215
   4   2.0000     -14.426455      -392.5638
   5   2.0000     -10.352224      -281.6983
   6   2.0000     -10.319665      -280.8123
   7   2.0000     -10.304865      -280.4096
   8   2.0000     -10.296489      -280.1817
   9   2.0000     -10.293455      -280.0991
  10   2.0000     -10.291775      -280.0534
  11   2.0000     -10.290778      -280.0263
  12   2.0000     -10.210192      -277.8335
  13   2.0000      -8.306015      -226.0182
  14   2.0000      -6.269112      -170.5912
  15   2.0000      -6.262664      -170.4157
  16   2.0000      -6.261395      -170.3812
  17   2.0000      -1.470562       -40.0160
  18   2.0000      -1.236006       -33.6334
  19   2.0000      -1.137417       -30.9507
  20   2.0000      -1.038574       -28.2610
  21   2.0000      -0.954441       -25.9717
  22   2.0000      -0.914854       -24.8944
  23   2.0000      -0.873457       -23.7680
  24   2.0000      -0.839993       -22.8574
  25   2.0000      -0.805593       -21.9213
  26   2.0000      -0.795392       -21.6437
  27   2.0000      -0.742048       -20.1922
  28   2.0000      -0.703317       -19.1382
  29   2.0000      -0.685217       -18.6457
  30   2.0000      -0.676050       -18.3963
  31   2.0000      -0.664235       -18.0747
  32   2.0000      -0.648962       -17.6591
  33   2.0000      -0.615264       -16.7422
  34   2.0000      -0.601786       -16.3754
  35   2.0000      -0.595272       -16.1982
  36   2.0000      -0.577839       -15.7238
  37   2.0000      -0.574520       -15.6335
  38   2.0000      -0.557820       -15.1791
  39   2.0000      -0.543937       -14.8013
  40   2.0000      -0.531269       -14.4566
  41   2.0000      -0.521538       -14.1918
  42   2.0000      -0.496490       -13.5102
  43   2.0000      -0.488999       -13.3063
  44   2.0000      -0.482351       -13.1254
  45   2.0000      -0.475873       -12.9492
  46   2.0000      -0.469717       -12.7817
  47   2.0000      -0.451929       -12.2976
  48   2.0000      -0.445567       -12.1245
  49   2.0000      -0.434390       -11.8204
  50   2.0000      -0.429318       -11.6823
  51   2.0000      -0.419132       -11.4052
  52   2.0000      -0.415606       -11.3092
  53   2.0000      -0.411437       -11.1958
  54   2.0000      -0.407330       -11.0840
  55   2.0000      -0.268663        -7.3107
  56   0.0000       0.107904         2.9362
  57   0.0000       0.116391         3.1672
  58   0.0000       0.124898         3.3986
  59   0.0000       0.139665         3.8005
  60   0.0000       0.150840         4.1046

MULLIKEN ATOMIC CHARGES
-----------------------
   0 C :    0.081283
   1 C :   -0.011805
   2 C :   -0.154989
   3 H :    0.090353
   4 H :    0.106218
   5 S :    0.980456
   6 C :   -0.221717
   7 C :   -0.046984
   8 N :   -0.062299
   9 H :    0.128201
  10 H :    0.109956
  11 H :   -0.031584
  12 H :   -0.031640
  13 F :   -0.197591
  14 O :   -0.427992
  15 C :   -0.034720
  16 C :   -0.050251
  17 H :    0.054676
  18 H :    0.044587
  19 C :   -0.014907
  20 H :    0.033426
  21 H :    0.021449
  22 O :   -0.464726
  23 H :   -0.007890
  24 H :    0.018519
  25 H :    0.009187
  26 H :    0.028610
  27 H :    0.000943
  28 H :    0.051230
Sum of atomic charges:    0.0000000

LOEWDIN ATOMIC CHARGES
----------------------
   0 C :   -0.031934
   1 C :   -0.042092
   2 C :   -0.149746
   3 H :    0.037206
   4 H :    0.053555
   5 S :    1.176304
   6 C :    0.002028
   7 C :   -0.199831
   8 N :    0.009334
   9 H :    0.068379
  10 H :    0.049826
  11 H :   -0.005566
  12 H :   -0.021096
  13 F :   -0.121356
  14 O :   -0.473184
  15 C :   -0.027991
  16 C :   -0.047973
  17 H :    0.036516
  18 H :    0.037176
  19 C :   -0.046154
  20 H :    0.027738
  21 H :    0.023537
  22 O :   -0.493411
  23 H :    0.012287
  24 H :    0.022986
  25 H :    0.012660
  26 H :    0.028716
  27 H :    0.018035
  28 H :    0.044053

  Mayer bond orders larger than 0.100000
B(  0-C ,  6-C ) :   1.0038 B(  0-C , 15-C ) :   1.0685 B(  0-C , 27-H ) :   0.9338
B(  0-C , 28-H ) :   0.9340 B(  1-C ,  2-C ) :   1.0438 B(  1-C , 16-C ) :   1.0822
B(  1-C , 17-H ) :   0.9470 B(  1-C , 18-H ) :   0.9396 B(  2-C ,  3-H ) :   0.9294
B(  2-C ,  4-H ) :   0.9384 B(  2-C ,  5-S ) :   0.9038 B(  5-S , 13-F ) :   0.9571
B(  5-S , 14-O ) :   1.8164 B(  5-S , 22-O ) :   1.7305 B(  6-C ,  7-C ) :   1.8260
B(  6-C ,  8-N ) :   1.2869 B(  7-C , 11-H ) :   0.9537 B(  7-C , 12-H ) :   0.9566
B(  8-N ,  9-H ) :   0.9448 B(  8-N , 10-H ) :   0.9444 B( 15-C , 19-C ) :   1.0965
B( 15-C , 20-H ) :   0.9462 B( 15-C , 21-H ) :   0.9505 B( 16-C , 19-C ) :   1.0591
B( 16-C , 25-H ) :   0.9355 B( 16-C , 26-H ) :   0.9415 B( 19-C , 23-H ) :   0.9191
B( 19-C , 24-H ) :   0.9458

Dispersion correction           -0.016341872
FINAL SINGLE POINT ENERGY     -1016.845571375324

DIPOLE MOMENT
-------------
                                X             Y             Z
Electronic contribution:      2.16609      -4.97844     -18.66646
Nuclear contribution   :     -2.89481       6.29550      19.36835
                        -----------------------------------------
Total Dipole Moment    :     -0.72872       1.31706       0.70189
                        -----------------------------------------
Magnitude (a.u.)       :      1.66082
Magnitude (Debye)      :      4.22147

Rotational constants in cm-1:     0.036515     0.018832     0.015081
Rotational constants in MHz :  1094.679513   564.567051   452.109105

                             ****ORCA TERMINATED NORMALLY****
TOTAL RUN TIME: 0 days 0 hours 0 minutes 27 seconds 667 msec
