                         Program Version 5.0.0 -  RELEASE  -
|  1> !wB97X-D3 RIJCOSX def2-SVP def2/J TightSCF xyzfile
|  2>
|  3> *xyzfile 0 1 D2.xyz
|  4>
|  5> %MaxCore 64000
|  6>
|  7> %pal nprocs 18
|  8> end
|  9>
| 10> %scf
| 11>   MaxIter 150
| 12> end
| 13>
| 14>
| 15>                          ****END OF INPUT****

CARTESIAN COORDINATES (ANGSTROEM)
---------------------------------
  C      2.916324   -1.242589   -1.543125
  C      0.704661    1.443129   -4.503630
  C      1.728539    1.424320   -5.639443
  H      2.646718    1.953794   -5.381054
  H      1.299916    1.930613   -6.503614
  S      2.252625   -0.188115   -6.271840
  C      3.466585   -1.590971   -2.889082
  N      4.652275   -1.143164   -3.259692
  C      2.752264   -2.292043   -3.728029
  H      1.778364   -2.489604   -3.512738
  H      2.948612   -2.208544   -4.716813
  H      5.146723   -0.512508   -2.633852
  H      4.783030   -1.007203   -4.253498
  F      3.562607   -0.444464   -5.631552
  O      2.344944   -0.033742   -7.696501
  C      2.804084    0.290698   -1.359243
  C      1.052550    0.695659   -3.214915
  H     -0.232483    1.032925   -4.884449
  H      0.511700    2.495794   -4.267966
  C      2.388380    1.093669   -2.597108
  H      3.763425    0.674718   -0.999889
  H      2.094788    0.461222   -0.545756
  O      1.266058   -1.159177   -5.805365
  H      3.167316    1.013242   -3.359430
  H      2.357690    2.149375   -2.310997
  H      1.039284   -0.368429   -3.449329
  H      0.250787    0.865605   -2.488283
  H      1.940472   -1.716529   -1.441161
  H      3.558569   -1.663433   -0.766371

 Total Charge           Charge          ....    0
 Multiplicity           Mult            ....    1
 Number of Electrons    NEL             ....  112
 Basis Dimension        Dim             ....  266

ORBITAL ENERGIES
----------------

  NO   OCC          E(Eh)            E(eV)
   0   2.0000     -89.216959     -2427.7169
   1   2.0000     -24.899346      -677.5456
   2   2.0000     -19.250471      -523.8319
   3   2.0000     -19.241811      -523.5963
   4   2.0000     -14.427761      -392.5993
   5   2.0000     -10.348876      -281.6072
   6   2.0000     -10.315506      -280.6992
   7   2.0000     -10.300388      -280.2878
   8   2.0000     -10.296752      -280.1889
   9   2.0000     -10.295493      -280.1546
  10   2.0000     -10.290038      -280.0062
  11   2.0000     -10.288146      -279.9547
  12   2.0000     -10.212268      -277.8899
  13   2.0000      -8.299456      -225.8397
  14   2.0000      -6.262721      -170.4173
  15   2.0000      -6.255947      -170.2330
  16   2.0000      -6.254856      -170.2033
  17   2.0000      -1.467318       -39.9277
  18   2.0000      -1.228707       -33.4348
  19   2.0000      -1.127942       -30.6929
  20   2.0000      -1.036669       -28.2092
  21   2.0000      -0.950797       -25.8725
  22   2.0000      -0.912839       -24.8396
  23   2.0000      -0.870592       -23.6900
  24   2.0000      -0.840440       -22.8695
  25   2.0000      -0.816491       -22.2179
  26   2.0000      -0.787914       -21.4402
  27   2.0000      -0.735717       -20.0199
  28   2.0000      -0.701265       -19.0824
  29   2.0000      -0.679388       -18.4871
  30   2.0000      -0.674764       -18.3613
  31   2.0000      -0.659015       -17.9327
  32   2.0000      -0.649196       -17.6655
  33   2.0000      -0.622258       -16.9325
  34   2.0000      -0.595902       -16.2153
  35   2.0000      -0.594005       -16.1637
  36   2.0000      -0.579622       -15.7723
  37   2.0000      -0.563856       -15.3433
  38   2.0000      -0.551029       -14.9943
  39   2.0000      -0.543047       -14.7771
  40   2.0000      -0.532385       -14.4869
  41   2.0000      -0.515553       -14.0289
  42   2.0000      -0.500899       -13.6301
  43   2.0000      -0.484394       -13.1810
  44   2.0000      -0.480180       -13.0664
  45   2.0000      -0.477480       -12.9929
  46   2.0000      -0.462126       -12.5751
  47   2.0000      -0.450460       -12.2576
  48   2.0000      -0.440504       -11.9867
  49   2.0000      -0.426924       -11.6172
  50   2.0000      -0.423383       -11.5208
  51   2.0000      -0.418759       -11.3950
  52   2.0000      -0.411006       -11.1841
  53   2.0000      -0.405449       -11.0328
  54   2.0000      -0.402473       -10.9519
  55   2.0000      -0.275078        -7.4852
  56   0.0000       0.108726         2.9586
  57   0.0000       0.117116         3.1869
  58   0.0000       0.129664         3.5283
  59   0.0000       0.134039         3.6474
  60   0.0000       0.154116         4.1937

MULLIKEN ATOMIC CHARGES
-----------------------
   0 C :    0.092542
   1 C :   -0.011396
   2 C :   -0.153544
   3 H :    0.080687
   4 H :    0.104993
   5 S :    0.986207
   6 C :   -0.210031
   7 N :   -0.089122
   8 C :   -0.030028
   9 H :   -0.006015
  10 H :   -0.044335
  11 H :    0.115104
  12 H :    0.118741
  13 F :   -0.214040
  14 O :   -0.431225
  15 C :   -0.060243
  16 C :   -0.051016
  17 H :    0.056319
  18 H :    0.040570
  19 C :   -0.013966
  20 H :    0.020305
  21 H :    0.028743
  22 O :   -0.442380
  23 H :   -0.027633
  24 H :    0.018015
  25 H :    0.042911
  26 H :    0.025832
  27 H :    0.021111
  28 H :    0.032893
Sum of atomic charges:   -0.0000000

LOEWDIN ATOMIC CHARGES
----------------------
   0 C :   -0.030159
   1 C :   -0.041955
   2 C :   -0.151190
   3 H :    0.032779
   4 H :    0.053010
   5 S :    1.179373
   6 C :   -0.011952
   7 N :   -0.019681
   8 C :   -0.161504
   9 H :    0.000554
  10 H :   -0.026339
  11 H :    0.067403
  12 H :    0.056551
  13 F :   -0.132963
  14 O :   -0.476034
  15 C :   -0.037130
  16 C :   -0.047093
  17 H :    0.037692
  18 H :    0.034932
  19 C :   -0.046213
  20 H :    0.019447
  21 H :    0.027330
  22 O :   -0.471276
  23 H :    0.002093
  24 H :    0.023044
  25 H :    0.027027
  26 H :    0.027538
  27 H :    0.034053
  28 H :    0.030662

  Mayer bond orders larger than 0.100000
B(  0-C ,  6-C ) :   1.0284 B(  0-C , 15-C ) :   1.0504 B(  0-C , 27-H ) :   0.9301
B(  0-C , 28-H ) :   0.9360 B(  1-C ,  2-C ) :   1.0430 B(  1-C , 16-C ) :   1.0834
B(  1-C , 17-H ) :   0.9463 B(  1-C , 18-H ) :   0.9396 B(  2-C ,  3-H ) :   0.9303
B(  2-C ,  4-H ) :   0.9389 B(  2-C ,  5-S ) :   0.9027 B(  5-S , 13-F ) :   0.9363
B(  5-S , 14-O ) :   1.8115 B(  5-S , 22-O ) :   1.7579 B(  6-C ,  7-N ) :   1.2245
B(  6-C ,  8-C ) :   1.8726 B(  7-N , 11-H ) :   0.9558 B(  7-N , 12-H ) :   0.9476
B(  8-C ,  9-H ) :   0.9484 B(  8-C , 10-H ) :   0.9594 B( 15-C , 19-C ) :   1.0880
B( 15-C , 20-H ) :   0.9496 B( 15-C , 21-H ) :   0.9501 B( 16-C , 19-C ) :   1.0577
B( 16-C , 25-H ) :   0.9367 B( 16-C , 26-H ) :   0.9418 B( 19-C , 23-H ) :   0.9187
B( 19-C , 24-H ) :   0.9462

Dispersion correction           -0.016286462
FINAL SINGLE POINT ENERGY     -1016.845448132909

DIPOLE MOMENT
-------------
                                X             Y             Z
Electronic contribution:      3.54745      -4.22183     -18.33712
Nuclear contribution   :     -3.13969       6.14743      19.30799
                        -----------------------------------------
Total Dipole Moment    :      0.40776       1.92560       0.97087
                        -----------------------------------------
Magnitude (a.u.)       :      2.19472
Magnitude (Debye)      :      5.57853

Rotational constants in cm-1:     0.036460     0.018762     0.015014
Rotational constants in MHz :  1093.039020   562.475626   450.105862

                             ****ORCA TERMINATED NORMALLY****
TOTAL RUN TIME: 0 days 0 hours 0 minutes 31 seconds 672 msec
