                         Program Version 5.0.0 -  RELEASE  -
|  1> !wB97X-D3 RIJCOSX def2-SVP def2/J TightSCF xyzfile
|  2>
|  3> *xyzfile 0 1 D4.xyz
|  4>
|  5> %MaxCore 64000
|  6>
|  7> %pal nprocs 18
|  8> end
|  9>
| 10> %scf
| 11>   MaxIter 150
| 12> end
| 13>
| 14>
| 15>                          ****END OF INPUT****

CARTESIAN COORDINATES (ANGSTROEM)
---------------------------------
  C      2.916324   -1.242589   -1.543125
  C      0.704661    1.443129   -4.503630
  C      1.728539    1.424320   -5.639443
  H      2.646718    1.953794   -5.381054
  H      1.299916    1.930613   -6.503614
  S      2.252625   -0.188115   -6.271840
  C      3.466585   -1.590971   -2.889082
  N      4.652275   -1.143164   -3.259692
  C      2.752264   -2.292043   -3.728029
  H      1.778364   -2.489604   -3.512738
  H      2.948612   -2.208544   -4.716813
  H      5.146723   -0.512508   -2.633852
  H      4.783030   -1.007203   -4.253498
  O      3.562607   -0.444464   -5.631552
  F      2.344944   -0.033742   -7.696501
  C      2.804084    0.290698   -1.359243
  C      1.052550    0.695659   -3.214915
  H     -0.232483    1.032925   -4.884449
  H      0.511700    2.495794   -4.267966
  C      2.388380    1.093669   -2.597108
  H      3.763425    0.674718   -0.999889
  H      2.094788    0.461222   -0.545756
  O      1.266058   -1.159177   -5.805365
  H      3.167316    1.013242   -3.359430
  H      2.357690    2.149375   -2.310997
  H      1.039284   -0.368429   -3.449329
  H      0.250787    0.865605   -2.488283
  H      1.940472   -1.716529   -1.441161
  H      3.558569   -1.663433   -0.766371

 Total Charge           Charge          ....    0
 Multiplicity           Mult            ....    1
 Number of Electrons    NEL             ....  112
 Basis Dimension        Dim             ....  266

ORBITAL ENERGIES
----------------

  NO   OCC          E(Eh)            E(eV)
   0   2.0000     -89.225229     -2427.9419
   1   2.0000     -24.920238      -678.1142
   2   2.0000     -19.247069      -523.7394
   3   2.0000     -19.243959      -523.6548
   4   2.0000     -14.398252      -391.7963
   5   2.0000     -10.353157      -281.7237
   6   2.0000     -10.317274      -280.7473
   7   2.0000     -10.283825      -279.8371
   8   2.0000     -10.283259      -279.8217
   9   2.0000     -10.282447      -279.7996
  10   2.0000     -10.277084      -279.6537
  11   2.0000     -10.272240      -279.5219
  12   2.0000     -10.186816      -277.1973
  13   2.0000      -8.307655      -226.0628
  14   2.0000      -6.270752      -170.6358
  15   2.0000      -6.264348      -170.4616
  16   2.0000      -6.262904      -170.4223
  17   2.0000      -1.503048       -40.9000
  18   2.0000      -1.221416       -33.2364
  19   2.0000      -1.116089       -30.3703
  20   2.0000      -1.008904       -27.4537
  21   2.0000      -0.949947       -25.8494
  22   2.0000      -0.904347       -24.6085
  23   2.0000      -0.866991       -23.5920
  24   2.0000      -0.833582       -22.6829
  25   2.0000      -0.810124       -22.0446
  26   2.0000      -0.777135       -21.1469
  27   2.0000      -0.732968       -19.9451
  28   2.0000      -0.704748       -19.1772
  29   2.0000      -0.697896       -18.9907
  30   2.0000      -0.671732       -18.2788
  31   2.0000      -0.663100       -18.0439
  32   2.0000      -0.631804       -17.1923
  33   2.0000      -0.604299       -16.4438
  34   2.0000      -0.597123       -16.2486
  35   2.0000      -0.595316       -16.1994
  36   2.0000      -0.570213       -15.5163
  37   2.0000      -0.553252       -15.0548
  38   2.0000      -0.543539       -14.7904
  39   2.0000      -0.538156       -14.6440
  40   2.0000      -0.523083       -14.2338
  41   2.0000      -0.504223       -13.7206
  42   2.0000      -0.494030       -13.4432
  43   2.0000      -0.477179       -12.9847
  44   2.0000      -0.471749       -12.8369
  45   2.0000      -0.460221       -12.5233
  46   2.0000      -0.450370       -12.2552
  47   2.0000      -0.441793       -12.0218
  48   2.0000      -0.428769       -11.6674
  49   2.0000      -0.418398       -11.3852
  50   2.0000      -0.412384       -11.2215
  51   2.0000      -0.407561       -11.0903
  52   2.0000      -0.402320       -10.9477
  53   2.0000      -0.392113       -10.6699
  54   2.0000      -0.383465       -10.4346
  55   2.0000      -0.250291        -6.8108
  56   0.0000       0.109001         2.9661
  57   0.0000       0.116258         3.1635
  58   0.0000       0.139598         3.7987
  59   0.0000       0.148662         4.0453
  60   0.0000       0.154479         4.2036

MULLIKEN ATOMIC CHARGES
-----------------------
   0 C :    0.091890
   1 C :   -0.016696
   2 C :   -0.149935
   3 H :    0.098331
   4 H :    0.076237
   5 S :    0.998133
   6 C :   -0.197683
   7 N :   -0.086747
   8 C :   -0.029259
   9 H :   -0.025319
  10 H :   -0.033919
  11 H :    0.103294
  12 H :    0.131214
  13 O :   -0.488870
  14 F :   -0.162442
  15 C :   -0.058058
  16 C :   -0.035616
  17 H :    0.049243
  18 H :    0.043896
  19 C :   -0.021486
  20 H :    0.017404
  21 H :    0.020802
  22 O :   -0.437001
  23 H :   -0.001174
  24 H :    0.009119
  25 H :    0.043322
  26 H :    0.022087
  27 H :    0.013536
  28 H :    0.025697
Sum of atomic charges:   -0.0000000

LOEWDIN ATOMIC CHARGES
----------------------
   0 C :   -0.031806
   1 C :   -0.037529
   2 C :   -0.150044
   3 H :    0.042877
   4 H :    0.034699
   5 S :    1.182605
   6 C :   -0.008385
   7 N :   -0.018571
   8 C :   -0.167186
   9 H :   -0.007690
  10 H :   -0.021538
  11 H :    0.061127
  12 H :    0.061770
  13 O :   -0.496473
  14 F :   -0.107832
  15 C :   -0.037455
  16 C :   -0.043860
  17 H :    0.035129
  18 H :    0.036691
  19 C :   -0.046599
  20 H :    0.018735
  21 H :    0.023497
  22 O :   -0.465963
  23 H :    0.011550
  24 H :    0.018975
  25 H :    0.029159
  26 H :    0.025856
  27 H :    0.030719
  28 H :    0.027543

  Mayer bond orders larger than 0.100000
B(  0-C ,  6-C ) :   1.0333 B(  0-C , 15-C ) :   1.0506 B(  0-C , 27-H ) :   0.9299
B(  0-C , 28-H ) :   0.9348 B(  1-C ,  2-C ) :   1.0499 B(  1-C , 16-C ) :   1.0847
B(  1-C , 17-H ) :   0.9462 B(  1-C , 18-H ) :   0.9407 B(  2-C ,  3-H ) :   0.9279
B(  2-C ,  4-H ) :   0.9375 B(  2-C ,  5-S ) :   0.9002 B(  5-S , 13-O ) :   1.6678
B(  5-S , 14-F ) :   1.0431 B(  5-S , 22-O ) :   1.7713 B(  6-C ,  7-N ) :   1.2425
B(  6-C ,  8-C ) :   1.8734 B(  7-N , 11-H ) :   0.9579 B(  7-N , 12-H ) :   0.9355
B(  8-C ,  9-H ) :   0.9451 B(  8-C , 10-H ) :   0.9466 B( 15-C , 19-C ) :   1.0900
B( 15-C , 20-H ) :   0.9490 B( 15-C , 21-H ) :   0.9502 B( 16-C , 19-C ) :   1.0581
B( 16-C , 25-H ) :   0.9334 B( 16-C , 26-H ) :   0.9423 B( 19-C , 23-H ) :   0.9192
B( 19-C , 24-H ) :   0.9456

Dispersion correction           -0.016333136
FINAL SINGLE POINT ENERGY     -1016.829701770067

DIPOLE MOMENT
-------------
                                X             Y             Z
Electronic contribution:      1.39241      -3.43224     -22.31428
Nuclear contribution   :     -1.74760       5.67788      21.66873
                        -----------------------------------------
Total Dipole Moment    :     -0.35519       2.24563      -0.64555
                        -----------------------------------------
Magnitude (a.u.)       :      2.36342
Magnitude (Debye)      :      6.00734

Rotational constants in cm-1:     0.036818     0.018222     0.014682
Rotational constants in MHz :  1103.783048   546.296792   440.157914

                             ****ORCA TERMINATED NORMALLY****
TOTAL RUN TIME: 0 days 0 hours 0 minutes 34 seconds 839 msec
