                         Program Version 5.0.0 -  RELEASE  -
|  1> !CAM-B3LYP RIJCOSX def2-SVPD def2/J TightSCF
|  2> *xyz -1 1
|  3> C         -0.90349       -0.87394       -1.98739
|  4> C         -0.96015       -0.52236       -0.48987
|  5> H         -1.69039       -1.20813       -0.02168
|  6> H         -1.41449        0.48633       -0.40668
|  7> O          0.26170       -0.58031        0.13861
|  8> H         -1.88568       -0.80774       -2.40670
|  9> H         -0.53143       -1.87013       -2.10605
| 10> H         -0.25399       -0.18836       -2.49039
| 11> *
| 12>
| 13> %MaxCore 64000
| 14>
| 15> %pal nprocs 4
| 16> end
| 17>
| 18> %scf
| 19>   MaxIter 150
| 20> end
| 21>
| 22>
| 23>                          ****END OF INPUT****

CARTESIAN COORDINATES (ANGSTROEM)
---------------------------------
  C     -0.903490   -0.873940   -1.987390
  C     -0.960150   -0.522360   -0.489870
  H     -1.690390   -1.208130   -0.021680
  H     -1.414490    0.486330   -0.406680
  O      0.261700   -0.580310    0.138610
  H     -1.885680   -0.807740   -2.406700
  H     -0.531430   -1.870130   -2.106050
  H     -0.253990   -0.188360   -2.490390

 Total Charge           Charge          ....   -1
 Multiplicity           Mult            ....    1
 Number of Electrons    NEL             ....   26
 Basis Dimension        Dim             ....  103

ORBITAL ENERGIES
----------------

  NO   OCC          E(Eh)            E(eV)
   0   2.0000     -18.878468      -513.7092
   1   2.0000     -10.073102      -274.1030
   2   2.0000     -10.051741      -273.5218
   3   2.0000      -0.746986       -20.3265
   4   2.0000      -0.601159       -16.3584
   5   2.0000      -0.443465       -12.0673
   6   2.0000      -0.322238        -8.7685
   7   2.0000      -0.297852        -8.1050
   8   2.0000      -0.241433        -6.5697
   9   2.0000      -0.224659        -6.1133
  10   2.0000      -0.175868        -4.7856
  11   2.0000      -0.031988        -0.8704
  12   2.0000      -0.029471        -0.8020
  13   0.0000       0.207044         5.6339
  14   0.0000       0.238838         6.4991
  15   0.0000       0.275441         7.4951
  16   0.0000       0.287935         7.8351
  17   0.0000       0.305399         8.3103

MULLIKEN ATOMIC CHARGES
-----------------------
   0 C :    0.503374
   1 C :    0.255071
   2 H :   -0.224763
   3 H :   -0.216022
   4 O :   -0.889562
   5 H :   -0.122203
   6 H :   -0.152636
   7 H :   -0.153258
Sum of atomic charges:   -1.0000000

LOEWDIN ATOMIC CHARGES
----------------------
   0 C :    0.064869
   1 C :   -0.259300
   2 H :   -0.034202
   3 H :   -0.032508
   4 O :   -0.593314
   5 H :   -0.059312
   6 H :   -0.043086
   7 H :   -0.043147

  Mayer bond orders larger than 0.100000
B(  0-C ,  1-C ) :   1.1595 B(  0-C ,  2-H ) :   0.1295 B(  0-C ,  3-H ) :   0.1277
B(  0-C ,  4-O ) :   0.1275 B(  0-C ,  5-H ) :   0.8647 B(  0-C ,  6-H ) :   0.8708
B(  0-C ,  7-H ) :   0.8704 B(  1-C ,  2-H ) :   0.9554 B(  1-C ,  3-H ) :   0.9582
B(  1-C ,  4-O ) :   1.1752 B(  1-C ,  5-H ) :   0.1415 B(  1-C ,  6-H ) :   0.1920
B(  1-C ,  7-H ) :   0.1925

FINAL SINGLE POINT ENERGY      -154.246315225683

DIPOLE MOMENT
-------------
                                X             Y             Z
Electronic contribution:      1.77508       0.17266       2.05502
Nuclear contribution   :     -2.90669      -0.27617      -3.31210
                        -----------------------------------------
Total Dipole Moment    :     -1.13162      -0.10350      -1.25708
                        -----------------------------------------
Magnitude (a.u.)       :      1.69456
Magnitude (Debye)      :      4.30722

Rotational constants in cm-1:     1.291883     0.321656     0.284469
Rotational constants in MHz : 38729.676116  9643.011620  8528.167295

                             ****ORCA TERMINATED NORMALLY****
TOTAL RUN TIME: 0 days 0 hours 0 minutes 13 seconds 477 msec
