                         Program Version 5.0.0 -  RELEASE  -
|  1> !CAM-B3LYP RIJCOSX def2-SVPD def2/J TightSCF
|  2> *xyz 1 1
|  3> C          4.36645       -0.13321       -1.41606
|  4> C          4.50829       -0.93187       -2.72425
|  5> C          3.05650       -0.32080       -0.70738
|  6> N          2.38983        0.71129       -0.24391
|  7> N          2.51600       -1.50772       -0.55023
|  8> H          2.96768       -2.32291       -0.95631
|  9> H          1.54987       -1.49063       -0.24988
| 10> H          2.74307        1.64947       -0.41280
| 11> H          1.44036        0.50278        0.03703
| 12> H          4.48784        0.93300       -1.61157
| 13> H          5.16967       -0.41443       -0.72982
| 14> H          5.46700       -0.73824       -3.15818
| 15> H          3.74074       -0.63528       -3.40821
| 16> H          4.41574       -1.97727       -2.51573
| 17> *
| 18>
| 19> %MaxCore 64000
| 20>
| 21> %pal nprocs 4
| 22> end
| 23>
| 24> %scf
| 25>   MaxIter 150
| 26> end
| 27>
| 28>
| 29>                          ****END OF INPUT****

CARTESIAN COORDINATES (ANGSTROEM)
---------------------------------
  C      4.366450   -0.133210   -1.416060
  C      4.508290   -0.931870   -2.724250
  C      3.056500   -0.320800   -0.707380
  N      2.389830    0.711290   -0.243910
  N      2.516000   -1.507720   -0.550230
  H      2.967680   -2.322910   -0.956310
  H      1.549870   -1.490630   -0.249880
  H      2.743070    1.649470   -0.412800
  H      1.440360    0.502780    0.037030
  H      4.487840    0.933000   -1.611570
  H      5.169670   -0.414430   -0.729820
  H      5.467000   -0.738240   -3.158180
  H      3.740740   -0.635280   -3.408210
  H      4.415740   -1.977270   -2.515730

 Total Charge           Charge          ....    1
 Multiplicity           Mult            ....    1
 Number of Electrons    NEL             ....   40
 Basis Dimension        Dim             ....  172

ORBITAL ENERGIES
----------------

  NO   OCC          E(Eh)            E(eV)
   0   2.0000     -14.653804      -398.7503
   1   2.0000     -14.652606      -398.7177
   2   2.0000     -10.585876      -288.0563
   3   2.0000     -10.461701      -284.6774
   4   2.0000     -10.419303      -283.5236
   5   2.0000      -1.291117       -35.1331
   6   2.0000      -1.182096       -32.1665
   7   2.0000      -1.049230       -28.5510
   8   2.0000      -0.935379       -25.4530
   9   2.0000      -0.894476       -24.3399
  10   2.0000      -0.843971       -22.9656
  11   2.0000      -0.829448       -22.5704
  12   2.0000      -0.776328       -21.1250
  13   2.0000      -0.735079       -20.0025
  14   2.0000      -0.699475       -19.0337
  15   2.0000      -0.673543       -18.3280
  16   2.0000      -0.623087       -16.9551
  17   2.0000      -0.609033       -16.5726
  18   2.0000      -0.594213       -16.1694
  19   2.0000      -0.560235       -15.2448
  20   0.0000      -0.168211        -4.5773
  21   0.0000      -0.128570        -3.4986
  22   0.0000      -0.084484        -2.2989
  23   0.0000      -0.083212        -2.2643
  24   0.0000      -0.050560        -1.3758

MULLIKEN ATOMIC CHARGES
-----------------------
   0 C :   -0.144555
   1 C :    0.937692
   2 C :    0.446032
   3 N :    0.171900
   4 N :    0.226667
   5 H :   -0.026690
   6 H :   -0.124608
   7 H :    0.004403
   8 H :   -0.086308
   9 H :    0.005063
  10 H :   -0.027081
  11 H :   -0.076731
  12 H :   -0.117851
  13 H :   -0.187934
Sum of atomic charges:    1.0000000

LOEWDIN ATOMIC CHARGES
----------------------
   0 C :    0.019278
   1 C :    0.170059
   2 C :   -0.044684
   3 N :    0.283343
   4 N :    0.290411
   5 H :    0.048157
   6 H :    0.044425
   7 H :    0.058509
   8 H :    0.043644
   9 H :    0.036838
  10 H :    0.056959
  11 H :    0.009327
  12 H :    0.002236
  13 H :   -0.018504

  Mayer bond orders larger than 0.100000
B(  0-C ,  1-C ) :   1.2832 B(  0-C ,  2-C ) :   1.1699 B(  0-C ,  9-H ) :   0.8583
B(  0-C , 10-H ) :   0.8161 B(  0-C , 11-H ) :   0.1945 B(  0-C , 12-H ) :   0.2096
B(  0-C , 13-H ) :   0.2010 B(  1-C ,  9-H ) :   0.1304 B(  1-C , 11-H ) :   0.7931
B(  1-C , 12-H ) :   0.7289 B(  1-C , 13-H ) :   0.7791 B(  2-C ,  3-N ) :   1.1677
B(  2-C ,  4-N ) :   1.1768 B(  2-C ,  6-H ) :  -0.1530 B(  2-C ,  8-H ) :  -0.1018
B(  2-C ,  9-H ) :   0.1741 B(  2-C , 10-H ) :   0.1496 B(  3-N ,  4-N ) :   0.1879
B(  3-N ,  7-H ) :   1.1180 B(  3-N ,  8-H ) :   1.2004 B(  4-N ,  5-H ) :   1.0890
B(  4-N ,  6-H ) :   1.2593 B(  5-H ,  6-H ) :  -0.1820 B(  7-H ,  8-H ) :  -0.1461

FINAL SINGLE POINT ENERGY      -228.750076080059

DIPOLE MOMENT
-------------
                                X             Y             Z
Electronic contribution:     -2.66904       0.62917       3.11966
Nuclear contribution   :      1.78847      -0.48174      -2.67127
                        -----------------------------------------
Total Dipole Moment    :     -0.88057       0.14743       0.44838
                        -----------------------------------------
Magnitude (a.u.)       :      0.99909
Magnitude (Debye)      :      2.53949

Rotational constants in cm-1:     0.286883     0.123210     0.094446
Rotational constants in MHz :  8600.540572  3693.747366  2831.415242

                             ****ORCA TERMINATED NORMALLY****
TOTAL RUN TIME: 0 days 0 hours 0 minutes 30 seconds 429 msec
