                         Program Version 5.0.0 -  RELEASE  -
|  1> !CAM-B3LYP RIJCOSX def2-SVPD def2/J TightSCF
|  2> *xyz 0 1
|  3> C         -0.90349       -0.87394       -1.98739
|  4> C         -0.96015       -0.52236       -0.48987
|  5> H         -1.69039       -1.20813       -0.02168
|  6> H         -1.41449        0.48633       -0.40668
|  7> F          0.26170       -0.58031        0.13861
|  8> H         -1.88568       -0.80774       -2.40670
|  9> H         -0.53143       -1.87013       -2.10605
| 10> H         -0.25399       -0.18836       -2.49039
| 11> *
| 12>
| 13> %MaxCore 64000
| 14>
| 15> %pal nprocs 4
| 16> end
| 17>
| 18> %scf
| 19>   MaxIter 150
| 20> end
| 21>
| 22>
| 23>                          ****END OF INPUT****

CARTESIAN COORDINATES (ANGSTROEM)
---------------------------------
  C     -0.903490   -0.873940   -1.987390
  C     -0.960150   -0.522360   -0.489870
  H     -1.690390   -1.208130   -0.021680
  H     -1.414490    0.486330   -0.406680
  F      0.261700   -0.580310    0.138610
  H     -1.885680   -0.807740   -2.406700
  H     -0.531430   -1.870130   -2.106050
  H     -0.253990   -0.188360   -2.490390

 Total Charge           Charge          ....    0
 Multiplicity           Mult            ....    1
 Number of Electrons    NEL             ....   26
 Basis Dimension        Dim             ....  103

ORBITAL ENERGIES
----------------

  NO   OCC          E(Eh)            E(eV)
   0   2.0000     -24.762087      -673.8106
   1   2.0000     -10.341769      -281.4138
   2   2.0000     -10.257919      -279.1322
   3   2.0000      -1.264167       -34.3997
   4   2.0000      -0.842808       -22.9340
   5   2.0000      -0.706665       -19.2293
   6   2.0000      -0.582823       -15.8594
   7   2.0000      -0.572430       -15.5766
   8   2.0000      -0.533331       -14.5127
   9   2.0000      -0.478067       -13.0089
  10   2.0000      -0.471827       -12.8391
  11   2.0000      -0.407794       -11.0966
  12   2.0000      -0.401509       -10.9256
  13   0.0000       0.051344         1.3971
  14   0.0000       0.082398         2.2422
  15   0.0000       0.109914         2.9909
  16   0.0000       0.114451         3.1144
  17   0.0000       0.141822         3.8592

MULLIKEN ATOMIC CHARGES
-----------------------
   0 C :    0.536181
   1 C :    0.529890
   2 H :   -0.136576
   3 H :   -0.128093
   4 F :   -0.440080
   5 H :   -0.102132
   6 H :   -0.129348
   7 H :   -0.129843
Sum of atomic charges:   -0.0000000

LOEWDIN ATOMIC CHARGES
----------------------
   0 C :    0.138023
   1 C :    0.063842
   2 H :    0.029066
   3 H :    0.031199
   4 F :   -0.219024
   5 H :   -0.013131
   6 H :   -0.014960
   7 H :   -0.015016

  Mayer bond orders larger than 0.100000
B(  0-C ,  1-C ) :   1.3143 B(  0-C ,  5-H ) :   0.8286 B(  0-C ,  6-H ) :   0.8585
B(  0-C ,  7-H ) :   0.8584 B(  1-C ,  2-H ) :   0.9203 B(  1-C ,  3-H ) :   0.9218
B(  1-C ,  4-F ) :   0.7669 B(  1-C ,  5-H ) :   0.1328 B(  1-C ,  6-H ) :   0.1524
B(  1-C ,  7-H ) :   0.1526

FINAL SINGLE POINT ENERGY      -178.862541333697

DIPOLE MOMENT
-------------
                                X             Y             Z
Electronic contribution:      3.18704       0.37719       3.96098
Nuclear contribution   :     -3.84149      -0.36812      -4.38946
                        -----------------------------------------
Total Dipole Moment    :     -0.65445       0.00907      -0.42849
                        -----------------------------------------
Magnitude (a.u.)       :      0.78230
Magnitude (Debye)      :      1.98844

Rotational constants in cm-1:     1.270659     0.299196     0.265842
Rotational constants in MHz : 38093.410361  8969.665806  7969.741481

                             ****ORCA TERMINATED NORMALLY****
TOTAL RUN TIME: 0 days 0 hours 0 minutes 7 seconds 674 msec
