                         Program Version 5.0.0 -  RELEASE  -
|  1> !CAM-B3LYP RIJCOSX def2-SVPD def2/J TightSCF
|  2> *xyz 0 1
|  3> C          4.36645       -0.13321       -1.41606
|  4> C          4.50829       -0.93187       -2.72425
|  5> C          3.05650       -0.32080       -0.70738
|  6> C          2.38983        0.71129       -0.24391
|  7> N          2.51600       -1.50772       -0.55023
|  8> H          2.96768       -2.32291       -0.95631
|  9> H          1.54987       -1.49063       -0.24988
| 10> H          2.74307        1.64947       -0.41280
| 11> H          1.44036        0.50278        0.03703
| 12> H          4.48784        0.93300       -1.61157
| 13> H          5.16967       -0.41443       -0.72982
| 14> H          5.46700       -0.73824       -3.15818
| 15> H          3.74074       -0.63528       -3.40821
| 16> H          4.41574       -1.97727       -2.51573
| 17> *
| 18>
| 19> %MaxCore 64000
| 20>
| 21> %pal nprocs 4
| 22> end
| 23>
| 24> %scf
| 25>   MaxIter 150
| 26> end
| 27>
| 28>
| 29>                          ****END OF INPUT****

CARTESIAN COORDINATES (ANGSTROEM)
---------------------------------
  C      4.366450   -0.133210   -1.416060
  C      4.508290   -0.931870   -2.724250
  C      3.056500   -0.320800   -0.707380
  C      2.389830    0.711290   -0.243910
  N      2.516000   -1.507720   -0.550230
  H      2.967680   -2.322910   -0.956310
  H      1.549870   -1.490630   -0.249880
  H      2.743070    1.649470   -0.412800
  H      1.440360    0.502780    0.037030
  H      4.487840    0.933000   -1.611570
  H      5.169670   -0.414430   -0.729820
  H      5.467000   -0.738240   -3.158180
  H      3.740740   -0.635280   -3.408210
  H      4.415740   -1.977270   -2.515730

 Total Charge           Charge          ....    0
 Multiplicity           Mult            ....    1
 Number of Electrons    NEL             ....   40
 Basis Dimension        Dim             ....  172

ORBITAL ENERGIES
----------------

  NO   OCC          E(Eh)            E(eV)
   0   2.0000     -14.403918      -391.9505
   1   2.0000     -10.277530      -279.6658
   2   2.0000     -10.260362      -279.1986
   3   2.0000     -10.251864      -278.9674
   4   2.0000     -10.189898      -277.2812
   5   2.0000      -1.008963       -27.4553
   6   2.0000      -0.854842       -23.2614
   7   2.0000      -0.798126       -21.7181
   8   2.0000      -0.710264       -19.3273
   9   2.0000      -0.634734       -17.2720
  10   2.0000      -0.606203       -16.4956
  11   2.0000      -0.541809       -14.7434
  12   2.0000      -0.511078       -13.9072
  13   2.0000      -0.500407       -13.6168
  14   2.0000      -0.462475       -12.5846
  15   2.0000      -0.449399       -12.2288
  16   2.0000      -0.424572       -11.5532
  17   2.0000      -0.411266       -11.1911
  18   2.0000      -0.392953       -10.6928
  19   2.0000      -0.248865        -6.7720
  20   0.0000       0.046751         1.2722
  21   0.0000       0.075060         2.0425
  22   0.0000       0.081691         2.2229
  23   0.0000       0.093206         2.5363
  24   0.0000       0.103477         2.8157

MULLIKEN ATOMIC CHARGES
-----------------------
   0 C :    0.026473
   1 C :    0.954274
   2 C :   -0.326661
   3 C :    0.575505
   4 N :    0.406617
   5 H :   -0.198376
   6 H :   -0.154920
   7 H :   -0.233579
   8 H :   -0.475780
   9 H :    0.044378
  10 H :   -0.129958
  11 H :   -0.142527
  12 H :   -0.120238
  13 H :   -0.225209
Sum of atomic charges:    0.0000000

LOEWDIN ATOMIC CHARGES
----------------------
   0 C :   -0.022966
   1 C :    0.131382
   2 C :   -0.264682
   3 C :    0.170011
   4 N :    0.172722
   5 H :   -0.005369
   6 H :    0.004452
   7 H :   -0.079877
   8 H :   -0.086989
   9 H :    0.020940
  10 H :    0.025735
  11 H :   -0.018075
  12 H :   -0.011804
  13 H :   -0.035480

  Mayer bond orders larger than 0.100000
B(  0-C ,  1-C ) :   1.2373 B(  0-C ,  2-C ) :   1.1808 B(  0-C ,  9-H ) :   0.8639
B(  0-C , 10-H ) :   0.7721 B(  0-C , 11-H ) :   0.2417 B(  0-C , 12-H ) :   0.2106
B(  0-C , 13-H ) :   0.2245 B(  1-C ,  9-H ) :   0.1203 B(  1-C , 11-H ) :   0.7449
B(  1-C , 12-H ) :   0.7343 B(  1-C , 13-H ) :   0.7589 B(  2-C ,  3-C ) :   1.8096
B(  2-C ,  4-N ) :   1.2934 B(  2-C ,  8-H ) :   0.2978 B(  2-C , 10-H ) :   0.2339
B(  3-C ,  4-N ) :   0.2574 B(  3-C ,  7-H ) :   0.9699 B(  3-C ,  8-H ) :   0.5686
B(  4-N ,  5-H ) :   1.1006 B(  4-N ,  6-H ) :   1.1476 B(  5-H ,  6-H ) :  -0.1486

FINAL SINGLE POINT ENERGY      -212.291234504159

DIPOLE MOMENT
-------------
                                X             Y             Z
Electronic contribution:     -1.48927      -0.42503       2.06929
Nuclear contribution   :      1.56827      -0.21459      -2.46657
                        -----------------------------------------
Total Dipole Moment    :      0.07899      -0.63962      -0.39728
                        -----------------------------------------
Magnitude (a.u.)       :      0.75709
Magnitude (Debye)      :      1.92437

Rotational constants in cm-1:     0.294070     0.127722     0.097792
Rotational constants in MHz :  8815.983970  3829.010547  2931.715816

                             ****ORCA TERMINATED NORMALLY****
TOTAL RUN TIME: 0 days 0 hours 0 minutes 28 seconds 215 msec
