                         Program Version 5.0.0 -  RELEASE  -
|  1> !CAM-B3LYP RIJCOSX def2-SVPD def2/J TightSCF
|  2> *xyz 0 1
|  3> C          4.36645       -0.13321       -1.41606
|  4> C          4.50829       -0.93187       -2.72425
|  5> C          3.05650       -0.32080       -0.70738
|  6> N          2.38983        0.71129       -0.24391
|  7> C          2.51600       -1.50772       -0.55023
|  8> H          2.96768       -2.32291       -0.95631
|  9> H          1.54987       -1.49063       -0.24988
| 10> H          2.74307        1.64947       -0.41280
| 11> H          1.44036        0.50278        0.03703
| 12> H          4.48784        0.93300       -1.61157
| 13> H          5.16967       -0.41443       -0.72982
| 14> H          5.46700       -0.73824       -3.15818
| 15> H          3.74074       -0.63528       -3.40821
| 16> H          4.41574       -1.97727       -2.51573
| 17> *
| 18>
| 19> %MaxCore 64000
| 20>
| 21> %pal nprocs 4
| 22> end
| 23>
| 24> %scf
| 25>   MaxIter 150
| 26> end
| 27>
| 28>
| 29>                          ****END OF INPUT****

CARTESIAN COORDINATES (ANGSTROEM)
---------------------------------
  C      4.366450   -0.133210   -1.416060
  C      4.508290   -0.931870   -2.724250
  C      3.056500   -0.320800   -0.707380
  N      2.389830    0.711290   -0.243910
  C      2.516000   -1.507720   -0.550230
  H      2.967680   -2.322910   -0.956310
  H      1.549870   -1.490630   -0.249880
  H      2.743070    1.649470   -0.412800
  H      1.440360    0.502780    0.037030
  H      4.487840    0.933000   -1.611570
  H      5.169670   -0.414430   -0.729820
  H      5.467000   -0.738240   -3.158180
  H      3.740740   -0.635280   -3.408210
  H      4.415740   -1.977270   -2.515730

 Total Charge           Charge          ....    0
 Multiplicity           Mult            ....    1
 Number of Electrons    NEL             ....   40
 Basis Dimension        Dim             ....  172

ORBITAL ENERGIES
----------------

  NO   OCC          E(Eh)            E(eV)
   0   2.0000     -14.404552      -391.9678
   1   2.0000     -10.277802      -279.6732
   2   2.0000     -10.261739      -279.2361
   3   2.0000     -10.245539      -278.7953
   4   2.0000     -10.188393      -277.2403
   5   2.0000      -1.009273       -27.4637
   6   2.0000      -0.856620       -23.3098
   7   2.0000      -0.786769       -21.4091
   8   2.0000      -0.720141       -19.5960
   9   2.0000      -0.625262       -17.0142
  10   2.0000      -0.603288       -16.4163
  11   2.0000      -0.549772       -14.9600
  12   2.0000      -0.522047       -14.2056
  13   2.0000      -0.477669       -12.9980
  14   2.0000      -0.459305       -12.4983
  15   2.0000      -0.448976       -12.2172
  16   2.0000      -0.425509       -11.5787
  17   2.0000      -0.408925       -11.1274
  18   2.0000      -0.394412       -10.7325
  19   2.0000      -0.247397        -6.7320
  20   0.0000       0.050704         1.3797
  21   0.0000       0.070289         1.9127
  22   0.0000       0.083084         2.2608
  23   0.0000       0.089522         2.4360
  24   0.0000       0.107542         2.9264

MULLIKEN ATOMIC CHARGES
-----------------------
   0 C :    0.124963
   1 C :    0.935519
   2 C :   -0.176289
   3 N :    0.310703
   4 C :    0.572091
   5 H :   -0.307004
   6 H :   -0.511784
   7 H :   -0.149136
   8 H :   -0.099228
   9 H :   -0.115786
  10 H :   -0.124595
  11 H :   -0.108171
  12 H :   -0.145200
  13 H :   -0.206083
Sum of atomic charges:    0.0000000

LOEWDIN ATOMIC CHARGES
----------------------
   0 C :   -0.024113
   1 C :    0.135223
   2 C :   -0.258526
   3 N :    0.164887
   4 C :    0.174046
   5 H :   -0.086148
   6 H :   -0.086776
   7 H :    0.001519
   8 H :    0.003708
   9 H :    0.009269
  10 H :    0.027866
  11 H :   -0.019863
  12 H :   -0.012490
  13 H :   -0.028602

  Mayer bond orders larger than 0.100000
B(  0-C ,  1-C ) :   1.2696 B(  0-C ,  2-C ) :   1.1071 B(  0-C ,  9-H ) :   0.7441
B(  0-C , 10-H ) :   0.8156 B(  0-C , 11-H ) :   0.2084 B(  0-C , 12-H ) :   0.2138
B(  0-C , 13-H ) :   0.1997 B(  1-C ,  9-H ) :   0.1063 B(  1-C , 11-H ) :   0.7549
B(  1-C , 12-H ) :   0.7457 B(  1-C , 13-H ) :   0.7906 B(  2-C ,  3-N ) :   1.2013
B(  2-C ,  4-C ) :   1.7877 B(  2-C ,  5-H ) :   0.1110 B(  2-C ,  6-H ) :   0.2606
B(  2-C ,  9-H ) :   0.2457 B(  2-C , 10-H ) :   0.1702 B(  3-N ,  4-C ) :   0.2708
B(  3-N ,  7-H ) :   1.1161 B(  3-N ,  8-H ) :   1.1160 B(  4-C ,  5-H ) :   0.8030
B(  4-C ,  6-H ) :   0.6894 B(  5-H ,  6-H ) :  -0.1106 B(  7-H ,  8-H ) :  -0.1226

FINAL SINGLE POINT ENERGY      -212.289920741027

DIPOLE MOMENT
-------------
                                X             Y             Z
Electronic contribution:     -1.60071       1.45553       2.34594
Nuclear contribution   :      1.59749      -0.72853      -2.53752
                        -----------------------------------------
Total Dipole Moment    :     -0.00322       0.72700      -0.19158
                        -----------------------------------------
Magnitude (a.u.)       :      0.75183
Magnitude (Debye)      :      1.91099

Rotational constants in cm-1:     0.304597     0.124127     0.096828
Rotational constants in MHz :  9131.600925  3721.227051  2902.830760

                             ****ORCA TERMINATED NORMALLY****
TOTAL RUN TIME: 0 days 0 hours 0 minutes 29 seconds 694 msec
