                         Program Version 5.0.0 -  RELEASE  -
|  1> !CAM-B3LYP RIJCOSX def2-SVPD def2/J TightSCF xyzfile
|  2>
|  3> *xyzfile 0 1 D2.xyz
|  4>
|  5> %MaxCore 64000
|  6>
|  7> %pal nprocs 4
|  8> end
|  9>
| 10> %scf
| 11>   MaxIter 150
| 12> end
| 13>
| 14>
| 15>                          ****END OF INPUT****

CARTESIAN COORDINATES (ANGSTROEM)
---------------------------------
  C      4.366454   -0.133215   -1.416062
  C      4.508292   -0.931872   -2.724249
  H      4.753716   -1.972051   -2.488408
  C      3.294164   -0.918214   -3.656570
  H      5.385637   -0.536236   -3.242640
  H      2.483463   -1.477378   -3.185764
  H      3.553092   -1.478495   -4.560331
  C      2.772335    0.460100   -4.051448
  H      2.608762    1.065107   -3.155194
  C      1.465354    0.410537   -4.853644
  H      3.532940    0.988848   -4.635671
  C      0.326171   -0.375613   -4.192580
  H      1.666704   -0.022269   -5.839323
  H      1.138198    1.439246   -5.035449
  C     -0.017405    0.080588   -2.778406
  H      0.585573   -1.439385   -4.168057
  H     -0.560005   -0.311425   -4.831461
  H      0.902090    0.201296   -2.206729
  C     -0.903495   -0.873945   -1.987388
  H     -0.479549    1.074657   -2.811915
  H     -0.502554   -1.892096   -2.081204
  H     -1.917039   -0.895427   -2.406277
  C     -0.960148   -0.522365   -0.489867
  H     -1.690392   -1.208130   -0.021677
  H     -1.414490    0.486329   -0.406677
  F      0.261703   -0.580307    0.138611
  C      3.056503   -0.320797   -0.707384
  N      2.389825    0.711285   -0.243909
  C      2.515999   -1.507721   -0.550229
  H      2.967683   -2.322915   -0.956305
  H      1.549872   -1.490634   -0.249876
  H      2.743071    1.649471   -0.412802
  H      1.440364    0.502778    0.037031
  H      4.487835    0.932997   -1.611569
  H      5.169672   -0.414432   -0.729817

 Total Charge           Charge          ....    0
 Multiplicity           Mult            ....    1
 Number of Electrons    NEL             ....  104
 Basis Dimension        Dim             ....  439

ORBITAL ENERGIES
----------------

  NO   OCC          E(Eh)            E(eV)
   0   2.0000     -24.792683      -674.6432
   1   2.0000     -14.379106      -391.2754
   2   2.0000     -10.353240      -281.7260
   3   2.0000     -10.269831      -279.4563
   4   2.0000     -10.259712      -279.1810
   5   2.0000     -10.251220      -278.9499
   6   2.0000     -10.250568      -278.9321
   7   2.0000     -10.248860      -278.8857
   8   2.0000     -10.247232      -278.8414
   9   2.0000     -10.246223      -278.8139
  10   2.0000     -10.243890      -278.7504
  11   2.0000     -10.237909      -278.5877
  12   2.0000     -10.162460      -276.5346
  13   2.0000      -1.304334       -35.4927
  14   2.0000      -0.991139       -26.9703
  15   2.0000      -0.897260       -24.4157
  16   2.0000      -0.873875       -23.7793
  17   2.0000      -0.848264       -23.0824
  18   2.0000      -0.804986       -21.9048
  19   2.0000      -0.773446       -21.0465
  20   2.0000      -0.762389       -20.7457
  21   2.0000      -0.715763       -19.4769
  22   2.0000      -0.691734       -18.8230
  23   2.0000      -0.661257       -17.9937
  24   2.0000      -0.627980       -17.0882
  25   2.0000      -0.618515       -16.8307
  26   2.0000      -0.603337       -16.4176
  27   2.0000      -0.598115       -16.2755
  28   2.0000      -0.584940       -15.9170
  29   2.0000      -0.556883       -15.1535
  30   2.0000      -0.548229       -14.9181
  31   2.0000      -0.533549       -14.5186
  32   2.0000      -0.520443       -14.1620
  33   2.0000      -0.506647       -13.7866
  34   2.0000      -0.499104       -13.5813
  35   2.0000      -0.484084       -13.1726
  36   2.0000      -0.467406       -12.7188
  37   2.0000      -0.458112       -12.4659
  38   2.0000      -0.448512       -12.2046
  39   2.0000      -0.435520       -11.8511
  40   2.0000      -0.431302       -11.7363
  41   2.0000      -0.425914       -11.5897
  42   2.0000      -0.417903       -11.3717
  43   2.0000      -0.414474       -11.2784
  44   2.0000      -0.398998       -10.8573
  45   2.0000      -0.392592       -10.6830
  46   2.0000      -0.380815       -10.3625
  47   2.0000      -0.373122       -10.1532
  48   2.0000      -0.371733       -10.1154
  49   2.0000      -0.365420        -9.9436
  50   2.0000      -0.362692        -9.8694
  51   2.0000      -0.229076        -6.2335
  52   0.0000       0.047394         1.2897
  53   0.0000       0.057100         1.5538
  54   0.0000       0.061475         1.6728
  55   0.0000       0.066393         1.8066
  56   0.0000       0.078809         2.1445

MULLIKEN ATOMIC CHARGES
-----------------------
   0 C :    0.748592
   1 C :    0.586116
   2 H :    0.026197
   3 C :    0.105466
   4 H :   -0.278589
   5 H :   -0.146275
   6 H :   -0.273625
   7 C :    0.150054
   8 H :   -0.038153
   9 C :    0.886730
  10 H :   -0.456811
  11 C :    0.206588
  12 H :   -0.101694
  13 H :   -0.074155
  14 C :    0.871892
  15 H :    0.085483
  16 H :   -0.511519
  17 H :   -1.066635
  18 C :    0.171752
  19 H :   -0.052118
  20 H :   -0.030337
  21 H :   -0.248946
  22 C :    1.224149
  23 H :   -0.178390
  24 H :   -0.099812
  25 F :   -0.787238
  26 C :   -0.694012
  27 N :    0.611789
  28 C :    0.983275
  29 H :   -0.301075
  30 H :   -0.710315
  31 H :   -0.127281
  32 H :   -0.238547
  33 H :    0.132076
  34 H :   -0.374631
Sum of atomic charges:   -0.0000000

LOEWDIN ATOMIC CHARGES
----------------------
   0 C :    0.019193
   1 C :   -0.017807
   2 H :    0.018942
   3 C :   -0.028903
   4 H :    0.017491
   5 H :   -0.011418
   6 H :    0.026450
   7 C :   -0.029826
   8 H :   -0.000280
   9 C :   -0.025434
  10 H :    0.023725
  11 C :   -0.032388
  12 H :    0.021361
  13 H :    0.020265
  14 C :   -0.029954
  15 H :    0.013563
  16 H :    0.020778
  17 H :   -0.025699
  18 C :   -0.010338
  19 H :    0.035016
  20 H :    0.031989
  21 H :    0.033754
  22 C :    0.165228
  23 H :    0.037627
  24 H :    0.041858
  25 F :   -0.222587
  26 C :   -0.238437
  27 N :    0.190864
  28 C :    0.192736
  29 H :   -0.073141
  30 H :   -0.134711
  31 H :    0.004298
  32 H :   -0.068822
  33 H :    0.008242
  34 H :    0.026365

  Mayer bond orders larger than 0.100000
B(  0-C ,  1-C ) :   1.1181 B(  0-C ,  3-C ) :   0.1319 B(  0-C ,  4-H ) :   0.1993
B(  0-C , 26-C ) :   1.2294 B(  0-C , 27-N ) :   0.1004 B(  0-C , 29-H ) :  -0.1334
B(  0-C , 33-H ) :   0.5197 B(  0-C , 34-H ) :   0.6681 B(  1-C ,  2-H ) :   0.6055
B(  1-C ,  3-C ) :   1.2424 B(  1-C ,  4-H ) :   0.7362 B(  1-C ,  5-H ) :   0.1652
B(  1-C , 26-C ) :   0.1431 B(  1-C , 28-C ) :   0.1017 B(  1-C , 30-H ) :  -0.1035
B(  1-C , 33-H ) :   0.1502 B(  1-C , 34-H ) :   0.1218 B(  2-H ,  3-C ) :   0.2920
B(  2-H ,  4-H ) :  -0.2099 B(  3-C ,  4-H ) :   0.2402 B(  3-C ,  5-H ) :   0.8035
B(  3-C ,  6-H ) :   0.7907 B(  3-C ,  7-C ) :   1.2178 B(  3-C ,  8-H ) :   0.1417
B(  3-C , 10-H ) :   0.1817 B(  4-H , 29-H ) :  -0.1393 B(  5-H ,  7-C ) :   0.1492
B(  5-H , 15-H ) :   0.1671 B(  5-H , 29-H ) :   0.1553 B(  5-H , 30-H ) :  -0.1201
B(  6-H ,  7-C ) :   0.1777 B(  7-C ,  8-H ) :   0.8279 B(  7-C ,  9-C ) :   1.1092
B(  7-C , 10-H ) :   0.8906 B(  7-C , 11-C ) :   0.1837 B(  7-C , 12-H ) :   0.1270
B(  7-C , 13-H ) :   0.3031 B(  8-H , 17-H ) :   0.2352 B(  9-C , 11-C ) :   1.1153
B(  9-C , 12-H ) :   0.6547 B(  9-C , 13-H ) :   0.6077 B( 11-C , 12-H ) :   0.2175
B( 11-C , 13-H ) :   0.1469 B( 11-C , 14-C ) :   1.1222 B( 11-C , 15-H ) :   0.8082
B( 11-C , 16-H ) :   0.9072 B( 11-C , 17-H ) :   0.2427 B( 11-C , 19-H ) :   0.1177
B( 12-H , 13-H ) :  -0.1455 B( 14-C , 15-H ) :   0.1611 B( 14-C , 16-H ) :   0.2310
B( 14-C , 17-H ) :  -0.2927 B( 14-C , 18-C ) :   1.1155 B( 14-C , 19-H ) :   0.5580
B( 14-C , 20-H ) :   0.1465 B( 14-C , 21-H ) :   0.2289 B( 14-C , 22-C ) :   0.1355
B( 14-C , 29-H ) :  -0.1069 B( 17-H , 18-C ) :   0.2027 B( 17-H , 19-H ) :   0.3294
B( 17-H , 29-H ) :   0.1132 B( 18-C , 19-H ) :   0.1097 B( 18-C , 20-H ) :   0.8718
B( 18-C , 21-H ) :   0.8075 B( 18-C , 22-C ) :   1.1141 B( 18-C , 23-H ) :   0.2331
B( 18-C , 24-H ) :   0.1296 B( 18-C , 25-F ) :   0.1195 B( 20-H , 22-C ) :   0.1052
B( 22-C , 23-H ) :   0.6723 B( 22-C , 24-H ) :   0.7563 B( 22-C , 25-F ) :   0.6420
B( 24-H , 25-F ) :   0.1681 B( 25-F , 26-C ) :   0.1258 B( 25-F , 28-C ) :  -0.1232
B( 25-F , 30-H ) :   0.2377 B( 26-C , 27-N ) :   1.0366 B( 26-C , 28-C ) :   2.0447
B( 26-C , 29-H ) :   0.1049 B( 26-C , 30-H ) :   0.6021 B( 26-C , 33-H ) :   0.3086
B( 26-C , 34-H ) :   0.3184 B( 27-N , 28-C ) :   0.3650 B( 27-N , 29-H ) :   0.1798
B( 27-N , 30-H ) :  -0.1054 B( 27-N , 31-H ) :   1.0648 B( 27-N , 32-H ) :   1.0263
B( 28-C , 29-H ) :   0.7134 B( 29-H , 30-H ) :  -0.3231 B( 31-H , 32-H ) :  -0.1683
B( 33-H , 34-H ) :  -0.1188

FINAL SINGLE POINT ENERGY      -586.249615443074

DIPOLE MOMENT
-------------
                                X             Y             Z
Electronic contribution:     -2.82172       0.00724      10.66077
Nuclear contribution   :      1.85154       0.58682     -11.15333
                        -----------------------------------------
Total Dipole Moment    :     -0.97019       0.59406      -0.49255
                        -----------------------------------------
Magnitude (a.u.)       :      1.23967
Magnitude (Debye)      :      3.15099

Rotational constants in cm-1:     0.028379     0.022321     0.014415
Rotational constants in MHz :   850.785777   669.176075   432.155504

                             ****ORCA TERMINATED NORMALLY****
TOTAL RUN TIME: 0 days 0 hours 4 minutes 56 seconds 855 msec
