                         Program Version 5.0.0 -  RELEASE  -
|  1> !wB97X-D3 RIJCOSX def2-SVPD def2/J TightSCF CPCM(Water)
|  2> *xyz -1 1
|  3> C         -0.60249       -0.63071        0.49224
|  4> O         -1.71206       -1.37684        0.20253
|  5> H          0.27695       -1.19720        0.26733
|  6> H         -0.60598       -0.37494        1.53122
|  7> H         -0.61066        0.26355       -0.09525
|  8> *
|  9> %MaxCore 64000
| 10>
| 11> %pal nprocs 8
| 12> end
| 13> %scf
| 14>   MaxIter 150
| 15> end
| 16>
| 17>                          ****END OF INPUT****

CARTESIAN COORDINATES (ANGSTROEM)
---------------------------------
  C     -0.602490   -0.630710    0.492240
  O     -1.712060   -1.376840    0.202530
  H      0.276950   -1.197200    0.267330
  H     -0.605980   -0.374940    1.531220
  H     -0.610660    0.263550   -0.095250

 Total Charge           Charge          ....   -1
 Multiplicity           Mult            ....    1
 Number of Electrons    NEL             ....   18
 Basis Dimension        Dim             ....   67

ORBITAL ENERGIES
----------------

  NO   OCC          E(Eh)            E(eV)
   0   2.0000     -19.112863      -520.0874
   1   2.0000     -10.269856      -279.4570
   2   2.0000      -0.983104       -26.7516
   3   2.0000      -0.700498       -19.0615
   4   2.0000      -0.495807       -13.4916
   5   2.0000      -0.495750       -13.4901
   6   2.0000      -0.418604       -11.3908
   7   2.0000      -0.266744        -7.2585
   8   2.0000      -0.266711        -7.2576
   9   0.0000       0.109217         2.9719
  10   0.0000       0.154006         4.1907
  11   0.0000       0.165227         4.4960
  12   0.0000       0.165262         4.4970
  13   0.0000       0.207843         5.6557

MULLIKEN ATOMIC CHARGES
-----------------------
   0 C :    0.710055
   1 O :   -1.086837
   2 H :   -0.207321
   3 H :   -0.207738
   4 H :   -0.208159
Sum of atomic charges:   -1.0000000

LOEWDIN ATOMIC CHARGES
----------------------
   0 C :   -0.101137
   1 O :   -0.739106
   2 H :   -0.053231
   3 H :   -0.053296
   4 H :   -0.053230

  Mayer bond orders larger than 0.100000
B(  0-C ,  1-O ) :   1.2823 B(  0-C ,  2-H ) :   0.9168 B(  0-C ,  3-H ) :   0.9166
B(  0-C ,  4-H ) :   0.9170

Dispersion correction           -0.000090009
FINAL SINGLE POINT ENERGY      -115.102896092325

DIPOLE MOMENT
-------------
                                X             Y             Z
Electronic contribution:     -1.04251      -0.70122      -0.27174
Nuclear contribution   :      2.33640       1.57111       0.61004
                        -----------------------------------------
Total Dipole Moment    :      1.29388       0.86989       0.33829
                        -----------------------------------------
Magnitude (a.u.)       :      1.59539
Magnitude (Debye)      :      4.05517

Rotational constants in cm-1:     5.477665     0.940945     0.940944
Rotational constants in MHz : 164216.266994 28208.811441 28208.799857

                             ****ORCA TERMINATED NORMALLY****
TOTAL RUN TIME: 0 days 0 hours 0 minutes 4 seconds 206 msec
