                         Program Version 5.0.0 -  RELEASE  -
|  1> !wB97X-D3 RIJCOSX def2-SVPD def2/J TightSCF CPCM(Water)
|  2> *xyz 1 1
|  3> C         -2.12050        0.88520        1.78951
|  4> N         -3.17690       -0.15948        1.61070
|  5> H         -4.06474        0.23127        1.28675
|  6> H         -3.34407       -0.67151        2.48493
|  7> H         -2.71686       -0.78189        0.93588
|  8> H         -1.96853        1.40078        0.86432
|  9> H         -1.20609        0.41954        2.09270
| 10> H         -2.43151        1.58226        2.53937
| 11> *
| 12> %MaxCore 64000
| 13>
| 14> %pal nprocs 18
| 15> end
| 16>
| 17> %scf
| 18>   MaxIter 150
| 19> end
| 20>
| 21>
| 22>                          ****END OF INPUT****

CARTESIAN COORDINATES (ANGSTROEM)
---------------------------------
  C     -2.120500    0.885200    1.789510
  N     -3.176900   -0.159480    1.610700
  H     -4.064740    0.231270    1.286750
  H     -3.344070   -0.671510    2.484930
  H     -2.716860   -0.781890    0.935880
  H     -1.968530    1.400780    0.864320
  H     -1.206090    0.419540    2.092700
  H     -2.431510    1.582260    2.539370

 Total Charge           Charge          ....    1
 Multiplicity           Mult            ....    1
 Number of Electrons    NEL             ....   18
 Basis Dimension        Dim             ....   88

ORBITAL ENERGIES
----------------

  NO   OCC          E(Eh)            E(eV)
   0   2.0000     -14.558982      -396.1700
   1   2.0000     -10.342733      -281.4401
   2   2.0000      -1.108021       -30.1508
   3   2.0000      -0.832127       -22.6433
   4   2.0000      -0.695303       -18.9202
   5   2.0000      -0.682981       -18.5849
   6   2.0000      -0.592876       -16.1330
   7   2.0000      -0.519426       -14.1343
   8   2.0000      -0.516254       -14.0480
   9   0.0000       0.083937         2.2840
  10   0.0000       0.122315         3.3284
  11   0.0000       0.159125         4.3300
  12   0.0000       0.159859         4.3500
  13   0.0000       0.193097         5.2544

MULLIKEN ATOMIC CHARGES
-----------------------
   0 C :    0.684211
   1 N :   -0.856858
   2 H :    0.395780
   3 H :    0.408447
   4 H :    0.451328
   5 H :   -0.021022
   6 H :   -0.011726
   7 H :   -0.050160
Sum of atomic charges:    1.0000000

LOEWDIN ATOMIC CHARGES
----------------------
   0 C :    0.266531
   1 N :    0.337703
   2 H :    0.115749
   3 H :    0.116982
   4 H :    0.111261
   5 H :    0.018482
   6 H :    0.019334
   7 H :    0.013959

  Mayer bond orders larger than 0.100000
B(  0-C ,  1-N ) :   0.8349 B(  0-C ,  5-H ) :   0.9233 B(  0-C ,  6-H ) :   0.9156
B(  0-C ,  7-H ) :   0.9563 B(  1-N ,  2-H ) :   0.7643 B(  1-N ,  3-H ) :   0.7493
B(  1-N ,  4-H ) :   0.6859

Dispersion correction           -0.000488334
FINAL SINGLE POINT ENERGY       -96.237787573316

DIPOLE MOMENT
-------------
                                X             Y             Z
Electronic contribution:     -0.98982      -0.93329      -0.16060
Nuclear contribution   :      0.30442       0.18283       0.03339
                        -----------------------------------------
Total Dipole Moment    :     -0.68540      -0.75046      -0.12720
                        -----------------------------------------
Magnitude (a.u.)       :      1.02427
Magnitude (Debye)      :      2.60349

Rotational constants in cm-1:     2.844840     0.686092     0.683099
Rotational constants in MHz : 85286.171795 20568.516729 20478.789944

                             ****ORCA TERMINATED NORMALLY****
TOTAL RUN TIME: 0 days 0 hours 0 minutes 4 seconds 337 msec
