                         Program Version 5.0.0 -  RELEASE  -
|  1> !wB97X-D3 RIJCOSX def2-SVPD def2/J TightSCF CPCM(Water)
|  2> *xyz 0 1
|  3> C         -0.60249       -0.63071        0.49224
|  4> F         -1.71206       -1.37684        0.20253
|  5> H          0.27695       -1.19720        0.26733
|  6> H         -0.60598       -0.37494        1.53122
|  7> H         -0.61066        0.26355       -0.09525
|  8> *
|  9> %MaxCore 64000
| 10>
| 11> %pal nprocs 8
| 12> end
| 13> %scf
| 14>   MaxIter 150
| 15> end
| 16>
| 17>                          ****END OF INPUT****

CARTESIAN COORDINATES (ANGSTROEM)
---------------------------------
  C     -0.602490   -0.630710    0.492240
  F     -1.712060   -1.376840    0.202530
  H      0.276950   -1.197200    0.267330
  H     -0.605980   -0.374940    1.531220
  H     -0.610660    0.263550   -0.095250

 Total Charge           Charge          ....    0
 Multiplicity           Mult            ....    1
 Number of Electrons    NEL             ....   18
 Basis Dimension        Dim             ....   67

ORBITAL ENERGIES
----------------

  NO   OCC          E(Eh)            E(eV)
   0   2.0000     -24.791503      -674.6111
   1   2.0000     -10.349880      -281.6346
   2   2.0000      -1.303496       -35.4699
   3   2.0000      -0.807926       -21.9848
   4   2.0000      -0.601975       -16.3806
   5   2.0000      -0.593479       -16.1494
   6   2.0000      -0.593460       -16.1489
   7   2.0000      -0.448481       -12.2038
   8   2.0000      -0.448458       -12.2032
   9   0.0000       0.102576         2.7912
  10   0.0000       0.149295         4.0625
  11   0.0000       0.183766         5.0005
  12   0.0000       0.183768         5.0006
  13   0.0000       0.211874         5.7654

MULLIKEN ATOMIC CHARGES
-----------------------
   0 C :    0.734744
   1 F :   -0.520672
   2 H :   -0.071343
   3 H :   -0.071217
   4 H :   -0.071512
Sum of atomic charges:    0.0000000

LOEWDIN ATOMIC CHARGES
----------------------
   0 C :    0.274985
   1 F :   -0.280869
   2 H :    0.001964
   3 H :    0.001959
   4 H :    0.001961

  Mayer bond orders larger than 0.100000
B(  0-C ,  1-F ) :   0.8137 B(  0-C ,  2-H ) :   0.9604 B(  0-C ,  3-H ) :   0.9602
B(  0-C ,  4-H ) :   0.9605

Dispersion correction           -0.000129194
FINAL SINGLE POINT ENERGY      -139.611047986706

DIPOLE MOMENT
-------------
                                X             Y             Z
Electronic contribution:     -2.24911      -1.51223      -0.58705
Nuclear contribution   :      2.96306       1.99251       0.77366
                        -----------------------------------------
Total Dipole Moment    :      0.71395       0.48028       0.18661
                        -----------------------------------------
Magnitude (a.u.)       :      0.88046
Magnitude (Debye)      :      2.23796

Rotational constants in cm-1:     5.477665     0.875886     0.875886
Rotational constants in MHz : 164216.266994 26258.396768 26258.386731

                             ****ORCA TERMINATED NORMALLY****
TOTAL RUN TIME: 0 days 0 hours 0 minutes 4 seconds 299 msec
