                         Program Version 5.0.0 -  RELEASE  -
|  1> !wB97X-D3 RIJCOSX def2-SVPD def2/J TightSCF CPCM(Water)
|  2> *xyz 0 1
|  3> C         -2.12050        0.88520        1.78951
|  4> C         -3.17690       -0.15948        1.61070
|  5> H         -4.06474        0.23127        1.28675
|  6> H         -3.34407       -0.67151        2.48493
|  7> H         -2.71686       -0.78189        0.93588
|  8> H         -1.96853        1.40078        0.86432
|  9> H         -1.20609        0.41954        2.09270
| 10> H         -2.43151        1.58226        2.53937
| 11> *
| 12> %MaxCore 64000
| 13>
| 14> %pal nprocs 8
| 15> end
| 16>
| 17> %scf
| 18>   MaxIter 150
| 19> end
| 20>
| 21>
| 22>                          ****END OF INPUT****

CARTESIAN COORDINATES (ANGSTROEM)
---------------------------------
  C     -2.120500    0.885200    1.789510
  C     -3.176900   -0.159480    1.610700
  H     -4.064740    0.231270    1.286750
  H     -3.344070   -0.671510    2.484930
  H     -2.716860   -0.781890    0.935880
  H     -1.968530    1.400780    0.864320
  H     -1.206090    0.419540    2.092700
  H     -2.431510    1.582260    2.539370

 Total Charge           Charge          ....    0
 Multiplicity           Mult            ....    1
 Number of Electrons    NEL             ....   18
 Basis Dimension        Dim             ....   88

ORBITAL ENERGIES
----------------

  NO   OCC          E(Eh)            E(eV)
   0   2.0000     -10.261976      -279.2426
   1   2.0000     -10.248002      -278.8623
   2   2.0000      -0.876056       -23.8387
   3   2.0000      -0.720487       -19.6054
   4   2.0000      -0.552898       -15.0451
   5   2.0000      -0.544064       -14.8047
   6   2.0000      -0.459159       -12.4943
   7   2.0000      -0.439030       -11.9466
   8   2.0000      -0.430369       -11.7109
   9   0.0000       0.102904         2.8002
  10   0.0000       0.131007         3.5649
  11   0.0000       0.185967         5.0604
  12   0.0000       0.187362         5.0984
  13   0.0000       0.205297         5.5864

MULLIKEN ATOMIC CHARGES
-----------------------
   0 C :    0.092245
   1 C :    0.480647
   2 H :   -0.174063
   3 H :   -0.142338
   4 H :   -0.102695
   5 H :   -0.047466
   6 H :   -0.039408
   7 H :   -0.066921
Sum of atomic charges:    0.0000000

LOEWDIN ATOMIC CHARGES
----------------------
   0 C :    0.066243
   1 C :    0.082068
   2 H :   -0.032684
   3 H :   -0.032355
   4 H :   -0.034331
   5 H :   -0.014762
   6 H :   -0.013687
   7 H :   -0.020492

  Mayer bond orders larger than 0.100000
B(  0-C ,  1-C ) :   1.4346 B(  0-C ,  2-H ) :   0.1417 B(  0-C ,  3-H ) :   0.1409
B(  0-C ,  4-H ) :   0.1936 B(  0-C ,  5-H ) :   0.8838 B(  0-C ,  6-H ) :   0.8775
B(  0-C ,  7-H ) :   0.9247 B(  1-C ,  2-H ) :   0.8388 B(  1-C ,  3-H ) :   0.8255
B(  1-C ,  4-H ) :   0.8115 B(  1-C ,  5-H ) :   0.1331 B(  1-C ,  6-H ) :   0.1367
B(  1-C ,  7-H ) :   0.1130

Dispersion correction           -0.000477140
FINAL SINGLE POINT ENERGY       -79.733646888811

DIPOLE MOMENT
-------------
                                X             Y             Z
Electronic contribution:     -0.12263      -0.02521      -0.00453
Nuclear contribution   :      0.12022       0.00247       0.00249
                        -----------------------------------------
Total Dipole Moment    :     -0.00242      -0.02275      -0.00204
                        -----------------------------------------
Magnitude (a.u.)       :      0.02296
Magnitude (Debye)      :      0.05837

Rotational constants in cm-1:     2.844858     0.716988     0.713720
Rotational constants in MHz : 85286.697487 21494.771942 21396.773512

                             ****ORCA TERMINATED NORMALLY****
TOTAL RUN TIME: 0 days 0 hours 0 minutes 7 seconds 199 msec
