                         Program Version 5.0.0 -  RELEASE  -
|  1> !LC-PBE RIJCOSX def2-SVPD def2/J TightSCF
|  2> *xyz -1 1
|  3> C         -0.91495        0.61511        2.50554
|  4> C         -0.05915        1.50352        3.41058
|  5> H          0.36536        2.34431        2.86116
|  6> H         -0.69226        1.92021        4.19898
|  7> C          1.08303        0.74964        4.08571
|  8> O          2.22817        1.26348        4.01983
|  9> O          0.81003       -0.34541        4.63627
| 10> C         -0.13074       -0.19398        1.47076
| 11> H         -1.64796        1.24596        1.99108
| 12> H         -1.47818       -0.08105        3.13042
| 13> H         -0.80952       -0.78099        0.88803
| 14> H          0.55985       -0.83974        1.97175
| 15> H          0.40595        0.47288        0.82877
| 16> *
| 17>
| 18> %MaxCore 64000
| 19>
| 20> %pal nprocs 4
| 21> end
| 22>
| 23> %scf
| 24>   MaxIter 150
| 25> end
| 26>
| 27>
| 28>                          ****END OF INPUT****

CARTESIAN COORDINATES (ANGSTROEM)
---------------------------------
  C     -0.914950    0.615110    2.505540
  C     -0.059150    1.503520    3.410580
  H      0.365360    2.344310    2.861160
  H     -0.692260    1.920210    4.198980
  C      1.083030    0.749640    4.085710
  O      2.228170    1.263480    4.019830
  O      0.810030   -0.345410    4.636270
  C     -0.130740   -0.193980    1.470760
  H     -1.647960    1.245960    1.991080
  H     -1.478180   -0.081050    3.130420
  H     -0.809520   -0.780990    0.888030
  H      0.559850   -0.839740    1.971750
  H      0.405950    0.472880    0.828770

 Total Charge           Charge          ....   -1
 Multiplicity           Mult            ....    1
 Number of Electrons    NEL             ....   48
 Basis Dimension        Dim             ....  182

ORBITAL ENERGIES
----------------

  NO   OCC          E(Eh)            E(eV)
   0   2.0000     -18.730467      -509.6819
   1   2.0000     -18.729663      -509.6600
   2   2.0000     -10.021242      -272.6919
   3   2.0000      -9.980885      -271.5937
   4   2.0000      -9.970824      -271.3199
   5   2.0000      -9.955955      -270.9153
   6   2.0000      -0.984240       -26.7825
   7   2.0000      -0.880303       -23.9543
   8   2.0000      -0.811708       -22.0877
   9   2.0000      -0.709100       -19.2956
  10   2.0000      -0.602883       -16.4053
  11   2.0000      -0.477624       -12.9968
  12   2.0000      -0.452514       -12.3135
  13   2.0000      -0.434761       -11.8305
  14   2.0000      -0.398483       -10.8433
  15   2.0000      -0.379559       -10.3283
  16   2.0000      -0.355541        -9.6748
  17   2.0000      -0.347199        -9.4478
  18   2.0000      -0.329810        -8.9746
  19   2.0000      -0.307940        -8.3795
  20   2.0000      -0.299329        -8.1452
  21   2.0000      -0.182271        -4.9598
  22   2.0000      -0.177392        -4.8271
  23   2.0000      -0.166974        -4.5436
  24   0.0000       0.213578         5.8117
  25   0.0000       0.235700         6.4137
  26   0.0000       0.252967         6.8836
  27   0.0000       0.262608         7.1459
  28   0.0000       0.290412         7.9025

MULLIKEN ATOMIC CHARGES
-----------------------
   0 C :   -0.524654
   1 C :   -0.009785
   2 H :    0.062136
   3 H :    0.047310
   4 C :    0.275495
   5 O :   -0.636732
   6 O :   -0.673574
   7 C :    0.409224
   8 H :   -0.085638
   9 H :    0.078701
  10 H :    0.000898
  11 H :    0.020671
  12 H :    0.035948
Sum of atomic charges:   -1.0000000

LOEWDIN ATOMIC CHARGES
----------------------
   0 C :   -0.114917
   1 C :   -0.029397
   2 H :    0.016926
   3 H :    0.026440
   4 C :   -0.331845
   5 O :   -0.323753
   6 O :   -0.315472
   7 C :    0.083446
   8 H :    0.011144
   9 H :    0.022944
  10 H :   -0.024163
  11 H :   -0.009422
  12 H :   -0.011930

  Mayer bond orders larger than 0.100000
B(  0-C ,  1-C ) :   1.1999 B(  0-C ,  2-H ) :   0.1171 B(  0-C ,  7-C ) :   1.3312
B(  0-C ,  8-H ) :   1.0098 B(  0-C ,  9-H ) :   0.9211 B(  0-C , 10-H ) :   0.1739
B(  0-C , 11-H ) :   0.1774 B(  0-C , 12-H ) :   0.1656 B(  1-C ,  2-H ) :   0.9046
B(  1-C ,  3-H ) :   0.8657 B(  1-C ,  4-C ) :   1.0202 B(  2-H ,  4-C ) :   0.1858
B(  4-C ,  5-O ) :   1.5352 B(  4-C ,  6-O ) :   1.6017 B(  7-C , 10-H ) :   0.8057
B(  7-C , 11-H ) :   0.8778 B(  7-C , 12-H ) :   0.8301

FINAL SINGLE POINT ENERGY      -306.025498773381

DIPOLE MOMENT
-------------
                                X             Y             Z
Electronic contribution:      4.52398       0.23975       5.46278
Nuclear contribution   :     -6.45806       0.15825      -7.12052
                        -----------------------------------------
Total Dipole Moment    :     -1.93408       0.39800      -1.65774
                        -----------------------------------------
Magnitude (a.u.)       :      2.57822
Magnitude (Debye)      :      6.55330

Rotational constants in cm-1:     0.199323     0.080770     0.077827
Rotational constants in MHz :  5975.562678  2421.415024  2333.195390

                             ****ORCA TERMINATED NORMALLY****
TOTAL RUN TIME: 0 days 0 hours 0 minutes 19 seconds 774 msec
