                         Program Version 5.0.0 -  RELEASE  -
|  1> !LC-PBE RIJCOSX def2-SVPD def2/J TightSCF
|  2> *xyz 1 1
|  3> C          4.60295       -2.44010        2.63478
|  4> C          3.86085       -1.59157        3.62289
|  5> N          2.75650       -2.04616        4.16633
|  6> N          4.25433       -0.36291        3.86046
|  7> H          3.56526        0.31099        4.16898
|  8> H          5.05429       -0.01606        3.33784
|  9> H          2.43970       -2.97389        3.89740
| 10> H          2.06687       -1.41253        4.54981
| 11> C          3.74469       -2.58056        1.36188
| 12> C          3.20372       -1.25600        0.82621
| 13> H          2.89894       -3.23929        1.58307
| 14> H          4.33496       -3.09552        0.60019
| 15> H          5.56156       -1.97135        2.40708
| 16> H          4.81050       -3.42255        3.06310
| 17> H          2.62184       -1.43789       -0.05313
| 18> H          4.02069       -0.60826        0.58562
| 19> H          2.58975       -0.79418        1.57097
| 20> *
| 21>
| 22> %MaxCore 64000
| 23>
| 24> %pal nprocs 4
| 25> end
| 26>
| 27> %scf
| 28>   MaxIter 150
| 29> end
| 30>
| 31>
| 32>                          ****END OF INPUT****

CARTESIAN COORDINATES (ANGSTROEM)
---------------------------------
  C      4.602950   -2.440100    2.634780
  C      3.860850   -1.591570    3.622890
  N      2.756500   -2.046160    4.166330
  N      4.254330   -0.362910    3.860460
  H      3.565260    0.310990    4.168980
  H      5.054290   -0.016060    3.337840
  H      2.439700   -2.973890    3.897400
  H      2.066870   -1.412530    4.549810
  C      3.744690   -2.580560    1.361880
  C      3.203720   -1.256000    0.826210
  H      2.898940   -3.239290    1.583070
  H      4.334960   -3.095520    0.600190
  H      5.561560   -1.971350    2.407080
  H      4.810500   -3.422550    3.063100
  H      2.621840   -1.437890   -0.053130
  H      4.020690   -0.608260    0.585620
  H      2.589750   -0.794180    1.570970

 Total Charge           Charge          ....    1
 Multiplicity           Mult            ....    1
 Number of Electrons    NEL             ....   48
 Basis Dimension        Dim             ....  208

ORBITAL ENERGIES
----------------

  NO   OCC          E(Eh)            E(eV)
   0   2.0000     -14.473799      -393.8521
   1   2.0000     -14.473656      -393.8482
   2   2.0000     -10.458515      -284.5907
   3   2.0000     -10.326218      -280.9907
   4   2.0000     -10.296714      -280.1878
   5   2.0000     -10.261686      -279.2347
   6   2.0000      -1.378593       -37.5134
   7   2.0000      -1.270170       -34.5631
   8   2.0000      -1.152256       -31.3545
   9   2.0000      -1.056147       -28.7392
  10   2.0000      -0.990481       -26.9523
  11   2.0000      -0.940286       -25.5865
  12   2.0000      -0.921696       -25.0806
  13   2.0000      -0.885045       -24.0833
  14   2.0000      -0.836187       -22.7538
  15   2.0000      -0.820297       -22.3214
  16   2.0000      -0.774732       -21.0815
  17   2.0000      -0.734331       -19.9822
  18   2.0000      -0.715981       -19.4828
  19   2.0000      -0.704972       -19.1833
  20   2.0000      -0.642145       -17.4736
  21   2.0000      -0.640150       -17.4194
  22   2.0000      -0.626827       -17.0568
  23   2.0000      -0.622819       -16.9478
  24   0.0000      -0.123292        -3.3549
  25   0.0000      -0.075723        -2.0605
  26   0.0000      -0.038480        -1.0471
  27   0.0000      -0.034267        -0.9325
  28   0.0000      -0.013788        -0.3752

MULLIKEN ATOMIC CHARGES
-----------------------
   0 C :    0.100999
   1 C :    0.346547
   2 N :   -0.014579
   3 N :   -0.051543
   4 H :   -0.000608
   5 H :    0.149616
   6 H :    0.139846
   7 H :   -0.043427
   8 C :   -0.462531
   9 C :    0.537655
  10 H :    0.076498
  11 H :   -0.041510
  12 H :    0.120531
  13 H :    0.097511
  14 H :   -0.003645
  15 H :    0.039805
  16 H :    0.008835
Sum of atomic charges:    1.0000000

LOEWDIN ATOMIC CHARGES
----------------------
   0 C :    0.028917
   1 C :   -0.071046
   2 N :    0.276260
   3 N :    0.275064
   4 H :    0.059740
   5 H :    0.061565
   6 H :    0.062122
   7 H :    0.060796
   8 C :   -0.063458
   9 C :    0.110290
  10 H :    0.034761
  11 H :    0.052271
  12 H :    0.051050
  13 H :    0.061220
  14 H :    0.013125
  15 H :    0.005660
  16 H :   -0.018336

  Mayer bond orders larger than 0.100000
B(  0-C ,  1-C ) :   1.2158 B(  0-C ,  8-C ) :   1.1413 B(  0-C , 12-H ) :   0.8215
B(  0-C , 13-H ) :   0.8499 B(  1-C ,  2-N ) :   1.1583 B(  1-C ,  3-N ) :   1.1331
B(  1-C ,  4-H ) :  -0.1061 B(  1-C , 12-H ) :   0.1421 B(  1-C , 13-H ) :   0.1591
B(  2-N ,  3-N ) :   0.1486 B(  2-N ,  6-H ) :   0.9923 B(  2-N ,  7-H ) :   1.2096
B(  3-N ,  4-H ) :   1.1724 B(  3-N ,  5-H ) :   0.9730 B(  4-H ,  5-H ) :  -0.1308
B(  6-H ,  7-H ) :  -0.1495 B(  8-C ,  9-C ) :   1.3424 B(  8-C , 10-H ) :   0.9215
B(  8-C , 11-H ) :   1.0332 B(  8-C , 12-H ) :   0.1188 B(  8-C , 14-H ) :   0.1739
B(  8-C , 15-H ) :   0.1602 B(  8-C , 16-H ) :   0.1866 B(  9-C , 14-H ) :   0.8281
B(  9-C , 15-H ) :   0.8091 B(  9-C , 16-H ) :   0.8314

FINAL SINGLE POINT ENERGY      -267.282351734971

DIPOLE MOMENT
-------------
                                X             Y             Z
Electronic contribution:      0.49647       0.57140       5.20698
Nuclear contribution   :     -0.82989      -0.08664      -4.26094
                        -----------------------------------------
Total Dipole Moment    :     -0.33343       0.48476       0.94604
                        -----------------------------------------
Magnitude (a.u.)       :      1.11407
Magnitude (Debye)      :      2.83175

Rotational constants in cm-1:     0.166042     0.084809     0.078793
Rotational constants in MHz :  4977.819890  2542.513379  2362.161076

                             ****ORCA TERMINATED NORMALLY****
TOTAL RUN TIME: 0 days 0 hours 0 minutes 25 seconds 683 msec
