                         Program Version 5.0.0 -  RELEASE  -
|  1> !LC-PBE RIJCOSX def2-SVPD def2/J TightSCF
|  2> *xyz 0 1
|  3> C         -0.91495        0.61511        2.50554
|  4> C         -0.05915        1.50352        3.41058
|  5> H          0.36536        2.34431        2.86116
|  6> H         -0.69226        1.92021        4.19898
|  7> C          1.08303        0.74964        4.08571
|  8> F          2.22817        1.26348        4.01983
|  9> O          0.81003       -0.34541        4.63627
| 10> C         -0.13074       -0.19398        1.47076
| 11> H         -1.64796        1.24596        1.99108
| 12> H         -1.47818       -0.08105        3.13042
| 13> H         -0.80952       -0.78099        0.88803
| 14> H          0.55985       -0.83974        1.97175
| 15> H          0.40595        0.47288        0.82877
| 16> *
| 17>
| 18> %MaxCore 64000
| 19>
| 20> %pal nprocs 4
| 21> end
| 22>
| 23> %scf
| 24>   MaxIter 150
| 25> end
| 26>
| 27>
| 28>                          ****END OF INPUT****

CARTESIAN COORDINATES (ANGSTROEM)
---------------------------------
  C     -0.914950    0.615110    2.505540
  C     -0.059150    1.503520    3.410580
  H      0.365360    2.344310    2.861160
  H     -0.692260    1.920210    4.198980
  C      1.083030    0.749640    4.085710
  F      2.228170    1.263480    4.019830
  O      0.810030   -0.345410    4.636270
  C     -0.130740   -0.193980    1.470760
  H     -1.647960    1.245960    1.991080
  H     -1.478180   -0.081050    3.130420
  H     -0.809520   -0.780990    0.888030
  H      0.559850   -0.839740    1.971750
  H      0.405950    0.472880    0.828770

 Total Charge           Charge          ....    0
 Multiplicity           Mult            ....    1
 Number of Electrons    NEL             ....   48
 Basis Dimension        Dim             ....  182

ORBITAL ENERGIES
----------------

  NO   OCC          E(Eh)            E(eV)
   0   2.0000     -24.581879      -668.9069
   1   2.0000     -19.004435      -517.1370
   2   2.0000     -10.320097      -280.8241
   3   2.0000     -10.161370      -276.5049
   4   2.0000     -10.143380      -276.0154
   5   2.0000     -10.118336      -275.3339
   6   2.0000      -1.467353       -39.9287
   7   2.0000      -1.194274       -32.4979
   8   2.0000      -0.989797       -26.9338
   9   2.0000      -0.898251       -24.4427
  10   2.0000      -0.821997       -22.3677
  11   2.0000      -0.769737       -20.9456
  12   2.0000      -0.710511       -19.3340
  13   2.0000      -0.688243       -18.7281
  14   2.0000      -0.662394       -18.0247
  15   2.0000      -0.613303       -16.6888
  16   2.0000      -0.602422       -16.3927
  17   2.0000      -0.559614       -15.2279
  18   2.0000      -0.546304       -14.8657
  19   2.0000      -0.509569       -13.8661
  20   2.0000      -0.488981       -13.3059
  21   2.0000      -0.482093       -13.1184
  22   2.0000      -0.474923       -12.9233
  23   2.0000      -0.434439       -11.8217
  24   0.0000       0.061355         1.6696
  25   0.0000       0.084442         2.2978
  26   0.0000       0.109075         2.9681
  27   0.0000       0.114431         3.1138
  28   0.0000       0.128432         3.4948

MULLIKEN ATOMIC CHARGES
-----------------------
   0 C :   -0.494798
   1 C :   -0.123470
   2 H :    0.113267
   3 H :    0.126432
   4 C :    0.623374
   5 F :   -0.321257
   6 O :   -0.464921
   7 C :    0.410049
   8 H :   -0.039809
   9 H :    0.092494
  10 H :    0.032544
  11 H :   -0.000665
  12 H :    0.046759
Sum of atomic charges:   -0.0000000

LOEWDIN ATOMIC CHARGES
----------------------
   0 C :   -0.087145
   1 C :    0.013484
   2 H :    0.038215
   3 H :    0.054594
   4 C :   -0.028952
   5 F :   -0.021123
   6 O :   -0.128093
   7 C :    0.100223
   8 H :    0.036221
   9 H :    0.038219
  10 H :   -0.002623
  11 H :   -0.009836
  12 H :   -0.003184

  Mayer bond orders larger than 0.100000
B(  0-C ,  1-C ) :   1.2308 B(  0-C ,  2-H ) :   0.1168 B(  0-C ,  3-H ) :   0.1002
B(  0-C ,  7-C ) :   1.3507 B(  0-C ,  8-H ) :   1.0005 B(  0-C ,  9-H ) :   0.9218
B(  0-C , 10-H ) :   0.1627 B(  0-C , 11-H ) :   0.1617 B(  0-C , 12-H ) :   0.1569
B(  1-C ,  2-H ) :   0.9014 B(  1-C ,  3-H ) :   0.8554 B(  1-C ,  4-C ) :   1.0932
B(  4-C ,  5-F ) :   0.8000 B(  4-C ,  6-O ) :   1.9066 B(  7-C , 10-H ) :   0.8151
B(  7-C , 11-H ) :   0.8831 B(  7-C , 12-H ) :   0.8331

FINAL SINGLE POINT ENERGY      -330.530101623730

DIPOLE MOMENT
-------------
                                X             Y             Z
Electronic contribution:      7.95214       1.50202       7.19529
Nuclear contribution   :     -8.39104      -0.60591      -7.87060
                        -----------------------------------------
Total Dipole Moment    :     -0.43890       0.89611      -0.67530
                        -----------------------------------------
Magnitude (a.u.)       :      1.20486
Magnitude (Debye)      :      3.06250

Rotational constants in cm-1:     0.194210     0.077092     0.074391
Rotational constants in MHz :  5822.269139  2311.145895  2230.180895

                             ****ORCA TERMINATED NORMALLY****
TOTAL RUN TIME: 0 days 0 hours 0 minutes 21 seconds 336 msec
