                         Program Version 5.0.0 -  RELEASE  -
|  1> !LC-PBE RIJCOSX def2-SVPD def2/J TightSCF
|  2> *xyz 0 1
|  3> C          4.60295       -2.44010        2.63478
|  4> C          3.86085       -1.59157        3.62289
|  5> C          2.75650       -2.04616        4.16633
|  6> N          4.25433       -0.36291        3.86046
|  7> H          3.56526        0.31099        4.16898
|  8> H          5.05429       -0.01606        3.33784
|  9> H          2.43970       -2.97389        3.89740
| 10> H          2.06687       -1.41253        4.54981
| 11> C          3.74469       -2.58056        1.36188
| 12> C          3.20372       -1.25600        0.82621
| 13> H          2.89894       -3.23929        1.58307
| 14> H          4.33496       -3.09552        0.60019
| 15> H          5.56156       -1.97135        2.40708
| 16> H          4.81050       -3.42255        3.06310
| 17> H          2.62184       -1.43789       -0.05313
| 18> H          4.02069       -0.60826        0.58562
| 19> H          2.58975       -0.79418        1.57097
| 20> *
| 21>
| 22> %MaxCore 64000
| 23>
| 24> %pal nprocs 4
| 25> end
| 26>
| 27> %scf
| 28>   MaxIter 150
| 29> end
| 30>
| 31>
| 32>                          ****END OF INPUT****

CARTESIAN COORDINATES (ANGSTROEM)
---------------------------------
  C      4.602950   -2.440100    2.634780
  C      3.860850   -1.591570    3.622890
  C      2.756500   -2.046160    4.166330
  N      4.254330   -0.362910    3.860460
  H      3.565260    0.310990    4.168980
  H      5.054290   -0.016060    3.337840
  H      2.439700   -2.973890    3.897400
  H      2.066870   -1.412530    4.549810
  C      3.744690   -2.580560    1.361880
  C      3.203720   -1.256000    0.826210
  H      2.898940   -3.239290    1.583070
  H      4.334960   -3.095520    0.600190
  H      5.561560   -1.971350    2.407080
  H      4.810500   -3.422550    3.063100
  H      2.621840   -1.437890   -0.053130
  H      4.020690   -0.608260    0.585620
  H      2.589750   -0.794180    1.570970

 Total Charge           Charge          ....    0
 Multiplicity           Mult            ....    1
 Number of Electrons    NEL             ....   48
 Basis Dimension        Dim             ....  208

ORBITAL ENERGIES
----------------

  NO   OCC          E(Eh)            E(eV)
   0   2.0000     -14.230038      -387.2190
   1   2.0000     -10.152393      -276.2607
   2   2.0000     -10.129065      -275.6259
   3   2.0000     -10.125780      -275.5365
   4   2.0000     -10.106551      -275.0132
   5   2.0000     -10.056739      -273.6578
   6   2.0000      -1.102801       -30.0087
   7   2.0000      -0.969777       -26.3890
   8   2.0000      -0.896405       -24.3924
   9   2.0000      -0.849372       -23.1126
  10   2.0000      -0.763244       -20.7689
  11   2.0000      -0.706869       -19.2349
  12   2.0000      -0.668883       -18.2012
  13   2.0000      -0.635938       -17.3048
  14   2.0000      -0.604947       -16.4614
  15   2.0000      -0.578706       -15.7474
  16   2.0000      -0.540347       -14.7036
  17   2.0000      -0.524724       -14.2785
  18   2.0000      -0.503865       -13.7109
  19   2.0000      -0.496390       -13.5075
  20   2.0000      -0.467458       -12.7202
  21   2.0000      -0.459017       -12.4905
  22   2.0000      -0.452515       -12.3136
  23   2.0000      -0.311400        -8.4736
  24   0.0000       0.088531         2.4090
  25   0.0000       0.106307         2.8928
  26   0.0000       0.117317         3.1924
  27   0.0000       0.124410         3.3854
  28   0.0000       0.136703         3.7199

MULLIKEN ATOMIC CHARGES
-----------------------
   0 C :    0.260102
   1 C :   -0.344237
   2 C :    0.213893
   3 N :    0.041171
   4 H :   -0.013984
   5 H :    0.069258
   6 H :   -0.066963
   7 H :   -0.318009
   8 C :   -0.498602
   9 C :    0.538493
  10 H :    0.053932
  11 H :   -0.055477
  12 H :    0.027709
  13 H :    0.090159
  14 H :   -0.081465
  15 H :    0.034663
  16 H :    0.049355
Sum of atomic charges:    0.0000000

LOEWDIN ATOMIC CHARGES
----------------------
   0 C :   -0.011136
   1 C :   -0.286720
   2 C :    0.143923
   3 N :    0.159556
   4 H :    0.020796
   5 H :    0.010854
   6 H :   -0.064684
   7 H :   -0.067828
   8 C :   -0.086303
   9 C :    0.092825
  10 H :    0.027742
  11 H :    0.027464
  12 H :    0.025295
  13 H :    0.040170
  14 H :   -0.008112
  15 H :   -0.007706
  16 H :   -0.016137

  Mayer bond orders larger than 0.100000
B(  0-C ,  1-C ) :   1.2447 B(  0-C ,  8-C ) :   1.1562 B(  0-C , 11-H ) :   0.1372
B(  0-C , 12-H ) :   0.7185 B(  0-C , 13-H ) :   0.8295 B(  1-C ,  2-C ) :   2.0466
B(  1-C ,  3-N ) :   1.0004 B(  1-C ,  5-H ) :   0.1049 B(  1-C ,  7-H ) :   0.1935
B(  1-C , 12-H ) :   0.2229 B(  1-C , 13-H ) :   0.1718 B(  2-C ,  3-N ) :   0.2893
B(  2-C ,  6-H ) :   0.8036 B(  2-C ,  7-H ) :   0.8372 B(  3-N ,  4-H ) :   1.0607
B(  3-N ,  5-H ) :   0.9339 B(  4-H ,  5-H ) :  -0.1223 B(  8-C ,  9-C ) :   1.3068
B(  8-C , 10-H ) :   0.9372 B(  8-C , 11-H ) :   0.9762 B(  8-C , 12-H ) :   0.1473
B(  8-C , 14-H ) :   0.1873 B(  8-C , 15-H ) :   0.1704 B(  8-C , 16-H ) :   0.2131
B(  9-C , 14-H ) :   0.8390 B(  9-C , 15-H ) :   0.8045 B(  9-C , 16-H ) :   0.8282

FINAL SINGLE POINT ENERGY      -250.839604398833

DIPOLE MOMENT
-------------
                                X             Y             Z
Electronic contribution:      1.35888       0.68748       3.39598
Nuclear contribution   :     -1.05621      -0.17147      -3.92631
                        -----------------------------------------
Total Dipole Moment    :      0.30267       0.51601      -0.53033
                        -----------------------------------------
Magnitude (a.u.)       :      0.79945
Magnitude (Debye)      :      2.03205

Rotational constants in cm-1:     0.171127     0.086782     0.080643
Rotational constants in MHz :  5130.249275  2601.647634  2417.629092

                             ****ORCA TERMINATED NORMALLY****
TOTAL RUN TIME: 0 days 0 hours 0 minutes 27 seconds 730 msec
