                         Program Version 5.0.0 -  RELEASE  -
|  1> !LC-PBE RIJCOSX def2-SVPD def2/J TightSCF
|  2> *xyz 0 1
|  3> C         -0.91495        0.61511        2.50554
|  4> C         -0.05915        1.50352        3.41058
|  5> H          0.36536        2.34431        2.86116
|  6> H         -0.69226        1.92021        4.19898
|  7> C          1.08303        0.74964        4.08571
|  8> O          2.22817        1.26348        4.01983
|  9> F          0.81003       -0.34541        4.63627
| 10> C         -0.13074       -0.19398        1.47076
| 11> H         -1.64796        1.24596        1.99108
| 12> H         -1.47818       -0.08105        3.13042
| 13> H         -0.80952       -0.78099        0.88803
| 14> H          0.55985       -0.83974        1.97175
| 15> H          0.40595        0.47288        0.82877
| 16> *
| 17>
| 18> %MaxCore 64000
| 19>
| 20> %pal nprocs 4
| 21> end
| 22>
| 23> %scf
| 24>   MaxIter 150
| 25> end
| 26>
| 27>
| 28>                          ****END OF INPUT****

CARTESIAN COORDINATES (ANGSTROEM)
---------------------------------
  C     -0.914950    0.615110    2.505540
  C     -0.059150    1.503520    3.410580
  H      0.365360    2.344310    2.861160
  H     -0.692260    1.920210    4.198980
  C      1.083030    0.749640    4.085710
  O      2.228170    1.263480    4.019830
  F      0.810030   -0.345410    4.636270
  C     -0.130740   -0.193980    1.470760
  H     -1.647960    1.245960    1.991080
  H     -1.478180   -0.081050    3.130420
  H     -0.809520   -0.780990    0.888030
  H      0.559850   -0.839740    1.971750
  H      0.405950    0.472880    0.828770

 Total Charge           Charge          ....    0
 Multiplicity           Mult            ....    1
 Number of Electrons    NEL             ....   48
 Basis Dimension        Dim             ....  182

ORBITAL ENERGIES
----------------

  NO   OCC          E(Eh)            E(eV)
   0   2.0000     -24.582953      -668.9362
   1   2.0000     -19.003021      -517.0985
   2   2.0000     -10.318983      -280.7938
   3   2.0000     -10.160455      -276.4800
   4   2.0000     -10.148622      -276.1581
   5   2.0000     -10.124231      -275.4943
   6   2.0000      -1.468626       -39.9633
   7   2.0000      -1.191771       -32.4297
   8   2.0000      -0.995318       -27.0840
   9   2.0000      -0.898502       -24.4495
  10   2.0000      -0.821061       -22.3422
  11   2.0000      -0.775907       -21.1135
  12   2.0000      -0.713314       -19.4103
  13   2.0000      -0.700510       -19.0618
  14   2.0000      -0.643137       -17.5007
  15   2.0000      -0.620905       -16.8957
  16   2.0000      -0.604313       -16.4442
  17   2.0000      -0.563045       -15.3212
  18   2.0000      -0.543139       -14.7796
  19   2.0000      -0.515901       -14.0384
  20   2.0000      -0.501643       -13.6504
  21   2.0000      -0.484034       -13.1712
  22   2.0000      -0.478851       -13.0302
  23   2.0000      -0.427480       -11.6323
  24   0.0000       0.064869         1.7652
  25   0.0000       0.082375         2.2415
  26   0.0000       0.110115         2.9964
  27   0.0000       0.114748         3.1224
  28   0.0000       0.123601         3.3633

MULLIKEN ATOMIC CHARGES
-----------------------
   0 C :   -0.501416
   1 C :   -0.099525
   2 H :    0.096719
   3 H :    0.111504
   4 C :    0.651644
   5 O :   -0.431564
   6 F :   -0.357553
   7 C :    0.416126
   8 H :   -0.047622
   9 H :    0.071041
  10 H :    0.032422
  11 H :   -0.000529
  12 H :    0.058752
Sum of atomic charges:    0.0000000

LOEWDIN ATOMIC CHARGES
----------------------
   0 C :   -0.095405
   1 C :    0.018319
   2 H :    0.048797
   3 H :    0.051672
   4 C :   -0.035004
   5 O :   -0.131586
   6 F :   -0.017332
   7 C :    0.100791
   8 H :    0.036466
   9 H :    0.033350
  10 H :   -0.002730
  11 H :   -0.009274
  12 H :    0.001935

  Mayer bond orders larger than 0.100000
B(  0-C ,  1-C ) :   1.1966 B(  0-C ,  2-H ) :   0.1088 B(  0-C ,  7-C ) :   1.3520
B(  0-C ,  8-H ) :   1.0073 B(  0-C ,  9-H ) :   0.9269 B(  0-C , 10-H ) :   0.1672
B(  0-C , 11-H ) :   0.1603 B(  0-C , 12-H ) :   0.1620 B(  1-C ,  2-H ) :   0.9375
B(  1-C ,  3-H ) :   0.8641 B(  1-C ,  4-C ) :   1.0500 B(  2-H ,  4-C ) :   0.1149
B(  4-C ,  5-O ) :   1.8840 B(  4-C ,  6-F ) :   0.7798 B(  5-O ,  6-F ) :   0.1015
B(  7-C , 10-H ) :   0.8126 B(  7-C , 11-H ) :   0.8782 B(  7-C , 12-H ) :   0.8345

FINAL SINGLE POINT ENERGY      -330.528957454586

DIPOLE MOMENT
-------------
                                X             Y             Z
Electronic contribution:      5.49162      -1.24993       8.21044
Nuclear contribution   :     -6.78915       1.21145      -8.56691
                        -----------------------------------------
Total Dipole Moment    :     -1.29753      -0.03848      -0.35647
                        -----------------------------------------
Magnitude (a.u.)       :      1.34615
Magnitude (Debye)      :      3.42165

Rotational constants in cm-1:     0.188995     0.079574     0.075294
Rotational constants in MHz :  5665.932233  2385.568994  2257.246443

                             ****ORCA TERMINATED NORMALLY****
TOTAL RUN TIME: 0 days 0 hours 0 minutes 21 seconds 67 msec
