                         Program Version 5.0.0 -  RELEASE  -
|  1> !LC-PBE RIJCOSX def2-SVPD def2/J TightSCF
|  2> *xyz 0 1
|  3> C          4.60295       -2.44010        2.63478
|  4> C          3.86085       -1.59157        3.62289
|  5> N          2.75650       -2.04616        4.16633
|  6> C          4.25433       -0.36291        3.86046
|  7> H          3.56526        0.31099        4.16898
|  8> H          5.05429       -0.01606        3.33784
|  9> H          2.43970       -2.97389        3.89740
| 10> H          2.06687       -1.41253        4.54981
| 11> C          3.74469       -2.58056        1.36188
| 12> C          3.20372       -1.25600        0.82621
| 13> H          2.89894       -3.23929        1.58307
| 14> H          4.33496       -3.09552        0.60019
| 15> H          5.56156       -1.97135        2.40708
| 16> H          4.81050       -3.42255        3.06310
| 17> H          2.62184       -1.43789       -0.05313
| 18> H          4.02069       -0.60826        0.58562
| 19> H          2.58975       -0.79418        1.57097
| 20> *
| 21>
| 22> %MaxCore 64000
| 23>
| 24> %pal nprocs 4
| 25> end
| 26>
| 27> %scf
| 28>   MaxIter 150
| 29> end
| 30>
| 31>
| 32>                          ****END OF INPUT****

CARTESIAN COORDINATES (ANGSTROEM)
---------------------------------
  C      4.602950   -2.440100    2.634780
  C      3.860850   -1.591570    3.622890
  N      2.756500   -2.046160    4.166330
  C      4.254330   -0.362910    3.860460
  H      3.565260    0.310990    4.168980
  H      5.054290   -0.016060    3.337840
  H      2.439700   -2.973890    3.897400
  H      2.066870   -1.412530    4.549810
  C      3.744690   -2.580560    1.361880
  C      3.203720   -1.256000    0.826210
  H      2.898940   -3.239290    1.583070
  H      4.334960   -3.095520    0.600190
  H      5.561560   -1.971350    2.407080
  H      4.810500   -3.422550    3.063100
  H      2.621840   -1.437890   -0.053130
  H      4.020690   -0.608260    0.585620
  H      2.589750   -0.794180    1.570970

 Total Charge           Charge          ....    0
 Multiplicity           Mult            ....    1
 Number of Electrons    NEL             ....   48
 Basis Dimension        Dim             ....  208

ORBITAL ENERGIES
----------------

  NO   OCC          E(Eh)            E(eV)
   0   2.0000     -14.230709      -387.2373
   1   2.0000     -10.152528      -276.2643
   2   2.0000     -10.129411      -275.6353
   3   2.0000     -10.128364      -275.6068
   4   2.0000     -10.105266      -274.9783
   5   2.0000     -10.057568      -273.6803
   6   2.0000      -1.102688       -30.0057
   7   2.0000      -0.968300       -26.3488
   8   2.0000      -0.899596       -24.4793
   9   2.0000      -0.851170       -23.1615
  10   2.0000      -0.755128       -20.5481
  11   2.0000      -0.718409       -19.5489
  12   2.0000      -0.673266       -18.3205
  13   2.0000      -0.619280       -16.8515
  14   2.0000      -0.604436       -16.4475
  15   2.0000      -0.592970       -16.1355
  16   2.0000      -0.527431       -14.3521
  17   2.0000      -0.525897       -14.3104
  18   2.0000      -0.511183       -13.9100
  19   2.0000      -0.501400       -13.6438
  20   2.0000      -0.462551       -12.5867
  21   2.0000      -0.460316       -12.5258
  22   2.0000      -0.450423       -12.2566
  23   2.0000      -0.313316        -8.5258
  24   0.0000       0.086784         2.3615
  25   0.0000       0.106940         2.9100
  26   0.0000       0.119304         3.2464
  27   0.0000       0.122866         3.3434
  28   0.0000       0.138065         3.7569

MULLIKEN ATOMIC CHARGES
-----------------------
   0 C :    0.125878
   1 C :   -0.392089
   2 N :    0.107586
   3 C :    0.262909
   4 H :   -0.277609
   5 H :   -0.016319
   6 H :    0.031246
   7 H :   -0.086197
   8 C :   -0.462703
   9 C :    0.549437
  10 H :    0.073138
  11 H :   -0.113068
  12 H :    0.171367
  13 H :    0.022989
  14 H :   -0.011327
  15 H :    0.021480
  16 H :   -0.006719
Sum of atomic charges:   -0.0000000

LOEWDIN ATOMIC CHARGES
----------------------
   0 C :   -0.011947
   1 C :   -0.291360
   2 N :    0.163412
   3 C :    0.142897
   4 H :   -0.067124
   5 H :   -0.066991
   6 H :    0.012577
   7 H :    0.021203
   8 C :   -0.089165
   9 C :    0.094590
  10 H :    0.020357
  11 H :    0.028484
  12 H :    0.036535
  13 H :    0.032850
  14 H :   -0.008796
  15 H :   -0.001297
  16 H :   -0.016226

  Mayer bond orders larger than 0.100000
B(  0-C ,  1-C ) :   1.3205 B(  0-C ,  8-C ) :   1.1558 B(  0-C , 10-H ) :   0.1014
B(  0-C , 11-H ) :   0.1448 B(  0-C , 12-H ) :   0.8147 B(  0-C , 13-H ) :   0.8269
B(  1-C ,  2-N ) :   1.0622 B(  1-C ,  3-C ) :   2.1412 B(  1-C ,  4-H ) :   0.2482
B(  1-C ,  5-H ) :   0.1228 B(  1-C , 12-H ) :   0.1403 B(  1-C , 13-H ) :   0.2085
B(  2-N ,  3-C ) :   0.2621 B(  2-N ,  6-H ) :   1.0144 B(  2-N ,  7-H ) :   1.1181
B(  3-C ,  4-H ) :   0.7726 B(  3-C ,  5-H ) :   0.8621 B(  6-H ,  7-H ) :  -0.1347
B(  8-C ,  9-C ) :   1.3160 B(  8-C , 10-H ) :   0.9014 B(  8-C , 11-H ) :   1.0300
B(  8-C , 12-H ) :   0.1367 B(  8-C , 14-H ) :   0.1814 B(  8-C , 15-H ) :   0.1674
B(  8-C , 16-H ) :   0.2157 B(  9-C , 14-H ) :   0.8122 B(  9-C , 15-H ) :   0.8194
B(  9-C , 16-H ) :   0.8463 B( 15-H , 16-H ) :   0.1158

FINAL SINGLE POINT ENERGY      -250.839672620617

DIPOLE MOMENT
-------------
                                X             Y             Z
Electronic contribution:      0.08892      -0.73518       3.67076
Nuclear contribution   :     -0.70193       0.22667      -3.99866
                        -----------------------------------------
Total Dipole Moment    :     -0.61301      -0.50852      -0.32789
                        -----------------------------------------
Magnitude (a.u.)       :      0.86132
Magnitude (Debye)      :      2.18931

Rotational constants in cm-1:     0.170665     0.086587     0.081284
Rotational constants in MHz :  5116.404877  2595.819690  2436.831753

                             ****ORCA TERMINATED NORMALLY****
TOTAL RUN TIME: 0 days 0 hours 0 minutes 27 seconds 629 msec
