                         Program Version 5.0.0 -  RELEASE  -
|  1> !LC-PBE RIJCOSX def2-SVPD def2/J TightSCF
|  2> *xyz -1 1
|  3> C          3.38093        2.08304       -3.35013
|  4> C          2.49556        1.81615       -2.13636
|  5> C          1.87218        0.42790       -2.07750
|  6> H          2.61427       -0.36583       -2.19889
|  7> H          1.38995        0.27309       -1.11236
|  8> S          0.57902        0.14047       -3.29794
|  9> O          0.22886       -1.24687       -3.12787
| 10> O         -0.43927        1.11897       -3.01455
| 11> O          1.24788        0.40347       -4.59565
| 12> H          1.69700        2.56197       -2.14111
| 13> H          3.08079        1.98744       -1.22584
| 14> H          2.81820        1.91840       -4.24519
| 15> H          4.22171        1.42153       -3.33067
| 16> H          3.72372        3.09635       -3.32565
| 17> *
| 18>
| 19> %MaxCore 64000
| 20>
| 21> %pal nprocs 8
| 22> end
| 23>
| 24> %scf
| 25>   MaxIter 150
| 26> end
| 27>
| 28>
| 29>                          ****END OF INPUT****

CARTESIAN COORDINATES (ANGSTROEM)
---------------------------------
  C      3.380930    2.083040   -3.350130
  C      2.495560    1.816150   -2.136360
  C      1.872180    0.427900   -2.077500
  H      2.614270   -0.365830   -2.198890
  H      1.389950    0.273090   -1.112360
  S      0.579020    0.140470   -3.297940
  O      0.228860   -1.246870   -3.127870
  O     -0.439270    1.118970   -3.014550
  O      1.247880    0.403470   -4.595650
  H      1.697000    2.561970   -2.141110
  H      3.080790    1.987440   -1.225840
  H      2.818200    1.918400   -4.245190
  H      4.221710    1.421530   -3.330670
  H      3.723720    3.096350   -3.325650

 Total Charge           Charge          ....   -1
 Multiplicity           Mult            ....    1
 Number of Electrons    NEL             ....   66
 Basis Dimension        Dim             ....  212

ORBITAL ENERGIES
----------------

  NO   OCC          E(Eh)            E(eV)
   0   2.0000     -88.318055     -2403.2565
   1   2.0000     -18.779439      -511.0145
   2   2.0000     -18.779309      -511.0110
   3   2.0000     -18.765138      -510.6254
   4   2.0000      -9.997003      -272.0323
   5   2.0000      -9.992310      -271.9046
   6   2.0000      -9.973308      -271.3875
   7   2.0000      -7.939719      -216.0507
   8   2.0000      -5.962010      -162.2345
   9   2.0000      -5.961964      -162.2333
  10   2.0000      -5.961689      -162.2258
  11   2.0000      -1.115959       -30.3668
  12   2.0000      -0.962857       -26.2007
  13   2.0000      -0.937427       -25.5087
  14   2.0000      -0.831736       -22.6327
  15   2.0000      -0.732926       -19.9439
  16   2.0000      -0.625943       -17.0328
  17   2.0000      -0.537319       -14.6212
  18   2.0000      -0.487005       -13.2521
  19   2.0000      -0.465946       -12.6790
  20   2.0000      -0.442616       -12.0442
  21   2.0000      -0.425459       -11.5773
  22   2.0000      -0.417849       -11.3702
  23   2.0000      -0.400389       -10.8951
  24   2.0000      -0.352864        -9.6019
  25   2.0000      -0.345851        -9.4111
  26   2.0000      -0.331346        -9.0164
  27   2.0000      -0.300725        -8.1831
  28   2.0000      -0.298354        -8.1186
  29   2.0000      -0.259987        -7.0746
  30   2.0000      -0.247058        -6.7228
  31   2.0000      -0.230838        -6.2814
  32   2.0000      -0.204362        -5.5610
  33   0.0000       0.202335         5.5058
  34   0.0000       0.221524         6.0280
  35   0.0000       0.223840         6.0910
  36   0.0000       0.230180         6.2635
  37   0.0000       0.249548         6.7905

MULLIKEN ATOMIC CHARGES
-----------------------
   0 C :    0.593908
   1 C :   -0.366049
   2 C :   -0.142549
   3 H :    0.052024
   4 H :    0.070528
   5 S :    1.258958
   6 O :   -0.765520
   7 O :   -0.756975
   8 O :   -0.816946
   9 H :    0.051586
  10 H :   -0.060390
  11 H :   -0.169140
  12 H :    0.027739
  13 H :    0.022826
Sum of atomic charges:   -1.0000000

LOEWDIN ATOMIC CHARGES
----------------------
   0 C :    0.082645
   1 C :   -0.114733
   2 C :   -0.119391
   3 H :    0.023185
   4 H :    0.016740
   5 S :    0.847195
   6 O :   -0.568090
   7 O :   -0.565270
   8 O :   -0.577145
   9 H :    0.029478
  10 H :    0.019504
  11 H :   -0.043929
  12 H :   -0.010799
  13 H :   -0.019391

  Mayer bond orders larger than 0.100000
B(  0-C ,  1-C ) :   1.2632 B(  0-C , 11-H ) :   0.8728 B(  0-C , 12-H ) :   0.7773
B(  0-C , 13-H ) :   0.7733 B(  1-C ,  2-C ) :   1.1960 B(  1-C ,  3-H ) :   0.1091
B(  1-C ,  4-H ) :   0.1090 B(  1-C ,  9-H ) :   0.9243 B(  1-C , 10-H ) :   0.9472
B(  1-C , 11-H ) :   0.2235 B(  1-C , 12-H ) :   0.1681 B(  1-C , 13-H ) :   0.1667
B(  2-C ,  3-H ) :   0.9705 B(  2-C ,  4-H ) :   0.9328 B(  2-C ,  5-S ) :   0.9439
B(  2-C ,  9-H ) :   0.1149 B(  5-S ,  6-O ) :   1.3943 B(  5-S ,  7-O ) :   1.3263
B(  5-S ,  8-O ) :   1.2791 B(  8-O , 11-H ) :   0.1179 B( 11-H , 12-H ) :   0.1103

FINAL SINGLE POINT ENERGY      -740.727425834757

DIPOLE MOMENT
-------------
                                X             Y             Z
Electronic contribution:     -8.75253      -5.52992      -2.82238
Nuclear contribution   :     10.42821       6.37804       4.08250
                        -----------------------------------------
Total Dipole Moment    :      1.67568       0.84811       1.26013
                        -----------------------------------------
Magnitude (a.u.)       :      2.26166
Magnitude (Debye)      :      5.74869

Rotational constants in cm-1:     0.136992     0.054831     0.052480
Rotational constants in MHz :  4106.928256  1643.799656  1573.299166

                             ****ORCA TERMINATED NORMALLY****
TOTAL RUN TIME: 0 days 0 hours 0 minutes 14 seconds 745 msec
