                         Program Version 5.0.0 -  RELEASE  -
|  1> !LC-PBE RIJCOSX def2-SVPD def2/J TightSCF
|  2> *xyz 1 1
|  3> C          3.38093        2.08304       -3.35013
|  4> N          4.53592        1.18245       -3.42852
|  5> C          2.49556        1.81615       -2.13636
|  6> C          1.87218        0.42790       -2.07750
|  7> C          4.67196        0.12227       -4.22060
|  8> N          5.86602       -0.50785       -4.22428
|  9> N          3.69888       -0.31284       -4.98699
| 10> H          2.73141       -0.05009       -4.84900
| 11> H          3.89005       -1.05517       -5.64373
| 12> H          5.25193        1.30346       -2.72101
| 13> H          6.69516       -0.06232       -3.85160
| 14> H          5.97538       -1.39688       -4.69141
| 15> H          1.69700        2.56197       -2.14111
| 16> H          3.08079        1.98744       -1.22584
| 17> H          2.80646        1.98651       -4.26848
| 18> H          3.77871        3.09828       -3.30738
| 19> H          1.29954        0.25615       -2.96490
| 20> H          1.23321        0.35984       -1.22194
| 21> H          2.64581       -0.30765       -2.00430
| 22> *
| 23>
| 24> %MaxCore 64000
| 25>
| 26> %pal nprocs 8
| 27> end
| 28>
| 29> %scf
| 30>   MaxIter 150
| 31> end
| 32>
| 33>
| 34>                          ****END OF INPUT****

CARTESIAN COORDINATES (ANGSTROEM)
---------------------------------
  C      3.380930    2.083040   -3.350130
  N      4.535920    1.182450   -3.428520
  C      2.495560    1.816150   -2.136360
  C      1.872180    0.427900   -2.077500
  C      4.671960    0.122270   -4.220600
  N      5.866020   -0.507850   -4.224280
  N      3.698880   -0.312840   -4.986990
  H      2.731410   -0.050090   -4.849000
  H      3.890050   -1.055170   -5.643730
  H      5.251930    1.303460   -2.721010
  H      6.695160   -0.062320   -3.851600
  H      5.975380   -1.396880   -4.691410
  H      1.697000    2.561970   -2.141110
  H      3.080790    1.987440   -1.225840
  H      2.806460    1.986510   -4.268480
  H      3.778710    3.098280   -3.307380
  H      1.299540    0.256150   -2.964900
  H      1.233210    0.359840   -1.221940
  H      2.645810   -0.307650   -2.004300

 Total Charge           Charge          ....    1
 Multiplicity           Mult            ....    1
 Number of Electrons    NEL             ....   56
 Basis Dimension        Dim             ....  236

ORBITAL ENERGIES
----------------

  NO   OCC          E(Eh)            E(eV)
   0   2.0000     -14.454170      -393.3180
   1   2.0000     -14.452297      -393.2670
   2   2.0000     -14.447474      -393.1357
   3   2.0000     -10.471580      -284.9462
   4   2.0000     -10.329095      -281.0690
   5   2.0000     -10.268947      -279.4323
   6   2.0000     -10.246629      -278.8249
   7   2.0000      -1.385270       -37.6951
   8   2.0000      -1.266587       -34.4656
   9   2.0000      -1.250201       -34.0197
  10   2.0000      -1.111594       -30.2480
  11   2.0000      -1.028712       -27.9927
  12   2.0000      -0.979653       -26.6577
  13   2.0000      -0.940374       -25.5889
  14   2.0000      -0.916844       -24.9486
  15   2.0000      -0.880370       -23.9561
  16   2.0000      -0.839670       -22.8486
  17   2.0000      -0.831904       -22.6373
  18   2.0000      -0.790469       -21.5098
  19   2.0000      -0.777091       -21.1457
  20   2.0000      -0.743813       -20.2402
  21   2.0000      -0.721066       -19.6212
  22   2.0000      -0.691101       -18.8058
  23   2.0000      -0.644953       -17.5501
  24   2.0000      -0.620665       -16.8892
  25   2.0000      -0.612103       -16.6562
  26   2.0000      -0.606699       -16.5091
  27   2.0000      -0.569586       -15.4992
  28   0.0000      -0.076080        -2.0702
  29   0.0000      -0.068235        -1.8568
  30   0.0000      -0.037068        -1.0087
  31   0.0000      -0.029378        -0.7994
  32   0.0000      -0.007853        -0.2137

MULLIKEN ATOMIC CHARGES
-----------------------
   0 C :    0.581457
   1 N :   -0.560360
   2 C :   -0.456326
   3 C :    0.542650
   4 C :    1.445152
   5 N :   -0.178371
   6 N :   -0.070945
   7 H :   -0.064138
   8 H :   -0.048701
   9 H :   -0.157806
  10 H :   -0.014639
  11 H :    0.030220
  12 H :    0.063434
  13 H :    0.032980
  14 H :   -0.000827
  15 H :   -0.116671
  16 H :   -0.009075
  17 H :   -0.049578
  18 H :    0.031545
Sum of atomic charges:    1.0000000

LOEWDIN ATOMIC CHARGES
----------------------
   0 C :    0.057139
   1 N :    0.038969
   2 C :   -0.078644
   3 C :    0.099497
   4 C :   -0.033937
   5 N :    0.241238
   6 N :    0.269019
   7 H :    0.027678
   8 H :    0.051652
   9 H :    0.071418
  10 H :    0.044773
  11 H :    0.041782
  12 H :    0.048422
  13 H :    0.042525
  14 H :    0.036360
  15 H :    0.051822
  16 H :   -0.009289
  17 H :    0.009575
  18 H :   -0.009999

  Mayer bond orders larger than 0.100000
B(  0-C ,  1-N ) :   0.9417 B(  0-C ,  2-C ) :   1.1072 B(  0-C ,  9-H ) :  -0.1821
B(  0-C , 14-H ) :   0.7918 B(  0-C , 15-H ) :   0.9789 B(  1-N ,  4-C ) :   0.9367
B(  1-N ,  5-N ) :   0.2678 B(  1-N ,  6-N ) :   0.2679 B(  1-N ,  9-H ) :   1.3318
B(  1-N , 14-H ) :   0.1465 B(  1-N , 15-H ) :   0.1141 B(  2-C ,  3-C ) :   1.3093
B(  2-C , 12-H ) :   0.9418 B(  2-C , 13-H ) :   0.9511 B(  2-C , 14-H ) :   0.1064
B(  2-C , 16-H ) :   0.1858 B(  2-C , 17-H ) :   0.1693 B(  2-C , 18-H ) :   0.1869
B(  3-C , 16-H ) :   0.8164 B(  3-C , 17-H ) :   0.8773 B(  3-C , 18-H ) :   0.8022
B(  4-C ,  5-N ) :   0.7950 B(  4-C ,  6-N ) :   0.9186 B(  4-C ,  7-H ) :  -0.1690
B(  4-C ,  8-H ) :  -0.1839 B(  4-C ,  9-H ) :  -0.2451 B(  4-C , 10-H ) :  -0.1579
B(  4-C , 11-H ) :  -0.1032 B(  5-N ,  6-N ) :   0.1790 B(  5-N , 10-H ) :   1.1879
B(  5-N , 11-H ) :   1.1603 B(  6-N ,  7-H ) :   1.1654 B(  6-N ,  8-H ) :   1.2855
B(  7-H ,  8-H ) :  -0.2135 B( 10-H , 11-H ) :  -0.1619 B( 14-H , 15-H ) :  -0.1013

FINAL SINGLE POINT ENERGY      -322.467337565368

DIPOLE MOMENT
-------------
                                X             Y             Z
Electronic contribution:      5.31961      -1.47157      -3.79301
Nuclear contribution   :     -4.20917       0.72396       2.93051
                        -----------------------------------------
Total Dipole Moment    :      1.11044      -0.74761      -0.86250
                        -----------------------------------------
Magnitude (a.u.)       :      1.59245
Magnitude (Debye)      :      4.04768

Rotational constants in cm-1:     0.153116     0.051500     0.046494
Rotational constants in MHz :  4590.307026  1543.937577  1393.864628

                             ****ORCA TERMINATED NORMALLY****
TOTAL RUN TIME: 0 days 0 hours 0 minutes 20 seconds 902 msec
