                         Program Version 5.0.0 -  RELEASE  -
|  1> !LC-PBE RIJCOSX def2-SVPD def2/J TightSCF xyzfile
|  2>
|  3> *xyzfile 0 1 B.xyz
|  4>
|  5> %MaxCore 64000
|  6>
|  7> %pal nprocs 4
|  8> end
|  9>
| 10> %scf
| 11>   MaxIter 150
| 12> end
| 13>
| 14>
| 15>                          ****END OF INPUT****

CARTESIAN COORDINATES (ANGSTROEM)
---------------------------------
  C      3.380928    2.083045   -3.350127
  N      4.535924    1.182447   -3.428518
  C      2.495557    1.816150   -2.136364
  C      1.872181    0.427903   -2.077497
  H      2.614270   -0.365825   -2.198894
  H      1.389953    0.273087   -1.112360
  S      0.579024    0.140472   -3.297943
  C      4.671956    0.122273   -4.220598
  N      5.866023   -0.507849   -4.224284
  N      3.698881   -0.312844   -4.986988
  H      2.731405   -0.050091   -4.849000
  H      3.890046   -1.055172   -5.643730
  H      5.251933    1.303459   -2.721014
  H      6.695165   -0.062322   -3.851596
  H      5.975383   -1.396884   -4.691414
  O      0.228860   -1.246868   -3.127871
  O     -0.439269    1.118966   -3.014550
  O      1.247881    0.403474   -4.595647
  H      1.697003    2.561969   -2.141109
  H      3.080787    1.987436   -1.225838
  H      2.806463    1.986511   -4.268484
  H      3.778714    3.098282   -3.307383

 Total Charge           Charge          ....    0
 Multiplicity           Mult            ....    1
 Number of Electrons    NEL             ....   96
 Basis Dimension        Dim             ....  324

ORBITAL ENERGIES
----------------

  NO   OCC          E(Eh)            E(eV)
   0   2.0000     -88.462213     -2407.1792
   1   2.0000     -18.929646      -515.1019
   2   2.0000     -18.912874      -514.6455
   3   2.0000     -18.912530      -514.6361
   4   2.0000     -14.328186      -389.8898
   5   2.0000     -14.324390      -389.7865
   6   2.0000     -14.290924      -388.8758
   7   2.0000     -10.336837      -281.2796
   8   2.0000     -10.194393      -277.4035
   9   2.0000     -10.146984      -276.1135
  10   2.0000     -10.134646      -275.7777
  11   2.0000      -8.083196      -219.9549
  12   2.0000      -6.106286      -166.1605
  13   2.0000      -6.105070      -166.1274
  14   2.0000      -6.104843      -166.1212
  15   2.0000      -1.259837       -34.2819
  16   2.0000      -1.251521       -34.0556
  17   2.0000      -1.135520       -30.8991
  18   2.0000      -1.117248       -30.4019
  19   2.0000      -1.096372       -29.8338
  20   2.0000      -1.093653       -29.7598
  21   2.0000      -0.984963       -26.8022
  22   2.0000      -0.907412       -24.6919
  23   2.0000      -0.843903       -22.9638
  24   2.0000      -0.809734       -22.0340
  25   2.0000      -0.800557       -21.7843
  26   2.0000      -0.759249       -20.6602
  27   2.0000      -0.715531       -19.4706
  28   2.0000      -0.697949       -18.9922
  29   2.0000      -0.683106       -18.5883
  30   2.0000      -0.664808       -18.0903
  31   2.0000      -0.633734       -17.2448
  32   2.0000      -0.623806       -16.9746
  33   2.0000      -0.601264       -16.3612
  34   2.0000      -0.587838       -15.9959
  35   2.0000      -0.570636       -15.5278
  36   2.0000      -0.549674       -14.9574
  37   2.0000      -0.518522       -14.1097
  38   2.0000      -0.513337       -13.9686
  39   2.0000      -0.498786       -13.5727
  40   2.0000      -0.476370       -12.9627
  41   2.0000      -0.445720       -12.1287
  42   2.0000      -0.442468       -12.0402
  43   2.0000      -0.437677       -11.9098
  44   2.0000      -0.401092       -10.9143
  45   2.0000      -0.392359       -10.6766
  46   2.0000      -0.376392       -10.2422
  47   2.0000      -0.350331        -9.5330
  48   0.0000       0.035406         0.9634
  49   0.0000       0.053581         1.4580
  50   0.0000       0.069448         1.8898
  51   0.0000       0.087844         2.3904
  52   0.0000       0.103127         2.8062

MULLIKEN ATOMIC CHARGES
-----------------------
   0 C :    0.687504
   1 N :   -0.560980
   2 C :    0.016460
   3 C :   -0.063150
   4 H :    0.131512
   5 H :   -0.047035
   6 S :    1.316210
   7 C :    1.313687
   8 N :   -0.155112
   9 N :    0.269297
  10 H :   -0.310276
  11 H :   -0.090256
  12 H :   -0.157183
  13 H :   -0.049579
  14 H :    0.005342
  15 O :   -0.726932
  16 O :   -0.756133
  17 O :   -0.848247
  18 H :    0.107802
  19 H :    0.031092
  20 H :    0.062068
  21 H :   -0.176091
Sum of atomic charges:    0.0000000

LOEWDIN ATOMIC CHARGES
----------------------
   0 C :    0.065955
   1 N :    0.032003
   2 C :   -0.040536
   3 C :   -0.096279
   4 H :    0.015797
   5 H :    0.032739
   6 S :    0.909396
   7 C :   -0.039401
   8 N :    0.217617
   9 N :    0.297536
  10 H :   -0.131163
  11 H :    0.047961
  12 H :    0.058285
  13 H :    0.028073
  14 H :    0.029448
  15 O :   -0.524721
  16 O :   -0.516750
  17 O :   -0.531825
  18 H :    0.048199
  19 H :    0.034404
  20 H :    0.020781
  21 H :    0.042483

  Mayer bond orders larger than 0.100000
B(  0-C ,  1-N ) :   0.9297 B(  0-C ,  2-C ) :   1.1230 B(  0-C , 12-H ) :  -0.1704
B(  0-C , 18-H ) :   0.1177 B(  0-C , 19-H ) :   0.1101 B(  0-C , 20-H ) :   0.7594
B(  0-C , 21-H ) :   0.9264 B(  1-N ,  7-C ) :   0.9423 B(  1-N ,  8-N ) :   0.2533
B(  1-N ,  9-N ) :   0.1799 B(  1-N , 12-H ) :   1.3253 B(  1-N , 20-H ) :   0.1735
B(  1-N , 21-H ) :   0.1135 B(  2-C ,  3-C ) :   1.2396 B(  2-C ,  4-H ) :   0.1225
B(  2-C ,  5-H ) :   0.1353 B(  2-C , 18-H ) :   0.8621 B(  2-C , 19-H ) :   0.8333
B(  2-C , 20-H ) :   0.1399 B(  3-C ,  4-H ) :   0.9301 B(  3-C ,  5-H ) :   0.8962
B(  3-C ,  6-S ) :   0.9239 B(  3-C , 17-O ) :   0.1431 B(  3-C , 18-H ) :   0.1396
B(  6-S , 15-O ) :   1.3889 B(  6-S , 16-O ) :   1.4086 B(  6-S , 17-O ) :   1.1371
B(  7-C ,  8-N ) :   0.7938 B(  7-C ,  9-N ) :   1.0688 B(  7-C , 10-H ) :  -0.2322
B(  7-C , 11-H ) :  -0.1671 B(  7-C , 12-H ) :  -0.2330 B(  7-C , 13-H ) :  -0.1595
B(  8-N ,  9-N ) :   0.1614 B(  8-N , 13-H ) :   1.2118 B(  8-N , 14-H ) :   1.1710
B(  9-N , 10-H ) :   1.1710 B(  9-N , 11-H ) :   1.2046 B( 10-H , 11-H ) :  -0.2269
B( 10-H , 17-O ) :   0.2625 B( 13-H , 14-H ) :  -0.1631 B( 20-H , 21-H ) :  -0.1113

FINAL SINGLE POINT ENERGY      -944.709534344024

DIPOLE MOMENT
-------------
                                X             Y             Z
Electronic contribution:     -6.89741      -3.17460      -2.37957
Nuclear contribution   :     13.40759       3.44219       2.21042
                        -----------------------------------------
Total Dipole Moment    :      6.51019       0.26759      -0.16915
                        -----------------------------------------
Magnitude (a.u.)       :      6.51788
Magnitude (Debye)      :     16.56713

Rotational constants in cm-1:     0.059860     0.020817     0.017914
Rotational constants in MHz :  1794.564877   624.092098   537.039275

                             ****ORCA TERMINATED NORMALLY****
TOTAL RUN TIME: 0 days 0 hours 1 minutes 23 seconds 817 msec
