                         Program Version 5.0.0 -  RELEASE  -
|  1> !LC-PBE RIJCOSX def2-SVPD def2/J TightSCF
|  2> *xyz 0 1
|  3> C          3.38093        2.08304       -3.35013
|  4> C          2.49556        1.81615       -2.13636
|  5> C          1.87218        0.42790       -2.07750
|  6> H          2.61427       -0.36583       -2.19889
|  7> H          1.38995        0.27309       -1.11236
|  8> S          0.57902        0.14047       -3.29794
|  9> F          0.22886       -1.24687       -3.12787
| 10> O         -0.43927        1.11897       -3.01455
| 11> O          1.24788        0.40347       -4.59565
| 12> H          1.69700        2.56197       -2.14111
| 13> H          3.08079        1.98744       -1.22584
| 14> H          2.81820        1.91840       -4.24519
| 15> H          4.22171        1.42153       -3.33067
| 16> H          3.72372        3.09635       -3.32565
| 17> *
| 18>
| 19> %MaxCore 64000
| 20>
| 21> %pal nprocs 8
| 22> end
| 23>
| 24> %scf
| 25>   MaxIter 150
| 26> end
| 27>
| 28>
| 29>                          ****END OF INPUT****

CARTESIAN COORDINATES (ANGSTROEM)
---------------------------------
  C      3.380930    2.083040   -3.350130
  C      2.495560    1.816150   -2.136360
  C      1.872180    0.427900   -2.077500
  H      2.614270   -0.365830   -2.198890
  H      1.389950    0.273090   -1.112360
  S      0.579020    0.140470   -3.297940
  F      0.228860   -1.246870   -3.127870
  O     -0.439270    1.118970   -3.014550
  O      1.247880    0.403470   -4.595650
  H      1.697000    2.561970   -2.141110
  H      3.080790    1.987440   -1.225840
  H      2.818200    1.918400   -4.245190
  H      4.221710    1.421530   -3.330670
  H      3.723720    3.096350   -3.325650

 Total Charge           Charge          ....    0
 Multiplicity           Mult            ....    1
 Number of Electrons    NEL             ....   66
 Basis Dimension        Dim             ....  212

ORBITAL ENERGIES
----------------

  NO   OCC          E(Eh)            E(eV)
   0   2.0000     -88.577513     -2410.3167
   1   2.0000     -24.635496      -670.3659
   2   2.0000     -19.012527      -517.3572
   3   2.0000     -18.997454      -516.9470
   4   2.0000     -10.193026      -277.3663
   5   2.0000     -10.155545      -276.3464
   6   2.0000     -10.112839      -275.1843
   7   2.0000      -8.200082      -223.1356
   8   2.0000      -6.227157      -169.4496
   9   2.0000      -6.219939      -169.2532
  10   2.0000      -6.218570      -169.2159
  11   2.0000      -1.546659       -42.0867
  12   2.0000      -1.286496       -35.0073
  13   2.0000      -1.171797       -31.8862
  14   2.0000      -1.007754       -27.4224
  15   2.0000      -0.925776       -25.1917
  16   2.0000      -0.871881       -23.7251
  17   2.0000      -0.796399       -21.6711
  18   2.0000      -0.752174       -20.4677
  19   2.0000      -0.737865       -20.0783
  20   2.0000      -0.711990       -19.3742
  21   2.0000      -0.646280       -17.5862
  22   2.0000      -0.635567       -17.2947
  23   2.0000      -0.598496       -16.2859
  24   2.0000      -0.589255       -16.0345
  25   2.0000      -0.574148       -15.6234
  26   2.0000      -0.535937       -14.5836
  27   2.0000      -0.507175       -13.8009
  28   2.0000      -0.504565       -13.7299
  29   2.0000      -0.487789       -13.2734
  30   2.0000      -0.474539       -12.9129
  31   2.0000      -0.447386       -12.1740
  32   2.0000      -0.444654       -12.0997
  33   0.0000       0.062684         1.7057
  34   0.0000       0.085533         2.3275
  35   0.0000       0.091249         2.4830
  36   0.0000       0.096586         2.6282
  37   0.0000       0.121205         3.2982

MULLIKEN ATOMIC CHARGES
-----------------------
   0 C :    0.593847
   1 C :   -0.385584
   2 C :   -0.185204
   3 H :    0.110160
   4 H :    0.137991
   5 S :    1.454077
   6 F :   -0.387028
   7 O :   -0.616214
   8 O :   -0.695380
   9 H :    0.068432
  10 H :   -0.021061
  11 H :   -0.174496
  12 H :    0.046890
  13 H :    0.053570
Sum of atomic charges:   -0.0000000

LOEWDIN ATOMIC CHARGES
----------------------
   0 C :    0.105173
   1 C :   -0.086093
   2 C :   -0.082636
   3 H :    0.039286
   4 H :    0.033101
   5 S :    1.108933
   6 F :   -0.239245
   7 O :   -0.455964
   8 O :   -0.475181
   9 H :    0.042012
  10 H :    0.044902
  11 H :   -0.036484
  12 H :    0.001493
  13 H :    0.000705

  Mayer bond orders larger than 0.100000
B(  0-C ,  1-C ) :   1.2820 B(  0-C , 11-H ) :   0.8838 B(  0-C , 12-H ) :   0.7757
B(  0-C , 13-H ) :   0.7770 B(  1-C ,  2-C ) :   1.2391 B(  1-C ,  3-H ) :   0.1070
B(  1-C ,  4-H ) :   0.1152 B(  1-C ,  9-H ) :   0.9196 B(  1-C , 10-H ) :   0.9536
B(  1-C , 11-H ) :   0.2074 B(  1-C , 12-H ) :   0.1644 B(  1-C , 13-H ) :   0.1594
B(  2-C ,  3-H ) :   0.9482 B(  2-C ,  4-H ) :   0.8889 B(  2-C ,  5-S ) :   0.9765
B(  2-C ,  9-H ) :   0.1084 B(  5-S ,  6-F ) :   0.7323 B(  5-S ,  7-O ) :   1.5436
B(  5-S ,  8-O ) :   1.4766 B(  8-O , 11-H ) :   0.1030 B( 11-H , 12-H ) :   0.1113

FINAL SINGLE POINT ENERGY      -765.178135588885

DIPOLE MOMENT
-------------
                                X             Y             Z
Electronic contribution:    -10.65492      -8.93161      -2.77600
Nuclear contribution   :     11.47400       8.34657       4.07449
                        -----------------------------------------
Total Dipole Moment    :      0.81908      -0.58503       1.29850
                        -----------------------------------------
Magnitude (a.u.)       :      1.64294
Magnitude (Debye)      :      4.17601

Rotational constants in cm-1:     0.134491     0.052696     0.050832
Rotational constants in MHz :  4031.952949  1579.780527  1523.918863

                             ****ORCA TERMINATED NORMALLY****
TOTAL RUN TIME: 0 days 0 hours 0 minutes 15 seconds 802 msec
