                         Program Version 5.0.0 -  RELEASE  -
|  1> !LC-PBE RIJCOSX def2-SVPD def2/J TightSCF
|  2> *xyz 0 1
|  3> C          3.38093        2.08304       -3.35013
|  4> C          4.53592        1.18245       -3.42852
|  5> C          2.49556        1.81615       -2.13636
|  6> C          1.87218        0.42790       -2.07750
|  7> C          4.67196        0.12227       -4.22060
|  8> N          5.86602       -0.50785       -4.22428
|  9> N          3.69888       -0.31284       -4.98699
| 10> H          2.73141       -0.05009       -4.84900
| 11> H          3.89005       -1.05517       -5.64373
| 12> H          5.25193        1.30346       -2.72101
| 13> H          6.69516       -0.06232       -3.85160
| 14> H          5.97538       -1.39688       -4.69141
| 15> H          1.69700        2.56197       -2.14111
| 16> H          3.08079        1.98744       -1.22584
| 17> H          2.80646        1.98651       -4.26848
| 18> H          3.77871        3.09828       -3.30738
| 19> H          1.29954        0.25615       -2.96490
| 20> H          1.23321        0.35984       -1.22194
| 21> H          2.64581       -0.30765       -2.00430
| 22> *
| 23>
| 24> %MaxCore 64000
| 25>
| 26> %pal nprocs 8
| 27> end
| 28>
| 29> %scf
| 30>   MaxIter 150
| 31> end
| 32>
| 33>
| 34>                          ****END OF INPUT****

CARTESIAN COORDINATES (ANGSTROEM)
---------------------------------
  C      3.380930    2.083040   -3.350130
  C      4.535920    1.182450   -3.428520
  C      2.495560    1.816150   -2.136360
  C      1.872180    0.427900   -2.077500
  C      4.671960    0.122270   -4.220600
  N      5.866020   -0.507850   -4.224280
  N      3.698880   -0.312840   -4.986990
  H      2.731410   -0.050090   -4.849000
  H      3.890050   -1.055170   -5.643730
  H      5.251930    1.303460   -2.721010
  H      6.695160   -0.062320   -3.851600
  H      5.975380   -1.396880   -4.691410
  H      1.697000    2.561970   -2.141110
  H      3.080790    1.987440   -1.225840
  H      2.806460    1.986510   -4.268480
  H      3.778710    3.098280   -3.307380
  H      1.299540    0.256150   -2.964900
  H      1.233210    0.359840   -1.221940
  H      2.645810   -0.307650   -2.004300

 Total Charge           Charge          ....    0
 Multiplicity           Mult            ....    1
 Number of Electrons    NEL             ....   56
 Basis Dimension        Dim             ....  236

ORBITAL ENERGIES
----------------

  NO   OCC          E(Eh)            E(eV)
   0   2.0000     -14.231458      -387.2577
   1   2.0000     -14.224955      -387.0807
   2   2.0000     -10.175908      -276.9005
   3   2.0000     -10.103974      -274.9431
   4   2.0000     -10.099357      -274.8175
   5   2.0000     -10.096249      -274.7329
   6   2.0000     -10.049581      -273.4630
   7   2.0000      -1.130510       -30.7627
   8   2.0000      -1.028634       -27.9906
   9   2.0000      -0.958906       -26.0932
  10   2.0000      -0.886938       -24.1348
  11   2.0000      -0.820349       -22.3228
  12   2.0000      -0.752830       -20.4855
  13   2.0000      -0.716773       -19.5044
  14   2.0000      -0.692002       -18.8303
  15   2.0000      -0.654421       -17.8077
  16   2.0000      -0.621223       -16.9043
  17   2.0000      -0.587639       -15.9905
  18   2.0000      -0.578474       -15.7411
  19   2.0000      -0.557122       -15.1601
  20   2.0000      -0.528890       -14.3918
  21   2.0000      -0.513164       -13.9639
  22   2.0000      -0.482972       -13.1423
  23   2.0000      -0.463381       -12.6092
  24   2.0000      -0.443401       -12.0656
  25   2.0000      -0.436158       -11.8685
  26   2.0000      -0.398599       -10.8464
  27   2.0000      -0.274390        -7.4665
  28   0.0000       0.089901         2.4463
  29   0.0000       0.109173         2.9708
  30   0.0000       0.120323         3.2742
  31   0.0000       0.129879         3.5342
  32   0.0000       0.140290         3.8175

MULLIKEN ATOMIC CHARGES
-----------------------
   0 C :    0.121162
   1 C :   -0.329820
   2 C :   -0.454140
   3 C :    0.539494
   4 C :    0.948595
   5 N :   -0.134119
   6 N :    0.023332
   7 H :   -0.096494
   8 H :   -0.194577
   9 H :   -0.257287
  10 H :   -0.039881
  11 H :   -0.080292
  12 H :    0.005448
  13 H :    0.011670
  14 H :   -0.033884
  15 H :    0.008114
  16 H :   -0.026844
  17 H :   -0.049077
  18 H :    0.038599
Sum of atomic charges:    0.0000000

LOEWDIN ATOMIC CHARGES
----------------------
   0 C :   -0.081284
   1 C :   -0.051287
   2 C :   -0.106401
   3 C :    0.084341
   4 C :   -0.228670
   5 N :    0.160469
   6 N :    0.185147
   7 H :   -0.002044
   8 H :    0.005279
   9 H :   -0.034146
  10 H :    0.012131
  11 H :   -0.005510
  12 H :    0.024329
  13 H :    0.032748
  14 H :    0.016356
  15 H :    0.026636
  16 H :   -0.017082
  17 H :   -0.011011
  18 H :   -0.010000

  Mayer bond orders larger than 0.100000
B(  0-C ,  1-C ) :   1.1402 B(  0-C ,  2-C ) :   1.1481 B(  0-C ,  9-H ) :   0.2070
B(  0-C , 12-H ) :   0.1150 B(  0-C , 13-H ) :   0.1201 B(  0-C , 14-H ) :   0.8411
B(  0-C , 15-H ) :   0.9015 B(  1-C ,  4-C ) :   1.7221 B(  1-C ,  5-N ) :   0.4121
B(  1-C ,  6-N ) :   0.2568 B(  1-C ,  9-H ) :   0.9100 B(  1-C , 14-H ) :   0.1930
B(  1-C , 15-H ) :   0.1177 B(  2-C ,  3-C ) :   1.3182 B(  2-C , 12-H ) :   0.9343
B(  2-C , 13-H ) :   0.9425 B(  2-C , 14-H ) :   0.1157 B(  2-C , 16-H ) :   0.1897
B(  2-C , 17-H ) :   0.1809 B(  2-C , 18-H ) :   0.2057 B(  3-C , 16-H ) :   0.8234
B(  3-C , 17-H ) :   0.8329 B(  3-C , 18-H ) :   0.8019 B(  4-C ,  5-N ) :   0.7337
B(  4-C ,  6-N ) :   0.9614 B(  4-C ,  8-H ) :  -0.2059 B(  4-C , 10-H ) :  -0.1517
B(  5-N ,  6-N ) :   0.1041 B(  5-N , 10-H ) :   1.2118 B(  5-N , 11-H ) :   1.1717
B(  6-N ,  7-H ) :   1.1404 B(  6-N ,  8-H ) :   1.3599 B(  7-H ,  8-H ) :  -0.2095
B( 10-H , 11-H ) :  -0.1546 B( 16-H , 18-H ) :   0.1069

FINAL SINGLE POINT ENERGY      -306.015266179249

DIPOLE MOMENT
-------------
                                X             Y             Z
Electronic contribution:      4.21852      -1.63443      -3.46533
Nuclear contribution   :     -4.04774       0.83876       2.94666
                        -----------------------------------------
Total Dipole Moment    :      0.17077      -0.79566      -0.51867
                        -----------------------------------------
Magnitude (a.u.)       :      0.96502
Magnitude (Debye)      :      2.45288

Rotational constants in cm-1:     0.155283     0.051523     0.046710
Rotational constants in MHz :  4655.262593  1544.606434  1400.328421

                             ****ORCA TERMINATED NORMALLY****
TOTAL RUN TIME: 0 days 0 hours 0 minutes 21 seconds 850 msec
