                         Program Version 5.0.0 -  RELEASE  -
|  1> !LC-PBE RIJCOSX def2-SVPD def2/J TightSCF
|  2> *xyz 0 1
|  3> C          3.38093        2.08304       -3.35013
|  4> C          2.49556        1.81615       -2.13636
|  5> C          1.87218        0.42790       -2.07750
|  6> H          2.61427       -0.36583       -2.19889
|  7> H          1.38995        0.27309       -1.11236
|  8> S          0.57902        0.14047       -3.29794
|  9> O          0.22886       -1.24687       -3.12787
| 10> F         -0.43927        1.11897       -3.01455
| 11> O          1.24788        0.40347       -4.59565
| 12> H          1.69700        2.56197       -2.14111
| 13> H          3.08079        1.98744       -1.22584
| 14> H          2.81820        1.91840       -4.24519
| 15> H          4.22171        1.42153       -3.33067
| 16> H          3.72372        3.09635       -3.32565
| 17> *
| 18>
| 19> %MaxCore 64000
| 20>
| 21> %pal nprocs 8
| 22> end
| 23>
| 24> %scf
| 25>   MaxIter 150
| 26> end
| 27>
| 28>
| 29>                          ****END OF INPUT****

CARTESIAN COORDINATES (ANGSTROEM)
---------------------------------
  C      3.380930    2.083040   -3.350130
  C      2.495560    1.816150   -2.136360
  C      1.872180    0.427900   -2.077500
  H      2.614270   -0.365830   -2.198890
  H      1.389950    0.273090   -1.112360
  S      0.579020    0.140470   -3.297940
  O      0.228860   -1.246870   -3.127870
  F     -0.439270    1.118970   -3.014550
  O      1.247880    0.403470   -4.595650
  H      1.697000    2.561970   -2.141110
  H      3.080790    1.987440   -1.225840
  H      2.818200    1.918400   -4.245190
  H      4.221710    1.421530   -3.330670
  H      3.723720    3.096350   -3.325650

 Total Charge           Charge          ....    0
 Multiplicity           Mult            ....    1
 Number of Electrons    NEL             ....   66
 Basis Dimension        Dim             ....  212

ORBITAL ENERGIES
----------------

  NO   OCC          E(Eh)            E(eV)
   0   2.0000     -88.577774     -2410.3238
   1   2.0000     -24.635492      -670.3658
   2   2.0000     -19.012691      -517.3616
   3   2.0000     -18.997892      -516.9589
   4   2.0000     -10.192837      -277.3612
   5   2.0000     -10.159449      -276.4527
   6   2.0000     -10.116318      -275.2790
   7   2.0000      -8.200242      -223.1399
   8   2.0000      -6.227417      -169.4566
   9   2.0000      -6.220053      -169.2563
  10   2.0000      -6.218715      -169.2198
  11   2.0000      -1.546990       -42.0958
  12   2.0000      -1.285784       -34.9880
  13   2.0000      -1.173009       -31.9192
  14   2.0000      -1.011532       -27.5252
  15   2.0000      -0.922652       -25.1066
  16   2.0000      -0.875049       -23.8113
  17   2.0000      -0.796236       -21.6667
  18   2.0000      -0.758194       -20.6315
  19   2.0000      -0.748577       -20.3698
  20   2.0000      -0.701216       -19.0811
  21   2.0000      -0.643277       -17.5045
  22   2.0000      -0.636306       -17.3148
  23   2.0000      -0.605220       -16.4689
  24   2.0000      -0.591618       -16.0988
  25   2.0000      -0.574950       -15.6452
  26   2.0000      -0.537183       -14.6175
  27   2.0000      -0.513074       -13.9615
  28   2.0000      -0.508517       -13.8374
  29   2.0000      -0.490512       -13.3475
  30   2.0000      -0.474551       -12.9132
  31   2.0000      -0.452072       -12.3015
  32   2.0000      -0.440902       -11.9975
  33   0.0000       0.061898         1.6843
  34   0.0000       0.086281         2.3478
  35   0.0000       0.092422         2.5149
  36   0.0000       0.094740         2.5780
  37   0.0000       0.119037         3.2392

MULLIKEN ATOMIC CHARGES
-----------------------
   0 C :    0.598057
   1 C :   -0.337124
   2 C :   -0.175066
   3 H :    0.107651
   4 H :    0.122257
   5 S :    1.412971
   6 O :   -0.618051
   7 F :   -0.359778
   8 O :   -0.683429
   9 H :    0.032482
  10 H :   -0.026173
  11 H :   -0.177772
  12 H :    0.050711
  13 H :    0.053265
Sum of atomic charges:    0.0000000

LOEWDIN ATOMIC CHARGES
----------------------
   0 C :    0.103318
   1 C :   -0.101216
   2 C :   -0.072277
   3 H :    0.053046
   4 H :    0.033555
   5 S :    1.106260
   6 O :   -0.456362
   7 F :   -0.236655
   8 O :   -0.470947
   9 H :    0.035054
  10 H :    0.042264
  11 H :   -0.039662
  12 H :    0.003712
  13 H :   -0.000090

  Mayer bond orders larger than 0.100000
B(  0-C ,  1-C ) :   1.2916 B(  0-C , 11-H ) :   0.8801 B(  0-C , 12-H ) :   0.7790
B(  0-C , 13-H ) :   0.7807 B(  1-C ,  2-C ) :   1.1886 B(  1-C ,  3-H ) :   0.1018
B(  1-C ,  4-H ) :   0.1039 B(  1-C ,  9-H ) :   0.9181 B(  1-C , 10-H ) :   0.9530
B(  1-C , 11-H ) :   0.2120 B(  1-C , 12-H ) :   0.1655 B(  1-C , 13-H ) :   0.1577
B(  2-C ,  3-H ) :   0.9601 B(  2-C ,  4-H ) :   0.9183 B(  2-C ,  5-S ) :   1.0105
B(  2-C ,  9-H ) :   0.1004 B(  5-S ,  6-O ) :   1.6118 B(  5-S ,  7-F ) :   0.7008
B(  5-S ,  8-O ) :   1.5084 B( 11-H , 12-H ) :   0.1099

FINAL SINGLE POINT ENERGY      -765.178079316271

DIPOLE MOMENT
-------------
                                X             Y             Z
Electronic contribution:    -11.79517      -4.80254      -2.57649
Nuclear contribution   :     12.19253       5.80225       3.95262
                        -----------------------------------------
Total Dipole Moment    :      0.39736       0.99971       1.37614
                        -----------------------------------------
Magnitude (a.u.)       :      1.74673
Magnitude (Debye)      :      4.43984

Rotational constants in cm-1:     0.130581     0.053444     0.051914
Rotational constants in MHz :  3914.711139  1602.211061  1556.338643

                             ****ORCA TERMINATED NORMALLY****
TOTAL RUN TIME: 0 days 0 hours 0 minutes 15 seconds 867 msec
