                         Program Version 5.0.0 -  RELEASE  -
|  1> !LC-PBE RIJCOSX def2-SVPD def2/J TightSCF
|  2> *xyz 0 1
|  3> C          3.38093        2.08304       -3.35013
|  4> N          4.53592        1.18245       -3.42852
|  5> C          2.49556        1.81615       -2.13636
|  6> C          1.87218        0.42790       -2.07750
|  7> C          4.67196        0.12227       -4.22060
|  8> C          5.86602       -0.50785       -4.22428
|  9> N          3.69888       -0.31284       -4.98699
| 10> H          2.73141       -0.05009       -4.84900
| 11> H          3.89005       -1.05517       -5.64373
| 12> H          5.25193        1.30346       -2.72101
| 13> H          6.69516       -0.06232       -3.85160
| 14> H          5.97538       -1.39688       -4.69141
| 15> H          1.69700        2.56197       -2.14111
| 16> H          3.08079        1.98744       -1.22584
| 17> H          2.80646        1.98651       -4.26848
| 18> H          3.77871        3.09828       -3.30738
| 19> H          1.29954        0.25615       -2.96490
| 20> H          1.23321        0.35984       -1.22194
| 21> H          2.64581       -0.30765       -2.00430
| 22> *
| 23>
| 24> %MaxCore 64000
| 25>
| 26> %pal nprocs 8
| 27> end
| 28>
| 29> %scf
| 30>   MaxIter 150
| 31> end
| 32>
| 33>
| 34>                          ****END OF INPUT****

CARTESIAN COORDINATES (ANGSTROEM)
---------------------------------
  C      3.380930    2.083040   -3.350130
  N      4.535920    1.182450   -3.428520
  C      2.495560    1.816150   -2.136360
  C      1.872180    0.427900   -2.077500
  C      4.671960    0.122270   -4.220600
  C      5.866020   -0.507850   -4.224280
  N      3.698880   -0.312840   -4.986990
  H      2.731410   -0.050090   -4.849000
  H      3.890050   -1.055170   -5.643730
  H      5.251930    1.303460   -2.721010
  H      6.695160   -0.062320   -3.851600
  H      5.975380   -1.396880   -4.691410
  H      1.697000    2.561970   -2.141110
  H      3.080790    1.987440   -1.225840
  H      2.806460    1.986510   -4.268480
  H      3.778710    3.098280   -3.307380
  H      1.299540    0.256150   -2.964900
  H      1.233210    0.359840   -1.221940
  H      2.645810   -0.307650   -2.004300

 Total Charge           Charge          ....    0
 Multiplicity           Mult            ....    1
 Number of Electrons    NEL             ....   56
 Basis Dimension        Dim             ....  236

ORBITAL ENERGIES
----------------

  NO   OCC          E(Eh)            E(eV)
   0   2.0000     -14.231216      -387.2511
   1   2.0000     -14.230052      -387.2194
   2   2.0000     -10.181051      -277.0405
   3   2.0000     -10.165704      -276.6229
   4   2.0000     -10.130965      -275.6776
   5   2.0000     -10.115917      -275.2681
   6   2.0000     -10.032928      -273.0098
   7   2.0000      -1.139129       -30.9973
   8   2.0000      -1.050806       -28.5939
   9   2.0000      -0.963152       -26.2087
  10   2.0000      -0.886935       -24.1347
  11   2.0000      -0.831313       -22.6212
  12   2.0000      -0.756629       -20.5889
  13   2.0000      -0.751579       -20.4515
  14   2.0000      -0.694356       -18.8944
  15   2.0000      -0.645296       -17.5594
  16   2.0000      -0.618140       -16.8205
  17   2.0000      -0.609894       -16.5961
  18   2.0000      -0.593845       -16.1593
  19   2.0000      -0.541148       -14.7254
  20   2.0000      -0.540790       -14.7156
  21   2.0000      -0.524983       -14.2855
  22   2.0000      -0.505148       -13.7458
  23   2.0000      -0.487159       -13.2563
  24   2.0000      -0.476866       -12.9762
  25   2.0000      -0.471110       -12.8195
  26   2.0000      -0.383668       -10.4402
  27   2.0000      -0.274336        -7.4651
  28   0.0000       0.084149         2.2898
  29   0.0000       0.107571         2.9272
  30   0.0000       0.113696         3.0938
  31   0.0000       0.117416         3.1950
  32   0.0000       0.141368         3.8468

MULLIKEN ATOMIC CHARGES
-----------------------
   0 C :    0.577374
   1 N :   -0.440558
   2 C :   -0.446198
   3 C :    0.516642
   4 C :    0.698716
   5 C :    0.268113
   6 N :    0.089468
   7 H :   -0.178509
   8 H :   -0.075473
   9 H :   -0.204552
  10 H :   -0.342262
  11 H :   -0.265203
  12 H :    0.037533
  13 H :    0.012360
  14 H :   -0.036890
  15 H :   -0.180731
  16 H :   -0.008758
  17 H :   -0.088920
  18 H :    0.067850
Sum of atomic charges:   -0.0000000

LOEWDIN ATOMIC CHARGES
----------------------
   0 C :    0.027561
   1 N :   -0.017341
   2 C :   -0.099703
   3 C :    0.089014
   4 C :   -0.244441
   5 C :    0.108082
   6 N :    0.184545
   7 H :   -0.012905
   8 H :    0.021803
   9 H :    0.047688
  10 H :   -0.094359
  11 H :   -0.097398
  12 H :    0.029906
  13 H :    0.032176
  14 H :    0.023239
  15 H :    0.029479
  16 H :   -0.014791
  17 H :   -0.007274
  18 H :   -0.005281

  Mayer bond orders larger than 0.100000
B(  0-C ,  1-N ) :   0.9819 B(  0-C ,  2-C ) :   1.1006 B(  0-C ,  9-H ) :  -0.1958
B(  0-C , 13-H ) :   0.1040 B(  0-C , 14-H ) :   0.7971 B(  0-C , 15-H ) :   0.9852
B(  1-N ,  4-C ) :   1.0142 B(  1-N ,  5-C ) :   0.2186 B(  1-N ,  6-N ) :   0.1900
B(  1-N ,  9-H ) :   1.2803 B(  1-N , 14-H ) :   0.1767 B(  1-N , 15-H ) :   0.1157
B(  2-C ,  3-C ) :   1.3072 B(  2-C , 12-H ) :   0.9327 B(  2-C , 13-H ) :   0.9458
B(  2-C , 14-H ) :   0.1074 B(  2-C , 16-H ) :   0.1886 B(  2-C , 17-H ) :   0.1737
B(  2-C , 18-H ) :   0.1877 B(  3-C , 16-H ) :   0.8216 B(  3-C , 17-H ) :   0.8646
B(  3-C , 18-H ) :   0.8082 B(  4-C ,  5-C ) :   1.4956 B(  4-C ,  6-N ) :   1.0238
B(  4-C ,  8-H ) :  -0.1109 B(  4-C ,  9-H ) :  -0.2172 B(  4-C , 11-H ) :   0.1737
B(  5-C ,  6-N ) :   0.1850 B(  5-C , 10-H ) :   0.9278 B(  5-C , 11-H ) :   0.7990
B(  6-N ,  7-H ) :   1.1734 B(  6-N ,  8-H ) :   1.2409 B(  7-H ,  8-H ) :  -0.2021
B( 14-H , 15-H ) :  -0.1083

FINAL SINGLE POINT ENERGY      -306.001732566072

DIPOLE MOMENT
-------------
                                X             Y             Z
Electronic contribution:      2.67248       0.02464      -2.60112
Nuclear contribution   :     -3.75638       0.46849       2.77235
                        -----------------------------------------
Total Dipole Moment    :     -1.08390       0.49313       0.17123
                        -----------------------------------------
Magnitude (a.u.)       :      1.20306
Magnitude (Debye)      :      3.05793

Rotational constants in cm-1:     0.154609     0.053528     0.048030
Rotational constants in MHz :  4635.053294  1604.739826  1439.897073

                             ****ORCA TERMINATED NORMALLY****
TOTAL RUN TIME: 0 days 0 hours 0 minutes 21 seconds 867 msec
