                         Program Version 5.0.0 -  RELEASE  -
|  1> !LC-PBE RIJCOSX def2-SVPD def2/J TightSCF
|  2> *xyz 0 1
|  3> C          3.38093        2.08304       -3.35013
|  4> C          2.49556        1.81615       -2.13636
|  5> C          1.87218        0.42790       -2.07750
|  6> H          2.61427       -0.36583       -2.19889
|  7> H          1.38995        0.27309       -1.11236
|  8> S          0.57902        0.14047       -3.29794
|  9> O          0.22886       -1.24687       -3.12787
| 10> O         -0.43927        1.11897       -3.01455
| 11> F          1.24788        0.40347       -4.59565
| 12> H          1.69700        2.56197       -2.14111
| 13> H          3.08079        1.98744       -1.22584
| 14> H          2.81820        1.91840       -4.24519
| 15> H          4.22171        1.42153       -3.33067
| 16> H          3.72372        3.09635       -3.32565
| 17> *
| 18>
| 19> %MaxCore 64000
| 20>
| 21> %pal nprocs 8
| 22> end
| 23>
| 24> %scf
| 25>   MaxIter 150
| 26> end
| 27>
| 28>
| 29>                          ****END OF INPUT****

CARTESIAN COORDINATES (ANGSTROEM)
---------------------------------
  C      3.380930    2.083040   -3.350130
  C      2.495560    1.816150   -2.136360
  C      1.872180    0.427900   -2.077500
  H      2.614270   -0.365830   -2.198890
  H      1.389950    0.273090   -1.112360
  S      0.579020    0.140470   -3.297940
  O      0.228860   -1.246870   -3.127870
  O     -0.439270    1.118970   -3.014550
  F      1.247880    0.403470   -4.595650
  H      1.697000    2.561970   -2.141110
  H      3.080790    1.987440   -1.225840
  H      2.818200    1.918400   -4.245190
  H      4.221710    1.421530   -3.330670
  H      3.723720    3.096350   -3.325650

 Total Charge           Charge          ....    0
 Multiplicity           Mult            ....    1
 Number of Electrons    NEL             ....   66
 Basis Dimension        Dim             ....  212

ORBITAL ENERGIES
----------------

  NO   OCC          E(Eh)            E(eV)
   0   2.0000     -88.574622     -2410.2380
   1   2.0000     -24.612565      -669.7420
   2   2.0000     -19.011880      -517.3395
   3   2.0000     -19.011583      -517.3315
   4   2.0000     -10.191403      -277.3222
   5   2.0000     -10.159469      -276.4532
   6   2.0000     -10.131815      -275.7007
   7   2.0000      -8.197033      -223.0526
   8   2.0000      -6.224036      -169.3646
   9   2.0000      -6.217025      -169.1739
  10   2.0000      -6.215722      -169.1384
  11   2.0000      -1.510908       -41.1139
  12   2.0000      -1.294447       -35.2237
  13   2.0000      -1.192626       -32.4530
  14   2.0000      -1.013579       -27.5809
  15   2.0000      -0.921928       -25.0869
  16   2.0000      -0.861949       -23.4548
  17   2.0000      -0.801139       -21.8001
  18   2.0000      -0.736852       -20.0508
  19   2.0000      -0.724506       -19.7148
  20   2.0000      -0.702618       -19.1192
  21   2.0000      -0.645566       -17.5667
  22   2.0000      -0.627523       -17.0758
  23   2.0000      -0.613938       -16.7061
  24   2.0000      -0.602722       -16.4009
  25   2.0000      -0.579322       -15.7642
  26   2.0000      -0.547074       -14.8866
  27   2.0000      -0.522662       -14.2224
  28   2.0000      -0.504394       -13.7252
  29   2.0000      -0.495705       -13.4888
  30   2.0000      -0.482837       -13.1386
  31   2.0000      -0.464296       -12.6341
  32   2.0000      -0.458449       -12.4750
  33   0.0000       0.068125         1.8538
  34   0.0000       0.086455         2.3526
  35   0.0000       0.092559         2.5187
  36   0.0000       0.095499         2.5986
  37   0.0000       0.123232         3.3533

MULLIKEN ATOMIC CHARGES
-----------------------
   0 C :    0.581134
   1 C :   -0.340798
   2 C :   -0.181994
   3 H :    0.110832
   4 H :    0.133906
   5 S :    1.397178
   6 O :   -0.629184
   7 O :   -0.630772
   8 F :   -0.398171
   9 H :    0.065778
  10 H :   -0.017990
  11 H :   -0.199138
  12 H :    0.055327
  13 H :    0.053891
Sum of atomic charges:   -0.0000000

LOEWDIN ATOMIC CHARGES
----------------------
   0 C :    0.102079
   1 C :   -0.099454
   2 C :   -0.071757
   3 H :    0.041406
   4 H :    0.046891
   5 S :    1.094494
   6 O :   -0.457203
   7 O :   -0.454924
   8 F :   -0.259335
   9 H :    0.039057
  10 H :    0.043909
  11 H :   -0.031099
  12 H :    0.002693
  13 H :    0.003243

  Mayer bond orders larger than 0.100000
B(  0-C ,  1-C ) :   1.2788 B(  0-C , 11-H ) :   0.8752 B(  0-C , 12-H ) :   0.7869
B(  0-C , 13-H ) :   0.7894 B(  1-C ,  2-C ) :   1.2053 B(  1-C ,  3-H ) :   0.1095
B(  1-C ,  4-H ) :   0.1042 B(  1-C ,  9-H ) :   0.9316 B(  1-C , 10-H ) :   0.9436
B(  1-C , 11-H ) :   0.1968 B(  1-C , 12-H ) :   0.1620 B(  1-C , 13-H ) :   0.1583
B(  2-C ,  3-H ) :   0.9639 B(  2-C ,  4-H ) :   0.9061 B(  2-C ,  5-S ) :   1.0261
B(  2-C ,  9-H ) :   0.1111 B(  5-S ,  6-O ) :   1.5968 B(  5-S ,  7-O ) :   1.5575
B(  5-S ,  8-F ) :   0.6723 B( 11-H , 12-H ) :   0.1029

FINAL SINGLE POINT ENERGY      -765.197472112163

DIPOLE MOMENT
-------------
                                X             Y             Z
Electronic contribution:     -8.80330      -6.00120      -5.30408
Nuclear contribution   :     10.37810       6.57173       5.65300
                        -----------------------------------------
Total Dipole Moment    :      1.57480       0.57053       0.34893
                        -----------------------------------------
Magnitude (a.u.)       :      1.71092
Magnitude (Debye)      :      4.34882

Rotational constants in cm-1:     0.130522     0.054787     0.051463
Rotational constants in MHz :  3912.959799  1642.486768  1542.828917

                             ****ORCA TERMINATED NORMALLY****
TOTAL RUN TIME: 0 days 0 hours 0 minutes 14 seconds 469 msec
