                         Program Version 5.0.0 -  RELEASE  -
|  1> !LC-PBE RIJCOSX def2-SVPD def2/J TightSCF
|  2> *xyz 0 1
|  3> C          3.38093        2.08304       -3.35013
|  4> N          4.53592        1.18245       -3.42852
|  5> C          2.49556        1.81615       -2.13636
|  6> C          1.87218        0.42790       -2.07750
|  7> C          4.67196        0.12227       -4.22060
|  8> N          5.86602       -0.50785       -4.22428
|  9> C          3.69888       -0.31284       -4.98699
| 10> H          2.73141       -0.05009       -4.84900
| 11> H          3.89005       -1.05517       -5.64373
| 12> H          5.25193        1.30346       -2.72101
| 13> H          6.69516       -0.06232       -3.85160
| 14> H          5.97538       -1.39688       -4.69141
| 15> H          1.69700        2.56197       -2.14111
| 16> H          3.08079        1.98744       -1.22584
| 17> H          2.80646        1.98651       -4.26848
| 18> H          3.77871        3.09828       -3.30738
| 19> H          1.29954        0.25615       -2.96490
| 20> H          1.23321        0.35984       -1.22194
| 21> H          2.64581       -0.30765       -2.00430
| 22> *
| 23>
| 24> %MaxCore 64000
| 25>
| 26> %pal nprocs 8
| 27> end
| 28>
| 29> %scf
| 30>   MaxIter 150
| 31> end
| 32>
| 33>
| 34>                          ****END OF INPUT****

CARTESIAN COORDINATES (ANGSTROEM)
---------------------------------
  C      3.380930    2.083040   -3.350130
  N      4.535920    1.182450   -3.428520
  C      2.495560    1.816150   -2.136360
  C      1.872180    0.427900   -2.077500
  C      4.671960    0.122270   -4.220600
  N      5.866020   -0.507850   -4.224280
  C      3.698880   -0.312840   -4.986990
  H      2.731410   -0.050090   -4.849000
  H      3.890050   -1.055170   -5.643730
  H      5.251930    1.303460   -2.721010
  H      6.695160   -0.062320   -3.851600
  H      5.975380   -1.396880   -4.691410
  H      1.697000    2.561970   -2.141110
  H      3.080790    1.987440   -1.225840
  H      2.806460    1.986510   -4.268480
  H      3.778710    3.098280   -3.307380
  H      1.299540    0.256150   -2.964900
  H      1.233210    0.359840   -1.221940
  H      2.645810   -0.307650   -2.004300

 Total Charge           Charge          ....    0
 Multiplicity           Mult            ....    1
 Number of Electrons    NEL             ....   56
 Basis Dimension        Dim             ....  236

ORBITAL ENERGIES
----------------

  NO   OCC          E(Eh)            E(eV)
   0   2.0000     -14.230825      -387.2404
   1   2.0000     -14.225984      -387.1087
   2   2.0000     -10.178283      -276.9652
   3   2.0000     -10.156942      -276.3845
   4   2.0000     -10.122992      -275.4606
   5   2.0000     -10.102615      -274.9061
   6   2.0000     -10.038422      -273.1594
   7   2.0000      -1.133179       -30.8354
   8   2.0000      -1.043525       -28.3957
   9   2.0000      -0.947946       -25.7949
  10   2.0000      -0.881635       -23.9905
  11   2.0000      -0.848501       -23.0889
  12   2.0000      -0.757961       -20.6252
  13   2.0000      -0.714222       -19.4350
  14   2.0000      -0.690583       -18.7917
  15   2.0000      -0.659724       -17.9520
  16   2.0000      -0.609987       -16.5986
  17   2.0000      -0.605618       -16.4797
  18   2.0000      -0.570899       -15.5349
  19   2.0000      -0.550056       -14.9678
  20   2.0000      -0.530542       -14.4368
  21   2.0000      -0.520373       -14.1601
  22   2.0000      -0.506569       -13.7844
  23   2.0000      -0.479231       -13.0405
  24   2.0000      -0.471059       -12.8182
  25   2.0000      -0.457554       -12.4507
  26   2.0000      -0.377232       -10.2650
  27   2.0000      -0.287832        -7.8323
  28   0.0000       0.089367         2.4318
  29   0.0000       0.108766         2.9597
  30   0.0000       0.114339         3.1113
  31   0.0000       0.123346         3.3564
  32   0.0000       0.141746         3.8571

MULLIKEN ATOMIC CHARGES
-----------------------
   0 C :    0.588913
   1 N :   -0.533771
   2 C :   -0.487328
   3 C :    0.530184
   4 C :    0.941108
   5 N :   -0.036381
   6 C :    0.134647
   7 H :   -0.309084
   8 H :   -0.385778
   9 H :   -0.260797
  10 H :   -0.117949
  11 H :    0.014865
  12 H :    0.022888
  13 H :    0.007102
  14 H :    0.061819
  15 H :   -0.152260
  16 H :    0.030200
  17 H :   -0.088813
  18 H :    0.040436
Sum of atomic charges:   -0.0000000

LOEWDIN ATOMIC CHARGES
----------------------
   0 C :    0.035129
   1 N :   -0.026672
   2 C :   -0.097685
   3 C :    0.091040
   4 C :   -0.240891
   5 N :    0.164046
   6 C :    0.125350
   7 H :   -0.097850
   8 H :   -0.083938
   9 H :    0.034248
  10 H :   -0.001727
  11 H :    0.010761
  12 H :    0.029605
  13 H :    0.028379
  14 H :    0.028973
  15 H :    0.029366
  16 H :   -0.010135
  17 H :   -0.010184
  18 H :   -0.007818

  Mayer bond orders larger than 0.100000
B(  0-C ,  1-N ) :   0.9417 B(  0-C ,  2-C ) :   1.0877 B(  0-C ,  9-H ) :  -0.1775
B(  0-C , 14-H ) :   0.7783 B(  0-C , 15-H ) :   0.9718 B(  1-N ,  4-C ) :   0.8471
B(  1-N ,  5-N ) :   0.1825 B(  1-N ,  6-C ) :   0.3750 B(  1-N ,  9-H ) :   1.3958
B(  1-N , 14-H ) :   0.1365 B(  1-N , 15-H ) :   0.1127 B(  2-C ,  3-C ) :   1.2977
B(  2-C , 12-H ) :   0.9477 B(  2-C , 13-H ) :   0.9615 B(  2-C , 14-H ) :   0.1130
B(  2-C , 16-H ) :   0.1876 B(  2-C , 17-H ) :   0.1740 B(  2-C , 18-H ) :   0.1851
B(  3-C , 16-H ) :   0.8158 B(  3-C , 17-H ) :   0.8601 B(  3-C , 18-H ) :   0.8217
B(  4-C ,  5-N ) :   0.9216 B(  4-C ,  6-C ) :   1.5623 B(  4-C ,  8-H ) :   0.2245
B(  4-C ,  9-H ) :  -0.2837 B(  5-N ,  6-C ) :   0.2817 B(  5-N , 10-H ) :   1.1928
B(  5-N , 11-H ) :   1.1206 B(  6-C ,  7-H ) :   0.7734 B(  6-C ,  8-H ) :   0.8720
B(  7-H ,  8-H ) :  -0.1537 B( 10-H , 11-H ) :  -0.1624 B( 14-H , 15-H ) :  -0.1047
B( 16-H , 18-H ) :   0.1000

FINAL SINGLE POINT ENERGY      -306.006100375239

DIPOLE MOMENT
-------------
                                X             Y             Z
Electronic contribution:      4.87764      -0.21662      -1.96311
Nuclear contribution   :     -4.23110       0.51121       2.60527
                        -----------------------------------------
Total Dipole Moment    :      0.64654       0.29459       0.64217
                        -----------------------------------------
Magnitude (a.u.)       :      0.95769
Magnitude (Debye)      :      2.43425

Rotational constants in cm-1:     0.158478     0.052124     0.047173
Rotational constants in MHz :  4751.056263  1562.646208  1414.197352

                             ****ORCA TERMINATED NORMALLY****
TOTAL RUN TIME: 0 days 0 hours 0 minutes 21 seconds 841 msec
