                         Program Version 5.0.0 -  RELEASE  -
|  1> !LC-PBE RIJCOSX def2-SVPD def2/J TightSCF xyzfile
|  2>
|  3> *xyzfile 0 1 D1.xyz
|  4>
|  5> %MaxCore 64000
|  6>
|  7> %pal nprocs 4
|  8> end
|  9>
| 10> %scf
| 11>   MaxIter 150
| 12> end
| 13>
| 14>
| 15>                          ****END OF INPUT****

CARTESIAN COORDINATES (ANGSTROEM)
---------------------------------
  C      3.380928    2.083045   -3.350127
  C      4.535924    1.182447   -3.428518
  C      2.495557    1.816150   -2.136364
  C      1.872181    0.427903   -2.077497
  H      2.614270   -0.365825   -2.198894
  H      1.389953    0.273087   -1.112360
  S      0.579024    0.140472   -3.297943
  C      4.671956    0.122273   -4.220598
  N      5.866023   -0.507849   -4.224284
  N      3.698881   -0.312844   -4.986988
  H      2.731405   -0.050091   -4.849000
  H      3.890046   -1.055172   -5.643730
  H      5.251933    1.303459   -2.721014
  H      6.695165   -0.062322   -3.851596
  H      5.975383   -1.396884   -4.691414
  F      0.228860   -1.246868   -3.127871
  O     -0.439269    1.118966   -3.014550
  O      1.247881    0.403474   -4.595647
  H      1.697003    2.561969   -2.141109
  H      3.080787    1.987436   -1.225838
  H      2.806463    1.986511   -4.268484
  H      3.778714    3.098282   -3.307383

 Total Charge           Charge          ....    0
 Multiplicity           Mult            ....    1
 Number of Electrons    NEL             ....   96
 Basis Dimension        Dim             ....  324

ORBITAL ENERGIES
----------------

  NO   OCC          E(Eh)            E(eV)
   0   2.0000     -88.587525     -2410.5891
   1   2.0000     -24.642625      -670.5599
   2   2.0000     -19.019823      -517.5557
   3   2.0000     -19.015077      -517.4266
   4   2.0000     -14.223126      -387.0309
   5   2.0000     -14.204753      -386.5310
   6   2.0000     -10.187851      -277.2255
   7   2.0000     -10.173992      -276.8484
   8   2.0000     -10.140791      -275.9450
   9   2.0000     -10.104902      -274.9684
  10   2.0000     -10.048820      -273.4423
  11   2.0000      -8.209597      -223.3945
  12   2.0000      -6.236671      -169.7084
  13   2.0000      -6.229828      -169.5222
  14   2.0000      -6.227771      -169.4663
  15   2.0000      -1.553735       -42.2793
  16   2.0000      -1.297706       -35.3124
  17   2.0000      -1.189705       -32.3735
  18   2.0000      -1.122031       -30.5320
  19   2.0000      -1.020151       -27.7597
  20   2.0000      -1.004416       -27.3315
  21   2.0000      -0.936220       -25.4758
  22   2.0000      -0.892318       -24.2812
  23   2.0000      -0.846436       -23.0327
  24   2.0000      -0.791031       -21.5251
  25   2.0000      -0.762286       -20.7429
  26   2.0000      -0.748273       -20.3615
  27   2.0000      -0.736701       -20.0467
  28   2.0000      -0.705710       -19.2033
  29   2.0000      -0.687754       -18.7147
  30   2.0000      -0.667038       -18.1510
  31   2.0000      -0.638306       -17.3692
  32   2.0000      -0.636135       -17.3101
  33   2.0000      -0.615664       -16.7531
  34   2.0000      -0.599562       -16.3149
  35   2.0000      -0.580965       -15.8089
  36   2.0000      -0.550042       -14.9674
  37   2.0000      -0.548431       -14.9236
  38   2.0000      -0.536874       -14.6091
  39   2.0000      -0.523886       -14.2557
  40   2.0000      -0.496410       -13.5080
  41   2.0000      -0.491401       -13.3717
  42   2.0000      -0.471675       -12.8349
  43   2.0000      -0.468854       -12.7582
  44   2.0000      -0.454101       -12.3567
  45   2.0000      -0.439828       -11.9683
  46   2.0000      -0.388911       -10.5828
  47   2.0000      -0.274677        -7.4743
  48   0.0000       0.061045         1.6611
  49   0.0000       0.085041         2.3141
  50   0.0000       0.088488         2.4079
  51   0.0000       0.098016         2.6672
  52   0.0000       0.114271         3.1095

MULLIKEN ATOMIC CHARGES
-----------------------
   0 C :    0.228938
   1 C :   -0.206216
   2 C :    0.024541
   3 C :   -0.131503
   4 H :    0.171554
   5 H :    0.035079
   6 S :    1.490817
   7 C :    0.865587
   8 N :   -0.108382
   9 N :    0.397012
  10 H :   -0.365759
  11 H :   -0.202753
  12 H :   -0.331028
  13 H :   -0.058524
  14 H :   -0.079211
  15 F :   -0.385180
  16 O :   -0.643837
  17 O :   -0.753046
  18 H :    0.080373
  19 H :    0.063959
  20 H :   -0.051971
  21 H :   -0.040452
Sum of atomic charges:   -0.0000000

LOEWDIN ATOMIC CHARGES
----------------------
   0 C :   -0.058071
   1 C :   -0.050224
   2 C :   -0.039128
   3 C :   -0.061895
   4 H :    0.033234
   5 H :    0.032865
   6 S :    1.150264
   7 C :   -0.219702
   8 N :    0.160867
   9 N :    0.211734
  10 H :   -0.144688
  11 H :    0.010106
  12 H :   -0.039635
  13 H :    0.010481
  14 H :   -0.005199
  15 F :   -0.230139
  16 O :   -0.440572
  17 O :   -0.450469
  18 H :    0.039173
  19 H :    0.049889
  20 H :    0.007919
  21 H :    0.033191

  Mayer bond orders larger than 0.100000
B(  0-C ,  1-C ) :   1.1042 B(  0-C ,  2-C ) :   1.1663 B(  0-C , 12-H ) :   0.1943
B(  0-C , 18-H ) :   0.1441 B(  0-C , 19-H ) :   0.1451 B(  0-C , 20-H ) :   0.8485
B(  0-C , 21-H ) :   0.8441 B(  1-C ,  7-C ) :   1.6933 B(  1-C ,  8-N ) :   0.3887
B(  1-C ,  9-N ) :   0.1930 B(  1-C , 12-H ) :   0.8639 B(  1-C , 20-H ) :   0.2252
B(  1-C , 21-H ) :   0.1031 B(  2-C ,  3-C ) :   1.3143 B(  2-C ,  4-H ) :   0.1340
B(  2-C ,  5-H ) :   0.1519 B(  2-C , 18-H ) :   0.8307 B(  2-C , 19-H ) :   0.8161
B(  2-C , 20-H ) :   0.1499 B(  3-C ,  4-H ) :   0.9335 B(  3-C ,  5-H ) :   0.8215
B(  3-C ,  6-S ) :   0.9541 B(  3-C , 17-O ) :   0.1326 B(  3-C , 18-H ) :   0.1302
B(  3-C , 19-H ) :   0.1001 B(  6-S , 15-F ) :   0.6978 B(  6-S , 16-O ) :   1.5920
B(  6-S , 17-O ) :   1.3897 B(  7-C ,  8-N ) :   0.7530 B(  7-C ,  9-N ) :   1.0111
B(  7-C , 10-H ) :  -0.1164 B(  7-C , 11-H ) :  -0.1915 B(  7-C , 13-H ) :  -0.1727
B(  7-C , 20-H ) :  -0.1091 B(  8-N , 13-H ) :   1.2294 B(  8-N , 14-H ) :   1.1582
B(  9-N , 10-H ) :   1.1760 B(  9-N , 11-H ) :   1.2279 B( 10-H , 11-H ) :  -0.1881
B( 10-H , 17-O ) :   0.1706 B( 13-H , 14-H ) :  -0.1541

FINAL SINGLE POINT ENERGY      -952.574167809442

DIPOLE MOMENT
-------------
                                X             Y             Z
Electronic contribution:    -15.24153      -6.71729      -1.06717
Nuclear contribution   :     15.92508       5.34175       1.81950
                        -----------------------------------------
Total Dipole Moment    :      0.68355      -1.37554       0.75233
                        -----------------------------------------
Magnitude (a.u.)       :      1.71037
Magnitude (Debye)      :      4.34740

Rotational constants in cm-1:     0.058561     0.020662     0.017762
Rotational constants in MHz :  1755.621534   619.433801   532.501507

                             ****ORCA TERMINATED NORMALLY****
TOTAL RUN TIME: 0 days 0 hours 1 minutes 33 seconds 644 msec
