                         Program Version 5.0.0 -  RELEASE  -
|  1> !LC-PBE RIJCOSX def2-SVPD def2/J TightSCF xyzfile
|  2>
|  3> *xyzfile 0 1 D6.xyz
|  4>
|  5> %MaxCore 64000
|  6>
|  7> %pal nprocs 4
|  8> end
|  9>
| 10> %scf
| 11>   MaxIter 150
| 12> end
| 13>
| 14>
| 15>                          ****END OF INPUT****

CARTESIAN COORDINATES (ANGSTROEM)
---------------------------------
  C      3.380928    2.083045   -3.350127
  N      4.535924    1.182447   -3.428518
  C      2.495557    1.816150   -2.136364
  C      1.872181    0.427903   -2.077497
  H      2.614270   -0.365825   -2.198894
  H      1.389953    0.273087   -1.112360
  S      0.579024    0.140472   -3.297943
  C      4.671956    0.122273   -4.220598
  N      5.866023   -0.507849   -4.224284
  C      3.698881   -0.312844   -4.986988
  H      2.731405   -0.050091   -4.849000
  H      3.890046   -1.055172   -5.643730
  H      5.251933    1.303459   -2.721014
  H      6.695165   -0.062322   -3.851596
  H      5.975383   -1.396884   -4.691414
  O      0.228860   -1.246868   -3.127871
  F     -0.439269    1.118966   -3.014550
  O      1.247881    0.403474   -4.595647
  H      1.697003    2.561969   -2.141109
  H      3.080787    1.987436   -1.225838
  H      2.806463    1.986511   -4.268484
  H      3.778714    3.098282   -3.307383

 Total Charge           Charge          ....    0
 Multiplicity           Mult            ....    1
 Number of Electrons    NEL             ....   96
 Basis Dimension        Dim             ....  324

ORBITAL ENERGIES
----------------

  NO   OCC          E(Eh)            E(eV)
   0   2.0000     -88.578559     -2410.3451
   1   2.0000     -24.635077      -670.3545
   2   2.0000     -19.012129      -517.3463
   3   2.0000     -18.998531      -516.9763
   4   2.0000     -14.233417      -387.3110
   5   2.0000     -14.219754      -386.9392
   6   2.0000     -10.191877      -277.3351
   7   2.0000     -10.168333      -276.6944
   8   2.0000     -10.167557      -276.6733
   9   2.0000     -10.162990      -276.5490
  10   2.0000     -10.015465      -272.5347
  11   2.0000      -8.200390      -223.1439
  12   2.0000      -6.227593      -169.4614
  13   2.0000      -6.220339      -169.2640
  14   2.0000      -6.218837      -169.2232
  15   2.0000      -1.546431       -42.0805
  16   2.0000      -1.286828       -35.0164
  17   2.0000      -1.177177       -32.0326
  18   2.0000      -1.131816       -30.7983
  19   2.0000      -1.046446       -28.4752
  20   2.0000      -1.001082       -27.2408
  21   2.0000      -0.917894       -24.9772
  22   2.0000      -0.883229       -24.0339
  23   2.0000      -0.859477       -23.3876
  24   2.0000      -0.807425       -21.9711
  25   2.0000      -0.760865       -20.7042
  26   2.0000      -0.751833       -20.4584
  27   2.0000      -0.721160       -19.6238
  28   2.0000      -0.707921       -19.2635
  29   2.0000      -0.683822       -18.6078
  30   2.0000      -0.664457       -18.0808
  31   2.0000      -0.646643       -17.5961
  32   2.0000      -0.635510       -17.2931
  33   2.0000      -0.611662       -16.6442
  34   2.0000      -0.597518       -16.2593
  35   2.0000      -0.587920       -15.9981
  36   2.0000      -0.562289       -15.3007
  37   2.0000      -0.543009       -14.7760
  38   2.0000      -0.531535       -14.4638
  39   2.0000      -0.522989       -14.2313
  40   2.0000      -0.510546       -13.8927
  41   2.0000      -0.505352       -13.7513
  42   2.0000      -0.491176       -13.3656
  43   2.0000      -0.457387       -12.4461
  44   2.0000      -0.445543       -12.1238
  45   2.0000      -0.427880       -11.6432
  46   2.0000      -0.379330       -10.3221
  47   2.0000      -0.278635        -7.5821
  48   0.0000       0.061629         1.6770
  49   0.0000       0.082488         2.2446
  50   0.0000       0.090931         2.4744
  51   0.0000       0.096019         2.6128
  52   0.0000       0.110108         2.9962

MULLIKEN ATOMIC CHARGES
-----------------------
   0 C :    0.721910
   1 N :   -0.574154
   2 C :    0.019402
   3 C :   -0.039002
   4 H :    0.171418
   5 H :   -0.011737
   6 S :    1.494382
   7 C :    0.935814
   8 N :   -0.045575
   9 C :    0.576718
  10 H :   -0.750103
  11 H :   -0.309824
  12 H :   -0.238116
  13 H :   -0.104321
  14 H :    0.013779
  15 O :   -0.610519
  16 F :   -0.429015
  17 O :   -0.792919
  18 H :    0.044067
  19 H :    0.037348
  20 H :    0.089094
  21 H :   -0.198646
Sum of atomic charges:    0.0000000

LOEWDIN ATOMIC CHARGES
----------------------
   0 C :    0.056839
   1 N :   -0.026223
   2 C :   -0.045471
   3 C :   -0.051735
   4 H :    0.047242
   5 H :    0.032722
   6 S :    1.141368
   7 C :   -0.235985
   8 N :    0.159302
   9 C :    0.163804
  10 H :   -0.198078
  11 H :   -0.068722
  12 H :    0.031258
  13 H :   -0.005729
  14 H :    0.009977
  15 O :   -0.443567
  16 F :   -0.234435
  17 O :   -0.465919
  18 H :    0.037031
  19 H :    0.042444
  20 H :    0.017482
  21 H :    0.036395

  Mayer bond orders larger than 0.100000
B(  0-C ,  1-N ) :   0.9360 B(  0-C ,  2-C ) :   1.0945 B(  0-C , 12-H ) :  -0.1632
B(  0-C , 18-H ) :   0.1205 B(  0-C , 20-H ) :   0.7334 B(  0-C , 21-H ) :   0.9591
B(  1-N ,  7-C ) :   0.8209 B(  1-N ,  8-N ) :   0.1935 B(  1-N ,  9-C ) :   0.2962
B(  1-N , 12-H ) :   1.4071 B(  1-N , 20-H ) :   0.1627 B(  1-N , 21-H ) :   0.1126
B(  2-C ,  3-C ) :   1.2273 B(  2-C ,  4-H ) :   0.1227 B(  2-C ,  5-H ) :   0.1433
B(  2-C , 18-H ) :   0.8700 B(  2-C , 19-H ) :   0.8610 B(  2-C , 20-H ) :   0.1301
B(  3-C ,  4-H ) :   0.9532 B(  3-C ,  5-H ) :   0.8376 B(  3-C ,  6-S ) :   1.0018
B(  3-C , 17-O ) :   0.1145 B(  3-C , 18-H ) :   0.1058 B(  6-S , 15-O ) :   1.5666
B(  6-S , 16-F ) :   0.6659 B(  6-S , 17-O ) :   1.4221 B(  7-C ,  8-N ) :   0.8709
B(  7-C ,  9-C ) :   1.8404 B(  7-C , 10-H ) :  -0.1316 B(  7-C , 11-H ) :   0.2998
B(  7-C , 12-H ) :  -0.2925 B(  8-N ,  9-C ) :   0.3379 B(  8-N , 13-H ) :   1.1772
B(  8-N , 14-H ) :   1.1314 B(  9-C , 10-H ) :   0.2935 B(  9-C , 11-H ) :   0.7723
B( 10-H , 17-O ) :   0.2321 B( 13-H , 14-H ) :  -0.1599 B( 20-H , 21-H ) :  -0.1400

FINAL SINGLE POINT ENERGY      -952.538374147381

DIPOLE MOMENT
-------------
                                X             Y             Z
Electronic contribution:    -15.79175      -1.37717       0.31770
Nuclear contribution   :     16.57580       2.60270       1.54331
                        -----------------------------------------
Total Dipole Moment    :      0.78405       1.22553       1.86101
                        -----------------------------------------
Magnitude (a.u.)       :      2.36221
Magnitude (Debye)      :      6.00426

Rotational constants in cm-1:     0.060402     0.020377     0.017632
Rotational constants in MHz :  1810.792194   610.900365   528.582827

                             ****ORCA TERMINATED NORMALLY****
TOTAL RUN TIME: 0 days 0 hours 1 minutes 45 seconds 189 msec
