                         Program Version 5.0.0 -  RELEASE  -
|  1> !LC-PBE RIJCOSX def2-SVPD def2/J TightSCF xyzfile
|  2>
|  3> *xyzfile 0 1 D7.xyz
|  4>
|  5> %MaxCore 64000
|  6>
|  7> %pal nprocs 4
|  8> end
|  9>
| 10> %scf
| 11>   MaxIter 150
| 12> end
| 13>
| 14>
| 15>                          ****END OF INPUT****

CARTESIAN COORDINATES (ANGSTROEM)
---------------------------------
  C      3.380928    2.083045   -3.350127
  C      4.535924    1.182447   -3.428518
  C      2.495557    1.816150   -2.136364
  C      1.872181    0.427903   -2.077497
  H      2.614270   -0.365825   -2.198894
  H      1.389953    0.273087   -1.112360
  S      0.579024    0.140472   -3.297943
  C      4.671956    0.122273   -4.220598
  N      5.866023   -0.507849   -4.224284
  N      3.698881   -0.312844   -4.986988
  H      2.731405   -0.050091   -4.849000
  H      3.890046   -1.055172   -5.643730
  H      5.251933    1.303459   -2.721014
  H      6.695165   -0.062322   -3.851596
  H      5.975383   -1.396884   -4.691414
  O      0.228860   -1.246868   -3.127871
  O     -0.439269    1.118966   -3.014550
  F      1.247881    0.403474   -4.595647
  H      1.697003    2.561969   -2.141109
  H      3.080787    1.987436   -1.225838
  H      2.806463    1.986511   -4.268484
  H      3.778714    3.098282   -3.307383

 Total Charge           Charge          ....    0
 Multiplicity           Mult            ....    1
 Number of Electrons    NEL             ....   96
 Basis Dimension        Dim             ....  324

ORBITAL ENERGIES
----------------

  NO   OCC          E(Eh)            E(eV)
   0   2.0000     -88.577554     -2410.3178
   1   2.0000     -24.630406      -670.2274
   2   2.0000     -19.014753      -517.4177
   3   2.0000     -19.014072      -517.3992
   4   2.0000     -14.236278      -387.3888
   5   2.0000     -14.235430      -387.3658
   6   2.0000     -10.190974      -277.3105
   7   2.0000     -10.183523      -277.1077
   8   2.0000     -10.143253      -276.0120
   9   2.0000     -10.122865      -275.4571
  10   2.0000     -10.065076      -273.8846
  11   2.0000      -8.199818      -223.1284
  12   2.0000      -6.227272      -169.4527
  13   2.0000      -6.219696      -169.2465
  14   2.0000      -6.218043      -169.2016
  15   2.0000      -1.529977       -41.6328
  16   2.0000      -1.299150       -35.3517
  17   2.0000      -1.194938       -32.5159
  18   2.0000      -1.142268       -31.0827
  19   2.0000      -1.040821       -28.3222
  20   2.0000      -1.008441       -27.4411
  21   2.0000      -0.938490       -25.5376
  22   2.0000      -0.896546       -24.3963
  23   2.0000      -0.854260       -23.2456
  24   2.0000      -0.807465       -21.9722
  25   2.0000      -0.759046       -20.6547
  26   2.0000      -0.746387       -20.3102
  27   2.0000      -0.729983       -19.8638
  28   2.0000      -0.706995       -19.2383
  29   2.0000      -0.699560       -19.0360
  30   2.0000      -0.663268       -18.0484
  31   2.0000      -0.646860       -17.6019
  32   2.0000      -0.626338       -17.0435
  33   2.0000      -0.621051       -16.8996
  34   2.0000      -0.607765       -16.5381
  35   2.0000      -0.600995       -16.3539
  36   2.0000      -0.557487       -15.1700
  37   2.0000      -0.554798       -15.0968
  38   2.0000      -0.550448       -14.9784
  39   2.0000      -0.532359       -14.4862
  40   2.0000      -0.501084       -13.6352
  41   2.0000      -0.489960       -13.3325
  42   2.0000      -0.479598       -13.0505
  43   2.0000      -0.472002       -12.8438
  44   2.0000      -0.465310       -12.6617
  45   2.0000      -0.453155       -12.3310
  46   2.0000      -0.408783       -11.1236
  47   2.0000      -0.290778        -7.9125
  48   0.0000       0.071214         1.9378
  49   0.0000       0.085401         2.3239
  50   0.0000       0.088021         2.3952
  51   0.0000       0.099244         2.7006
  52   0.0000       0.114734         3.1221

MULLIKEN ATOMIC CHARGES
-----------------------
   0 C :    0.232814
   1 C :   -0.194963
   2 C :    0.056423
   3 C :   -0.071518
   4 H :    0.148871
   5 H :    0.032845
   6 S :    1.366904
   7 C :    0.895397
   8 N :   -0.113914
   9 N :    0.376432
  10 H :   -0.309957
  11 H :   -0.187332
  12 H :   -0.314519
  13 H :   -0.057830
  14 H :   -0.072621
  15 O :   -0.635447
  16 O :   -0.660700
  17 F :   -0.478760
  18 H :    0.088776
  19 H :    0.063089
  20 H :   -0.121771
  21 H :   -0.042218
Sum of atomic charges:   -0.0000000

LOEWDIN ATOMIC CHARGES
----------------------
   0 C :   -0.062019
   1 C :   -0.045851
   2 C :   -0.052614
   3 C :   -0.054623
   4 H :    0.034521
   5 H :    0.045975
   6 S :    1.105282
   7 C :   -0.216048
   8 N :    0.165302
   9 N :    0.211819
  10 H :   -0.095597
  11 H :    0.016740
  12 H :   -0.034074
  13 H :    0.013987
  14 H :   -0.001727
  15 O :   -0.450044
  16 O :   -0.444627
  17 F :   -0.264153
  18 H :    0.036514
  19 H :    0.048107
  20 H :    0.007633
  21 H :    0.035495

  Mayer bond orders larger than 0.100000
B(  0-C ,  1-C ) :   1.1087 B(  0-C ,  2-C ) :   1.1729 B(  0-C , 12-H ) :   0.1969
B(  0-C , 18-H ) :   0.1392 B(  0-C , 19-H ) :   0.1504 B(  0-C , 20-H ) :   0.8397
B(  0-C , 21-H ) :   0.8563 B(  1-C ,  7-C ) :   1.7030 B(  1-C ,  8-N ) :   0.3911
B(  1-C ,  9-N ) :   0.1976 B(  1-C , 12-H ) :   0.8620 B(  1-C , 20-H ) :   0.2247
B(  1-C , 21-H ) :   0.1028 B(  2-C ,  3-C ) :   1.2804 B(  2-C ,  4-H ) :   0.1364
B(  2-C ,  5-H ) :   0.1439 B(  2-C , 18-H ) :   0.8356 B(  2-C , 19-H ) :   0.8071
B(  2-C , 20-H ) :   0.1432 B(  3-C ,  4-H ) :   0.9569 B(  3-C ,  5-H ) :   0.8216
B(  3-C ,  6-S ) :   1.0295 B(  3-C , 18-H ) :   0.1385 B(  3-C , 19-H ) :   0.1047
B(  6-S , 15-O ) :   1.5689 B(  6-S , 16-O ) :   1.5741 B(  6-S , 17-F ) :   0.6645
B(  7-C ,  8-N ) :   0.7442 B(  7-C ,  9-N ) :   0.9902 B(  7-C , 11-H ) :  -0.2028
B(  7-C , 13-H ) :  -0.1773 B(  7-C , 20-H ) :  -0.1174 B(  8-N , 13-H ) :   1.2292
B(  8-N , 14-H ) :   1.1575 B(  9-N , 10-H ) :   1.1803 B(  9-N , 11-H ) :   1.2405
B( 10-H , 11-H ) :  -0.1694 B( 10-H , 17-F ) :   0.1032 B( 13-H , 14-H ) :  -0.1548

FINAL SINGLE POINT ENERGY      -952.580798343256

DIPOLE MOMENT
-------------
                                X             Y             Z
Electronic contribution:    -13.12464      -3.81245      -3.61947
Nuclear contribution   :     14.80811       3.53278       3.42836
                        -----------------------------------------
Total Dipole Moment    :      1.68347      -0.27967      -0.19111
                        -----------------------------------------
Magnitude (a.u.)       :      1.71721
Magnitude (Debye)      :      4.36480

Rotational constants in cm-1:     0.059173     0.020923     0.018056
Rotational constants in MHz :  1773.956621   627.264018   541.303397

                             ****ORCA TERMINATED NORMALLY****
TOTAL RUN TIME: 0 days 0 hours 1 minutes 31 seconds 774 msec
