                         Program Version 5.0.0 -  RELEASE  -
|  1> !LC-PBE RIJCOSX def2-SVPD def2/J TightSCF xyzfile
|  2>
|  3> *xyzfile 0 1 D9.xyz
|  4>
|  5> %MaxCore 64000
|  6>
|  7> %pal nprocs 4
|  8> end
|  9>
| 10> %scf
| 11>   MaxIter 150
| 12> end
| 13>
| 14>
| 15>                          ****END OF INPUT****

CARTESIAN COORDINATES (ANGSTROEM)
---------------------------------
  C      3.380928    2.083045   -3.350127
  N      4.535924    1.182447   -3.428518
  C      2.495557    1.816150   -2.136364
  C      1.872181    0.427903   -2.077497
  H      2.614270   -0.365825   -2.198894
  H      1.389953    0.273087   -1.112360
  S      0.579024    0.140472   -3.297943
  C      4.671956    0.122273   -4.220598
  N      5.866023   -0.507849   -4.224284
  C      3.698881   -0.312844   -4.986988
  H      2.731405   -0.050091   -4.849000
  H      3.890046   -1.055172   -5.643730
  H      5.251933    1.303459   -2.721014
  H      6.695165   -0.062322   -3.851596
  H      5.975383   -1.396884   -4.691414
  O      0.228860   -1.246868   -3.127871
  O     -0.439269    1.118966   -3.014550
  F      1.247881    0.403474   -4.595647
  H      1.697003    2.561969   -2.141109
  H      3.080787    1.987436   -1.225838
  H      2.806463    1.986511   -4.268484
  H      3.778714    3.098282   -3.307383

 Total Charge           Charge          ....    0
 Multiplicity           Mult            ....    1
 Number of Electrons    NEL             ....   96
 Basis Dimension        Dim             ....  324

ORBITAL ENERGIES
----------------

  NO   OCC          E(Eh)            E(eV)
   0   2.0000     -88.573059     -2410.1955
   1   2.0000     -24.611004      -669.6995
   2   2.0000     -19.009754      -517.2817
   3   2.0000     -19.008082      -517.2362
   4   2.0000     -14.248707      -387.7270
   5   2.0000     -14.236326      -387.3901
   6   2.0000     -10.190568      -277.2995
   7   2.0000     -10.188198      -277.2350
   8   2.0000     -10.182004      -277.0664
   9   2.0000     -10.162173      -276.5268
  10   2.0000     -10.043075      -273.2860
  11   2.0000      -8.194762      -222.9908
  12   2.0000      -6.221906      -169.3067
  13   2.0000      -6.214734      -169.1115
  14   2.0000      -6.213458      -169.0768
  15   2.0000      -1.513065       -41.1726
  16   2.0000      -1.292446       -35.1692
  17   2.0000      -1.189517       -32.3684
  18   2.0000      -1.148819       -31.2610
  19   2.0000      -1.060737       -28.8641
  20   2.0000      -1.001730       -27.2585
  21   2.0000      -0.918287       -24.9879
  22   2.0000      -0.898313       -24.4444
  23   2.0000      -0.858916       -23.3723
  24   2.0000      -0.816925       -22.2297
  25   2.0000      -0.748854       -20.3773
  26   2.0000      -0.741880       -20.1876
  27   2.0000      -0.720239       -19.5987
  28   2.0000      -0.710126       -19.3235
  29   2.0000      -0.695899       -18.9364
  30   2.0000      -0.665596       -18.1118
  31   2.0000      -0.650403       -17.6984
  32   2.0000      -0.630573       -17.1588
  33   2.0000      -0.617068       -16.7913
  34   2.0000      -0.608053       -16.5460
  35   2.0000      -0.593515       -16.1504
  36   2.0000      -0.564461       -15.3598
  37   2.0000      -0.551607       -15.0100
  38   2.0000      -0.544253       -14.8099
  39   2.0000      -0.521643       -14.1946
  40   2.0000      -0.516409       -14.0522
  41   2.0000      -0.510552       -13.8928
  42   2.0000      -0.493426       -13.4268
  43   2.0000      -0.479411       -13.0454
  44   2.0000      -0.461656       -12.5623
  45   2.0000      -0.455716       -12.4007
  46   2.0000      -0.393541       -10.7088
  47   2.0000      -0.300479        -8.1764
  48   0.0000       0.071218         1.9380
  49   0.0000       0.085176         2.3178
  50   0.0000       0.091798         2.4979
  51   0.0000       0.094204         2.5634
  52   0.0000       0.115046         3.1306

MULLIKEN ATOMIC CHARGES
-----------------------
   0 C :    0.712074
   1 N :   -0.561577
   2 C :    0.003749
   3 C :    0.002825
   4 H :    0.162580
   5 H :   -0.017906
   6 S :    1.382033
   7 C :    0.967968
   8 N :   -0.042453
   9 C :    0.603948
  10 H :   -0.725543
  11 H :   -0.328901
  12 H :   -0.236803
  13 H :   -0.098786
  14 H :    0.019070
  15 O :   -0.637436
  16 O :   -0.674457
  17 F :   -0.513363
  18 H :    0.083162
  19 H :    0.055041
  20 H :    0.039756
  21 H :   -0.194980
Sum of atomic charges:   -0.0000000

LOEWDIN ATOMIC CHARGES
----------------------
   0 C :    0.056302
   1 N :   -0.023129
   2 C :   -0.043721
   3 C :   -0.053884
   4 H :    0.035431
   5 H :    0.045287
   6 S :    1.104965
   7 C :   -0.228432
   8 N :    0.166620
   9 C :    0.157426
  10 H :   -0.166686
  11 H :   -0.068397
  12 H :    0.036056
  13 H :   -0.000379
  14 H :    0.013439
  15 O :   -0.447120
  16 O :   -0.451128
  17 F :   -0.277586
  18 H :    0.041018
  19 H :    0.043468
  20 H :    0.021083
  21 H :    0.039368

  Mayer bond orders larger than 0.100000
B(  0-C ,  1-N ) :   0.9355 B(  0-C ,  2-C ) :   1.0871 B(  0-C , 12-H ) :  -0.1697
B(  0-C , 18-H ) :   0.1153 B(  0-C , 19-H ) :   0.1061 B(  0-C , 20-H ) :   0.7493
B(  0-C , 21-H ) :   0.9612 B(  1-N ,  7-C ) :   0.8407 B(  1-N ,  8-N ) :   0.1928
B(  1-N ,  9-C ) :   0.2995 B(  1-N , 12-H ) :   1.4058 B(  1-N , 20-H ) :   0.1614
B(  1-N , 21-H ) :   0.1128 B(  2-C ,  3-C ) :   1.2432 B(  2-C ,  4-H ) :   0.1322
B(  2-C ,  5-H ) :   0.1457 B(  2-C , 18-H ) :   0.8829 B(  2-C , 19-H ) :   0.8449
B(  2-C , 20-H ) :   0.1270 B(  3-C ,  4-H ) :   0.9521 B(  3-C ,  5-H ) :   0.8201
B(  3-C ,  6-S ) :   1.0320 B(  3-C , 18-H ) :   0.1219 B(  6-S , 15-O ) :   1.5610
B(  6-S , 16-O ) :   1.5538 B(  6-S , 17-F ) :   0.6857 B(  7-C ,  8-N ) :   0.8833
B(  7-C ,  9-C ) :   1.8145 B(  7-C , 10-H ) :  -0.1136 B(  7-C , 11-H ) :   0.2990
B(  7-C , 12-H ) :  -0.2977 B(  8-N ,  9-C ) :   0.3246 B(  8-N , 13-H ) :   1.1731
B(  8-N , 14-H ) :   1.1262 B(  9-C , 10-H ) :   0.1450 B(  9-C , 11-H ) :   0.8132
B( 10-H , 11-H ) :  -0.1324 B( 10-H , 17-F ) :   0.2034 B( 13-H , 14-H ) :  -0.1600
B( 20-H , 21-H ) :  -0.1474

FINAL SINGLE POINT ENERGY      -952.558971426791

DIPOLE MOMENT
-------------
                                X             Y             Z
Electronic contribution:    -12.53704      -2.60395      -2.39166
Nuclear contribution   :     14.72648       3.38697       3.27638
                        -----------------------------------------
Total Dipole Moment    :      2.18944       0.78302       0.88471
                        -----------------------------------------
Magnitude (a.u.)       :      2.48787
Magnitude (Debye)      :      6.32366

Rotational constants in cm-1:     0.059651     0.020833     0.018010
Rotational constants in MHz :  1788.283887   624.555661   539.921162

                             ****ORCA TERMINATED NORMALLY****
TOTAL RUN TIME: 0 days 0 hours 1 minutes 40 seconds 785 msec
