                         Program Version 5.0.0 -  RELEASE  -
|  1> !wB97X-D3 RIJCOSX def2-TZVP def2/J TightSCF
|  2> *xyz -1 1
|  3> C         -0.91495        0.61511        2.50554
|  4> C         -0.05915        1.50352        3.41058
|  5> H          0.36536        2.34431        2.86116
|  6> H         -0.69226        1.92021        4.19898
|  7> C          1.08303        0.74964        4.08571
|  8> O          2.22817        1.26348        4.01983
|  9> O          0.81003       -0.34541        4.63627
| 10> C         -0.13074       -0.19398        1.47076
| 11> H         -1.64796        1.24596        1.99108
| 12> H         -1.47818       -0.08105        3.13042
| 13> H         -0.80952       -0.78099        0.88803
| 14> H          0.55985       -0.83974        1.97175
| 15> H          0.40595        0.47288        0.82877
| 16> *
| 17>
| 18> %MaxCore 64000
| 19>
| 20> %pal nprocs 18
| 21> end
| 22>
| 23> %scf
| 24>   MaxIter 150
| 25> end
| 26>
| 27>
| 28>                          ****END OF INPUT****

CARTESIAN COORDINATES (ANGSTROEM)
---------------------------------
  C     -0.914950    0.615110    2.505540
  C     -0.059150    1.503520    3.410580
  H      0.365360    2.344310    2.861160
  H     -0.692260    1.920210    4.198980
  C      1.083030    0.749640    4.085710
  O      2.228170    1.263480    4.019830
  O      0.810030   -0.345410    4.636270
  C     -0.130740   -0.193980    1.470760
  H     -1.647960    1.245960    1.991080
  H     -1.478180   -0.081050    3.130420
  H     -0.809520   -0.780990    0.888030
  H      0.559850   -0.839740    1.971750
  H      0.405950    0.472880    0.828770

 Total Charge           Charge          ....   -1
 Multiplicity           Mult            ....    1
 Number of Electrons    NEL             ....   48
 Basis Dimension        Dim             ....  228

ORBITAL ENERGIES
----------------

  NO   OCC          E(Eh)            E(eV)
   0   2.0000     -18.956227      -515.8252
   1   2.0000     -18.955140      -515.7956
   2   2.0000     -10.152326      -276.2588
   3   2.0000     -10.122938      -275.4592
   4   2.0000     -10.114383      -275.2263
   5   2.0000     -10.096930      -274.7514
   6   2.0000      -0.930274       -25.3140
   7   2.0000      -0.834892       -22.7186
   8   2.0000      -0.751201       -20.4412
   9   2.0000      -0.654103       -17.7991
  10   2.0000      -0.553089       -15.0503
  11   2.0000      -0.427359       -11.6290
  12   2.0000      -0.403012       -10.9665
  13   2.0000      -0.388992       -10.5850
  14   2.0000      -0.352210        -9.5841
  15   2.0000      -0.329068        -8.9544
  16   2.0000      -0.306651        -8.3444
  17   2.0000      -0.299151        -8.1403
  18   2.0000      -0.286444        -7.7945
  19   2.0000      -0.264455        -7.1962
  20   2.0000      -0.252284        -6.8650
  21   2.0000      -0.135531        -3.6880
  22   2.0000      -0.129977        -3.5369
  23   2.0000      -0.117557        -3.1989
  24   0.0000       0.250055         6.8043
  25   0.0000       0.284673         7.7463
  26   0.0000       0.299861         8.1596
  27   0.0000       0.312664         8.5080
  28   0.0000       0.324165         8.8210

MULLIKEN ATOMIC CHARGES
-----------------------
   0 C :   -0.124648
   1 C :   -0.148466
   2 H :    0.045671
   3 H :    0.043842
   4 C :    0.251703
   5 O :   -0.558427
   6 O :   -0.560967
   7 C :   -0.334963
   8 H :    0.033875
   9 H :    0.068347
  10 H :    0.063889
  11 H :    0.144403
  12 H :    0.075742
Sum of atomic charges:   -1.0000000

LOEWDIN ATOMIC CHARGES
----------------------
   0 C :   -0.304723
   1 C :   -0.268444
   2 H :    0.122418
   3 H :    0.126181
   4 C :   -0.694718
   5 O :   -0.118818
   6 O :   -0.117327
   7 C :   -0.312825
   8 H :    0.110848
   9 H :    0.128627
  10 H :    0.097791
  11 H :    0.124604
  12 H :    0.106386

  Mayer bond orders larger than 0.100000
B(  0-C ,  1-C ) :   0.9746 B(  0-C ,  7-C ) :   0.9827 B(  0-C ,  8-H ) :   0.9695
B(  0-C ,  9-H ) :   0.9706 B(  1-C ,  2-H ) :   0.9655 B(  1-C ,  3-H ) :   0.9569
B(  1-C ,  4-C ) :   0.9477 B(  4-C ,  5-O ) :   1.8605 B(  4-C ,  6-O ) :   1.8159
B(  7-C , 10-H ) :   0.9797 B(  7-C , 11-H ) :   0.9769 B(  7-C , 12-H ) :   0.9788

Dispersion correction           -0.003396105
FINAL SINGLE POINT ENERGY      -307.185380909188

DIPOLE MOMENT
-------------
                                X             Y             Z
Electronic contribution:      4.65989       0.19292       5.55396
Nuclear contribution   :     -6.45806       0.15825      -7.12052
                        -----------------------------------------
Total Dipole Moment    :     -1.79817       0.35117      -1.56657
                        -----------------------------------------
Magnitude (a.u.)       :      2.41058
Magnitude (Debye)      :      6.12720

Rotational constants in cm-1:     0.199323     0.080770     0.077827
Rotational constants in MHz :  5975.562678  2421.415024  2333.195390

                             ****ORCA TERMINATED NORMALLY****
TOTAL RUN TIME: 0 days 0 hours 0 minutes 17 seconds 539 msec
