                         Program Version 5.0.0 -  RELEASE  -
|  1> !wB97X-D3 RIJCOSX def2-TZVP def2/J TightSCF
|  2> *xyz 1 1
|  3> C          4.60295       -2.44010        2.63478
|  4> C          3.86085       -1.59157        3.62289
|  5> N          2.75650       -2.04616        4.16633
|  6> N          4.25433       -0.36291        3.86046
|  7> H          3.56526        0.31099        4.16898
|  8> H          5.05429       -0.01606        3.33784
|  9> H          2.43970       -2.97389        3.89740
| 10> H          2.06687       -1.41253        4.54981
| 11> C          3.74469       -2.58056        1.36188
| 12> C          3.20372       -1.25600        0.82621
| 13> H          2.89894       -3.23929        1.58307
| 14> H          4.33496       -3.09552        0.60019
| 15> H          5.56156       -1.97135        2.40708
| 16> H          4.81050       -3.42255        3.06310
| 17> H          2.62184       -1.43789       -0.05313
| 18> H          4.02069       -0.60826        0.58562
| 19> H          2.58975       -0.79418        1.57097
| 20> *
| 21>
| 22> %MaxCore 64000
| 23>
| 24> %pal nprocs 18
| 25> end
| 26>
| 27> %scf
| 28>   MaxIter 150
| 29> end
| 30>
| 31>
| 32>                          ****END OF INPUT****

CARTESIAN COORDINATES (ANGSTROEM)
---------------------------------
  C      4.602950   -2.440100    2.634780
  C      3.860850   -1.591570    3.622890
  N      2.756500   -2.046160    4.166330
  N      4.254330   -0.362910    3.860460
  H      3.565260    0.310990    4.168980
  H      5.054290   -0.016060    3.337840
  H      2.439700   -2.973890    3.897400
  H      2.066870   -1.412530    4.549810
  C      3.744690   -2.580560    1.361880
  C      3.203720   -1.256000    0.826210
  H      2.898940   -3.239290    1.583070
  H      4.334960   -3.095520    0.600190
  H      5.561560   -1.971350    2.407080
  H      4.810500   -3.422550    3.063100
  H      2.621840   -1.437890   -0.053130
  H      4.020690   -0.608260    0.585620
  H      2.589750   -0.794180    1.570970

 Total Charge           Charge          ....    1
 Multiplicity           Mult            ....    1
 Number of Electrons    NEL             ....   48
 Basis Dimension        Dim             ....  252

ORBITAL ENERGIES
----------------

  NO   OCC          E(Eh)            E(eV)
   0   2.0000     -14.663422      -399.0120
   1   2.0000     -14.663200      -399.0059
   2   2.0000     -10.597285      -288.3668
   3   2.0000     -10.472192      -284.9628
   4   2.0000     -10.442076      -284.1433
   5   2.0000     -10.407734      -283.2088
   6   2.0000      -1.324160       -36.0322
   7   2.0000      -1.223723       -33.2992
   8   2.0000      -1.094594       -29.7854
   9   2.0000      -1.004381       -27.3306
  10   2.0000      -0.942903       -25.6577
  11   2.0000      -0.891052       -24.2468
  12   2.0000      -0.872252       -23.7352
  13   2.0000      -0.841148       -22.8888
  14   2.0000      -0.792984       -21.5782
  15   2.0000      -0.769141       -20.9294
  16   2.0000      -0.729610       -19.8537
  17   2.0000      -0.690457       -18.7883
  18   2.0000      -0.672299       -18.2942
  19   2.0000      -0.665181       -18.1005
  20   2.0000      -0.604859       -16.4591
  21   2.0000      -0.602384       -16.3917
  22   2.0000      -0.591778       -16.1031
  23   2.0000      -0.585048       -15.9200
  24   0.0000      -0.129417        -3.5216
  25   0.0000      -0.073285        -1.9942
  26   0.0000      -0.031788        -0.8650
  27   0.0000      -0.027685        -0.7534
  28   0.0000       0.002381         0.0648

MULLIKEN ATOMIC CHARGES
-----------------------
   0 C :   -0.272588
   1 C :    0.278797
   2 N :   -0.358787
   3 N :   -0.350336
   4 H :    0.291827
   5 H :    0.308100
   6 H :    0.310372
   7 H :    0.295558
   8 C :   -0.226441
   9 C :   -0.351756
  10 H :    0.131066
  11 H :    0.168718
  12 H :    0.162452
  13 H :    0.197544
  14 H :    0.169704
  15 H :    0.139743
  16 H :    0.106028
Sum of atomic charges:    1.0000000

LOEWDIN ATOMIC CHARGES
----------------------
   0 C :   -0.197765
   1 C :   -0.296250
   2 N :    0.112823
   3 N :    0.111996
   4 H :    0.201427
   5 H :    0.210563
   6 H :    0.211800
   7 H :    0.201055
   8 C :   -0.265216
   9 C :   -0.285390
  10 H :    0.140580
  11 H :    0.155699
  12 H :    0.160174
  13 H :    0.168530
  14 H :    0.134989
  15 H :    0.123513
  16 H :    0.111471

  Mayer bond orders larger than 0.100000
B(  0-C ,  1-C ) :   0.9709 B(  0-C ,  8-C ) :   0.9371 B(  0-C , 12-H ) :   0.9659
B(  0-C , 13-H ) :   0.9526 B(  1-C ,  2-N ) :   1.4409 B(  1-C ,  3-N ) :   1.4527
B(  2-N ,  6-H ) :   0.8856 B(  2-N ,  7-H ) :   0.8842 B(  3-N ,  4-H ) :   0.8859
B(  3-N ,  5-H ) :   0.8827 B(  8-C ,  9-C ) :   0.9434 B(  8-C , 10-H ) :   0.9743
B(  8-C , 11-H ) :   0.9644 B(  9-C , 14-H ) :   0.9660 B(  9-C , 15-H ) :   0.9759
B(  9-C , 16-H ) :   0.9566

Dispersion correction           -0.004943813
FINAL SINGLE POINT ENERGY      -268.371841104387

DIPOLE MOMENT
-------------
                                X             Y             Z
Electronic contribution:      0.49394       0.57434       5.20102
Nuclear contribution   :     -0.82989      -0.08664      -4.26094
                        -----------------------------------------
Total Dipole Moment    :     -0.33595       0.48770       0.94008
                        -----------------------------------------
Magnitude (a.u.)       :      1.11106
Magnitude (Debye)      :      2.82410

Rotational constants in cm-1:     0.166042     0.084809     0.078793
Rotational constants in MHz :  4977.819890  2542.513379  2362.161076

                             ****ORCA TERMINATED NORMALLY****
TOTAL RUN TIME: 0 days 0 hours 0 minutes 16 seconds 682 msec
