                         Program Version 5.0.0 -  RELEASE  -
|  1> !wB97X-D3 RIJCOSX def2-TZVP def2/J TightSCF
|  2> *xyz 0 1
|  3> C         -0.91495        0.61511        2.50554
|  4> C         -0.05915        1.50352        3.41058
|  5> H          0.36536        2.34431        2.86116
|  6> H         -0.69226        1.92021        4.19898
|  7> C          1.08303        0.74964        4.08571
|  8> F          2.22817        1.26348        4.01983
|  9> O          0.81003       -0.34541        4.63627
| 10> C         -0.13074       -0.19398        1.47076
| 11> H         -1.64796        1.24596        1.99108
| 12> H         -1.47818       -0.08105        3.13042
| 13> H         -0.80952       -0.78099        0.88803
| 14> H          0.55985       -0.83974        1.97175
| 15> H          0.40595        0.47288        0.82877
| 16> *
| 17>
| 18> %MaxCore 64000
| 19>
| 20> %pal nprocs 18
| 21> end
| 22>
| 23> %scf
| 24>   MaxIter 150
| 25> end
| 26>
| 27>
| 28>                          ****END OF INPUT****

CARTESIAN COORDINATES (ANGSTROEM)
---------------------------------
  C     -0.914950    0.615110    2.505540
  C     -0.059150    1.503520    3.410580
  H      0.365360    2.344310    2.861160
  H     -0.692260    1.920210    4.198980
  C      1.083030    0.749640    4.085710
  F      2.228170    1.263480    4.019830
  O      0.810030   -0.345410    4.636270
  C     -0.130740   -0.193980    1.470760
  H     -1.647960    1.245960    1.991080
  H     -1.478180   -0.081050    3.130420
  H     -0.809520   -0.780990    0.888030
  H      0.559850   -0.839740    1.971750
  H      0.405950    0.472880    0.828770

 Total Charge           Charge          ....    0
 Multiplicity           Mult            ....    1
 Number of Electrons    NEL             ....   48
 Basis Dimension        Dim             ....  228

ORBITAL ENERGIES
----------------

  NO   OCC          E(Eh)            E(eV)
   0   2.0000     -24.853725      -676.3042
   1   2.0000     -19.234151      -523.3878
   2   2.0000     -10.454171      -284.4725
   3   2.0000     -10.304906      -280.4108
   4   2.0000     -10.287820      -279.9458
   5   2.0000     -10.263533      -279.2849
   6   2.0000      -1.433702       -39.0130
   7   2.0000      -1.147980       -31.2381
   8   2.0000      -0.930328       -25.3155
   9   2.0000      -0.844810       -22.9884
  10   2.0000      -0.771768       -21.0009
  11   2.0000      -0.718962       -19.5640
  12   2.0000      -0.651759       -17.7353
  13   2.0000      -0.635412       -17.2904
  14   2.0000      -0.614458       -16.7203
  15   2.0000      -0.566857       -15.4250
  16   2.0000      -0.555734       -15.1223
  17   2.0000      -0.516738       -14.0611
  18   2.0000      -0.499443       -13.5905
  19   2.0000      -0.465564       -12.6686
  20   2.0000      -0.450252       -12.2520
  21   2.0000      -0.441367       -12.0102
  22   2.0000      -0.437094       -11.8939
  23   2.0000      -0.388767       -10.5789
  24   0.0000       0.056669         1.5420
  25   0.0000       0.112780         3.0689
  26   0.0000       0.152093         4.1386
  27   0.0000       0.157879         4.2961
  28   0.0000       0.162371         4.4183

MULLIKEN ATOMIC CHARGES
-----------------------
   0 C :   -0.175345
   1 C :   -0.227930
   2 H :    0.118564
   3 H :    0.136385
   4 C :    0.391561
   5 F :   -0.106203
   6 O :   -0.358575
   7 C :   -0.366786
   8 H :    0.106402
   9 H :    0.118321
  10 H :    0.121173
  11 H :    0.134463
  12 H :    0.107969
Sum of atomic charges:    0.0000000

LOEWDIN ATOMIC CHARGES
----------------------
   0 C :   -0.282484
   1 C :   -0.240091
   2 H :    0.141563
   3 H :    0.158072
   4 C :   -0.491976
   5 F :    0.321933
   6 O :    0.059646
   7 C :   -0.298866
   8 H :    0.136318
   9 H :    0.142593
  10 H :    0.118534
  11 H :    0.120338
  12 H :    0.114419

  Mayer bond orders larger than 0.100000
B(  0-C ,  1-C ) :   0.9753 B(  0-C ,  7-C ) :   0.9793 B(  0-C ,  8-H ) :   0.9710
B(  0-C ,  9-H ) :   0.9660 B(  1-C ,  2-H ) :   0.9681 B(  1-C ,  3-H ) :   0.9404
B(  1-C ,  4-C ) :   0.9834 B(  4-C ,  5-F ) :   1.1583 B(  4-C ,  6-O ) :   2.0274
B(  7-C , 10-H ) :   0.9773 B(  7-C , 11-H ) :   0.9735 B(  7-C , 12-H ) :   0.9769

Dispersion correction           -0.003314907
FINAL SINGLE POINT ENERGY      -331.755441149012

DIPOLE MOMENT
-------------
                                X             Y             Z
Electronic contribution:      7.99357       1.46769       7.22937
Nuclear contribution   :     -8.39104      -0.60591      -7.87060
                        -----------------------------------------
Total Dipole Moment    :     -0.39747       0.86178      -0.64123
                        -----------------------------------------
Magnitude (a.u.)       :      1.14535
Magnitude (Debye)      :      2.91124

Rotational constants in cm-1:     0.194210     0.077092     0.074391
Rotational constants in MHz :  5822.269139  2311.145895  2230.180895

                             ****ORCA TERMINATED NORMALLY****
TOTAL RUN TIME: 0 days 0 hours 0 minutes 13 seconds 672 msec
