                         Program Version 5.0.0 -  RELEASE  -
|  1> !wB97X-D3 RIJCOSX def2-TZVP def2/J TightSCF
|  2> *xyz 0 1
|  3> C          4.60295       -2.44010        2.63478
|  4> C          3.86085       -1.59157        3.62289
|  5> C          2.75650       -2.04616        4.16633
|  6> N          4.25433       -0.36291        3.86046
|  7> H          3.56526        0.31099        4.16898
|  8> H          5.05429       -0.01606        3.33784
|  9> H          2.43970       -2.97389        3.89740
| 10> H          2.06687       -1.41253        4.54981
| 11> C          3.74469       -2.58056        1.36188
| 12> C          3.20372       -1.25600        0.82621
| 13> H          2.89894       -3.23929        1.58307
| 14> H          4.33496       -3.09552        0.60019
| 15> H          5.56156       -1.97135        2.40708
| 16> H          4.81050       -3.42255        3.06310
| 17> H          2.62184       -1.43789       -0.05313
| 18> H          4.02069       -0.60826        0.58562
| 19> H          2.58975       -0.79418        1.57097
| 20> *
| 21>
| 22> %MaxCore 64000
| 23>
| 24> %pal nprocs 18
| 25> end
| 26>
| 27> %scf
| 28>   MaxIter 150
| 29> end
| 30>
| 31>
| 32>                          ****END OF INPUT****

CARTESIAN COORDINATES (ANGSTROEM)
---------------------------------
  C      4.602950   -2.440100    2.634780
  C      3.860850   -1.591570    3.622890
  C      2.756500   -2.046160    4.166330
  N      4.254330   -0.362910    3.860460
  H      3.565260    0.310990    4.168980
  H      5.054290   -0.016060    3.337840
  H      2.439700   -2.973890    3.897400
  H      2.066870   -1.412530    4.549810
  C      3.744690   -2.580560    1.361880
  C      3.203720   -1.256000    0.826210
  H      2.898940   -3.239290    1.583070
  H      4.334960   -3.095520    0.600190
  H      5.561560   -1.971350    2.407080
  H      4.810500   -3.422550    3.063100
  H      2.621840   -1.437890   -0.053130
  H      4.020690   -0.608260    0.585620
  H      2.589750   -0.794180    1.570970

 Total Charge           Charge          ....    0
 Multiplicity           Mult            ....    1
 Number of Electrons    NEL             ....   48
 Basis Dimension        Dim             ....  252

ORBITAL ENERGIES
----------------

  NO   OCC          E(Eh)            E(eV)
   0   2.0000     -14.420590      -392.4042
   1   2.0000     -10.293410      -280.0979
   2   2.0000     -10.275498      -279.6105
   3   2.0000     -10.271313      -279.4966
   4   2.0000     -10.252695      -278.9900
   5   2.0000     -10.199519      -277.5430
   6   2.0000      -1.051014       -28.5995
   7   2.0000      -0.912989       -24.8437
   8   2.0000      -0.845298       -23.0017
   9   2.0000      -0.798300       -21.7229
  10   2.0000      -0.715986       -19.4830
  11   2.0000      -0.661740       -18.0069
  12   2.0000      -0.623949       -16.9785
  13   2.0000      -0.589033       -16.0284
  14   2.0000      -0.557813       -15.1789
  15   2.0000      -0.535697       -14.5770
  16   2.0000      -0.499156       -13.5827
  17   2.0000      -0.484720       -13.1899
  18   2.0000      -0.462597       -12.5879
  19   2.0000      -0.457005       -12.4358
  20   2.0000      -0.430050       -11.7023
  21   2.0000      -0.422824       -11.5056
  22   2.0000      -0.415588       -11.3087
  23   2.0000      -0.277861        -7.5610
  24   0.0000       0.105227         2.8634
  25   0.0000       0.114192         3.1073
  26   0.0000       0.143892         3.9155
  27   0.0000       0.150847         4.1047
  28   0.0000       0.162126         4.4117

MULLIKEN ATOMIC CHARGES
-----------------------
   0 C :   -0.224184
   1 C :    0.170511
   2 C :   -0.391244
   3 N :   -0.470174
   4 H :    0.242226
   5 H :    0.234448
   6 H :    0.092012
   7 H :    0.089302
   8 C :   -0.164559
   9 C :   -0.347511
  10 H :    0.101321
  11 H :    0.096645
  12 H :    0.095745
  13 H :    0.131639
  14 H :    0.117866
  15 H :    0.099563
  16 H :    0.126393
Sum of atomic charges:    0.0000000

LOEWDIN ATOMIC CHARGES
----------------------
   0 C :   -0.214183
   1 C :   -0.376282
   2 C :   -0.275416
   3 N :    0.001208
   4 H :    0.175532
   5 H :    0.169513
   6 H :    0.106980
   7 H :    0.098100
   8 C :   -0.278215
   9 C :   -0.301894
  10 H :    0.135704
  11 H :    0.129066
  12 H :    0.133420
  13 H :    0.149008
  14 H :    0.115472
  15 H :    0.111634
  16 H :    0.120353

  Mayer bond orders larger than 0.100000
B(  0-C ,  1-C ) :   0.9231 B(  0-C ,  8-C ) :   0.9667 B(  0-C , 12-H ) :   0.9884
B(  0-C , 13-H ) :   0.9834 B(  1-C ,  2-C ) :   1.7755 B(  1-C ,  3-N ) :   1.1528
B(  2-C ,  6-H ) :   1.0056 B(  2-C ,  7-H ) :   0.9893 B(  3-N ,  4-H ) :   0.9186
B(  3-N ,  5-H ) :   0.9255 B(  8-C ,  9-C ) :   0.9706 B(  8-C , 10-H ) :   0.9737
B(  8-C , 11-H ) :   0.9766 B(  9-C , 14-H ) :   0.9786 B(  9-C , 15-H ) :   0.9826
B(  9-C , 16-H ) :   0.9722

Dispersion correction           -0.004909280
FINAL SINGLE POINT ENERGY      -251.895751527415

DIPOLE MOMENT
-------------
                                X             Y             Z
Electronic contribution:      1.37553       0.71896       3.39598
Nuclear contribution   :     -1.05621      -0.17147      -3.92631
                        -----------------------------------------
Total Dipole Moment    :      0.31932       0.54748      -0.53033
                        -----------------------------------------
Magnitude (a.u.)       :      0.82641
Magnitude (Debye)      :      2.10056

Rotational constants in cm-1:     0.171127     0.086782     0.080643
Rotational constants in MHz :  5130.249275  2601.647634  2417.629092

                             ****ORCA TERMINATED NORMALLY****
TOTAL RUN TIME: 0 days 0 hours 0 minutes 18 seconds 519 msec
