                         Program Version 5.0.0 -  RELEASE  -
|  1> !wB97X-D3 RIJCOSX def2-TZVP def2/J TightSCF
|  2> *xyz 0 1
|  3> C         -0.91495        0.61511        2.50554
|  4> C         -0.05915        1.50352        3.41058
|  5> H          0.36536        2.34431        2.86116
|  6> H         -0.69226        1.92021        4.19898
|  7> C          1.08303        0.74964        4.08571
|  8> O          2.22817        1.26348        4.01983
|  9> F          0.81003       -0.34541        4.63627
| 10> C         -0.13074       -0.19398        1.47076
| 11> H         -1.64796        1.24596        1.99108
| 12> H         -1.47818       -0.08105        3.13042
| 13> H         -0.80952       -0.78099        0.88803
| 14> H          0.55985       -0.83974        1.97175
| 15> H          0.40595        0.47288        0.82877
| 16> *
| 17>
| 18> %MaxCore 64000
| 19>
| 20> %pal nprocs 18
| 21> end
| 22>
| 23> %scf
| 24>   MaxIter 150
| 25> end
| 26>
| 27>
| 28>                          ****END OF INPUT****

CARTESIAN COORDINATES (ANGSTROEM)
---------------------------------
  C     -0.914950    0.615110    2.505540
  C     -0.059150    1.503520    3.410580
  H      0.365360    2.344310    2.861160
  H     -0.692260    1.920210    4.198980
  C      1.083030    0.749640    4.085710
  O      2.228170    1.263480    4.019830
  F      0.810030   -0.345410    4.636270
  C     -0.130740   -0.193980    1.470760
  H     -1.647960    1.245960    1.991080
  H     -1.478180   -0.081050    3.130420
  H     -0.809520   -0.780990    0.888030
  H      0.559850   -0.839740    1.971750
  H      0.405950    0.472880    0.828770

 Total Charge           Charge          ....    0
 Multiplicity           Mult            ....    1
 Number of Electrons    NEL             ....   48
 Basis Dimension        Dim             ....  228

ORBITAL ENERGIES
----------------

  NO   OCC          E(Eh)            E(eV)
   0   2.0000     -24.854934      -676.3371
   1   2.0000     -19.232798      -523.3510
   2   2.0000     -10.452996      -284.4405
   3   2.0000     -10.303961      -280.3850
   4   2.0000     -10.292646      -280.0771
   5   2.0000     -10.269241      -279.4403
   6   2.0000      -1.435280       -39.0560
   7   2.0000      -1.145343       -31.1664
   8   2.0000      -0.935385       -25.4531
   9   2.0000      -0.845175       -22.9984
  10   2.0000      -0.771211       -20.9857
  11   2.0000      -0.725537       -19.7429
  12   2.0000      -0.655214       -17.8293
  13   2.0000      -0.645927       -17.5766
  14   2.0000      -0.596788       -16.2394
  15   2.0000      -0.574055       -15.6208
  16   2.0000      -0.557881       -15.1807
  17   2.0000      -0.518610       -14.1121
  18   2.0000      -0.498243       -13.5579
  19   2.0000      -0.471552       -12.8316
  20   2.0000      -0.460444       -12.5293
  21   2.0000      -0.446269       -12.1436
  22   2.0000      -0.437998       -11.9185
  23   2.0000      -0.382315       -10.4033
  24   0.0000       0.061004         1.6600
  25   0.0000       0.107895         2.9360
  26   0.0000       0.148896         4.0517
  27   0.0000       0.156895         4.2693
  28   0.0000       0.162813         4.4304

MULLIKEN ATOMIC CHARGES
-----------------------
   0 C :   -0.198821
   1 C :   -0.217405
   2 H :    0.139679
   3 H :    0.128958
   4 C :    0.376320
   5 O :   -0.355568
   6 F :   -0.107966
   7 C :   -0.343379
   8 H :    0.111527
   9 H :    0.107685
  10 H :    0.122414
  11 H :    0.117895
  12 H :    0.118660
Sum of atomic charges:   -0.0000000

LOEWDIN ATOMIC CHARGES
----------------------
   0 C :   -0.291550
   1 C :   -0.235609
   2 H :    0.154405
   3 H :    0.152800
   4 C :   -0.495798
   5 O :    0.056048
   6 F :    0.326773
   7 C :   -0.296346
   8 H :    0.137942
   9 H :    0.136690
  10 H :    0.118452
  11 H :    0.117147
  12 H :    0.119045

  Mayer bond orders larger than 0.100000
B(  0-C ,  1-C ) :   0.9634 B(  0-C ,  7-C ) :   0.9802 B(  0-C ,  8-H ) :   0.9711
B(  0-C ,  9-H ) :   0.9715 B(  1-C ,  2-H ) :   0.9691 B(  1-C ,  3-H ) :   0.9459
B(  1-C ,  4-C ) :   0.9948 B(  4-C ,  5-O ) :   2.0452 B(  4-C ,  6-F ) :   1.1466
B(  7-C , 10-H ) :   0.9762 B(  7-C , 11-H ) :   0.9747 B(  7-C , 12-H ) :   0.9752

Dispersion correction           -0.003318922
FINAL SINGLE POINT ENERGY      -331.754334750797

DIPOLE MOMENT
-------------
                                X             Y             Z
Electronic contribution:      5.54901      -1.26416       8.23803
Nuclear contribution   :     -6.78915       1.21145      -8.56691
                        -----------------------------------------
Total Dipole Moment    :     -1.24014      -0.05271      -0.32889
                        -----------------------------------------
Magnitude (a.u.)       :      1.28409
Magnitude (Debye)      :      3.26390

Rotational constants in cm-1:     0.188995     0.079574     0.075294
Rotational constants in MHz :  5665.932233  2385.568994  2257.246443

                             ****ORCA TERMINATED NORMALLY****
TOTAL RUN TIME: 0 days 0 hours 0 minutes 16 seconds 165 msec
