                         Program Version 5.0.0 -  RELEASE  -
|  1> !wB97X-D3 RIJCOSX def2-TZVP def2/J TightSCF
|  2> *xyz 0 1
|  3> C          4.60295       -2.44010        2.63478
|  4> C          3.86085       -1.59157        3.62289
|  5> N          2.75650       -2.04616        4.16633
|  6> C          4.25433       -0.36291        3.86046
|  7> H          3.56526        0.31099        4.16898
|  8> H          5.05429       -0.01606        3.33784
|  9> H          2.43970       -2.97389        3.89740
| 10> H          2.06687       -1.41253        4.54981
| 11> C          3.74469       -2.58056        1.36188
| 12> C          3.20372       -1.25600        0.82621
| 13> H          2.89894       -3.23929        1.58307
| 14> H          4.33496       -3.09552        0.60019
| 15> H          5.56156       -1.97135        2.40708
| 16> H          4.81050       -3.42255        3.06310
| 17> H          2.62184       -1.43789       -0.05313
| 18> H          4.02069       -0.60826        0.58562
| 19> H          2.58975       -0.79418        1.57097
| 20> *
| 21>
| 22> %MaxCore 64000
| 23>
| 24> %pal nprocs 18
| 25> end
| 26>
| 27> %scf
| 28>   MaxIter 150
| 29> end
| 30>
| 31>
| 32>                          ****END OF INPUT****

CARTESIAN COORDINATES (ANGSTROEM)
---------------------------------
  C      4.602950   -2.440100    2.634780
  C      3.860850   -1.591570    3.622890
  N      2.756500   -2.046160    4.166330
  C      4.254330   -0.362910    3.860460
  H      3.565260    0.310990    4.168980
  H      5.054290   -0.016060    3.337840
  H      2.439700   -2.973890    3.897400
  H      2.066870   -1.412530    4.549810
  C      3.744690   -2.580560    1.361880
  C      3.203720   -1.256000    0.826210
  H      2.898940   -3.239290    1.583070
  H      4.334960   -3.095520    0.600190
  H      5.561560   -1.971350    2.407080
  H      4.810500   -3.422550    3.063100
  H      2.621840   -1.437890   -0.053130
  H      4.020690   -0.608260    0.585620
  H      2.589750   -0.794180    1.570970

 Total Charge           Charge          ....    0
 Multiplicity           Mult            ....    1
 Number of Electrons    NEL             ....   48
 Basis Dimension        Dim             ....  252

ORBITAL ENERGIES
----------------

  NO   OCC          E(Eh)            E(eV)
   0   2.0000     -14.421114      -392.4185
   1   2.0000     -10.293722      -280.1064
   2   2.0000     -10.274790      -279.5912
   3   2.0000     -10.274613      -279.5864
   4   2.0000     -10.251364      -278.9538
   5   2.0000     -10.200379      -277.5664
   6   2.0000      -1.050844       -28.5949
   7   2.0000      -0.911819       -24.8119
   8   2.0000      -0.848317       -23.0839
   9   2.0000      -0.799723       -21.7616
  10   2.0000      -0.708767       -19.2865
  11   2.0000      -0.672252       -18.2929
  12   2.0000      -0.627667       -17.0797
  13   2.0000      -0.573250       -15.5989
  14   2.0000      -0.559141       -15.2150
  15   2.0000      -0.547494       -14.8981
  16   2.0000      -0.486901       -13.2493
  17   2.0000      -0.486467       -13.2374
  18   2.0000      -0.472167       -12.8483
  19   2.0000      -0.458581       -12.4786
  20   2.0000      -0.426749       -11.6124
  21   2.0000      -0.423594       -11.5266
  22   2.0000      -0.412962       -11.2373
  23   2.0000      -0.279778        -7.6132
  24   0.0000       0.101947         2.7741
  25   0.0000       0.116425         3.1681
  26   0.0000       0.143784         3.9126
  27   0.0000       0.152624         4.1531
  28   0.0000       0.164856         4.4860

MULLIKEN ATOMIC CHARGES
-----------------------
   0 C :   -0.229554
   1 C :    0.178970
   2 N :   -0.483331
   3 C :   -0.373920
   4 H :    0.082993
   5 H :    0.087416
   6 H :    0.237978
   7 H :    0.242992
   8 C :   -0.187756
   9 C :   -0.328932
  10 H :    0.086371
  11 H :    0.106264
  12 H :    0.118928
  13 H :    0.115754
  14 H :    0.115103
  15 H :    0.108812
  16 H :    0.121913
Sum of atomic charges:    0.0000000

LOEWDIN ATOMIC CHARGES
----------------------
   0 C :   -0.214675
   1 C :   -0.376738
   2 N :    0.003092
   3 C :   -0.274945
   4 H :    0.098949
   5 H :    0.105282
   6 H :    0.171925
   7 H :    0.174494
   8 C :   -0.285025
   9 C :   -0.297905
  10 H :    0.127351
  11 H :    0.132246
  12 H :    0.147914
  13 H :    0.137421
  14 H :    0.113488
  15 H :    0.117252
  16 H :    0.119877

  Mayer bond orders larger than 0.100000
B(  0-C ,  1-C ) :   0.9453 B(  0-C ,  8-C ) :   0.9524 B(  0-C , 12-H ) :   0.9871
B(  0-C , 13-H ) :   0.9835 B(  1-C ,  2-N ) :   1.1454 B(  1-C ,  3-C ) :   1.7875
B(  2-N ,  6-H ) :   0.9282 B(  2-N ,  7-H ) :   0.9167 B(  3-C ,  4-H ) :   0.9904
B(  3-C ,  5-H ) :   1.0014 B(  8-C ,  9-C ) :   0.9709 B(  8-C , 10-H ) :   0.9807
B(  8-C , 11-H ) :   0.9762 B(  9-C , 14-H ) :   0.9776 B(  9-C , 15-H ) :   0.9789
B(  9-C , 16-H ) :   0.9779

Dispersion correction           -0.004912654
FINAL SINGLE POINT ENERGY      -251.895668037978

DIPOLE MOMENT
-------------
                                X             Y             Z
Electronic contribution:      0.06097      -0.74970       3.67947
Nuclear contribution   :     -0.70193       0.22667      -3.99866
                        -----------------------------------------
Total Dipole Moment    :     -0.64095      -0.52303      -0.31919
                        -----------------------------------------
Magnitude (a.u.)       :      0.88671
Magnitude (Debye)      :      2.25385

Rotational constants in cm-1:     0.170665     0.086587     0.081284
Rotational constants in MHz :  5116.404877  2595.819690  2436.831753

                             ****ORCA TERMINATED NORMALLY****
TOTAL RUN TIME: 0 days 0 hours 0 minutes 24 seconds 199 msec
