                         Program Version 5.0.0 -  RELEASE  -
|  1> !wB97X-D3 RIJCOSX def2-TZVP def2/J TightSCF xyzfile
|  2>
|  3> *xyzfile 0 1 D1.xyz
|  4>
|  5> %MaxCore 64000
|  6>
|  7> %pal nprocs 18
|  8> end
|  9>
| 10> %scf
| 11>   MaxIter 150
| 12> end
| 13>
| 14>
| 15>                          ****END OF INPUT****

CARTESIAN COORDINATES (ANGSTROEM)
---------------------------------
  C      4.602954   -2.440100    2.634780
  C     -0.914947    0.615112    2.505538
  C     -0.059146    1.503524    3.410578
  H      0.365364    2.344315    2.861161
  H     -0.692261    1.920207    4.198985
  C      1.083027    0.749640    4.085705
  C      3.860851   -1.591565    3.622893
  C      2.756502   -2.046159    4.166333
  N      4.254325   -0.362905    3.860455
  H      3.565256    0.310994    4.168983
  H      5.054292   -0.016059    3.337838
  H      2.439696   -2.973894    3.897395
  H      2.066869   -1.412532    4.549813
  F      2.228167    1.263475    4.019826
  O      0.810034   -0.345411    4.636269
  C      3.744685   -2.580557    1.361882
  C      0.772139    0.636882    0.562129
  C     -0.130740   -0.193985    1.470763
  H     -0.840563   -0.760165    0.856377
  H      0.466691   -0.938942    2.006959
  H     -1.647961    1.245963    1.991076
  H     -1.478180   -0.081046    3.130424
  C      3.203721   -1.256004    0.826211
  H      2.898939   -3.239289    1.583074
  H      4.334962   -3.095523    0.600188
  C      2.107815   -1.442385   -0.216865
  H      2.786775   -0.672760    1.650711
  H      4.021008   -0.652993    0.414046
  C      1.390662   -0.145912   -0.602422
  H      1.372179   -2.152184    0.176151
  H      2.523302   -1.906787   -1.117115
  H      1.561361    1.100094    1.161831
  H      0.195516    1.468325    0.142758
  H      0.602893   -0.398214   -1.319716
  H      2.087247    0.508272   -1.137335
  H      5.561557   -1.971347    2.407084
  H      4.810498   -3.422552    3.063099

 Total Charge           Charge          ....    0
 Multiplicity           Mult            ....    1
 Number of Electrons    NEL             ....  118
 Basis Dimension        Dim             ....  597

ORBITAL ENERGIES
----------------

  NO   OCC          E(Eh)            E(eV)
   0   2.0000     -24.881277      -677.0540
   1   2.0000     -19.248405      -523.7757
   2   2.0000     -14.396289      -391.7429
   3   2.0000     -10.470447      -284.9153
   4   2.0000     -10.312910      -280.6285
   5   2.0000     -10.291024      -280.0330
   6   2.0000     -10.275548      -279.6119
   7   2.0000     -10.275240      -279.6035
   8   2.0000     -10.271568      -279.5036
   9   2.0000     -10.270562      -279.4762
  10   2.0000     -10.264119      -279.3009
  11   2.0000     -10.262414      -279.2545
  12   2.0000     -10.262092      -279.2457
  13   2.0000     -10.260089      -279.1912
  14   2.0000     -10.166748      -276.6513
  15   2.0000      -1.464220       -39.8434
  16   2.0000      -1.168361       -31.7927
  17   2.0000      -1.032454       -28.0945
  18   2.0000      -0.949551       -25.8386
  19   2.0000      -0.923884       -25.1402
  20   2.0000      -0.898084       -24.4381
  21   2.0000      -0.860092       -23.4043
  22   2.0000      -0.834215       -22.7001
  23   2.0000      -0.803766       -21.8716
  24   2.0000      -0.788851       -21.4657
  25   2.0000      -0.759737       -20.6735
  26   2.0000      -0.723157       -19.6781
  27   2.0000      -0.700490       -19.0613
  28   2.0000      -0.681826       -18.5534
  29   2.0000      -0.674005       -18.3406
  30   2.0000      -0.661130       -17.9903
  31   2.0000      -0.644155       -17.5284
  32   2.0000      -0.630715       -17.1626
  33   2.0000      -0.600269       -16.3342
  34   2.0000      -0.585549       -15.9336
  35   2.0000      -0.582011       -15.8373
  36   2.0000      -0.571932       -15.5630
  37   2.0000      -0.552606       -15.0372
  38   2.0000      -0.544650       -14.8207
  39   2.0000      -0.527058       -14.3420
  40   2.0000      -0.523798       -14.2533
  41   2.0000      -0.506865       -13.7925
  42   2.0000      -0.501874       -13.6567
  43   2.0000      -0.487715       -13.2714
  44   2.0000      -0.483606       -13.1596
  45   2.0000      -0.468590       -12.7510
  46   2.0000      -0.464760       -12.6468
  47   2.0000      -0.456267       -12.4157
  48   2.0000      -0.446959       -12.1624
  49   2.0000      -0.438344       -11.9279
  50   2.0000      -0.436128       -11.8677
  51   2.0000      -0.427752       -11.6397
  52   2.0000      -0.417149       -11.3512
  53   2.0000      -0.412843       -11.2340
  54   2.0000      -0.404186       -10.9985
  55   2.0000      -0.401112       -10.9148
  56   2.0000      -0.394479       -10.7343
  57   2.0000      -0.368264       -10.0210
  58   2.0000      -0.255852        -6.9621
  59   0.0000       0.039290         1.0691
  60   0.0000       0.102831         2.7982
  61   0.0000       0.119761         3.2589
  62   0.0000       0.122817         3.3420
  63   0.0000       0.128546         3.4979

MULLIKEN ATOMIC CHARGES
-----------------------
   0 C :   -0.207228
   1 C :   -0.177632
   2 C :   -0.228698
   3 H :    0.137430
   4 H :    0.150510
   5 C :    0.410372
   6 C :    0.168277
   7 C :   -0.436292
   8 N :   -0.464057
   9 H :    0.228154
  10 H :    0.224225
  11 H :    0.078304
  12 H :    0.144664
  13 F :   -0.136906
  14 O :   -0.339070
  15 C :   -0.172272
  16 C :   -0.262108
  17 C :   -0.274907
  18 H :    0.114531
  19 H :    0.155805
  20 H :    0.116043
  21 H :    0.129241
  22 C :   -0.231352
  23 H :    0.105145
  24 H :    0.094734
  25 C :   -0.185908
  26 H :    0.069769
  27 H :    0.089947
  28 C :   -0.170763
  29 H :    0.111752
  30 H :    0.105309
  31 H :    0.115296
  32 H :    0.109273
  33 H :    0.108140
  34 H :    0.100793
  35 H :    0.091417
  36 H :    0.128060
Sum of atomic charges:    0.0000000

LOEWDIN ATOMIC CHARGES
----------------------
   0 C :   -0.213716
   1 C :   -0.255214
   2 C :   -0.232244
   3 H :    0.143364
   4 H :    0.159911
   5 C :   -0.475381
   6 C :   -0.391448
   7 C :   -0.275378
   8 N :   -0.010229
   9 H :    0.152828
  10 H :    0.164313
  11 H :    0.102466
  12 H :    0.091096
  13 F :    0.331220
  14 O :    0.101683
  15 C :   -0.251121
  16 C :   -0.273232
  17 C :   -0.268525
  18 H :    0.140797
  19 H :    0.144720
  20 H :    0.140639
  21 H :    0.146461
  22 C :   -0.265673
  23 H :    0.138193
  24 H :    0.130723
  25 C :   -0.268880
  26 H :    0.138763
  27 H :    0.131662
  28 C :   -0.266082
  29 H :    0.136960
  30 H :    0.134833
  31 H :    0.129788
  32 H :    0.136080
  33 H :    0.136398
  34 H :    0.135242
  35 H :    0.131287
  36 H :    0.147698

  Mayer bond orders larger than 0.100000
B(  0-C ,  6-C ) :   0.9202 B(  0-C , 15-C ) :   0.9689 B(  0-C , 35-H ) :   0.9908
B(  0-C , 36-H ) :   0.9841 B(  1-C ,  2-C ) :   0.9579 B(  1-C , 17-C ) :   0.9857
B(  1-C , 20-H ) :   0.9747 B(  1-C , 21-H ) :   0.9691 B(  2-C ,  3-H ) :   0.9689
B(  2-C ,  4-H ) :   0.9430 B(  2-C ,  5-C ) :   0.9840 B(  5-C , 13-F ) :   1.0694
B(  5-C , 14-O ) :   1.9860 B(  6-C ,  7-C ) :   1.7569 B(  6-C ,  8-N ) :   1.1517
B(  7-C , 11-H ) :   1.0114 B(  7-C , 12-H ) :   0.9817 B(  8-N ,  9-H ) :   0.9043
B(  8-N , 10-H ) :   0.9312 B( 15-C , 22-C ) :   0.9741 B( 15-C , 23-H ) :   0.9792
B( 15-C , 24-H ) :   0.9751 B( 16-C , 17-C ) :   0.9179 B( 16-C , 28-C ) :   0.9862
B( 16-C , 31-H ) :   0.9783 B( 16-C , 32-H ) :   0.9728 B( 17-C , 18-H ) :   0.9730
B( 17-C , 19-H ) :   0.9733 B( 22-C , 25-C ) :   0.9756 B( 22-C , 26-H ) :   0.9836
B( 22-C , 27-H ) :   0.9656 B( 25-C , 28-C ) :   0.9668 B( 25-C , 29-H ) :   0.9807
B( 25-C , 30-H ) :   0.9767 B( 28-C , 33-H ) :   0.9819 B( 28-C , 34-H ) :   0.9834

Dispersion correction           -0.019722795
FINAL SINGLE POINT ENERGY      -700.376877626278

DIPOLE MOMENT
-------------
                                X             Y             Z
Electronic contribution:      1.20009       7.40845      14.94614
Nuclear contribution   :     -1.66567      -5.90236     -15.95042
                        -----------------------------------------
Total Dipole Moment    :     -0.46558       1.50608      -1.00428
                        -----------------------------------------
Magnitude (a.u.)       :      1.86913
Magnitude (Debye)      :      4.75094

Rotational constants in cm-1:     0.021600     0.017292     0.011381
Rotational constants in MHz :   647.565282   518.410024   341.193038

                             ****ORCA TERMINATED NORMALLY****
TOTAL RUN TIME: 0 days 0 hours 2 minutes 28 seconds 349 msec
