                         Program Version 5.0.0 -  RELEASE  -
|  1> !wB97X-D3 RIJCOSX def2-TZVP def2/J TightSCF xyzfile
|  2>
|  3> *xyzfile 0 1 D2.xyz
|  4>
|  5> %MaxCore 64000
|  6>
|  7> %pal nprocs 18
|  8> end
|  9>
| 10> %scf
| 11>   MaxIter 150
| 12> end
| 13>
| 14>
| 15>                          ****END OF INPUT****

CARTESIAN COORDINATES (ANGSTROEM)
---------------------------------
  C      4.602954   -2.440100    2.634780
  C     -0.914947    0.615112    2.505538
  C     -0.059146    1.503524    3.410578
  H      0.365364    2.344315    2.861161
  H     -0.692261    1.920207    4.198985
  C      1.083027    0.749640    4.085705
  C      3.860851   -1.591565    3.622893
  N      2.756502   -2.046159    4.166333
  C      4.254325   -0.362905    3.860455
  H      3.565256    0.310994    4.168983
  H      5.054292   -0.016059    3.337838
  H      2.439696   -2.973894    3.897395
  H      2.066869   -1.412532    4.549813
  F      2.228167    1.263475    4.019826
  O      0.810034   -0.345411    4.636269
  C      3.744685   -2.580557    1.361882
  C      0.772139    0.636882    0.562129
  C     -0.130740   -0.193985    1.470763
  H     -0.840563   -0.760165    0.856377
  H      0.466691   -0.938942    2.006959
  H     -1.647961    1.245963    1.991076
  H     -1.478180   -0.081046    3.130424
  C      3.203721   -1.256004    0.826211
  H      2.898939   -3.239289    1.583074
  H      4.334962   -3.095523    0.600188
  C      2.107815   -1.442385   -0.216865
  H      2.786775   -0.672760    1.650711
  H      4.021008   -0.652993    0.414046
  C      1.390662   -0.145912   -0.602422
  H      1.372179   -2.152184    0.176151
  H      2.523302   -1.906787   -1.117115
  H      1.561361    1.100094    1.161831
  H      0.195516    1.468325    0.142758
  H      0.602893   -0.398214   -1.319716
  H      2.087247    0.508272   -1.137335
  H      5.561557   -1.971347    2.407084
  H      4.810498   -3.422552    3.063099

 Total Charge           Charge          ....    0
 Multiplicity           Mult            ....    1
 Number of Electrons    NEL             ....  118
 Basis Dimension        Dim             ....  597

ORBITAL ENERGIES
----------------

  NO   OCC          E(Eh)            E(eV)
   0   2.0000     -24.871706      -676.7935
   1   2.0000     -19.259613      -524.0807
   2   2.0000     -14.385057      -391.4373
   3   2.0000     -10.478053      -285.1223
   4   2.0000     -10.315880      -280.7094
   5   2.0000     -10.294681      -280.1325
   6   2.0000     -10.279224      -279.7119
   7   2.0000     -10.276437      -279.6361
   8   2.0000     -10.274501      -279.5834
   9   2.0000     -10.271091      -279.4906
  10   2.0000     -10.265995      -279.3519
  11   2.0000     -10.264682      -279.3162
  12   2.0000     -10.261533      -279.2305
  13   2.0000     -10.258485      -279.1476
  14   2.0000     -10.175439      -276.8878
  15   2.0000      -1.456138       -39.6235
  16   2.0000      -1.178886       -32.0791
  17   2.0000      -1.025265       -27.8989
  18   2.0000      -0.952400       -25.9161
  19   2.0000      -0.924653       -25.1611
  20   2.0000      -0.897499       -24.4222
  21   2.0000      -0.861780       -23.4502
  22   2.0000      -0.830419       -22.5968
  23   2.0000      -0.815731       -22.1972
  24   2.0000      -0.781661       -21.2701
  25   2.0000      -0.761164       -20.7123
  26   2.0000      -0.722495       -19.6601
  27   2.0000      -0.696272       -18.9465
  28   2.0000      -0.675727       -18.3875
  29   2.0000      -0.670538       -18.2463
  30   2.0000      -0.661475       -17.9996
  31   2.0000      -0.655179       -17.8283
  32   2.0000      -0.631686       -17.1890
  33   2.0000      -0.601742       -16.3742
  34   2.0000      -0.589225       -16.0336
  35   2.0000      -0.581573       -15.8254
  36   2.0000      -0.564283       -15.3549
  37   2.0000      -0.555027       -15.1030
  38   2.0000      -0.543694       -14.7947
  39   2.0000      -0.534382       -14.5413
  40   2.0000      -0.524116       -14.2619
  41   2.0000      -0.508913       -13.8482
  42   2.0000      -0.504962       -13.7407
  43   2.0000      -0.492478       -13.4010
  44   2.0000      -0.478207       -13.0127
  45   2.0000      -0.470624       -12.8063
  46   2.0000      -0.465368       -12.6633
  47   2.0000      -0.462177       -12.5765
  48   2.0000      -0.447504       -12.1772
  49   2.0000      -0.443234       -12.0610
  50   2.0000      -0.436973       -11.8906
  51   2.0000      -0.423588       -11.5264
  52   2.0000      -0.416967       -11.3463
  53   2.0000      -0.413470       -11.2511
  54   2.0000      -0.407017       -11.0755
  55   2.0000      -0.404484       -11.0066
  56   2.0000      -0.395036       -10.7495
  57   2.0000      -0.385415       -10.4877
  58   2.0000      -0.257442        -7.0053
  59   0.0000       0.033890         0.9222
  60   0.0000       0.102538         2.7902
  61   0.0000       0.114025         3.1028
  62   0.0000       0.124804         3.3961
  63   0.0000       0.128608         3.4996

MULLIKEN ATOMIC CHARGES
-----------------------
   0 C :   -0.206595
   1 C :   -0.178318
   2 C :   -0.228153
   3 H :    0.144252
   4 H :    0.151669
   5 C :    0.427638
   6 C :    0.158388
   7 N :   -0.462721
   8 C :   -0.393592
   9 H :    0.077620
  10 H :    0.079099
  11 H :    0.219041
  12 H :    0.255527
  13 F :   -0.094389
  14 O :   -0.392801
  15 C :   -0.208230
  16 C :   -0.263675
  17 C :   -0.270784
  18 H :    0.116173
  19 H :    0.132336
  20 H :    0.118201
  21 H :    0.127940
  22 C :   -0.221085
  23 H :    0.097585
  24 H :    0.104184
  25 C :   -0.176403
  26 H :    0.076631
  27 H :    0.096227
  28 C :   -0.171993
  29 H :    0.105649
  30 H :    0.105394
  31 H :    0.126475
  32 H :    0.109684
  33 H :    0.107271
  34 H :    0.103521
  35 H :    0.112144
  36 H :    0.116088
Sum of atomic charges:   -0.0000000

LOEWDIN ATOMIC CHARGES
----------------------
   0 C :   -0.212705
   1 C :   -0.255805
   2 C :   -0.229224
   3 H :    0.146156
   4 H :    0.160741
   5 C :   -0.464246
   6 C :   -0.385298
   7 N :    0.005287
   8 C :   -0.297570
   9 H :    0.088513
  10 H :    0.100972
  11 H :    0.165287
  12 H :    0.148035
  13 F :    0.349095
  14 O :    0.076507
  15 C :   -0.257572
  16 C :   -0.272573
  17 C :   -0.269581
  18 H :    0.140861
  19 H :    0.139356
  20 H :    0.141512
  21 H :    0.145451
  22 C :   -0.261664
  23 H :    0.130768
  24 H :    0.134010
  25 C :   -0.270724
  26 H :    0.140752
  27 H :    0.136132
  28 C :   -0.265608
  29 H :    0.134453
  30 H :    0.134616
  31 H :    0.132680
  32 H :    0.136396
  33 H :    0.136047
  34 H :    0.136345
  35 H :    0.145911
  36 H :    0.136688

  Mayer bond orders larger than 0.100000
B(  0-C ,  6-C ) :   0.9460 B(  0-C , 15-C ) :   0.9524 B(  0-C , 35-H ) :   0.9867
B(  0-C , 36-H ) :   0.9885 B(  1-C ,  2-C ) :   0.9550 B(  1-C , 17-C ) :   0.9851
B(  1-C , 20-H ) :   0.9742 B(  1-C , 21-H ) :   0.9709 B(  2-C ,  3-H ) :   0.9696
B(  2-C ,  4-H ) :   0.9411 B(  2-C ,  5-C ) :   0.9849 B(  5-C , 13-F ) :   1.1388
B(  5-C , 14-O ) :   1.9128 B(  6-C ,  7-N ) :   1.1913 B(  6-C ,  8-C ) :   1.7578
B(  7-N , 11-H ) :   0.9342 B(  7-N , 12-H ) :   0.8554 B(  8-C ,  9-H ) :   0.9996
B(  8-C , 10-H ) :   1.0058 B( 12-H , 14-O ) :   0.1017 B( 15-C , 22-C ) :   0.9535
B( 15-C , 23-H ) :   0.9954 B( 15-C , 24-H ) :   0.9720 B( 16-C , 17-C ) :   0.9192
B( 16-C , 28-C ) :   0.9867 B( 16-C , 31-H ) :   0.9761 B( 16-C , 32-H ) :   0.9724
B( 17-C , 18-H ) :   0.9728 B( 17-C , 19-H ) :   0.9759 B( 22-C , 25-C ) :   0.9609
B( 22-C , 26-H ) :   0.9979 B( 22-C , 27-H ) :   0.9660 B( 25-C , 28-C ) :   0.9680
B( 25-C , 29-H ) :   0.9811 B( 25-C , 30-H ) :   0.9776 B( 28-C , 33-H ) :   0.9819
B( 28-C , 34-H ) :   0.9827

Dispersion correction           -0.019723586
FINAL SINGLE POINT ENERGY      -700.387156782227

DIPOLE MOMENT
-------------
                                X             Y             Z
Electronic contribution:      0.05879       6.24231      15.12014
Nuclear contribution   :     -1.39991      -5.60370     -16.00470
                        -----------------------------------------
Total Dipole Moment    :     -1.34112       0.63860      -0.88455
                        -----------------------------------------
Magnitude (a.u.)       :      1.72883
Magnitude (Debye)      :      4.39433

Rotational constants in cm-1:     0.021622     0.017313     0.011402
Rotational constants in MHz :   648.226014   519.043632   341.814105

                             ****ORCA TERMINATED NORMALLY****
TOTAL RUN TIME: 0 days 0 hours 2 minutes 12 seconds 808 msec
