                         Program Version 5.0.0 -  RELEASE  -
|  1> !LC-BLYP RIJCOSX def2-SVP def2/J TightSCF
|  2> *xyz -1 1
|  3> C          4.90646       -3.10282       -5.95484
|  4> C          3.51177       -2.80621       -6.49228
|  5> H          2.73604       -3.37345       -5.97374
|  6> H          3.44490       -3.04083       -7.55528
|  7> S          3.00462       -1.09621       -6.38926
|  8> O          4.12886       -0.32965       -6.95372
|  9> O          1.78128       -1.00078       -7.13640
| 10> O          2.85155       -0.78368       -4.95679
| 11> H          5.62703       -2.52424       -6.49422
| 12> H          5.12164       -4.14387       -6.07654
| 13> H          4.95004       -2.84862       -4.91639
| 14> *
| 15>
| 16> %MaxCore 64000
| 17>
| 18> %pal nprocs 4
| 19> end
| 20>
| 21> %scf
| 22>   MaxIter 150
| 23> end
| 24>
| 25>
| 26>                          ****END OF INPUT****

CARTESIAN COORDINATES (ANGSTROEM)
---------------------------------
  C      4.906460   -3.102820   -5.954840
  C      3.511770   -2.806210   -6.492280
  H      2.736040   -3.373450   -5.973740
  H      3.444900   -3.040830   -7.555280
  S      3.004620   -1.096210   -6.389260
  O      4.128860   -0.329650   -6.953720
  O      1.781280   -1.000780   -7.136400
  O      2.851550   -0.783680   -4.956790
  H      5.627030   -2.524240   -6.494220
  H      5.121640   -4.143870   -6.076540
  H      4.950040   -2.848620   -4.916390

 Total Charge           Charge          ....   -1
 Multiplicity           Mult            ....    1
 Number of Electrons    NEL             ....   58
 Basis Dimension        Dim             ....  113

ORBITAL ENERGIES
----------------

  NO   OCC          E(Eh)            E(eV)
   0   2.0000     -88.261128     -2401.7074
   1   2.0000     -18.696963      -508.7702
   2   2.0000     -18.684184      -508.4225
   3   2.0000     -18.682790      -508.3846
   4   2.0000      -9.934862      -270.3413
   5   2.0000      -9.931122      -270.2396
   6   2.0000      -7.817291      -212.7193
   7   2.0000      -5.851044      -159.2150
   8   2.0000      -5.851002      -159.2139
   9   2.0000      -5.850908      -159.2113
  10   2.0000      -0.992459       -27.0062
  11   2.0000      -0.843572       -22.9548
  12   2.0000      -0.821949       -22.3664
  13   2.0000      -0.727527       -19.7970
  14   2.0000      -0.601704       -16.3732
  15   2.0000      -0.463376       -12.6091
  16   2.0000      -0.414900       -11.2900
  17   2.0000      -0.395167       -10.7530
  18   2.0000      -0.362125        -9.8539
  19   2.0000      -0.338518        -9.2115
  20   2.0000      -0.333812        -9.0835
  21   2.0000      -0.311811        -8.4848
  22   2.0000      -0.296206        -8.0602
  23   2.0000      -0.214946        -5.8490
  24   2.0000      -0.213408        -5.8071
  25   2.0000      -0.178947        -4.8694
  26   2.0000      -0.171402        -4.6641
  27   2.0000      -0.163755        -4.4560
  28   2.0000      -0.123170        -3.3516
  29   0.0000       0.274611         7.4725
  30   0.0000       0.326533         8.8854
  31   0.0000       0.334716         9.1081
  32   0.0000       0.342342         9.3156
  33   0.0000       0.372302        10.1308

MULLIKEN ATOMIC CHARGES
-----------------------
   0 C :    0.042356
   1 C :   -0.090474
   2 H :   -0.007510
   3 H :   -0.007991
   4 S :    0.739789
   5 O :   -0.560639
   6 O :   -0.518762
   7 O :   -0.562760
   8 H :    0.004091
   9 H :   -0.038839
  10 H :    0.000739
Sum of atomic charges:   -1.0000000

LOEWDIN ATOMIC CHARGES
----------------------
   0 C :   -0.085480
   1 C :   -0.197095
   2 H :    0.009777
   3 H :    0.009891
   4 S :    1.073957
   5 O :   -0.630499
   6 O :   -0.591938
   7 O :   -0.634399
   8 H :    0.020522
   9 H :    0.005200
  10 H :    0.020065

  Mayer bond orders larger than 0.100000
B(  0-C ,  1-C ) :   1.0643 B(  0-C ,  8-H ) :   0.9610 B(  0-C ,  9-H ) :   0.9596
B(  0-C , 10-H ) :   0.9638 B(  1-C ,  2-H ) :   0.9402 B(  1-C ,  3-H ) :   0.9394
B(  1-C ,  4-S ) :   0.8980 B(  4-S ,  5-O ) :   1.6259 B(  4-S ,  6-O ) :   1.6793
B(  4-S ,  7-O ) :   1.6326

FINAL SINGLE POINT ENERGY      -701.871404393310

DIPOLE MOMENT
-------------
                                X             Y             Z
Electronic contribution:     -4.43938       6.52628      -0.67005
Nuclear contribution   :      5.05690      -8.21735       0.57889
                        -----------------------------------------
Total Dipole Moment    :      0.61752      -1.69108      -0.09116
                        -----------------------------------------
Magnitude (a.u.)       :      1.80261
Magnitude (Debye)      :      4.58186

Rotational constants in cm-1:     0.162547     0.083494     0.081672
Rotational constants in MHz :  4873.033504  2503.090885  2448.458543

                             ****ORCA TERMINATED NORMALLY****
TOTAL RUN TIME: 0 days 0 hours 0 minutes 10 seconds 119 msec
