                         Program Version 5.0.0 -  RELEASE  -
|  1> !LC-BLYP RIJCOSX def2-SVP def2/J TightSCF
|  2> *xyz 1 1
|  3> C          4.49059        1.15590       -2.46929
|  4> N          4.30539        1.22276       -3.90832
|  5> C          4.63192        2.24637       -4.67096
|  6> N          4.54169        2.14399       -5.98714
|  7> N          5.08409        3.39358       -4.11855
|  8> H          4.92067        3.57050       -3.13587
|  9> H          5.25465        4.19739       -4.70696
| 10> H          3.82453        0.44911       -4.35093
| 11> H          4.34337        1.24932       -6.41665
| 12> H          4.67671        2.95662       -6.57411
| 13> C          5.94213        0.93950       -2.03689
| 14> H          3.86431        0.32853       -2.13661
| 15> H          4.07623        2.04999       -1.98901
| 16> H          6.32982        0.06401       -2.51451
| 17> H          5.98308        0.81426       -0.97504
| 18> H          6.52865        1.78889       -2.31873
| 19> *
| 20>
| 21> %MaxCore 64000
| 22>
| 23> %pal nprocs 4
| 24> end
| 25>
| 26> %scf
| 27>   MaxIter 150
| 28> end
| 29>
| 30>
| 31>                          ****END OF INPUT****

CARTESIAN COORDINATES (ANGSTROEM)
---------------------------------
  C      4.490590    1.155900   -2.469290
  N      4.305390    1.222760   -3.908320
  C      4.631920    2.246370   -4.670960
  N      4.541690    2.143990   -5.987140
  N      5.084090    3.393580   -4.118550
  H      4.920670    3.570500   -3.135870
  H      5.254650    4.197390   -4.706960
  H      3.824530    0.449110   -4.350930
  H      4.343370    1.249320   -6.416650
  H      4.676710    2.956620   -6.574110
  C      5.942130    0.939500   -2.036890
  H      3.864310    0.328530   -2.136610
  H      4.076230    2.049990   -1.989010
  H      6.329820    0.064010   -2.514510
  H      5.983080    0.814260   -0.975040
  H      6.528650    1.788890   -2.318730

 Total Charge           Charge          ....    1
 Multiplicity           Mult            ....    1
 Number of Electrons    NEL             ....   48
 Basis Dimension        Dim             ....  134

ORBITAL ENERGIES
----------------

  NO   OCC          E(Eh)            E(eV)
   0   2.0000     -14.408749      -392.0820
   1   2.0000     -14.407533      -392.0489
   2   2.0000     -14.405318      -391.9886
   3   2.0000     -10.419844      -283.5384
   4   2.0000     -10.288973      -279.9772
   5   2.0000     -10.217223      -278.0248
   6   2.0000      -1.306498       -35.5516
   7   2.0000      -1.196401       -32.5557
   8   2.0000      -1.179470       -32.0950
   9   2.0000      -1.029765       -28.0213
  10   2.0000      -0.942924       -25.6583
  11   2.0000      -0.902003       -24.5447
  12   2.0000      -0.888980       -24.1904
  13   2.0000      -0.842169       -22.9166
  14   2.0000      -0.791909       -21.5489
  15   2.0000      -0.787765       -21.4362
  16   2.0000      -0.763059       -20.7639
  17   2.0000      -0.729045       -19.8383
  18   2.0000      -0.703847       -19.1526
  19   2.0000      -0.657275       -17.8854
  20   2.0000      -0.626215       -17.0402
  21   2.0000      -0.605341       -16.4722
  22   2.0000      -0.570583       -15.5264
  23   2.0000      -0.543245       -14.7825
  24   0.0000      -0.071877        -1.9559
  25   0.0000      -0.065327        -1.7776
  26   0.0000      -0.031101        -0.8463
  27   0.0000      -0.023290        -0.6338
  28   0.0000      -0.000492        -0.0134

MULLIKEN ATOMIC CHARGES
-----------------------
   0 C :   -0.031547
   1 N :   -0.035443
   2 C :   -0.092134
   3 N :    0.033231
   4 N :   -0.004949
   5 H :    0.168460
   6 H :    0.166640
   7 H :    0.166066
   8 H :    0.172042
   9 H :    0.172478
  10 C :    0.022850
  11 H :    0.067847
  12 H :    0.057517
  13 H :    0.045869
  14 H :    0.067373
  15 H :    0.023702
Sum of atomic charges:    1.0000000

LOEWDIN ATOMIC CHARGES
----------------------
   0 C :    0.021334
   1 N :    0.041065
   2 C :    0.134475
   3 N :    0.051812
   4 N :    0.037774
   5 H :    0.108415
   6 H :    0.111621
   7 H :    0.111907
   8 H :    0.114895
   9 H :    0.114698
  10 C :   -0.061144
  11 H :    0.054583
  12 H :    0.035722
  13 H :    0.040748
  14 H :    0.053320
  15 H :    0.028775

  Mayer bond orders larger than 0.100000
B(  0-C ,  1-N ) :   0.9544 B(  0-C , 10-C ) :   1.0989 B(  0-C , 11-H ) :   0.9461
B(  0-C , 12-H ) :   0.9530 B(  1-N ,  2-C ) :   1.3984 B(  1-N ,  7-H ) :   0.9103
B(  2-C ,  3-N ) :   1.4162 B(  2-C ,  4-N ) :   1.3871 B(  3-N ,  8-H ) :   0.9218
B(  3-N ,  9-H ) :   0.9227 B(  4-N ,  5-H ) :   0.9201 B(  4-N ,  6-H ) :   0.9252
B( 10-C , 13-H ) :   0.9641 B( 10-C , 14-H ) :   0.9614 B( 10-C , 15-H ) :   0.9655

FINAL SINGLE POINT ENERGY      -283.456875168924

DIPOLE MOMENT
-------------
                                X             Y             Z
Electronic contribution:     -1.85020       1.62769      -4.56627
Nuclear contribution   :      1.34333      -1.11039       3.43667
                        -----------------------------------------
Total Dipole Moment    :     -0.50688       0.51729      -1.12961
                        -----------------------------------------
Magnitude (a.u.)       :      1.34184
Magnitude (Debye)      :      3.41068

Rotational constants in cm-1:     0.227161     0.075356     0.065003
Rotational constants in MHz :  6810.114531  2259.122204  1948.738523

                             ****ORCA TERMINATED NORMALLY****
TOTAL RUN TIME: 0 days 0 hours 0 minutes 13 seconds 507 msec
