                         Program Version 5.0.0 -  RELEASE  -
|  1> !LC-BLYP RIJCOSX def2-SVP def2/J TightSCF
|  2> *xyz 0 1
|  3> C          4.90646       -3.10282       -5.95484
|  4> C          3.51177       -2.80621       -6.49228
|  5> H          2.73604       -3.37345       -5.97374
|  6> H          3.44490       -3.04083       -7.55528
|  7> S          3.00462       -1.09621       -6.38926
|  8> F          4.12886       -0.32965       -6.95372
|  9> O          1.78128       -1.00078       -7.13640
| 10> O          2.85155       -0.78368       -4.95679
| 11> H          5.62703       -2.52424       -6.49422
| 12> H          5.12164       -4.14387       -6.07654
| 13> H          4.95004       -2.84862       -4.91639
| 14> *
| 15>
| 16> %MaxCore 64000
| 17>
| 18> %pal nprocs 4
| 19> end
| 20>
| 21> %scf
| 22>   MaxIter 150
| 23> end
| 24>
| 25>
| 26>                          ****END OF INPUT****

CARTESIAN COORDINATES (ANGSTROEM)
---------------------------------
  C      4.906460   -3.102820   -5.954840
  C      3.511770   -2.806210   -6.492280
  H      2.736040   -3.373450   -5.973740
  H      3.444900   -3.040830   -7.555280
  S      3.004620   -1.096210   -6.389260
  F      4.128860   -0.329650   -6.953720
  O      1.781280   -1.000780   -7.136400
  O      2.851550   -0.783680   -4.956790
  H      5.627030   -2.524240   -6.494220
  H      5.121640   -4.143870   -6.076540
  H      4.950040   -2.848620   -4.916390

 Total Charge           Charge          ....    0
 Multiplicity           Mult            ....    1
 Number of Electrons    NEL             ....   58
 Basis Dimension        Dim             ....  113

ORBITAL ENERGIES
----------------

  NO   OCC          E(Eh)            E(eV)
   0   2.0000     -88.534095     -2409.1352
   1   2.0000     -24.557429      -668.2416
   2   2.0000     -18.949502      -515.6422
   3   2.0000     -18.936389      -515.2853
   4   2.0000     -10.142989      -276.0048
   5   2.0000     -10.109010      -275.0801
   6   2.0000      -8.092570      -220.2100
   7   2.0000      -6.130823      -166.8282
   8   2.0000      -6.123982      -166.6420
   9   2.0000      -6.122792      -166.6096
  10   2.0000      -1.419523       -38.6272
  11   2.0000      -1.192138       -32.4397
  12   2.0000      -1.086026       -29.5523
  13   2.0000      -0.931689       -25.3526
  14   2.0000      -0.819903       -22.3107
  15   2.0000      -0.774146       -21.0656
  16   2.0000      -0.684091       -18.6151
  17   2.0000      -0.659692       -17.9511
  18   2.0000      -0.634495       -17.2655
  19   2.0000      -0.597430       -16.2569
  20   2.0000      -0.570983       -15.5372
  21   2.0000      -0.549242       -14.9456
  22   2.0000      -0.525150       -14.2901
  23   2.0000      -0.509171       -13.8552
  24   2.0000      -0.494694       -13.4613
  25   2.0000      -0.471046       -12.8178
  26   2.0000      -0.421310       -11.4644
  27   2.0000      -0.409444       -11.1415
  28   2.0000      -0.392683       -10.6854
  29   0.0000       0.104262         2.8371
  30   0.0000       0.141107         3.8397
  31   0.0000       0.165451         4.5021
  32   0.0000       0.168388         4.5821
  33   0.0000       0.178801         4.8654

MULLIKEN ATOMIC CHARGES
-----------------------
   0 C :    0.007909
   1 C :   -0.136862
   2 H :    0.092944
   3 H :    0.064507
   4 S :    0.830271
   5 F :   -0.165335
   6 O :   -0.381977
   7 O :   -0.427326
   8 H :    0.027361
   9 H :    0.040756
  10 H :    0.047752
Sum of atomic charges:   -0.0000000

LOEWDIN ATOMIC CHARGES
----------------------
   0 C :   -0.074698
   1 C :   -0.160773
   2 H :    0.056975
   3 H :    0.039197
   4 S :    1.134839
   5 F :   -0.134648
   6 O :   -0.463970
   7 O :   -0.506732
   8 H :    0.030042
   9 H :    0.041811
  10 H :    0.037959

  Mayer bond orders larger than 0.100000
B(  0-C ,  1-C ) :   1.0562 B(  0-C ,  8-H ) :   0.9712 B(  0-C ,  9-H ) :   0.9606
B(  0-C , 10-H ) :   0.9680 B(  1-C ,  2-H ) :   0.9344 B(  1-C ,  3-H ) :   0.9331
B(  1-C ,  4-S ) :   0.9276 B(  4-S ,  5-F ) :   1.0214 B(  4-S ,  6-O ) :   1.8283
B(  4-S ,  7-O ) :   1.7863

FINAL SINGLE POINT ENERGY      -726.377783545731

DIPOLE MOMENT
-------------
                                X             Y             Z
Electronic contribution:     -3.02158       8.25222      -1.75956
Nuclear contribution   :      4.18919      -9.36357       1.23251
                        -----------------------------------------
Total Dipole Moment    :      1.16761      -1.11135      -0.52705
                        -----------------------------------------
Magnitude (a.u.)       :      1.69594
Magnitude (Debye)      :      4.31073

Rotational constants in cm-1:     0.153152     0.082513     0.079874
Rotational constants in MHz :  4591.373714  2473.673397  2394.575279

                             ****ORCA TERMINATED NORMALLY****
TOTAL RUN TIME: 0 days 0 hours 0 minutes 9 seconds 810 msec
