                         Program Version 5.0.0 -  RELEASE  -
|  1> !LC-BLYP RIJCOSX def2-SVP def2/J TightSCF
|  2> *xyz 0 1
|  3> C          4.49059        1.15590       -2.46929
|  4> C          4.30539        1.22276       -3.90832
|  5> C          4.63192        2.24637       -4.67096
|  6> N          4.54169        2.14399       -5.98714
|  7> N          5.08409        3.39358       -4.11855
|  8> H          4.92067        3.57050       -3.13587
|  9> H          5.25465        4.19739       -4.70696
| 10> H          3.82453        0.44911       -4.35093
| 11> H          4.34337        1.24932       -6.41665
| 12> H          4.67671        2.95662       -6.57411
| 13> C          5.94213        0.93950       -2.03689
| 14> H          3.86431        0.32853       -2.13661
| 15> H          4.07623        2.04999       -1.98901
| 16> H          6.32982        0.06401       -2.51451
| 17> H          5.98308        0.81426       -0.97504
| 18> H          6.52865        1.78889       -2.31873
| 19> *
| 20>
| 21> %MaxCore 64000
| 22>
| 23> %pal nprocs 4
| 24> end
| 25>
| 26> %scf
| 27>   MaxIter 150
| 28> end
| 29>
| 30>
| 31>                          ****END OF INPUT****

CARTESIAN COORDINATES (ANGSTROEM)
---------------------------------
  C      4.490590    1.155900   -2.469290
  C      4.305390    1.222760   -3.908320
  C      4.631920    2.246370   -4.670960
  N      4.541690    2.143990   -5.987140
  N      5.084090    3.393580   -4.118550
  H      4.920670    3.570500   -3.135870
  H      5.254650    4.197390   -4.706960
  H      3.824530    0.449110   -4.350930
  H      4.343370    1.249320   -6.416650
  H      4.676710    2.956620   -6.574110
  C      5.942130    0.939500   -2.036890
  H      3.864310    0.328530   -2.136610
  H      4.076230    2.049990   -1.989010
  H      6.329820    0.064010   -2.514510
  H      5.983080    0.814260   -0.975040
  H      6.528650    1.788890   -2.318730

 Total Charge           Charge          ....    0
 Multiplicity           Mult            ....    1
 Number of Electrons    NEL             ....   48
 Basis Dimension        Dim             ....  134

ORBITAL ENERGIES
----------------

  NO   OCC          E(Eh)            E(eV)
   0   2.0000     -14.178041      -385.8041
   1   2.0000     -14.175743      -385.7416
   2   2.0000     -10.119876      -275.3758
   3   2.0000     -10.051070      -273.5035
   4   2.0000     -10.042573      -273.2723
   5   2.0000      -9.993847      -271.9464
   6   2.0000      -1.042047       -28.3555
   7   2.0000      -0.951105       -25.8809
   8   2.0000      -0.864630       -23.5278
   9   2.0000      -0.785647       -21.3785
  10   2.0000      -0.710758       -19.3407
  11   2.0000      -0.671984       -18.2856
  12   2.0000      -0.636904       -17.3310
  13   2.0000      -0.601303       -16.3623
  14   2.0000      -0.566049       -15.4030
  15   2.0000      -0.531389       -14.4598
  16   2.0000      -0.518016       -14.0959
  17   2.0000      -0.483347       -13.1525
  18   2.0000      -0.479234       -13.0406
  19   2.0000      -0.442861       -12.0509
  20   2.0000      -0.417273       -11.3546
  21   2.0000      -0.404429       -11.0051
  22   2.0000      -0.352679        -9.5969
  23   2.0000      -0.240297        -6.5388
  24   0.0000       0.117254         3.1906
  25   0.0000       0.147928         4.0253
  26   0.0000       0.164249         4.4694
  27   0.0000       0.181062         4.9270
  28   0.0000       0.185656         5.0520

MULLIKEN ATOMIC CHARGES
-----------------------
   0 C :    0.045308
   1 C :   -0.177477
   2 C :   -0.107010
   3 N :   -0.006008
   4 N :   -0.036348
   5 H :    0.115263
   6 H :    0.094674
   7 H :   -0.116540
   8 H :    0.114873
   9 H :    0.092947
  10 C :    0.059857
  11 H :   -0.022124
  12 H :   -0.029780
  13 H :   -0.005371
  14 H :   -0.010635
  15 H :   -0.011630
Sum of atomic charges:   -0.0000000

LOEWDIN ATOMIC CHARGES
----------------------
   0 C :   -0.048667
   1 C :   -0.228611
   2 C :    0.023156
   3 N :   -0.019602
   4 N :   -0.029366
   5 H :    0.078414
   6 H :    0.065680
   7 H :   -0.009164
   8 H :    0.084519
   9 H :    0.065383
  10 C :   -0.067526
  11 H :    0.027314
  12 H :    0.006923
  13 H :    0.021680
  14 H :    0.015037
  15 H :    0.014831

  Mayer bond orders larger than 0.100000
B(  0-C ,  1-C ) :   1.0577 B(  0-C , 10-C ) :   1.0996 B(  0-C , 11-H ) :   0.9162
B(  0-C , 12-H ) :   0.9335 B(  1-C ,  2-C ) :   1.7083 B(  1-C ,  7-H ) :   0.9413
B(  2-C ,  3-N ) :   1.2591 B(  2-C ,  4-N ) :   1.2517 B(  3-N ,  8-H ) :   0.9397
B(  3-N ,  9-H ) :   0.9468 B(  4-N ,  5-H ) :   0.9357 B(  4-N ,  6-H ) :   0.9484
B( 10-C , 13-H ) :   0.9634 B( 10-C , 14-H ) :   0.9643 B( 10-C , 15-H ) :   0.9681

FINAL SINGLE POINT ENERGY      -266.984955594111

DIPOLE MOMENT
-------------
                                X             Y             Z
Electronic contribution:     -1.24241       2.11973      -4.25468
Nuclear contribution   :      1.23062      -1.24683       3.43056
                        -----------------------------------------
Total Dipole Moment    :     -0.01180       0.87290      -0.82412
                        -----------------------------------------
Magnitude (a.u.)       :      1.20053
Magnitude (Debye)      :      3.05149

Rotational constants in cm-1:     0.231477     0.075416     0.065327
Rotational constants in MHz :  6939.497385  2260.912204  1958.442932

                             ****ORCA TERMINATED NORMALLY****
TOTAL RUN TIME: 0 days 0 hours 0 minutes 13 seconds 728 msec
