                         Program Version 5.0.0 -  RELEASE  -
|  1> !LC-BLYP RIJCOSX def2-SVP def2/J TightSCF
|  2> *xyz 0 1
|  3> C          4.90646       -3.10282       -5.95484
|  4> C          3.51177       -2.80621       -6.49228
|  5> H          2.73604       -3.37345       -5.97374
|  6> H          3.44490       -3.04083       -7.55528
|  7> S          3.00462       -1.09621       -6.38926
|  8> O          4.12886       -0.32965       -6.95372
|  9> F          1.78128       -1.00078       -7.13640
| 10> O          2.85155       -0.78368       -4.95679
| 11> H          5.62703       -2.52424       -6.49422
| 12> H          5.12164       -4.14387       -6.07654
| 13> H          4.95004       -2.84862       -4.91639
| 14> *
| 15>
| 16> %MaxCore 64000
| 17>
| 18> %pal nprocs 4
| 19> end
| 20>
| 21> %scf
| 22>   MaxIter 150
| 23> end
| 24>
| 25>
| 26>                          ****END OF INPUT****

CARTESIAN COORDINATES (ANGSTROEM)
---------------------------------
  C      4.906460   -3.102820   -5.954840
  C      3.511770   -2.806210   -6.492280
  H      2.736040   -3.373450   -5.973740
  H      3.444900   -3.040830   -7.555280
  S      3.004620   -1.096210   -6.389260
  O      4.128860   -0.329650   -6.953720
  F      1.781280   -1.000780   -7.136400
  O      2.851550   -0.783680   -4.956790
  H      5.627030   -2.524240   -6.494220
  H      5.121640   -4.143870   -6.076540
  H      4.950040   -2.848620   -4.916390

 Total Charge           Charge          ....    0
 Multiplicity           Mult            ....    1
 Number of Electrons    NEL             ....   58
 Basis Dimension        Dim             ....  113

ORBITAL ENERGIES
----------------

  NO   OCC          E(Eh)            E(eV)
   0   2.0000     -88.535551     -2409.1748
   1   2.0000     -24.576314      -668.7555
   2   2.0000     -18.936400      -515.2856
   3   2.0000     -18.935900      -515.2720
   4   2.0000     -10.143927      -276.0303
   5   2.0000     -10.103521      -274.9308
   6   2.0000      -8.094153      -220.2531
   7   2.0000      -6.132469      -166.8730
   8   2.0000      -6.125368      -166.6797
   9   2.0000      -6.124246      -166.6492
  10   2.0000      -1.450925       -39.4817
  11   2.0000      -1.179074       -32.0842
  12   2.0000      -1.071695       -29.1623
  13   2.0000      -0.928005       -25.2523
  14   2.0000      -0.833447       -22.6792
  15   2.0000      -0.776242       -21.1226
  16   2.0000      -0.685867       -18.6634
  17   2.0000      -0.682822       -18.5805
  18   2.0000      -0.646823       -17.6009
  19   2.0000      -0.600021       -16.3274
  20   2.0000      -0.571529       -15.5521
  21   2.0000      -0.530491       -14.4354
  22   2.0000      -0.521164       -14.1816
  23   2.0000      -0.506960       -13.7951
  24   2.0000      -0.483890       -13.1673
  25   2.0000      -0.467239       -12.7142
  26   2.0000      -0.408643       -11.1197
  27   2.0000      -0.406779       -11.0690
  28   2.0000      -0.380592       -10.3564
  29   0.0000       0.117109         3.1867
  30   0.0000       0.127576         3.4715
  31   0.0000       0.161319         4.3897
  32   0.0000       0.166269         4.5244
  33   0.0000       0.178972         4.8701

MULLIKEN ATOMIC CHARGES
-----------------------
   0 C :    0.023649
   1 C :   -0.128463
   2 H :    0.063779
   3 H :    0.056854
   4 S :    0.824224
   5 O :   -0.424213
   6 F :   -0.125413
   7 O :   -0.424101
   8 H :    0.049220
   9 H :    0.036727
  10 H :    0.047736
Sum of atomic charges:    0.0000000

LOEWDIN ATOMIC CHARGES
----------------------
   0 C :   -0.059967
   1 C :   -0.162314
   2 H :    0.038903
   3 H :    0.036038
   4 S :    1.129069
   5 O :   -0.501674
   6 F :   -0.097071
   7 O :   -0.503804
   8 H :    0.039952
   9 H :    0.040599
  10 H :    0.040267

  Mayer bond orders larger than 0.100000
B(  0-C ,  1-C ) :   1.0796 B(  0-C ,  8-H ) :   0.9657 B(  0-C ,  9-H ) :   0.9614
B(  0-C , 10-H ) :   0.9689 B(  1-C ,  2-H ) :   0.9300 B(  1-C ,  3-H ) :   0.9283
B(  1-C ,  4-S ) :   0.9250 B(  4-S ,  5-O ) :   1.7768 B(  4-S ,  6-F ) :   1.0689
B(  4-S ,  7-O ) :   1.7830

FINAL SINGLE POINT ENERGY      -726.361324852739

DIPOLE MOMENT
-------------
                                X             Y             Z
Electronic contribution:     -7.02327       7.12915      -2.07589
Nuclear contribution   :      6.63544      -8.66423       1.42287
                        -----------------------------------------
Total Dipole Moment    :     -0.38782      -1.53508      -0.65302
                        -----------------------------------------
Magnitude (a.u.)       :      1.71269
Magnitude (Debye)      :      4.35332

Rotational constants in cm-1:     0.158118     0.080978     0.078216
Rotational constants in MHz :  4740.271775  2427.649826  2344.849020

                             ****ORCA TERMINATED NORMALLY****
TOTAL RUN TIME: 0 days 0 hours 0 minutes 9 seconds 835 msec
