                         Program Version 5.0.0 -  RELEASE  -
|  1> !LC-BLYP RIJCOSX def2-SVP def2/J TightSCF
|  2> *xyz 0 1
|  3> C          4.49059        1.15590       -2.46929
|  4> N          4.30539        1.22276       -3.90832
|  5> C          4.63192        2.24637       -4.67096
|  6> C          4.54169        2.14399       -5.98714
|  7> N          5.08409        3.39358       -4.11855
|  8> H          4.92067        3.57050       -3.13587
|  9> H          5.25465        4.19739       -4.70696
| 10> H          3.82453        0.44911       -4.35093
| 11> H          4.34337        1.24932       -6.41665
| 12> H          4.67671        2.95662       -6.57411
| 13> C          5.94213        0.93950       -2.03689
| 14> H          3.86431        0.32853       -2.13661
| 15> H          4.07623        2.04999       -1.98901
| 16> H          6.32982        0.06401       -2.51451
| 17> H          5.98308        0.81426       -0.97504
| 18> H          6.52865        1.78889       -2.31873
| 19> *
| 20>
| 21> %MaxCore 64000
| 22>
| 23> %pal nprocs 4
| 24> end
| 25>
| 26> %scf
| 27>   MaxIter 150
| 28> end
| 29>
| 30>
| 31>                          ****END OF INPUT****

CARTESIAN COORDINATES (ANGSTROEM)
---------------------------------
  C      4.490590    1.155900   -2.469290
  N      4.305390    1.222760   -3.908320
  C      4.631920    2.246370   -4.670960
  C      4.541690    2.143990   -5.987140
  N      5.084090    3.393580   -4.118550
  H      4.920670    3.570500   -3.135870
  H      5.254650    4.197390   -4.706960
  H      3.824530    0.449110   -4.350930
  H      4.343370    1.249320   -6.416650
  H      4.676710    2.956620   -6.574110
  C      5.942130    0.939500   -2.036890
  H      3.864310    0.328530   -2.136610
  H      4.076230    2.049990   -1.989010
  H      6.329820    0.064010   -2.514510
  H      5.983080    0.814260   -0.975040
  H      6.528650    1.788890   -2.318730

 Total Charge           Charge          ....    0
 Multiplicity           Mult            ....    1
 Number of Electrons    NEL             ....   48
 Basis Dimension        Dim             ....  134

ORBITAL ENERGIES
----------------

  NO   OCC          E(Eh)            E(eV)
   0   2.0000     -14.177873      -385.7996
   1   2.0000     -14.177028      -385.7765
   2   2.0000     -10.122772      -275.4546
   3   2.0000     -10.121575      -275.4221
   4   2.0000     -10.071153      -274.0500
   5   2.0000      -9.988695      -271.8062
   6   2.0000      -1.052952       -28.6523
   7   2.0000      -0.965270       -26.2663
   8   2.0000      -0.867650       -23.6100
   9   2.0000      -0.794680       -21.6243
  10   2.0000      -0.727247       -19.7894
  11   2.0000      -0.693335       -18.8666
  12   2.0000      -0.632086       -17.1999
  13   2.0000      -0.595852       -16.2140
  14   2.0000      -0.573864       -15.6156
  15   2.0000      -0.546841       -14.8803
  16   2.0000      -0.521576       -14.1928
  17   2.0000      -0.497901       -13.5486
  18   2.0000      -0.475129       -12.9289
  19   2.0000      -0.468095       -12.7375
  20   2.0000      -0.452919       -12.3245
  21   2.0000      -0.447016       -12.1639
  22   2.0000      -0.343048        -9.3348
  23   2.0000      -0.245994        -6.6938
  24   0.0000       0.115527         3.1437
  25   0.0000       0.142939         3.8896
  26   0.0000       0.158691         4.3182
  27   0.0000       0.176608         4.8057
  28   0.0000       0.193272         5.2592

MULLIKEN ATOMIC CHARGES
-----------------------
   0 C :    0.014030
   1 N :   -0.058332
   2 C :   -0.095184
   3 C :   -0.062641
   4 N :   -0.048767
   5 H :    0.097566
   6 H :    0.115578
   7 H :    0.116569
   8 H :   -0.080732
   9 H :   -0.081457
  10 C :    0.043482
  11 H :    0.006518
  12 H :    0.004869
  13 H :    0.013489
  14 H :    0.006814
  15 H :    0.008196
Sum of atomic charges:    0.0000000

LOEWDIN ATOMIC CHARGES
----------------------
   0 C :    0.013651
   1 N :   -0.017879
   2 C :    0.033847
   3 C :   -0.261281
   4 N :   -0.028392
   5 H :    0.063376
   6 H :    0.083643
   7 H :    0.086787
   8 H :   -0.008525
   9 H :   -0.008766
  10 C :   -0.076224
  11 H :    0.028789
  12 H :    0.013640
  13 H :    0.027912
  14 H :    0.026108
  15 H :    0.023315

  Mayer bond orders larger than 0.100000
B(  0-C ,  1-N ) :   1.0435 B(  0-C , 10-C ) :   1.0896 B(  0-C , 11-H ) :   0.9527
B(  0-C , 12-H ) :   0.9504 B(  1-N ,  2-C ) :   1.2117 B(  1-N ,  7-H ) :   0.9295
B(  2-C ,  3-C ) :   1.7784 B(  2-C ,  4-N ) :   1.2218 B(  3-C ,  8-H ) :   0.9218
B(  3-C ,  9-H ) :   0.9220 B(  4-N ,  5-H ) :   0.9471 B(  4-N ,  6-H ) :   0.9437
B( 10-C , 13-H ) :   0.9625 B( 10-C , 14-H ) :   0.9606 B( 10-C , 15-H ) :   0.9618

FINAL SINGLE POINT ENERGY      -266.979296952882

DIPOLE MOMENT
-------------
                                X             Y             Z
Electronic contribution:     -1.44069       1.13766      -1.92473
Nuclear contribution   :      1.28075      -1.05140       2.98955
                        -----------------------------------------
Total Dipole Moment    :     -0.15994       0.08626       1.06482
                        -----------------------------------------
Magnitude (a.u.)       :      1.08022
Magnitude (Debye)      :      2.74570

Rotational constants in cm-1:     0.229858     0.078444     0.067377
Rotational constants in MHz :  6890.979812  2351.691803  2019.910665

                             ****ORCA TERMINATED NORMALLY****
TOTAL RUN TIME: 0 days 0 hours 0 minutes 13 seconds 59 msec
