                         Program Version 5.0.0 -  RELEASE  -
|  1> !LC-BLYP RIJCOSX def2-SVP def2/J TightSCF
|  2> *xyz 0 1
|  3> C          4.90646       -3.10282       -5.95484
|  4> C          3.51177       -2.80621       -6.49228
|  5> H          2.73604       -3.37345       -5.97374
|  6> H          3.44490       -3.04083       -7.55528
|  7> S          3.00462       -1.09621       -6.38926
|  8> O          4.12886       -0.32965       -6.95372
|  9> O          1.78128       -1.00078       -7.13640
| 10> F          2.85155       -0.78368       -4.95679
| 11> H          5.62703       -2.52424       -6.49422
| 12> H          5.12164       -4.14387       -6.07654
| 13> H          4.95004       -2.84862       -4.91639
| 14> *
| 15>
| 16> %MaxCore 64000
| 17>
| 18> %pal nprocs 4
| 19> end
| 20>
| 21> %scf
| 22>   MaxIter 150
| 23> end
| 24>
| 25>
| 26>                          ****END OF INPUT****

CARTESIAN COORDINATES (ANGSTROEM)
---------------------------------
  C      4.906460   -3.102820   -5.954840
  C      3.511770   -2.806210   -6.492280
  H      2.736040   -3.373450   -5.973740
  H      3.444900   -3.040830   -7.555280
  S      3.004620   -1.096210   -6.389260
  O      4.128860   -0.329650   -6.953720
  O      1.781280   -1.000780   -7.136400
  F      2.851550   -0.783680   -4.956790
  H      5.627030   -2.524240   -6.494220
  H      5.121640   -4.143870   -6.076540
  H      4.950040   -2.848620   -4.916390

 Total Charge           Charge          ....    0
 Multiplicity           Mult            ....    1
 Number of Electrons    NEL             ....   58
 Basis Dimension        Dim             ....  113

ORBITAL ENERGIES
----------------

  NO   OCC          E(Eh)            E(eV)
   0   2.0000     -88.534474     -2409.1455
   1   2.0000     -24.556652      -668.2205
   2   2.0000     -18.949889      -515.6527
   3   2.0000     -18.937589      -515.3180
   4   2.0000     -10.142896      -276.0022
   5   2.0000     -10.105676      -274.9894
   6   2.0000      -8.092917      -220.2195
   7   2.0000      -6.131112      -166.8360
   8   2.0000      -6.124335      -166.6516
   9   2.0000      -6.123200      -166.6207
  10   2.0000      -1.418376       -38.5960
  11   2.0000      -1.192546       -32.4508
  12   2.0000      -1.088198       -29.6114
  13   2.0000      -0.929191       -25.2846
  14   2.0000      -0.819167       -22.2907
  15   2.0000      -0.772831       -21.0298
  16   2.0000      -0.680995       -18.5308
  17   2.0000      -0.658241       -17.9116
  18   2.0000      -0.636954       -17.3324
  19   2.0000      -0.595735       -16.2108
  20   2.0000      -0.573813       -15.6143
  21   2.0000      -0.548195       -14.9171
  22   2.0000      -0.523012       -14.2319
  23   2.0000      -0.504672       -13.7328
  24   2.0000      -0.495138       -13.4734
  25   2.0000      -0.469036       -12.7631
  26   2.0000      -0.421633       -11.4732
  27   2.0000      -0.410643       -11.1742
  28   2.0000      -0.394710       -10.7406
  29   0.0000       0.105995         2.8843
  30   0.0000       0.136817         3.7230
  31   0.0000       0.164196         4.4680
  32   0.0000       0.169468         4.6114
  33   0.0000       0.177965         4.8427

MULLIKEN ATOMIC CHARGES
-----------------------
   0 C :    0.013049
   1 C :   -0.138671
   2 H :    0.062412
   3 H :    0.091311
   4 S :    0.831901
   5 O :   -0.427159
   6 O :   -0.383191
   7 F :   -0.165380
   8 H :    0.051977
   9 H :    0.036978
  10 H :    0.026773
Sum of atomic charges:    0.0000000

LOEWDIN ATOMIC CHARGES
----------------------
   0 C :   -0.072971
   1 C :   -0.161344
   2 H :    0.037763
   3 H :    0.056510
   4 S :    1.134706
   5 O :   -0.503754
   6 O :   -0.464627
   7 F :   -0.136673
   8 H :    0.039180
   9 H :    0.040267
  10 H :    0.030942

  Mayer bond orders larger than 0.100000
B(  0-C ,  1-C ) :   1.0575 B(  0-C ,  8-H ) :   0.9656 B(  0-C ,  9-H ) :   0.9596
B(  0-C , 10-H ) :   0.9721 B(  1-C ,  2-H ) :   0.9337 B(  1-C ,  3-H ) :   0.9336
B(  1-C ,  4-S ) :   0.9247 B(  4-S ,  5-O ) :   1.7818 B(  4-S ,  6-O ) :   1.8301
B(  4-S ,  7-F ) :   1.0245

FINAL SINGLE POINT ENERGY      -726.378471820217

DIPOLE MOMENT
-------------
                                X             Y             Z
Electronic contribution:     -5.20613       7.49336       1.64342
Nuclear contribution   :      5.52019      -8.89046      -0.84835
                        -----------------------------------------
Total Dipole Moment    :      0.31405      -1.39710       0.79507
                        -----------------------------------------
Magnitude (a.u.)       :      1.63788
Magnitude (Debye)      :      4.16315

Rotational constants in cm-1:     0.153332     0.082132     0.079755
Rotational constants in MHz :  4596.775407  2462.251277  2391.008596

                             ****ORCA TERMINATED NORMALLY****
TOTAL RUN TIME: 0 days 0 hours 0 minutes 9 seconds 688 msec
