                         Program Version 5.0.0 -  RELEASE  -
|  1> !LC-BLYP RIJCOSX def2-SVP def2/J TightSCF
|  2> *xyz 0 1
|  3> C          4.49059        1.15590       -2.46929
|  4> N          4.30539        1.22276       -3.90832
|  5> C          4.63192        2.24637       -4.67096
|  6> N          4.54169        2.14399       -5.98714
|  7> C          5.08409        3.39358       -4.11855
|  8> H          4.92067        3.57050       -3.13587
|  9> H          5.25465        4.19739       -4.70696
| 10> H          3.82453        0.44911       -4.35093
| 11> H          4.34337        1.24932       -6.41665
| 12> H          4.67671        2.95662       -6.57411
| 13> C          5.94213        0.93950       -2.03689
| 14> H          3.86431        0.32853       -2.13661
| 15> H          4.07623        2.04999       -1.98901
| 16> H          6.32982        0.06401       -2.51451
| 17> H          5.98308        0.81426       -0.97504
| 18> H          6.52865        1.78889       -2.31873
| 19> *
| 20>
| 21> %MaxCore 64000
| 22>
| 23> %pal nprocs 4
| 24> end
| 25>
| 26> %scf
| 27>   MaxIter 150
| 28> end
| 29>
| 30>
| 31>                          ****END OF INPUT****

CARTESIAN COORDINATES (ANGSTROEM)
---------------------------------
  C      4.490590    1.155900   -2.469290
  N      4.305390    1.222760   -3.908320
  C      4.631920    2.246370   -4.670960
  N      4.541690    2.143990   -5.987140
  C      5.084090    3.393580   -4.118550
  H      4.920670    3.570500   -3.135870
  H      5.254650    4.197390   -4.706960
  H      3.824530    0.449110   -4.350930
  H      4.343370    1.249320   -6.416650
  H      4.676710    2.956620   -6.574110
  C      5.942130    0.939500   -2.036890
  H      3.864310    0.328530   -2.136610
  H      4.076230    2.049990   -1.989010
  H      6.329820    0.064010   -2.514510
  H      5.983080    0.814260   -0.975040
  H      6.528650    1.788890   -2.318730

 Total Charge           Charge          ....    0
 Multiplicity           Mult            ....    1
 Number of Electrons    NEL             ....   48
 Basis Dimension        Dim             ....  134

ORBITAL ENERGIES
----------------

  NO   OCC          E(Eh)            E(eV)
   0   2.0000     -14.181629      -385.9017
   1   2.0000     -14.179497      -385.8437
   2   2.0000     -10.125826      -275.5377
   3   2.0000     -10.111769      -275.1552
   4   2.0000     -10.059522      -273.7335
   5   2.0000      -9.987047      -271.7614
   6   2.0000      -1.056017       -28.7357
   7   2.0000      -0.972519       -26.4636
   8   2.0000      -0.847255       -23.0550
   9   2.0000      -0.798425       -21.7262
  10   2.0000      -0.736647       -20.0452
  11   2.0000      -0.655367       -17.8335
  12   2.0000      -0.649869       -17.6838
  13   2.0000      -0.615467       -16.7477
  14   2.0000      -0.568302       -15.4643
  15   2.0000      -0.536581       -14.6011
  16   2.0000      -0.510535       -13.8924
  17   2.0000      -0.489745       -13.3266
  18   2.0000      -0.472266       -12.8510
  19   2.0000      -0.457302       -12.4438
  20   2.0000      -0.453380       -12.3371
  21   2.0000      -0.436630       -11.8813
  22   2.0000      -0.338718        -9.2170
  23   2.0000      -0.245293        -6.6748
  24   0.0000       0.117077         3.1858
  25   0.0000       0.146188         3.9780
  26   0.0000       0.160792         4.3754
  27   0.0000       0.176210         4.7949
  28   0.0000       0.193345         5.2612

MULLIKEN ATOMIC CHARGES
-----------------------
   0 C :    0.041074
   1 N :   -0.071014
   2 C :   -0.110172
   3 N :   -0.023213
   4 C :   -0.079694
   5 H :   -0.065108
   6 H :   -0.088632
   7 H :    0.093442
   8 H :    0.094451
   9 H :    0.120961
  10 C :    0.040580
  11 H :   -0.003449
  12 H :    0.022312
  13 H :   -0.001493
  14 H :    0.004223
  15 H :    0.025734
Sum of atomic charges:    0.0000000

LOEWDIN ATOMIC CHARGES
----------------------
   0 C :    0.026919
   1 N :   -0.016987
   2 C :    0.031939
   3 N :   -0.016042
   4 C :   -0.280034
   5 H :   -0.008456
   6 H :   -0.011698
   7 H :    0.067890
   8 H :    0.065781
   9 H :    0.086102
  10 C :   -0.072728
  11 H :    0.023385
  12 H :    0.024354
  13 H :    0.021693
  14 H :    0.025765
  15 H :    0.032116

  Mayer bond orders larger than 0.100000
B(  0-C ,  1-N ) :   1.0324 B(  0-C , 10-C ) :   1.1053 B(  0-C , 11-H ) :   0.9545
B(  0-C , 12-H ) :   0.9439 B(  1-N ,  2-C ) :   1.2093 B(  1-N ,  7-H ) :   0.9357
B(  2-C ,  3-N ) :   1.2525 B(  2-C ,  4-C ) :   1.7467 B(  3-N ,  8-H ) :   0.9497
B(  3-N ,  9-H ) :   0.9417 B(  4-C ,  5-H ) :   0.9200 B(  4-C ,  6-H ) :   0.9283
B( 10-C , 13-H ) :   0.9616 B( 10-C , 14-H ) :   0.9619 B( 10-C , 15-H ) :   0.9607

FINAL SINGLE POINT ENERGY      -266.977599322106

DIPOLE MOMENT
-------------
                                X             Y             Z
Electronic contribution:     -1.95222      -0.19811      -3.96865
Nuclear contribution   :      1.39581      -0.78630       3.38596
                        -----------------------------------------
Total Dipole Moment    :     -0.55640      -0.98441      -0.58268
                        -----------------------------------------
Magnitude (a.u.)       :      1.27207
Magnitude (Debye)      :      3.23336

Rotational constants in cm-1:     0.239249     0.075811     0.066261
Rotational constants in MHz :  7172.504830  2272.756282  1986.457543

                             ****ORCA TERMINATED NORMALLY****
TOTAL RUN TIME: 0 days 0 hours 0 minutes 13 seconds 557 msec
