                         Program Version 5.0.0 -  RELEASE  -
|  1> !LC-BLYP RIJCOSX def2-TZVP def2/J TightSCF xyzfile
|  2>
|  3> *xyzfile 0 1 D2.xyz
|  4>
|  5> %MaxCore 64000
|  6>
|  7> %pal nprocs 18
|  8> end
|  9>
| 10> %scf
| 11>   MaxIter 150
| 12> end
| 13>
| 14>
| 15>                          ****END OF INPUT****

CARTESIAN COORDINATES (ANGSTROEM)
---------------------------------
  C      4.490588    1.155899   -2.469290
  N      4.305394    1.222762   -3.908317
  C      4.906458   -3.102816   -5.954844
  C      3.511771   -2.806215   -6.492283
  H      2.736044   -3.373445   -5.973736
  H      3.444904   -3.040831   -7.555281
  S      3.004618   -1.096206   -6.389259
  C      4.631918    2.246365   -4.670958
  C      4.541686    2.143990   -5.987139
  N      5.084086    3.393584   -4.118545
  H      4.920675    3.570501   -3.135870
  H      5.254652    4.197390   -4.706956
  H      3.824530    0.449113   -4.350926
  H      4.343373    1.249318   -6.416646
  H      4.676712    2.956624   -6.574113
  F      4.128856   -0.329647   -6.953717
  O      1.781285   -1.000779   -7.136399
  C      5.942129    0.939500   -2.036893
  H      3.864305    0.328532   -2.136611
  H      4.076233    2.049994   -1.989010
  C      6.462677   -3.117775   -3.944671
  C      5.024977   -3.025679   -4.437625
  H      4.423321   -3.818693   -3.977648
  H      4.579350   -2.087131   -4.108727
  H      5.201533   -4.100207   -6.296905
  H      5.605922   -2.397822   -6.413368
  C      6.559957   -0.356290   -2.559086
  H      5.967976    0.952567   -0.942444
  H      6.547184    1.788331   -2.368849
  C      6.006283   -1.615917   -1.899301
  H      7.642360   -0.318000   -2.402059
  H      6.414855   -0.403433   -3.642587
  C      6.608718   -2.917014   -2.435655
  H      6.190324   -1.561115   -0.820948
  H      4.919250   -1.651245   -2.016586
  H      7.066975   -2.374258   -4.475514
  H      6.887808   -4.089747   -4.215332
  H      6.135197   -3.755573   -1.915159
  H      7.671142   -2.955503   -2.172291
  O      2.851546   -0.783683   -4.956789

 Total Charge           Charge          ....    0
 Multiplicity           Mult            ....    1
 Number of Electrons    NEL             ....  144
 Basis Dimension        Dim             ....  671

ORBITAL ENERGIES
----------------

  NO   OCC          E(Eh)            E(eV)
   0   2.0000     -88.528768     -2408.9903
   1   2.0000     -24.566077      -668.4769
   2   2.0000     -18.961502      -515.9687
   3   2.0000     -18.959287      -515.9084
   4   2.0000     -14.154617      -385.1667
   5   2.0000     -14.139810      -384.7638
   6   2.0000     -10.136344      -275.8239
   7   2.0000     -10.101316      -274.8708
   8   2.0000     -10.100678      -274.8534
   9   2.0000     -10.091266      -274.5973
  10   2.0000     -10.074337      -274.1367
  11   2.0000     -10.069801      -274.0132
  12   2.0000     -10.065693      -273.9014
  13   2.0000     -10.060590      -273.7626
  14   2.0000     -10.056728      -273.6575
  15   2.0000     -10.056626      -273.6547
  16   2.0000      -9.960551      -271.0404
  17   2.0000      -8.071346      -219.6325
  18   2.0000      -6.103177      -166.0759
  19   2.0000      -6.096355      -165.8903
  20   2.0000      -6.095774      -165.8744
  21   2.0000      -1.450503       -39.4702
  22   2.0000      -1.217376       -33.1265
  23   2.0000      -1.122870       -30.5549
  24   2.0000      -1.052103       -28.6292
  25   2.0000      -0.967848       -26.3365
  26   2.0000      -0.959109       -26.0987
  27   2.0000      -0.924654       -25.1611
  28   2.0000      -0.894407       -24.3380
  29   2.0000      -0.858838       -23.3702
  30   2.0000      -0.835536       -22.7361
  31   2.0000      -0.808334       -21.9959
  32   2.0000      -0.787098       -21.4180
  33   2.0000      -0.756143       -20.5757
  34   2.0000      -0.734579       -19.9889
  35   2.0000      -0.709808       -19.3149
  36   2.0000      -0.700352       -19.0575
  37   2.0000      -0.688895       -18.7458
  38   2.0000      -0.687164       -18.6987
  39   2.0000      -0.664503       -18.0820
  40   2.0000      -0.658879       -17.9290
  41   2.0000      -0.623069       -16.9546
  42   2.0000      -0.608836       -16.5673
  43   2.0000      -0.598273       -16.2798
  44   2.0000      -0.589391       -16.0381
  45   2.0000      -0.585370       -15.9287
  46   2.0000      -0.573832       -15.6148
  47   2.0000      -0.567483       -15.4420
  48   2.0000      -0.563769       -15.3409
  49   2.0000      -0.544176       -14.8078
  50   2.0000      -0.541288       -14.7292
  51   2.0000      -0.535690       -14.5769
  52   2.0000      -0.525615       -14.3027
  53   2.0000      -0.503407       -13.6984
  54   2.0000      -0.496370       -13.5069
  55   2.0000      -0.495706       -13.4889
  56   2.0000      -0.483266       -13.1503
  57   2.0000      -0.475845       -12.9484
  58   2.0000      -0.469480       -12.7752
  59   2.0000      -0.463236       -12.6053
  60   2.0000      -0.457086       -12.4379
  61   2.0000      -0.450457       -12.2575
  62   2.0000      -0.442215       -12.0333
  63   2.0000      -0.440230       -11.9793
  64   2.0000      -0.432164       -11.7598
  65   2.0000      -0.425236       -11.5713
  66   2.0000      -0.421809       -11.4780
  67   2.0000      -0.410837       -11.1794
  68   2.0000      -0.408462       -11.1148
  69   2.0000      -0.404344       -11.0028
  70   2.0000      -0.335805        -9.1377
  71   2.0000      -0.242660        -6.6031
  72   0.0000       0.073729         2.0063
  73   0.0000       0.097644         2.6570
  74   0.0000       0.099648         2.7116
  75   0.0000       0.104636         2.8473
  76   0.0000       0.110805         3.0152

MULLIKEN ATOMIC CHARGES
-----------------------
   0 C :   -0.364311
   1 N :   -0.255798
   2 C :   -0.301425
   3 C :   -0.301138
   4 H :    0.191388
   5 H :    0.192839
   6 S :    0.787713
   7 C :    0.432495
   8 C :   -0.611721
   9 N :   -0.474577
  10 H :    0.221972
  11 H :    0.229065
  12 H :    0.211616
  13 H :    0.057438
  14 H :    0.095360
  15 F :   -0.082320
  16 O :   -0.343045
  17 C :   -0.163909
  18 H :    0.167473
  19 H :    0.146696
  20 C :   -0.299667
  21 C :   -0.262475
  22 H :    0.131676
  23 H :    0.146474
  24 H :    0.151303
  25 H :    0.166450
  26 C :   -0.251894
  27 H :    0.115286
  28 H :    0.135490
  29 C :   -0.311786
  30 H :    0.128803
  31 H :    0.142458
  32 C :   -0.219353
  33 H :    0.130305
  34 H :    0.144140
  35 H :    0.151835
  36 H :    0.131690
  37 H :    0.130676
  38 H :    0.132799
  39 O :   -0.430020
Sum of atomic charges:   -0.0000000

LOEWDIN ATOMIC CHARGES
----------------------
   0 C :   -0.307882
   1 N :    0.123313
   2 C :   -0.295283
   3 C :   -0.369908
   4 H :    0.158843
   5 H :    0.150788
   6 S :    0.544006
   7 C :   -0.462385
   8 C :   -0.376997
   9 N :   -0.021096
  10 H :    0.160487
  11 H :    0.173457
  12 H :    0.162154
  13 H :    0.081838
  14 H :    0.096298
  15 F :    0.102970
  16 O :   -0.233376
  17 C :   -0.281550
  18 H :    0.140065
  19 H :    0.127932
  20 C :   -0.280191
  21 C :   -0.282336
  22 H :    0.143242
  23 H :    0.142881
  24 H :    0.151052
  25 H :    0.147021
  26 C :   -0.276862
  27 H :    0.139781
  28 H :    0.140965
  29 C :   -0.280895
  30 H :    0.141589
  31 H :    0.142600
  32 C :   -0.276254
  33 H :    0.141169
  34 H :    0.137217
  35 H :    0.141545
  36 H :    0.140292
  37 H :    0.140833
  38 H :    0.141905
  39 O :   -0.269227

  Mayer bond orders larger than 0.100000
B(  0-C ,  1-N ) :   0.9369 B(  0-C , 17-C ) :   0.8620 B(  0-C , 18-H ) :   0.9968
B(  0-C , 19-H ) :   1.0066 B(  1-N ,  7-C ) :   1.1849 B(  1-N , 12-H ) :   0.8841
B(  2-C ,  3-C ) :   0.9099 B(  2-C , 21-C ) :   0.8822 B(  2-C , 24-H ) :   0.9669
B(  2-C , 25-H ) :   0.9836 B(  3-C ,  4-H ) :   0.9414 B(  3-C ,  5-H ) :   0.9605
B(  3-C ,  6-S ) :   0.9226 B(  6-S , 15-F ) :   1.1217 B(  6-S , 16-O ) :   2.0558
B(  6-S , 39-O ) :   1.7677 B(  7-C ,  8-C ) :   1.5322 B(  7-C ,  9-N ) :   1.1046
B(  8-C , 13-H ) :   1.0535 B(  8-C , 14-H ) :   0.9991 B(  9-N , 10-H ) :   0.9276
B(  9-N , 11-H ) :   0.9344 B( 12-H , 39-O ) :   0.1207 B( 17-C , 26-C ) :   0.9381
B( 17-C , 27-H ) :   0.9805 B( 17-C , 28-H ) :   0.9790 B( 20-C , 21-C ) :   0.8927
B( 20-C , 32-C ) :   0.9323 B( 20-C , 35-H ) :   0.9892 B( 20-C , 36-H ) :   0.9840
B( 21-C , 22-H ) :   0.9688 B( 21-C , 23-H ) :   0.9799 B( 26-C , 29-C ) :   0.8799
B( 26-C , 30-H ) :   0.9822 B( 26-C , 31-H ) :   0.9733 B( 29-C , 32-C ) :   0.9257
B( 29-C , 33-H ) :   0.9808 B( 29-C , 34-H ) :   0.9918 B( 32-C , 37-H ) :   0.9934
B( 32-C , 38-H ) :   0.9893

FINAL SINGLE POINT ENERGY     -1189.146602144600

DIPOLE MOMENT
-------------
                                X             Y             Z
Electronic contribution:    -16.38002       3.97148     -19.60805
Nuclear contribution   :     17.27667      -5.32157      20.03034
                        -----------------------------------------
Total Dipole Moment    :      0.89664      -1.35008       0.42229
                        -----------------------------------------
Magnitude (a.u.)       :      1.67482
Magnitude (Debye)      :      4.25705

Rotational constants in cm-1:     0.014355     0.012269     0.007481
Rotational constants in MHz :   430.360270   367.823451   224.273399

                             ****ORCA TERMINATED NORMALLY****
TOTAL RUN TIME: 0 days 0 hours 2 minutes 0 seconds 4 msec
