                         Program Version 5.0.0 -  RELEASE  -
|  1> !LC-BLYP RIJCOSX def2-TZVP def2/J TightSCF xyzfile
|  2>
|  3> *xyzfile 0 1 D3.xyz
|  4>
|  5> %MaxCore 64000
|  6>
|  7> %pal nprocs 18
|  8> end
|  9>
| 10> %scf
| 11>   MaxIter 150
| 12> end
| 13>
| 14>
| 15>                          ****END OF INPUT****

CARTESIAN COORDINATES (ANGSTROEM)
---------------------------------
  C      4.490588    1.155899   -2.469290
  N      4.305394    1.222762   -3.908317
  C      4.906458   -3.102816   -5.954844
  C      3.511771   -2.806215   -6.492283
  H      2.736044   -3.373445   -5.973736
  H      3.444904   -3.040831   -7.555281
  S      3.004618   -1.096206   -6.389259
  C      4.631918    2.246365   -4.670958
  N      4.541686    2.143990   -5.987139
  C      5.084086    3.393584   -4.118545
  H      4.920675    3.570501   -3.135870
  H      5.254652    4.197390   -4.706956
  H      3.824530    0.449113   -4.350926
  H      4.343373    1.249318   -6.416646
  H      4.676712    2.956624   -6.574113
  F      4.128856   -0.329647   -6.953717
  O      1.781285   -1.000779   -7.136399
  C      5.942129    0.939500   -2.036893
  H      3.864305    0.328532   -2.136611
  H      4.076233    2.049994   -1.989010
  C      6.462677   -3.117775   -3.944671
  C      5.024977   -3.025679   -4.437625
  H      4.423321   -3.818693   -3.977648
  H      4.579350   -2.087131   -4.108727
  H      5.201533   -4.100207   -6.296905
  H      5.605922   -2.397822   -6.413368
  C      6.559957   -0.356290   -2.559086
  H      5.967976    0.952567   -0.942444
  H      6.547184    1.788331   -2.368849
  C      6.006283   -1.615917   -1.899301
  H      7.642360   -0.318000   -2.402059
  H      6.414855   -0.403433   -3.642587
  C      6.608718   -2.917014   -2.435655
  H      6.190324   -1.561115   -0.820948
  H      4.919250   -1.651245   -2.016586
  H      7.066975   -2.374258   -4.475514
  H      6.887808   -4.089747   -4.215332
  H      6.135197   -3.755573   -1.915159
  H      7.671142   -2.955503   -2.172291
  O      2.851546   -0.783683   -4.956789

 Total Charge           Charge          ....    0
 Multiplicity           Mult            ....    1
 Number of Electrons    NEL             ....  144
 Basis Dimension        Dim             ....  671

ORBITAL ENERGIES
----------------

  NO   OCC          E(Eh)            E(eV)
   0   2.0000     -88.545272     -2409.4393
   1   2.0000     -24.595881      -669.2880
   2   2.0000     -18.978423      -516.4292
   3   2.0000     -18.974698      -516.3278
   4   2.0000     -14.153092      -385.1252
   5   2.0000     -14.141640      -384.8136
   6   2.0000     -10.148965      -276.1674
   7   2.0000     -10.110369      -275.1171
   8   2.0000     -10.100403      -274.8459
   9   2.0000     -10.082393      -274.3559
  10   2.0000     -10.080028      -274.2915
  11   2.0000     -10.072978      -274.0997
  12   2.0000     -10.066075      -273.9118
  13   2.0000     -10.058468      -273.7048
  14   2.0000     -10.052334      -273.5379
  15   2.0000     -10.046383      -273.3760
  16   2.0000      -9.961822      -271.0750
  17   2.0000      -8.088241      -220.0922
  18   2.0000      -6.120349      -166.5432
  19   2.0000      -6.113028      -166.3439
  20   2.0000      -6.112436      -166.3278
  21   2.0000      -1.478806       -40.2403
  22   2.0000      -1.234606       -33.5953
  23   2.0000      -1.138785       -30.9879
  24   2.0000      -1.054666       -28.6989
  25   2.0000      -0.974438       -26.5158
  26   2.0000      -0.969178       -26.3727
  27   2.0000      -0.927373       -25.2351
  28   2.0000      -0.892213       -24.2784
  29   2.0000      -0.865367       -23.5478
  30   2.0000      -0.836839       -22.7715
  31   2.0000      -0.808019       -21.9873
  32   2.0000      -0.796536       -21.6748
  33   2.0000      -0.767107       -20.8741
  34   2.0000      -0.741562       -20.1789
  35   2.0000      -0.726005       -19.7556
  36   2.0000      -0.715076       -19.4582
  37   2.0000      -0.702730       -19.1223
  38   2.0000      -0.687075       -18.6963
  39   2.0000      -0.669633       -18.2216
  40   2.0000      -0.646373       -17.5887
  41   2.0000      -0.632220       -17.2036
  42   2.0000      -0.625363       -17.0170
  43   2.0000      -0.608798       -16.5662
  44   2.0000      -0.603115       -16.4116
  45   2.0000      -0.587767       -15.9939
  46   2.0000      -0.581167       -15.8144
  47   2.0000      -0.573112       -15.5952
  48   2.0000      -0.561163       -15.2700
  49   2.0000      -0.550770       -14.9872
  50   2.0000      -0.541368       -14.7314
  51   2.0000      -0.537721       -14.6321
  52   2.0000      -0.525530       -14.3004
  53   2.0000      -0.512241       -13.9388
  54   2.0000      -0.498336       -13.5604
  55   2.0000      -0.491174       -13.3655
  56   2.0000      -0.489201       -13.3118
  57   2.0000      -0.480231       -13.0677
  58   2.0000      -0.470382       -12.7998
  59   2.0000      -0.468481       -12.7480
  60   2.0000      -0.460056       -12.5188
  61   2.0000      -0.451777       -12.2935
  62   2.0000      -0.449920       -12.2429
  63   2.0000      -0.442952       -12.0533
  64   2.0000      -0.435008       -11.8372
  65   2.0000      -0.431333       -11.7372
  66   2.0000      -0.426012       -11.5924
  67   2.0000      -0.410261       -11.1638
  68   2.0000      -0.407690       -11.0938
  69   2.0000      -0.399060       -10.8590
  70   2.0000      -0.329828        -8.9751
  71   2.0000      -0.241301        -6.5661
  72   0.0000       0.058864         1.6018
  73   0.0000       0.090508         2.4629
  74   0.0000       0.098517         2.6808
  75   0.0000       0.100088         2.7235
  76   0.0000       0.108375         2.9490

MULLIKEN ATOMIC CHARGES
-----------------------
   0 C :   -0.311340
   1 N :   -0.263631
   2 C :   -0.306159
   3 C :   -0.296956
   4 H :    0.197935
   5 H :    0.195949
   6 S :    0.771472
   7 C :    0.366798
   8 N :   -0.456055
   9 C :   -0.591481
  10 H :    0.108147
  11 H :    0.076388
  12 H :    0.181650
  13 H :    0.197124
  14 H :    0.236773
  15 F :   -0.111197
  16 O :   -0.333929
  17 C :   -0.171611
  18 H :    0.159471
  19 H :    0.155238
  20 C :   -0.297671
  21 C :   -0.265447
  22 H :    0.134381
  23 H :    0.148963
  24 H :    0.155911
  25 H :    0.163254
  26 C :   -0.248948
  27 H :    0.115338
  28 H :    0.159465
  29 C :   -0.313438
  30 H :    0.128880
  31 H :    0.123281
  32 C :   -0.219843
  33 H :    0.131586
  34 H :    0.142870
  35 H :    0.150411
  36 H :    0.132412
  37 H :    0.130402
  38 H :    0.133766
  39 O :   -0.410161
Sum of atomic charges:   -0.0000000

LOEWDIN ATOMIC CHARGES
----------------------
   0 C :   -0.290848
   1 N :    0.119105
   2 C :   -0.295256
   3 C :   -0.367657
   4 H :    0.161398
   5 H :    0.151677
   6 S :    0.535772
   7 C :   -0.471842
   8 N :   -0.019821
   9 C :   -0.374225
  10 H :    0.098662
  11 H :    0.092418
  12 H :    0.151981
  13 H :    0.135505
  14 H :    0.177186
  15 F :    0.089588
  16 O :   -0.227755
  17 C :   -0.275952
  18 H :    0.136300
  19 H :    0.136864
  20 C :   -0.280178
  21 C :   -0.282426
  22 H :    0.144072
  23 H :    0.143210
  24 H :    0.152628
  25 H :    0.145620
  26 C :   -0.278396
  27 H :    0.140121
  28 H :    0.149275
  29 C :   -0.281189
  30 H :    0.141312
  31 H :    0.137356
  32 C :   -0.276366
  33 H :    0.141799
  34 H :    0.136435
  35 H :    0.141214
  36 H :    0.140305
  37 H :    0.140570
  38 H :    0.142342
  39 O :   -0.260804

  Mayer bond orders larger than 0.100000
B(  0-C ,  1-N ) :   0.9305 B(  0-C , 17-C ) :   0.8887 B(  0-C , 18-H ) :   0.9971
B(  0-C , 19-H ) :   0.9925 B(  1-N ,  7-C ) :   1.1751 B(  1-N , 12-H ) :   0.8935
B(  2-C ,  3-C ) :   0.9081 B(  2-C , 21-C ) :   0.8761 B(  2-C , 24-H ) :   0.9659
B(  2-C , 25-H ) :   0.9864 B(  3-C ,  4-H ) :   0.9384 B(  3-C ,  5-H ) :   0.9590
B(  3-C ,  6-S ) :   0.9197 B(  6-S , 15-F ) :   1.0809 B(  6-S , 16-O ) :   2.0605
B(  6-S , 39-O ) :   1.7899 B(  7-C ,  8-N ) :   1.1261 B(  7-C ,  9-C ) :   1.5959
B(  8-N , 13-H ) :   0.9229 B(  8-N , 14-H ) :   0.9292 B(  9-C , 10-H ) :   1.0054
B(  9-C , 11-H ) :   1.0078 B( 12-H , 39-O ) :   0.1101 B( 17-C , 26-C ) :   0.9433
B( 17-C , 27-H ) :   0.9860 B( 17-C , 28-H ) :   0.9728 B( 20-C , 21-C ) :   0.8938
B( 20-C , 32-C ) :   0.9335 B( 20-C , 35-H ) :   0.9887 B( 20-C , 36-H ) :   0.9841
B( 21-C , 22-H ) :   0.9683 B( 21-C , 23-H ) :   0.9810 B( 26-C , 29-C ) :   0.8779
B( 26-C , 30-H ) :   0.9832 B( 26-C , 31-H ) :   0.9733 B( 29-C , 32-C ) :   0.9231
B( 29-C , 33-H ) :   0.9813 B( 29-C , 34-H ) :   0.9926 B( 32-C , 37-H ) :   0.9936
B( 32-C , 38-H ) :   0.9889

FINAL SINGLE POINT ENERGY     -1189.148030265163

DIPOLE MOMENT
-------------
                                X             Y             Z
Electronic contribution:    -16.89900       2.65260     -21.37678
Nuclear contribution   :     17.35766      -5.13497      20.30937
                        -----------------------------------------
Total Dipole Moment    :      0.45867      -2.48237      -1.06741
                        -----------------------------------------
Magnitude (a.u.)       :      2.74079
Magnitude (Debye)      :      6.96653

Rotational constants in cm-1:     0.014431     0.012329     0.007535
Rotational constants in MHz :   432.628327   369.619539   225.898827

                             ****ORCA TERMINATED NORMALLY****
TOTAL RUN TIME: 0 days 0 hours 1 minutes 58 seconds 19 msec
