                         Program Version 5.0.0 -  RELEASE  -
|  1> !LC-BLYP RIJCOSX def2-TZVP def2/J TightSCF xyzfile
|  2>
|  3> *xyzfile 0 1 D5.xyz
|  4>
|  5> %MaxCore 64000
|  6>
|  7> %pal nprocs 18
|  8> end
|  9>
| 10> %scf
| 11>   MaxIter 150
| 12> end
| 13>
| 14>
| 15>                          ****END OF INPUT****

CARTESIAN COORDINATES (ANGSTROEM)
---------------------------------
  C      4.490588    1.155899   -2.469290
  N      4.305394    1.222762   -3.908317
  C      4.906458   -3.102816   -5.954844
  C      3.511771   -2.806215   -6.492283
  H      2.736044   -3.373445   -5.973736
  H      3.444904   -3.040831   -7.555281
  S      3.004618   -1.096206   -6.389259
  C      4.631918    2.246365   -4.670958
  C      4.541686    2.143990   -5.987139
  N      5.084086    3.393584   -4.118545
  H      4.920675    3.570501   -3.135870
  H      5.254652    4.197390   -4.706956
  H      3.824530    0.449113   -4.350926
  H      4.343373    1.249318   -6.416646
  H      4.676712    2.956624   -6.574113
  O      4.128856   -0.329647   -6.953717
  F      1.781285   -1.000779   -7.136399
  C      5.942129    0.939500   -2.036893
  H      3.864305    0.328532   -2.136611
  H      4.076233    2.049994   -1.989010
  C      6.462677   -3.117775   -3.944671
  C      5.024977   -3.025679   -4.437625
  H      4.423321   -3.818693   -3.977648
  H      4.579350   -2.087131   -4.108727
  H      5.201533   -4.100207   -6.296905
  H      5.605922   -2.397822   -6.413368
  C      6.559957   -0.356290   -2.559086
  H      5.967976    0.952567   -0.942444
  H      6.547184    1.788331   -2.368849
  C      6.006283   -1.615917   -1.899301
  H      7.642360   -0.318000   -2.402059
  H      6.414855   -0.403433   -3.642587
  C      6.608718   -2.917014   -2.435655
  H      6.190324   -1.561115   -0.820948
  H      4.919250   -1.651245   -2.016586
  H      7.066975   -2.374258   -4.475514
  H      6.887808   -4.089747   -4.215332
  H      6.135197   -3.755573   -1.915159
  H      7.671142   -2.955503   -2.172291
  O      2.851546   -0.783683   -4.956789

 Total Charge           Charge          ....    0
 Multiplicity           Mult            ....    1
 Number of Electrons    NEL             ....  144
 Basis Dimension        Dim             ....  671

ORBITAL ENERGIES
----------------

  NO   OCC          E(Eh)            E(eV)
   0   2.0000     -88.533827     -2409.1279
   1   2.0000     -24.589829      -669.1233
   2   2.0000     -18.961841      -515.9779
   3   2.0000     -18.951301      -515.6911
   4   2.0000     -14.140675      -384.7873
   5   2.0000     -14.127243      -384.4218
   6   2.0000     -10.139196      -275.9016
   7   2.0000     -10.098177      -274.7854
   8   2.0000     -10.082718      -274.3647
   9   2.0000     -10.082296      -274.3532
  10   2.0000     -10.070354      -274.0283
  11   2.0000     -10.064939      -273.8809
  12   2.0000     -10.061082      -273.7760
  13   2.0000     -10.055162      -273.6149
  14   2.0000     -10.049109      -273.4502
  15   2.0000     -10.048763      -273.4408
  16   2.0000      -9.935908      -270.3698
  17   2.0000      -8.076468      -219.7719
  18   2.0000      -6.108129      -166.2106
  19   2.0000      -6.101418      -166.0280
  20   2.0000      -6.100961      -166.0156
  21   2.0000      -1.481452       -40.3123
  22   2.0000      -1.211581       -32.9688
  23   2.0000      -1.111898       -30.2563
  24   2.0000      -1.038317       -28.2540
  25   2.0000      -0.956573       -26.0297
  26   2.0000      -0.954926       -25.9849
  27   2.0000      -0.920399       -25.0453
  28   2.0000      -0.890660       -24.2361
  29   2.0000      -0.859912       -23.3994
  30   2.0000      -0.834244       -22.7009
  31   2.0000      -0.807073       -21.9616
  32   2.0000      -0.777356       -21.1529
  33   2.0000      -0.750979       -20.4352
  34   2.0000      -0.730390       -19.8749
  35   2.0000      -0.709529       -19.3073
  36   2.0000      -0.699078       -19.0229
  37   2.0000      -0.696415       -18.9504
  38   2.0000      -0.684279       -18.6202
  39   2.0000      -0.665534       -18.1101
  40   2.0000      -0.654643       -17.8137
  41   2.0000      -0.619253       -16.8507
  42   2.0000      -0.612010       -16.6536
  43   2.0000      -0.596241       -16.2245
  44   2.0000      -0.585096       -15.9213
  45   2.0000      -0.579407       -15.7665
  46   2.0000      -0.568599       -15.4724
  47   2.0000      -0.564032       -15.3481
  48   2.0000      -0.551773       -15.0145
  49   2.0000      -0.545017       -14.8307
  50   2.0000      -0.535144       -14.5620
  51   2.0000      -0.526615       -14.3299
  52   2.0000      -0.519124       -14.1261
  53   2.0000      -0.498783       -13.5726
  54   2.0000      -0.490596       -13.3498
  55   2.0000      -0.487687       -13.2706
  56   2.0000      -0.476638       -12.9700
  57   2.0000      -0.472237       -12.8502
  58   2.0000      -0.458897       -12.4872
  59   2.0000      -0.456096       -12.4110
  60   2.0000      -0.452696       -12.3185
  61   2.0000      -0.445886       -12.1332
  62   2.0000      -0.435269       -11.8443
  63   2.0000      -0.430270       -11.7082
  64   2.0000      -0.423171       -11.5151
  65   2.0000      -0.415510       -11.3066
  66   2.0000      -0.406414       -11.0591
  67   2.0000      -0.403714       -10.9856
  68   2.0000      -0.398052       -10.8316
  69   2.0000      -0.386537       -10.5182
  70   2.0000      -0.323250        -8.7961
  71   2.0000      -0.224202        -6.1008
  72   0.0000       0.082602         2.2477
  73   0.0000       0.090514         2.4630
  74   0.0000       0.103006         2.8029
  75   0.0000       0.110217         2.9992
  76   0.0000       0.111296         3.0285

MULLIKEN ATOMIC CHARGES
-----------------------
   0 C :   -0.361480
   1 N :   -0.257063
   2 C :   -0.283498
   3 C :   -0.291491
   4 H :    0.174066
   5 H :    0.183432
   6 S :    0.802897
   7 C :    0.412025
   8 C :   -0.630893
   9 N :   -0.478441
  10 H :    0.215789
  11 H :    0.225795
  12 H :    0.228275
  13 H :    0.113740
  14 H :    0.083688
  15 O :   -0.379486
  16 F :   -0.056828
  17 C :   -0.158493
  18 H :    0.160029
  19 H :    0.141358
  20 C :   -0.305441
  21 C :   -0.263898
  22 H :    0.125885
  23 H :    0.147670
  24 H :    0.149048
  25 H :    0.183395
  26 C :   -0.258814
  27 H :    0.109937
  28 H :    0.134573
  29 C :   -0.310600
  30 H :    0.125708
  31 H :    0.156604
  32 C :   -0.216636
  33 H :    0.128137
  34 H :    0.140893
  35 H :    0.157475
  36 H :    0.128650
  37 H :    0.127658
  38 H :    0.131596
  39 O :   -0.435260
Sum of atomic charges:   -0.0000000

LOEWDIN ATOMIC CHARGES
----------------------
   0 C :   -0.311341
   1 N :    0.121902
   2 C :   -0.283222
   3 C :   -0.376958
   4 H :    0.147111
   5 H :    0.147901
   6 S :    0.540306
   7 C :   -0.469156
   8 C :   -0.367032
   9 N :   -0.028300
  10 H :    0.157166
  11 H :    0.171578
  12 H :    0.165739
  13 H :    0.086332
  14 H :    0.092440
  15 O :   -0.239547
  16 F :    0.128626
  17 C :   -0.281994
  18 H :    0.137732
  19 H :    0.126358
  20 C :   -0.279238
  21 C :   -0.279962
  22 H :    0.141237
  23 H :    0.144459
  24 H :    0.151675
  25 H :    0.156430
  26 C :   -0.276823
  27 H :    0.138152
  28 H :    0.141084
  29 C :   -0.281448
  30 H :    0.140896
  31 H :    0.145650
  32 C :   -0.276757
  33 H :    0.140383
  34 H :    0.136363
  35 H :    0.143602
  36 H :    0.139520
  37 H :    0.139796
  38 H :    0.141666
  39 O :   -0.272324

  Mayer bond orders larger than 0.100000
B(  0-C ,  1-N ) :   0.9470 B(  0-C , 17-C ) :   0.8634 B(  0-C , 18-H ) :   0.9989
B(  0-C , 19-H ) :   1.0060 B(  1-N ,  7-C ) :   1.1753 B(  1-N , 12-H ) :   0.8874
B(  2-C ,  3-C ) :   0.9291 B(  2-C , 21-C ) :   0.9143 B(  2-C , 24-H ) :   0.9643
B(  2-C , 25-H ) :   0.9667 B(  3-C ,  4-H ) :   0.9371 B(  3-C ,  5-H ) :   0.9488
B(  3-C ,  6-S ) :   0.9329 B(  6-S , 15-O ) :   1.8638 B(  6-S , 16-F ) :   1.2095
B(  6-S , 39-O ) :   1.7882 B(  7-C ,  8-C ) :   1.5509 B(  7-C ,  9-N ) :   1.0896
B(  8-C , 13-H ) :   1.0351 B(  8-C , 14-H ) :   1.0032 B(  9-N , 10-H ) :   0.9301
B(  9-N , 11-H ) :   0.9356 B( 17-C , 26-C ) :   0.9385 B( 17-C , 27-H ) :   0.9797
B( 17-C , 28-H ) :   0.9780 B( 20-C , 21-C ) :   0.9011 B( 20-C , 32-C ) :   0.9321
B( 20-C , 35-H ) :   0.9885 B( 20-C , 36-H ) :   0.9836 B( 21-C , 22-H ) :   0.9699
B( 21-C , 23-H ) :   0.9743 B( 26-C , 29-C ) :   0.8801 B( 26-C , 30-H ) :   0.9820
B( 26-C , 31-H ) :   0.9709 B( 29-C , 32-C ) :   0.9263 B( 29-C , 33-H ) :   0.9814
B( 29-C , 34-H ) :   0.9921 B( 32-C , 37-H ) :   0.9937 B( 32-C , 38-H ) :   0.9891

FINAL SINGLE POINT ENERGY     -1189.128249458576

DIPOLE MOMENT
-------------
                                X             Y             Z
Electronic contribution:    -20.64772       2.66086     -20.20319
Nuclear contribution   :     20.03262      -4.53368      20.24480
                        -----------------------------------------
Total Dipole Moment    :     -0.61510      -1.87283       0.04161
                        -----------------------------------------
Magnitude (a.u.)       :      1.97169
Magnitude (Debye)      :      5.01164

Rotational constants in cm-1:     0.014367     0.012055     0.007393
Rotational constants in MHz :   430.711297   361.391195   221.649333

                             ****ORCA TERMINATED NORMALLY****
TOTAL RUN TIME: 0 days 0 hours 2 minutes 4 seconds 427 msec
