                         Program Version 5.0.0 -  RELEASE  -
|  1> !LC-BLYP RIJCOSX def2-TZVP def2/J TightSCF xyzfile
|  2>
|  3> *xyzfile 0 1 D6.xyz
|  4>
|  5> %MaxCore 64000
|  6>
|  7> %pal nprocs 18
|  8> end
|  9>
| 10> %scf
| 11>   MaxIter 150
| 12> end
| 13>
| 14>
| 15>                          ****END OF INPUT****

CARTESIAN COORDINATES (ANGSTROEM)
---------------------------------
  C      4.490588    1.155899   -2.469290
  N      4.305394    1.222762   -3.908317
  C      4.906458   -3.102816   -5.954844
  C      3.511771   -2.806215   -6.492283
  H      2.736044   -3.373445   -5.973736
  H      3.444904   -3.040831   -7.555281
  S      3.004618   -1.096206   -6.389259
  C      4.631918    2.246365   -4.670958
  N      4.541686    2.143990   -5.987139
  C      5.084086    3.393584   -4.118545
  H      4.920675    3.570501   -3.135870
  H      5.254652    4.197390   -4.706956
  H      3.824530    0.449113   -4.350926
  H      4.343373    1.249318   -6.416646
  H      4.676712    2.956624   -6.574113
  O      4.128856   -0.329647   -6.953717
  F      1.781285   -1.000779   -7.136399
  C      5.942129    0.939500   -2.036893
  H      3.864305    0.328532   -2.136611
  H      4.076233    2.049994   -1.989010
  C      6.462677   -3.117775   -3.944671
  C      5.024977   -3.025679   -4.437625
  H      4.423321   -3.818693   -3.977648
  H      4.579350   -2.087131   -4.108727
  H      5.201533   -4.100207   -6.296905
  H      5.605922   -2.397822   -6.413368
  C      6.559957   -0.356290   -2.559086
  H      5.967976    0.952567   -0.942444
  H      6.547184    1.788331   -2.368849
  C      6.006283   -1.615917   -1.899301
  H      7.642360   -0.318000   -2.402059
  H      6.414855   -0.403433   -3.642587
  C      6.608718   -2.917014   -2.435655
  H      6.190324   -1.561115   -0.820948
  H      4.919250   -1.651245   -2.016586
  H      7.066975   -2.374258   -4.475514
  H      6.887808   -4.089747   -4.215332
  H      6.135197   -3.755573   -1.915159
  H      7.671142   -2.955503   -2.172291
  O      2.851546   -0.783683   -4.956789

 Total Charge           Charge          ....    0
 Multiplicity           Mult            ....    1
 Number of Electrons    NEL             ....  144
 Basis Dimension        Dim             ....  671

ORBITAL ENERGIES
----------------

  NO   OCC          E(Eh)            E(eV)
   0   2.0000     -88.554161     -2409.6812
   1   2.0000     -24.607538      -669.6052
   2   2.0000     -18.979155      -516.4491
   3   2.0000     -18.978658      -516.4355
   4   2.0000     -14.130270      -384.5042
   5   2.0000     -14.124262      -384.3407
   6   2.0000     -10.153500      -276.2908
   7   2.0000     -10.108257      -275.0597
   8   2.0000     -10.084940      -274.4252
   9   2.0000     -10.076820      -274.2042
  10   2.0000     -10.074338      -274.1367
  11   2.0000     -10.068636      -273.9815
  12   2.0000     -10.061876      -273.7976
  13   2.0000     -10.053425      -273.5676
  14   2.0000     -10.045116      -273.3415
  15   2.0000     -10.038799      -273.1696
  16   2.0000      -9.947552      -270.6866
  17   2.0000      -8.096861      -220.3268
  18   2.0000      -6.128442      -166.7634
  19   2.0000      -6.122029      -166.5889
  20   2.0000      -6.121221      -166.5669
  21   2.0000      -1.499302       -40.7981
  22   2.0000      -1.232972       -33.5509
  23   2.0000      -1.134063       -30.8594
  24   2.0000      -1.037631       -28.2354
  25   2.0000      -0.968606       -26.3571
  26   2.0000      -0.955407       -25.9979
  27   2.0000      -0.924509       -25.1572
  28   2.0000      -0.891746       -24.2656
  29   2.0000      -0.864148       -23.5147
  30   2.0000      -0.835940       -22.7471
  31   2.0000      -0.799895       -21.7663
  32   2.0000      -0.784514       -21.3477
  33   2.0000      -0.764102       -20.7923
  34   2.0000      -0.738738       -20.1021
  35   2.0000      -0.727211       -19.7884
  36   2.0000      -0.711079       -19.3495
  37   2.0000      -0.698154       -18.9977
  38   2.0000      -0.694752       -18.9052
  39   2.0000      -0.663241       -18.0477
  40   2.0000      -0.642060       -17.4713
  41   2.0000      -0.628164       -17.0932
  42   2.0000      -0.623936       -16.9782
  43   2.0000      -0.608828       -16.5671
  44   2.0000      -0.600540       -16.3415
  45   2.0000      -0.584342       -15.9008
  46   2.0000      -0.579534       -15.7699
  47   2.0000      -0.565641       -15.3919
  48   2.0000      -0.555131       -15.1059
  49   2.0000      -0.541697       -14.7403
  50   2.0000      -0.534117       -14.5341
  51   2.0000      -0.532248       -14.4832
  52   2.0000      -0.522445       -14.2165
  53   2.0000      -0.506534       -13.7835
  54   2.0000      -0.492907       -13.4127
  55   2.0000      -0.486510       -13.2386
  56   2.0000      -0.483571       -13.1586
  57   2.0000      -0.472221       -12.8498
  58   2.0000      -0.465170       -12.6579
  59   2.0000      -0.459526       -12.5043
  60   2.0000      -0.452052       -12.3010
  61   2.0000      -0.446133       -12.1399
  62   2.0000      -0.440055       -11.9745
  63   2.0000      -0.435243       -11.8436
  64   2.0000      -0.429461       -11.6862
  65   2.0000      -0.427341       -11.6285
  66   2.0000      -0.418379       -11.3847
  67   2.0000      -0.404441       -11.0054
  68   2.0000      -0.401283       -10.9195
  69   2.0000      -0.392516       -10.6809
  70   2.0000      -0.312454        -8.5023
  71   2.0000      -0.226913        -6.1746
  72   0.0000       0.069388         1.8881
  73   0.0000       0.077973         2.1218
  74   0.0000       0.100673         2.7394
  75   0.0000       0.104178         2.8348
  76   0.0000       0.110309         3.0016

MULLIKEN ATOMIC CHARGES
-----------------------
   0 C :   -0.308184
   1 N :   -0.262942
   2 C :   -0.287617
   3 C :   -0.288508
   4 H :    0.182927
   5 H :    0.187262
   6 S :    0.809739
   7 C :    0.353856
   8 N :   -0.459838
   9 C :   -0.600010
  10 H :    0.101120
  11 H :    0.071452
  12 H :    0.200564
  13 H :    0.225718
  14 H :    0.223210
  15 O :   -0.421133
  16 F :   -0.052022
  17 C :   -0.168381
  18 H :    0.151972
  19 H :    0.150537
  20 C :   -0.303723
  21 C :   -0.268793
  22 H :    0.128837
  23 H :    0.150380
  24 H :    0.154222
  25 H :    0.182401
  26 C :   -0.257024
  27 H :    0.110509
  28 H :    0.159352
  29 C :   -0.312168
  30 H :    0.126069
  31 H :    0.139255
  32 C :   -0.217300
  33 H :    0.129640
  34 H :    0.139440
  35 H :    0.156479
  36 H :    0.129562
  37 H :    0.127501
  38 H :    0.132831
  39 O :   -0.417195
Sum of atomic charges:   -0.0000000

LOEWDIN ATOMIC CHARGES
----------------------
   0 C :   -0.293688
   1 N :    0.120370
   2 C :   -0.282748
   3 C :   -0.373129
   4 H :    0.150548
   5 H :    0.149215
   6 S :    0.543078
   7 C :   -0.471079
   8 N :   -0.018117
   9 C :   -0.386942
  10 H :    0.095994
  11 H :    0.090895
  12 H :    0.155801
  13 H :    0.134843
  14 H :    0.171511
  15 O :   -0.260400
  16 F :    0.132499
  17 C :   -0.276387
  18 H :    0.133905
  19 H :    0.135490
  20 C :   -0.279147
  21 C :   -0.279989
  22 H :    0.142117
  23 H :    0.144778
  24 H :    0.153531
  25 H :    0.155731
  26 C :   -0.278267
  27 H :    0.138625
  28 H :    0.149566
  29 C :   -0.281770
  30 H :    0.140728
  31 H :    0.140782
  32 C :   -0.276817
  33 H :    0.141076
  34 H :    0.135514
  35 H :    0.143419
  36 H :    0.139594
  37 H :    0.139557
  38 H :    0.142192
  39 O :   -0.262879

  Mayer bond orders larger than 0.100000
B(  0-C ,  1-N ) :   0.9376 B(  0-C , 17-C ) :   0.8906 B(  0-C , 18-H ) :   0.9990
B(  0-C , 19-H ) :   0.9916 B(  1-N ,  7-C ) :   1.1749 B(  1-N , 12-H ) :   0.8955
B(  2-C ,  3-C ) :   0.9258 B(  2-C , 21-C ) :   0.9085 B(  2-C , 24-H ) :   0.9630
B(  2-C , 25-H ) :   0.9692 B(  3-C ,  4-H ) :   0.9352 B(  3-C ,  5-H ) :   0.9474
B(  3-C ,  6-S ) :   0.9310 B(  6-S , 15-O ) :   1.8061 B(  6-S , 16-F ) :   1.2178
B(  6-S , 39-O ) :   1.8088 B(  7-C ,  8-N ) :   1.1539 B(  7-C ,  9-C ) :   1.5809
B(  8-N , 13-H ) :   0.8827 B(  8-N , 14-H ) :   0.9358 B(  9-C , 10-H ) :   1.0046
B(  9-C , 11-H ) :   1.0084 B( 17-C , 26-C ) :   0.9436 B( 17-C , 27-H ) :   0.9856
B( 17-C , 28-H ) :   0.9717 B( 20-C , 21-C ) :   0.9022 B( 20-C , 32-C ) :   0.9332
B( 20-C , 35-H ) :   0.9879 B( 20-C , 36-H ) :   0.9837 B( 21-C , 22-H ) :   0.9694
B( 21-C , 23-H ) :   0.9752 B( 26-C , 29-C ) :   0.8777 B( 26-C , 30-H ) :   0.9831
B( 26-C , 31-H ) :   0.9717 B( 29-C , 32-C ) :   0.9236 B( 29-C , 33-H ) :   0.9819
B( 29-C , 34-H ) :   0.9930 B( 32-C , 37-H ) :   0.9940 B( 32-C , 38-H ) :   0.9886

FINAL SINGLE POINT ENERGY     -1189.142837141130

DIPOLE MOMENT
-------------
                                X             Y             Z
Electronic contribution:    -21.18754       1.26977     -21.94178
Nuclear contribution   :     20.11362      -4.34709      20.52383
                        -----------------------------------------
Total Dipole Moment    :     -1.07392      -3.07731      -1.41795
                        -----------------------------------------
Magnitude (a.u.)       :      3.55440
Magnitude (Debye)      :      9.03456

Rotational constants in cm-1:     0.014449     0.012108     0.007447
Rotational constants in MHz :   433.168496   362.988632   223.260798

                             ****ORCA TERMINATED NORMALLY****
TOTAL RUN TIME: 0 days 0 hours 1 minutes 54 seconds 366 msec
