                         Program Version 5.0.0 -  RELEASE  -
|  1> !LC-BLYP RIJCOSX def2-TZVP def2/J TightSCF xyzfile
|  2>
|  3> *xyzfile 0 1 D9.xyz
|  4>
|  5> %MaxCore 64000
|  6>
|  7> %pal nprocs 18
|  8> end
|  9>
| 10> %scf
| 11>   MaxIter 150
| 12> end
| 13>
| 14>
| 15>                          ****END OF INPUT****

CARTESIAN COORDINATES (ANGSTROEM)
---------------------------------
  C      4.490588    1.155899   -2.469290
  N      4.305394    1.222762   -3.908317
  C      4.906458   -3.102816   -5.954844
  C      3.511771   -2.806215   -6.492283
  H      2.736044   -3.373445   -5.973736
  H      3.444904   -3.040831   -7.555281
  S      3.004618   -1.096206   -6.389259
  C      4.631918    2.246365   -4.670958
  N      4.541686    2.143990   -5.987139
  C      5.084086    3.393584   -4.118545
  H      4.920675    3.570501   -3.135870
  H      5.254652    4.197390   -4.706956
  H      3.824530    0.449113   -4.350926
  H      4.343373    1.249318   -6.416646
  H      4.676712    2.956624   -6.574113
  O      4.128856   -0.329647   -6.953717
  O      1.781285   -1.000779   -7.136399
  C      5.942129    0.939500   -2.036893
  H      3.864305    0.328532   -2.136611
  H      4.076233    2.049994   -1.989010
  C      6.462677   -3.117775   -3.944671
  C      5.024977   -3.025679   -4.437625
  H      4.423321   -3.818693   -3.977648
  H      4.579350   -2.087131   -4.108727
  H      5.201533   -4.100207   -6.296905
  H      5.605922   -2.397822   -6.413368
  C      6.559957   -0.356290   -2.559086
  H      5.967976    0.952567   -0.942444
  H      6.547184    1.788331   -2.368849
  C      6.006283   -1.615917   -1.899301
  H      7.642360   -0.318000   -2.402059
  H      6.414855   -0.403433   -3.642587
  C      6.608718   -2.917014   -2.435655
  H      6.190324   -1.561115   -0.820948
  H      4.919250   -1.651245   -2.016586
  H      7.066975   -2.374258   -4.475514
  H      6.887808   -4.089747   -4.215332
  H      6.135197   -3.755573   -1.915159
  H      7.671142   -2.955503   -2.172291
  F      2.851546   -0.783683   -4.956789

 Total Charge           Charge          ....    0
 Multiplicity           Mult            ....    1
 Number of Electrons    NEL             ....  144
 Basis Dimension        Dim             ....  671

ORBITAL ENERGIES
----------------

  NO   OCC          E(Eh)            E(eV)
   0   2.0000     -88.544114     -2409.4078
   1   2.0000     -24.593103      -669.2124
   2   2.0000     -18.977532      -516.4049
   3   2.0000     -18.974257      -516.3158
   4   2.0000     -14.157021      -385.2321
   5   2.0000     -14.133387      -384.5890
   6   2.0000     -10.148303      -276.1494
   7   2.0000     -10.106763      -275.0190
   8   2.0000     -10.099224      -274.8139
   9   2.0000     -10.092081      -274.6195
  10   2.0000     -10.089629      -274.5528
  11   2.0000     -10.077231      -274.2154
  12   2.0000     -10.070691      -274.0374
  13   2.0000     -10.064645      -273.8729
  14   2.0000     -10.056732      -273.6576
  15   2.0000     -10.051832      -273.5242
  16   2.0000      -9.960891      -271.0496
  17   2.0000      -8.087110      -220.0615
  18   2.0000      -6.119174      -166.5112
  19   2.0000      -6.111930      -166.3141
  20   2.0000      -6.111300      -166.2969
  21   2.0000      -1.476049       -40.1653
  22   2.0000      -1.233742       -33.5718
  23   2.0000      -1.138698       -30.9855
  24   2.0000      -1.055962       -28.7342
  25   2.0000      -0.971313       -26.4308
  26   2.0000      -0.968082       -26.3429
  27   2.0000      -0.930793       -25.3282
  28   2.0000      -0.896742       -24.4016
  29   2.0000      -0.864484       -23.5238
  30   2.0000      -0.842419       -22.9234
  31   2.0000      -0.809007       -22.0142
  32   2.0000      -0.796045       -21.6615
  33   2.0000      -0.772370       -21.0173
  34   2.0000      -0.749890       -20.4055
  35   2.0000      -0.720982       -19.6189
  36   2.0000      -0.711698       -19.3663
  37   2.0000      -0.705606       -19.2005
  38   2.0000      -0.686367       -18.6770
  39   2.0000      -0.672535       -18.3006
  40   2.0000      -0.642507       -17.4835
  41   2.0000      -0.631765       -17.1912
  42   2.0000      -0.622523       -16.9397
  43   2.0000      -0.613884       -16.7046
  44   2.0000      -0.600568       -16.3423
  45   2.0000      -0.598539       -16.2871
  46   2.0000      -0.579820       -15.7777
  47   2.0000      -0.578142       -15.7321
  48   2.0000      -0.558989       -15.2109
  49   2.0000      -0.555261       -15.1094
  50   2.0000      -0.543567       -14.7912
  51   2.0000      -0.540952       -14.7200
  52   2.0000      -0.523557       -14.2467
  53   2.0000      -0.514318       -13.9953
  54   2.0000      -0.501180       -13.6378
  55   2.0000      -0.493908       -13.4399
  56   2.0000      -0.486429       -13.2364
  57   2.0000      -0.479014       -13.0346
  58   2.0000      -0.472045       -12.8450
  59   2.0000      -0.465226       -12.6594
  60   2.0000      -0.460518       -12.5313
  61   2.0000      -0.455507       -12.3950
  62   2.0000      -0.449919       -12.2429
  63   2.0000      -0.444838       -12.1047
  64   2.0000      -0.441999       -12.0274
  65   2.0000      -0.436237       -11.8706
  66   2.0000      -0.432156       -11.7596
  67   2.0000      -0.416422       -11.3314
  68   2.0000      -0.413691       -11.2571
  69   2.0000      -0.405012       -11.0209
  70   2.0000      -0.328732        -8.9452
  71   2.0000      -0.240663        -6.5488
  72   0.0000       0.063849         1.7374
  73   0.0000       0.085312         2.3215
  74   0.0000       0.095753         2.6056
  75   0.0000       0.099466         2.7066
  76   0.0000       0.111239         3.0270

MULLIKEN ATOMIC CHARGES
-----------------------
   0 C :   -0.313796
   1 N :   -0.264927
   2 C :   -0.266548
   3 C :   -0.313058
   4 H :    0.185056
   5 H :    0.207381
   6 S :    0.776136
   7 C :    0.361977
   8 N :   -0.457251
   9 C :   -0.593197
  10 H :    0.103674
  11 H :    0.079188
  12 H :    0.163905
  13 H :    0.232657
  14 H :    0.228246
  15 O :   -0.426623
  16 O :   -0.338460
  17 C :   -0.168350
  18 H :    0.148252
  19 H :    0.161068
  20 C :   -0.307873
  21 C :   -0.259194
  22 H :    0.139843
  23 H :    0.095457
  24 H :    0.150848
  25 H :    0.183599
  26 C :   -0.265783
  27 H :    0.116874
  28 H :    0.165497
  29 C :   -0.307289
  30 H :    0.132308
  31 H :    0.143213
  32 C :   -0.221442
  33 H :    0.134536
  34 H :    0.131329
  35 H :    0.160270
  36 H :    0.136436
  37 H :    0.131214
  38 H :    0.136682
  39 F :   -0.101853
Sum of atomic charges:   -0.0000000

LOEWDIN ATOMIC CHARGES
----------------------
   0 C :   -0.293775
   1 N :    0.113562
   2 C :   -0.292101
   3 C :   -0.369196
   4 H :    0.149438
   5 H :    0.162408
   6 S :    0.535981
   7 C :   -0.471117
   8 N :   -0.012720
   9 C :   -0.375190
  10 H :    0.096816
  11 H :    0.093682
  12 H :    0.154276
  13 H :    0.135327
  14 H :    0.174672
  15 O :   -0.262753
  16 O :   -0.229238
  17 C :   -0.275017
  18 H :    0.132084
  19 H :    0.138472
  20 C :   -0.277167
  21 C :   -0.283711
  22 H :    0.143723
  23 H :    0.133022
  24 H :    0.152079
  25 H :    0.154586
  26 C :   -0.278204
  27 H :    0.140679
  28 H :    0.151136
  29 C :   -0.282185
  30 H :    0.142828
  31 H :    0.140549
  32 C :   -0.276271
  33 H :    0.142477
  34 H :    0.132313
  35 H :    0.144460
  36 H :    0.142308
  37 H :    0.140491
  38 H :    0.143477
  39 F :    0.087798

  Mayer bond orders larger than 0.100000
B(  0-C ,  1-N ) :   0.9301 B(  0-C , 17-C ) :   0.8884 B(  0-C , 18-H ) :   0.9987
B(  0-C , 19-H ) :   0.9942 B(  1-N ,  7-C ) :   1.1505 B(  1-N , 12-H ) :   0.9315
B(  2-C ,  3-C ) :   0.9046 B(  2-C , 21-C ) :   0.9050 B(  2-C , 24-H ) :   0.9613
B(  2-C , 25-H ) :   0.9679 B(  3-C ,  4-H ) :   0.9470 B(  3-C ,  5-H ) :   0.9501
B(  3-C ,  6-S ) :   0.9191 B(  6-S , 15-O ) :   1.7821 B(  6-S , 16-O ) :   2.0613
B(  6-S , 39-F ) :   1.0773 B(  7-C ,  8-N ) :   1.1647 B(  7-C ,  9-C ) :   1.5869
B(  8-N , 13-H ) :   0.8763 B(  8-N , 14-H ) :   0.9339 B(  9-C , 10-H ) :   1.0022
B(  9-C , 11-H ) :   1.0081 B( 17-C , 26-C ) :   0.9405 B( 17-C , 27-H ) :   0.9849
B( 17-C , 28-H ) :   0.9714 B( 20-C , 21-C ) :   0.9067 B( 20-C , 32-C ) :   0.9280
B( 20-C , 35-H ) :   0.9881 B( 20-C , 36-H ) :   0.9837 B( 21-C , 22-H ) :   0.9676
B( 21-C , 23-H ) :   0.9806 B( 26-C , 29-C ) :   0.8718 B( 26-C , 30-H ) :   0.9828
B( 26-C , 31-H ) :   0.9740 B( 29-C , 32-C ) :   0.9235 B( 29-C , 33-H ) :   0.9808
B( 29-C , 34-H ) :   0.9952 B( 32-C , 37-H ) :   0.9945 B( 32-C , 38-H ) :   0.9882

FINAL SINGLE POINT ENERGY     -1189.149390040735

DIPOLE MOMENT
-------------
                                X             Y             Z
Electronic contribution:    -18.99441       1.82382     -17.87672
Nuclear contribution   :     18.85717      -4.60195      17.96505
                        -----------------------------------------
Total Dipole Moment    :     -0.13724      -2.77813       0.08834
                        -----------------------------------------
Magnitude (a.u.)       :      2.78292
Magnitude (Debye)      :      7.07361

Rotational constants in cm-1:     0.014436     0.012382     0.007563
Rotational constants in MHz :   432.785702   371.214592   226.743759

                             ****ORCA TERMINATED NORMALLY****
TOTAL RUN TIME: 0 days 0 hours 1 minutes 39 seconds 5 msec
