                         Program Version 5.0.0 -  RELEASE  -
|  1> !PBE D3BJ RIJCOSX def2-TZVPD def2/J TightSCF
|  2> *xyz -1 1
|  3> C          0.84888        2.66797       -4.30235
|  4> C          2.09343        1.86104       -4.65684
|  5> H          2.44481        2.04157       -5.67499
|  6> H          2.90175        2.13786       -3.98034
|  7> S          1.87964        0.07859       -4.46297
|  8> O          3.20757       -0.46611       -4.42026
|  9> O          1.07506       -0.05616       -3.26876
| 10> O          1.13166       -0.31996       -5.67903
| 11> H          0.05064        2.40112       -4.96303
| 12> H          1.06043        3.71210       -4.40203
| 13> H          0.56237        2.45684       -3.29327
| 14> *
| 15>
| 16> %MaxCore 64000
| 17>
| 18> %pal nprocs 4
| 19> end
| 20>
| 21> %scf
| 22>   MaxIter 150
| 23> end
| 24>
| 25>
| 26>                          ****END OF INPUT****

CARTESIAN COORDINATES (ANGSTROEM)
---------------------------------
  C      0.848880    2.667970   -4.302350
  C      2.093430    1.861040   -4.656840
  H      2.444810    2.041570   -5.674990
  H      2.901750    2.137860   -3.980340
  S      1.879640    0.078590   -4.462970
  O      3.207570   -0.466110   -4.420260
  O      1.075060   -0.056160   -3.268760
  O      1.131660   -0.319960   -5.679030
  H      0.050640    2.401120   -4.963030
  H      1.060430    3.712100   -4.402030
  H      0.562370    2.456840   -3.293270

 Total Charge           Charge          ....   -1
 Multiplicity           Mult            ....    1
 Number of Electrons    NEL             ....   58
 Basis Dimension        Dim             ....  285

ORBITAL ENERGIES
----------------

  NO   OCC          E(Eh)            E(eV)
   0   2.0000     -88.009460     -2394.8592
   1   2.0000     -18.533347      -504.3180
   2   2.0000     -18.530349      -504.2364
   3   2.0000     -18.518716      -503.9199
   4   2.0000      -9.736604      -264.9465
   5   2.0000      -9.730004      -264.7669
   6   2.0000      -7.604880      -206.9393
   7   2.0000      -5.625840      -153.0869
   8   2.0000      -5.624735      -153.0568
   9   2.0000      -5.624449      -153.0490
  10   2.0000      -0.835022       -22.7221
  11   2.0000      -0.711758       -19.3679
  12   2.0000      -0.687288       -18.7020
  13   2.0000      -0.555393       -15.1130
  14   2.0000      -0.435907       -11.8616
  15   2.0000      -0.321005        -8.7350
  16   2.0000      -0.264309        -7.1922
  17   2.0000      -0.260852        -7.0981
  18   2.0000      -0.222977        -6.0675
  19   2.0000      -0.208489        -5.6733
  20   2.0000      -0.202821        -5.5190
  21   2.0000      -0.181774        -4.9463
  22   2.0000      -0.166027        -4.5178
  23   2.0000      -0.105314        -2.8657
  24   2.0000      -0.104033        -2.8309
  25   2.0000      -0.073186        -1.9915
  26   2.0000      -0.067245        -1.8298
  27   2.0000      -0.055424        -1.5082
  28   2.0000      -0.020766        -0.5651
  29   0.0000       0.111421         3.0319
  30   0.0000       0.134725         3.6660
  31   0.0000       0.141017         3.8373
  32   0.0000       0.148403         4.0383
  33   0.0000       0.166734         4.5371

MULLIKEN ATOMIC CHARGES
-----------------------
   0 C :   -0.885505
   1 C :   -0.233094
   2 H :    0.189164
   3 H :    0.186935
   4 S :    1.019785
   5 O :   -0.629272
   6 O :   -0.652036
   7 O :   -0.688787
   8 H :    0.233260
   9 H :    0.219961
  10 H :    0.239589
Sum of atomic charges:   -1.0000000

LOEWDIN ATOMIC CHARGES
----------------------
   0 C :   -0.156250
   1 C :   -0.334492
   2 H :    0.081538
   3 H :    0.075808
   4 S :    0.290114
   5 O :   -0.361554
   6 O :   -0.361879
   7 O :   -0.394466
   8 H :    0.060958
   9 H :    0.046289
  10 H :    0.053934

  Mayer bond orders larger than 0.100000
B(  0-C ,  1-C ) :   0.8486 B(  0-C ,  8-H ) :   0.9819 B(  0-C ,  9-H ) :   0.9642
B(  0-C , 10-H ) :   0.9831 B(  1-C ,  2-H ) :   0.9605 B(  1-C ,  3-H ) :   0.9676
B(  1-C ,  4-S ) :   0.8432 B(  1-C ,  5-O ) :   0.1488 B(  1-C ,  6-O ) :   0.1027
B(  1-C ,  7-O ) :   0.1324 B(  4-S ,  5-O ) :   1.5620 B(  4-S ,  6-O ) :   1.5481
B(  4-S ,  7-O ) :   1.5097

Dispersion correction           -0.009699650
FINAL SINGLE POINT ENERGY      -702.814952811175

DIPOLE MOMENT
-------------
                                X             Y             Z
Electronic contribution:      1.60624      -7.79995       0.05920
Nuclear contribution   :     -1.55288       9.51857       0.00420
                        -----------------------------------------
Total Dipole Moment    :      0.05336       1.71862       0.06341
                        -----------------------------------------
Magnitude (a.u.)       :      1.72062
Magnitude (Debye)      :      4.37347

Rotational constants in cm-1:     0.163401     0.083833     0.082462
Rotational constants in MHz :  4898.624208  2513.264548  2472.149188

                             ****ORCA TERMINATED NORMALLY****
TOTAL RUN TIME: 0 days 0 hours 0 minutes 17 seconds 420 msec
