                         Program Version 5.0.0 -  RELEASE  -
|  1> !PBE D3BJ RIJCOSX def2-TZVPD def2/J TightSCF
|  2> *xyz 1 1
|  3> C         -0.46129        2.23469       -4.98962
|  4> C          0.84888        2.66797       -4.30235
|  5> C         -0.42384        2.39877       -6.47432
|  6> N         -0.95947        3.49265       -7.00740
|  7> N          0.14558        1.48689       -7.20399
|  8> H          0.56537        0.69681       -6.72386
|  9> H          0.22068        1.58177       -8.20752
| 10> H         -1.40624        4.18151       -6.40326
| 11> H         -0.93421        3.68160       -7.99947
| 12> H         -1.28888        2.82674       -4.59500
| 13> H         -0.65170        1.18634       -4.75655
| 14> H          1.66208        2.08894       -4.68750
| 15> H          0.76716        2.51042       -3.24717
| 16> H          1.02677        3.70527       -4.49537
| 17> *
| 18>
| 19> %MaxCore 64000
| 20>
| 21> %pal nprocs 4
| 22> end
| 23>
| 24> %scf
| 25>   MaxIter 150
| 26> end
| 27>
| 28>
| 29>                          ****END OF INPUT****

CARTESIAN COORDINATES (ANGSTROEM)
---------------------------------
  C     -0.461290    2.234690   -4.989620
  C      0.848880    2.667970   -4.302350
  C     -0.423840    2.398770   -6.474320
  N     -0.959470    3.492650   -7.007400
  N      0.145580    1.486890   -7.203990
  H      0.565370    0.696810   -6.723860
  H      0.220680    1.581770   -8.207520
  H     -1.406240    4.181510   -6.403260
  H     -0.934210    3.681600   -7.999470
  H     -1.288880    2.826740   -4.595000
  H     -0.651700    1.186340   -4.756550
  H      1.662080    2.088940   -4.687500
  H      0.767160    2.510420   -3.247170
  H      1.026770    3.705270   -4.495370

 Total Charge           Charge          ....    1
 Multiplicity           Mult            ....    1
 Number of Electrons    NEL             ....   40
 Basis Dimension        Dim             ....  266

ORBITAL ENERGIES
----------------

  NO   OCC          E(Eh)            E(eV)
   0   2.0000     -14.230941      -387.2436
   1   2.0000     -14.227759      -387.1570
   2   2.0000     -10.194016      -277.3933
   3   2.0000     -10.080103      -274.2935
   4   2.0000     -10.035713      -273.0856
   5   2.0000      -1.121352       -30.5135
   6   2.0000      -1.032762       -28.1029
   7   2.0000      -0.897631       -24.4258
   8   2.0000      -0.799512       -21.7558
   9   2.0000      -0.757585       -20.6149
  10   2.0000      -0.725048       -19.7296
  11   2.0000      -0.697204       -18.9719
  12   2.0000      -0.652856       -17.7651
  13   2.0000      -0.601511       -16.3680
  14   2.0000      -0.576020       -15.6743
  15   2.0000      -0.568596       -15.4723
  16   2.0000      -0.503449       -13.6995
  17   2.0000      -0.492967       -13.4143
  18   2.0000      -0.485960       -13.2236
  19   2.0000      -0.454398       -12.3648
  20   0.0000      -0.243886        -6.6365
  21   0.0000      -0.189945        -5.1687
  22   0.0000      -0.147005        -4.0002
  23   0.0000      -0.143492        -3.9046
  24   0.0000      -0.117869        -3.2074

MULLIKEN ATOMIC CHARGES
-----------------------
   0 C :   -0.267915
   1 C :   -0.828731
   2 C :    0.532367
   3 N :   -0.181036
   4 N :   -0.161879
   5 H :    0.212681
   6 H :    0.171190
   7 H :    0.201634
   8 H :    0.160893
   9 H :    0.182672
  10 H :    0.206526
  11 H :    0.266422
  12 H :    0.237594
  13 H :    0.267582
Sum of atomic charges:    1.0000000

LOEWDIN ATOMIC CHARGES
----------------------
   0 C :   -0.149955
   1 C :   -0.048896
   2 C :   -0.381869
   3 N :    0.237903
   4 N :    0.246452
   5 H :    0.153701
   6 H :    0.149715
   7 H :    0.148945
   8 H :    0.140960
   9 H :    0.127126
  10 H :    0.131773
  11 H :    0.076508
  12 H :    0.086258
  13 H :    0.081380

  Mayer bond orders larger than 0.100000
B(  0-C ,  1-C ) :   0.7641 B(  0-C ,  2-C ) :   0.8660 B(  0-C ,  9-H ) :   0.9793
B(  0-C , 10-H ) :   0.9480 B(  1-C ,  2-C ) :   0.1590 B(  1-C , 11-H ) :   0.9324
B(  1-C , 12-H ) :   0.9876 B(  1-C , 13-H ) :   0.9728 B(  2-C ,  3-N ) :   1.1997
B(  2-C ,  4-N ) :   1.2930 B(  3-N ,  4-N ) :   0.1242 B(  3-N ,  7-H ) :   0.9511
B(  3-N ,  8-H ) :   1.0323 B(  4-N ,  5-H ) :   0.9354 B(  4-N ,  6-H ) :   1.0109

Dispersion correction           -0.010109811
FINAL SINGLE POINT ENERGY      -228.830280355317

DIPOLE MOMENT
-------------
                                X             Y             Z
Electronic contribution:     -1.54849      -0.26220      -3.86795
Nuclear contribution   :      1.33202       0.27544       2.83701
                        -----------------------------------------
Total Dipole Moment    :     -0.21647       0.01324      -1.03094
                        -----------------------------------------
Magnitude (a.u.)       :      1.05351
Magnitude (Debye)      :      2.67780

Rotational constants in cm-1:     0.258570     0.126296     0.098869
Rotational constants in MHz :  7751.748523  3786.267300  2964.011691

                             ****ORCA TERMINATED NORMALLY****
TOTAL RUN TIME: 0 days 0 hours 0 minutes 14 seconds 183 msec
