                         Program Version 5.0.0 -  RELEASE  -
|  1> !PBE D3BJ RIJCOSX def2-TZVPD def2/J TightSCF xyzfile
|  2>
|  3> *xyzfile 0 1 B.xyz
|  4>
|  5> %MaxCore 64000
|  6>
|  7> %pal nprocs 4
|  8> end
|  9>
| 10> %scf
| 11>   MaxIter 150
| 12> end
| 13>
| 14>
| 15>                          ****END OF INPUT****

CARTESIAN COORDINATES (ANGSTROEM)
---------------------------------
  C     -0.461293    2.234686   -4.989619
  C      0.848883    2.667967   -4.302351
  C      2.093434    1.861037   -4.656845
  H      2.444814    2.041567   -5.674990
  H      2.901748    2.137864   -3.980338
  S      1.879644    0.078594   -4.462965
  C     -0.423841    2.398772   -6.474317
  N     -0.959467    3.492647   -7.007401
  N      0.145585    1.486891   -7.203987
  H      0.565371    0.696807   -6.723858
  H      0.220682    1.581768   -8.207520
  H     -1.406243    4.181507   -6.403261
  H     -0.934215    3.681601   -7.999468
  O      3.207574   -0.466111   -4.420259
  O      1.075064   -0.056160   -3.268758
  O      1.131661   -0.319960   -5.679031
  H      0.668432    2.559427   -3.232850
  H      1.034074    3.729426   -4.497081
  H     -1.288884    2.826737   -4.594997
  H     -0.651696    1.186343   -4.756552

 Total Charge           Charge          ....    0
 Multiplicity           Mult            ....    1
 Number of Electrons    NEL             ....   88
 Basis Dimension        Dim             ....  478

ORBITAL ENERGIES
----------------

  NO   OCC          E(Eh)            E(eV)
   0   2.0000     -88.162846     -2399.0330
   1   2.0000     -18.690840      -508.6036
   2   2.0000     -18.676714      -508.2192
   3   2.0000     -18.674962      -508.1715
   4   2.0000     -14.091414      -383.4469
   5   2.0000     -14.059127      -382.5683
   6   2.0000     -10.044615      -273.3279
   7   2.0000      -9.931257      -270.2432
   8   2.0000      -9.911152      -269.6961
   9   2.0000      -9.886477      -269.0247
  10   2.0000      -7.758358      -211.1157
  11   2.0000      -5.779618      -157.2714
  12   2.0000      -5.778575      -157.2430
  13   2.0000      -5.777229      -157.2064
  14   2.0000      -0.988786       -26.9062
  15   2.0000      -0.972527       -26.4638
  16   2.0000      -0.885330       -24.0910
  17   2.0000      -0.856097       -23.2956
  18   2.0000      -0.854491       -23.2519
  19   2.0000      -0.760592       -20.6967
  20   2.0000      -0.687045       -18.6954
  21   2.0000      -0.632313       -17.2061
  22   2.0000      -0.589688       -16.0462
  23   2.0000      -0.578408       -15.7393
  24   2.0000      -0.547495       -14.8981
  25   2.0000      -0.509715       -13.8700
  26   2.0000      -0.466119       -12.6837
  27   2.0000      -0.463320       -12.6076
  28   2.0000      -0.433783       -11.8038
  29   2.0000      -0.423986       -11.5373
  30   2.0000      -0.398074       -10.8321
  31   2.0000      -0.386921       -10.5287
  32   2.0000      -0.363814        -9.8999
  33   2.0000      -0.355271        -9.6674
  34   2.0000      -0.346151        -9.4193
  35   2.0000      -0.332034        -9.0351
  36   2.0000      -0.316714        -8.6182
  37   2.0000      -0.306943        -8.3524
  38   2.0000      -0.259131        -7.0513
  39   2.0000      -0.253533        -6.8990
  40   2.0000      -0.227827        -6.1995
  41   2.0000      -0.216637        -5.8950
  42   2.0000      -0.213233        -5.8024
  43   2.0000      -0.176765        -4.8100
  44   0.0000      -0.097930        -2.6648
  45   0.0000      -0.069568        -1.8931
  46   0.0000      -0.031962        -0.8697
  47   0.0000      -0.012820        -0.3489
  48   0.0000      -0.000847        -0.0230

MULLIKEN ATOMIC CHARGES
-----------------------
   0 C :   -0.318142
   1 C :   -0.219817
   2 C :   -0.551276
   3 H :    0.262945
   4 H :    0.138457
   5 S :    1.102584
   6 C :    0.290806
   7 N :   -0.200572
   8 N :   -0.077726
   9 H :    0.264104
  10 H :    0.146359
  11 H :    0.192340
  12 H :    0.135722
  13 O :   -0.589023
  14 O :   -0.625981
  15 O :   -0.759500
  16 H :    0.212717
  17 H :    0.109355
  18 H :    0.161260
  19 H :    0.325387
Sum of atomic charges:   -0.0000000

LOEWDIN ATOMIC CHARGES
----------------------
   0 C :   -0.115073
   1 C :   -0.206681
   2 C :   -0.253483
   3 H :    0.093522
   4 H :    0.100654
   5 S :    0.374090
   6 C :   -0.377629
   7 N :    0.201072
   8 N :    0.240447
   9 H :    0.031675
  10 H :    0.140815
  11 H :    0.132172
  12 H :    0.124628
  13 O :   -0.298718
  14 O :   -0.305967
  15 O :   -0.354428
  16 H :    0.116395
  17 H :    0.112420
  18 H :    0.122678
  19 H :    0.121410

  Mayer bond orders larger than 0.100000
B(  0-C ,  1-C ) :   0.8424 B(  0-C ,  6-C ) :   0.8343 B(  0-C , 18-H ) :   0.9299
B(  0-C , 19-H ) :   0.9147 B(  1-C ,  2-C ) :   1.0563 B(  1-C ,  6-C ) :   0.2807
B(  1-C , 16-H ) :   0.8655 B(  1-C , 17-H ) :   0.9663 B(  2-C ,  3-H ) :   0.8758
B(  2-C ,  4-H ) :   1.0230 B(  2-C ,  5-S ) :   0.8268 B(  2-C ,  8-N ) :   0.1089
B(  2-C , 13-O ) :   0.1772 B(  2-C , 15-O ) :   0.1710 B(  5-S , 13-O ) :   1.5577
B(  5-S , 14-O ) :   1.5712 B(  5-S , 15-O ) :   1.3352 B(  6-C ,  7-N ) :   1.1365
B(  6-C ,  8-N ) :   1.3733 B(  7-N ,  8-N ) :   0.1175 B(  7-N , 11-H ) :   0.9662
B(  7-N , 12-H ) :   1.0332 B(  8-N ,  9-H ) :   0.7892 B(  8-N , 10-H ) :   0.9898
B(  9-H , 15-O ) :   0.1320

Dispersion correction           -0.022855477
FINAL SINGLE POINT ENERGY      -891.333399218963

DIPOLE MOMENT
-------------
                                X             Y             Z
Electronic contribution:      3.16627      -7.81540       1.16772
Nuclear contribution   :     -5.91573      12.15027      -4.18945
                        -----------------------------------------
Total Dipole Moment    :     -2.74946       4.33487      -3.02173
                        -----------------------------------------
Magnitude (a.u.)       :      5.95663
Magnitude (Debye)      :     15.14056

Rotational constants in cm-1:     0.082044     0.024757     0.022371
Rotational constants in MHz :  2459.631375   742.181961   670.660570

                             ****ORCA TERMINATED NORMALLY****
TOTAL RUN TIME: 0 days 0 hours 0 minutes 42 seconds 563 msec
