                         Program Version 5.0.0 -  RELEASE  -
|  1> !PBE D3BJ RIJCOSX def2-TZVPD def2/J TightSCF
|  2> *xyz 0 1
|  3> C          0.84888        2.66797       -4.30235
|  4> C          2.09343        1.86104       -4.65684
|  5> H          2.44481        2.04157       -5.67499
|  6> H          2.90175        2.13786       -3.98034
|  7> S          1.87964        0.07859       -4.46297
|  8> F          3.20757       -0.46611       -4.42026
|  9> O          1.07506       -0.05616       -3.26876
| 10> O          1.13166       -0.31996       -5.67903
| 11> H          0.05064        2.40112       -4.96303
| 12> H          1.06043        3.71210       -4.40203
| 13> H          0.56237        2.45684       -3.29327
| 14> *
| 15>
| 16> %MaxCore 64000
| 17>
| 18> %pal nprocs 4
| 19> end
| 20>
| 21> %scf
| 22>   MaxIter 150
| 23> end
| 24>
| 25>
| 26>                          ****END OF INPUT****

CARTESIAN COORDINATES (ANGSTROEM)
---------------------------------
  C      0.848880    2.667970   -4.302350
  C      2.093430    1.861040   -4.656840
  H      2.444810    2.041570   -5.674990
  H      2.901750    2.137860   -3.980340
  S      1.879640    0.078590   -4.462970
  F      3.207570   -0.466110   -4.420260
  O      1.075060   -0.056160   -3.268760
  O      1.131660   -0.319960   -5.679030
  H      0.050640    2.401120   -4.963030
  H      1.060430    3.712100   -4.402030
  H      0.562370    2.456840   -3.293270

 Total Charge           Charge          ....    0
 Multiplicity           Mult            ....    1
 Number of Electrons    NEL             ....   58
 Basis Dimension        Dim             ....  285

ORBITAL ENERGIES
----------------

  NO   OCC          E(Eh)            E(eV)
   0   2.0000     -88.268695     -2401.9133
   1   2.0000     -24.378107      -663.3620
   2   2.0000     -18.762659      -510.5579
   3   2.0000     -18.751196      -510.2460
   4   2.0000      -9.937463      -270.4121
   5   2.0000      -9.894423      -269.2409
   6   2.0000      -7.864602      -214.0067
   7   2.0000      -5.888858      -160.2440
   8   2.0000      -5.882413      -160.0686
   9   2.0000      -5.882201      -160.0628
  10   2.0000      -1.283280       -34.9198
  11   2.0000      -1.014432       -27.6041
  12   2.0000      -0.919002       -25.0073
  13   2.0000      -0.745041       -20.2736
  14   2.0000      -0.670225       -18.2378
  15   2.0000      -0.609607       -16.5882
  16   2.0000      -0.526727       -14.3330
  17   2.0000      -0.524839       -14.2816
  18   2.0000      -0.497763       -13.5448
  19   2.0000      -0.441355       -12.0099
  20   2.0000      -0.430655       -11.7187
  21   2.0000      -0.393457       -10.7065
  22   2.0000      -0.382195       -10.4001
  23   2.0000      -0.361314        -9.8319
  24   2.0000      -0.342352        -9.3159
  25   2.0000      -0.336528        -9.1574
  26   2.0000      -0.290279        -7.8989
  27   2.0000      -0.277032        -7.5384
  28   2.0000      -0.260415        -7.0863
  29   0.0000      -0.031383        -0.8540
  30   0.0000      -0.009730        -0.2648
  31   0.0000       0.006634         0.1805
  32   0.0000       0.013673         0.3721
  33   0.0000       0.020986         0.5711

MULLIKEN ATOMIC CHARGES
-----------------------
   0 C :   -0.900328
   1 C :   -0.212208
   2 H :    0.238703
   3 H :    0.236615
   4 S :    0.972393
   5 F :   -0.066583
   6 O :   -0.504259
   7 O :   -0.526896
   8 H :    0.268434
   9 H :    0.218031
  10 H :    0.276097
Sum of atomic charges:    0.0000000

LOEWDIN ATOMIC CHARGES
----------------------
   0 C :   -0.107891
   1 C :   -0.291447
   2 H :    0.100997
   3 H :    0.093644
   4 S :    0.537414
   5 F :   -0.031057
   6 O :   -0.249784
   7 O :   -0.274867
   8 H :    0.077905
   9 H :    0.074695
  10 H :    0.070390

  Mayer bond orders larger than 0.100000
B(  0-C ,  1-C ) :   0.9151 B(  0-C ,  8-H ) :   0.9530 B(  0-C ,  9-H ) :   0.9631
B(  0-C , 10-H ) :   0.9510 B(  1-C ,  2-H ) :   0.9253 B(  1-C ,  3-H ) :   0.9034
B(  1-C ,  4-S ) :   0.8408 B(  1-C ,  7-O ) :   0.1035 B(  4-S ,  5-F ) :   1.0862
B(  4-S ,  6-O ) :   1.7504 B(  4-S ,  7-O ) :   1.7104 B(  6-O ,  7-O ) :   0.1228

Dispersion correction           -0.009290058
FINAL SINGLE POINT ENERGY      -727.317124305921

DIPOLE MOMENT
-------------
                                X             Y             Z
Electronic contribution:      4.10144      -9.38628       0.10287
Nuclear contribution   :     -3.08754      10.54185      -0.04092
                        -----------------------------------------
Total Dipole Moment    :      1.01390       1.15558       0.06195
                        -----------------------------------------
Magnitude (a.u.)       :      1.53856
Magnitude (Debye)      :      3.91072

Rotational constants in cm-1:     0.158925     0.081210     0.079022
Rotational constants in MHz :  4764.450166  2434.603461  2369.014434

                             ****ORCA TERMINATED NORMALLY****
TOTAL RUN TIME: 0 days 0 hours 0 minutes 15 seconds 832 msec
