                         Program Version 5.0.0 -  RELEASE  -
|  1> !PBE D3BJ RIJCOSX def2-TZVPD def2/J TightSCF
|  2> *xyz 0 1
|  3> C         -0.46129        2.23469       -4.98962
|  4> C          0.84888        2.66797       -4.30235
|  5> C         -0.42384        2.39877       -6.47432
|  6> C         -0.95947        3.49265       -7.00740
|  7> N          0.14558        1.48689       -7.20399
|  8> H          0.56537        0.69681       -6.72386
|  9> H          0.22068        1.58177       -8.20752
| 10> H         -1.40624        4.18151       -6.40326
| 11> H         -0.93421        3.68160       -7.99947
| 12> H         -1.28888        2.82674       -4.59500
| 13> H         -0.65170        1.18634       -4.75655
| 14> H          1.66208        2.08894       -4.68750
| 15> H          0.76716        2.51042       -3.24717
| 16> H          1.02677        3.70527       -4.49537
| 17> *
| 18>
| 19> %MaxCore 64000
| 20>
| 21> %pal nprocs 4
| 22> end
| 23>
| 24> %scf
| 25>   MaxIter 150
| 26> end
| 27>
| 28>
| 29>                          ****END OF INPUT****

CARTESIAN COORDINATES (ANGSTROEM)
---------------------------------
  C     -0.461290    2.234690   -4.989620
  C      0.848880    2.667970   -4.302350
  C     -0.423840    2.398770   -6.474320
  C     -0.959470    3.492650   -7.007400
  N      0.145580    1.486890   -7.203990
  H      0.565370    0.696810   -6.723860
  H      0.220680    1.581770   -8.207520
  H     -1.406240    4.181510   -6.403260
  H     -0.934210    3.681600   -7.999470
  H     -1.288880    2.826740   -4.595000
  H     -0.651700    1.186340   -4.756550
  H      1.662080    2.088940   -4.687500
  H      0.767160    2.510420   -3.247170
  H      1.026770    3.705270   -4.495370

 Total Charge           Charge          ....    0
 Multiplicity           Mult            ....    1
 Number of Electrons    NEL             ....   40
 Basis Dimension        Dim             ....  266

ORBITAL ENERGIES
----------------

  NO   OCC          E(Eh)            E(eV)
   0   2.0000     -13.989593      -380.6762
   1   2.0000      -9.897218      -269.3170
   2   2.0000      -9.880945      -268.8742
   3   2.0000      -9.865379      -268.4506
   4   2.0000      -9.812518      -267.0122
   5   2.0000      -0.857266       -23.3274
   6   2.0000      -0.706866       -19.2348
   7   2.0000      -0.644709       -17.5434
   8   2.0000      -0.573611       -15.6088
   9   2.0000      -0.515657       -14.0318
  10   2.0000      -0.480113       -13.0645
  11   2.0000      -0.430069       -11.7028
  12   2.0000      -0.390894       -10.6368
  13   2.0000      -0.373373       -10.1600
  14   2.0000      -0.346947        -9.4409
  15   2.0000      -0.337027        -9.1710
  16   2.0000      -0.309933        -8.4337
  17   2.0000      -0.293097        -7.9756
  18   2.0000      -0.290158        -7.8956
  19   2.0000      -0.157867        -4.2958
  20   0.0000      -0.016691        -0.4542
  21   0.0000       0.007251         0.1973
  22   0.0000       0.019058         0.5186
  23   0.0000       0.024933         0.6785
  24   0.0000       0.031986         0.8704

MULLIKEN ATOMIC CHARGES
-----------------------
   0 C :   -0.307759
   1 C :   -0.811442
   2 C :    0.784618
   3 C :   -1.190715
   4 N :   -0.256459
   5 H :    0.146313
   6 H :    0.131986
   7 H :    0.225571
   8 H :    0.235105
   9 H :    0.139862
  10 H :    0.201959
  11 H :    0.233409
  12 H :    0.216414
  13 H :    0.251137
Sum of atomic charges:   -0.0000000

LOEWDIN ATOMIC CHARGES
----------------------
   0 C :   -0.203875
   1 C :   -0.089420
   2 C :   -0.517207
   3 C :    0.022001
   4 N :    0.119917
   5 H :    0.109634
   6 H :    0.114890
   7 H :    0.021400
   8 H :    0.014497
   9 H :    0.109628
  10 H :    0.107102
  11 H :    0.060970
  12 H :    0.061105
  13 H :    0.069356

  Mayer bond orders larger than 0.100000
B(  0-C ,  1-C ) :   0.7488 B(  0-C ,  2-C ) :   0.8117 B(  0-C ,  4-N ) :   0.1228
B(  0-C ,  9-H ) :   0.9729 B(  0-C , 10-H ) :   0.9889 B(  1-C ,  2-C ) :   0.1284
B(  1-C , 11-H ) :   0.9578 B(  1-C , 12-H ) :   0.9804 B(  1-C , 13-H ) :   0.9993
B(  2-C ,  3-C ) :   1.1467 B(  2-C ,  4-N ) :   1.0749 B(  3-C ,  4-N ) :   0.1353
B(  3-C ,  7-H ) :   0.9992 B(  3-C ,  8-H ) :   1.0499 B(  4-N ,  5-H ) :   1.0129
B(  4-N ,  6-H ) :   1.0174

Dispersion correction           -0.010483371
FINAL SINGLE POINT ENERGY      -212.361776627444

DIPOLE MOMENT
-------------
                                X             Y             Z
Electronic contribution:     -0.72409      -1.17023      -2.60098
Nuclear contribution   :      1.14741       0.51394       2.60761
                        -----------------------------------------
Total Dipole Moment    :      0.42333      -0.65629       0.00663
                        -----------------------------------------
Magnitude (a.u.)       :      0.78100
Magnitude (Debye)      :      1.98515

Rotational constants in cm-1:     0.269157     0.129188     0.102123
Rotational constants in MHz :  8069.118715  3872.945231  3061.580645

                             ****ORCA TERMINATED NORMALLY****
TOTAL RUN TIME: 0 days 0 hours 0 minutes 16 seconds 585 msec
