                         Program Version 5.0.0 -  RELEASE  -
|  1> !PBE D3BJ RIJCOSX def2-TZVPD def2/J TightSCF
|  2> *xyz 0 1
|  3> C          0.84888        2.66797       -4.30235
|  4> C          2.09343        1.86104       -4.65684
|  5> H          2.44481        2.04157       -5.67499
|  6> H          2.90175        2.13786       -3.98034
|  7> S          1.87964        0.07859       -4.46297
|  8> O          3.20757       -0.46611       -4.42026
|  9> F          1.07506       -0.05616       -3.26876
| 10> O          1.13166       -0.31996       -5.67903
| 11> H          0.05064        2.40112       -4.96303
| 12> H          1.06043        3.71210       -4.40203
| 13> H          0.56237        2.45684       -3.29327
| 14> *
| 15>
| 16> %MaxCore 64000
| 17>
| 18> %pal nprocs 4
| 19> end
| 20>
| 21> %scf
| 22>   MaxIter 150
| 23> end
| 24>
| 25>
| 26>                          ****END OF INPUT****

CARTESIAN COORDINATES (ANGSTROEM)
---------------------------------
  C      0.848880    2.667970   -4.302350
  C      2.093430    1.861040   -4.656840
  H      2.444810    2.041570   -5.674990
  H      2.901750    2.137860   -3.980340
  S      1.879640    0.078590   -4.462970
  O      3.207570   -0.466110   -4.420260
  F      1.075060   -0.056160   -3.268760
  O      1.131660   -0.319960   -5.679030
  H      0.050640    2.401120   -4.963030
  H      1.060430    3.712100   -4.402030
  H      0.562370    2.456840   -3.293270

 Total Charge           Charge          ....    0
 Multiplicity           Mult            ....    1
 Number of Electrons    NEL             ....   58
 Basis Dimension        Dim             ....  285

ORBITAL ENERGIES
----------------

  NO   OCC          E(Eh)            E(eV)
   0   2.0000     -88.268085     -2401.8967
   1   2.0000     -24.372782      -663.2171
   2   2.0000     -18.766016      -510.6493
   3   2.0000     -18.751310      -510.2491
   4   2.0000      -9.937337      -270.4087
   5   2.0000      -9.900395      -269.4034
   6   2.0000      -7.864008      -213.9905
   7   2.0000      -5.888446      -160.2328
   8   2.0000      -5.881737      -160.0502
   9   2.0000      -5.881557      -160.0453
  10   2.0000      -1.274962       -34.6935
  11   2.0000      -1.018366       -27.7112
  12   2.0000      -0.921984       -25.0885
  13   2.0000      -0.749914       -20.4062
  14   2.0000      -0.664021       -18.0689
  15   2.0000      -0.612499       -16.6670
  16   2.0000      -0.534072       -14.5328
  17   2.0000      -0.518476       -14.1084
  18   2.0000      -0.489378       -13.3167
  19   2.0000      -0.443485       -12.0678
  20   2.0000      -0.423841       -11.5333
  21   2.0000      -0.401724       -10.9315
  22   2.0000      -0.390456       -10.6248
  23   2.0000      -0.366246        -9.9661
  24   2.0000      -0.351023        -9.5518
  25   2.0000      -0.337091        -9.1727
  26   2.0000      -0.292095        -7.9483
  27   2.0000      -0.277453        -7.5499
  28   2.0000      -0.263421        -7.1681
  29   0.0000      -0.035840        -0.9752
  30   0.0000      -0.003618        -0.0984
  31   0.0000       0.008230         0.2239
  32   0.0000       0.011247         0.3060
  33   0.0000       0.018530         0.5042

MULLIKEN ATOMIC CHARGES
-----------------------
   0 C :   -0.919459
   1 C :   -0.160472
   2 H :    0.221069
   3 H :    0.230367
   4 S :    0.964695
   5 O :   -0.480166
   6 F :   -0.096583
   7 O :   -0.529892
   8 H :    0.275568
   9 H :    0.214170
  10 H :    0.280703
Sum of atomic charges:    0.0000000

LOEWDIN ATOMIC CHARGES
----------------------
   0 C :   -0.118923
   1 C :   -0.281759
   2 H :    0.110991
   3 H :    0.096927
   4 S :    0.534436
   5 O :   -0.243442
   6 F :   -0.037928
   7 O :   -0.274061
   8 H :    0.074532
   9 H :    0.073317
  10 H :    0.065909

  Mayer bond orders larger than 0.100000
B(  0-C ,  1-C ) :   0.8485 B(  0-C ,  8-H ) :   0.9692 B(  0-C ,  9-H ) :   0.9791
B(  0-C , 10-H ) :   0.9307 B(  1-C ,  2-H ) :   0.9345 B(  1-C ,  3-H ) :   0.9419
B(  1-C ,  4-S ) :   0.8278 B(  1-C ,  5-O ) :   0.1166 B(  4-S ,  5-O ) :   1.7687
B(  4-S ,  6-F ) :   1.0821 B(  4-S ,  7-O ) :   1.7127 B(  5-O ,  7-O ) :   0.1164

Dispersion correction           -0.009228771
FINAL SINGLE POINT ENERGY      -727.321316159217

DIPOLE MOMENT
-------------
                                X             Y             Z
Electronic contribution:      0.57607      -8.68460       1.99147
Nuclear contribution   :     -0.86540      10.11467      -1.24082
                        -----------------------------------------
Total Dipole Moment    :     -0.28933       1.43007       0.75066
                        -----------------------------------------
Magnitude (a.u.)       :      1.64082
Magnitude (Debye)      :      4.17064

Rotational constants in cm-1:     0.154065     0.083345     0.080357
Rotational constants in MHz :  4618.752213  2498.631937  2409.037217

                             ****ORCA TERMINATED NORMALLY****
TOTAL RUN TIME: 0 days 0 hours 0 minutes 15 seconds 819 msec
