                         Program Version 5.0.0 -  RELEASE  -
|  1> !PBE D3BJ RIJCOSX def2-TZVPD def2/J TightSCF
|  2> *xyz 0 1
|  3> C         -0.46129        2.23469       -4.98962
|  4> C          0.84888        2.66797       -4.30235
|  5> C         -0.42384        2.39877       -6.47432
|  6> N         -0.95947        3.49265       -7.00740
|  7> C          0.14558        1.48689       -7.20399
|  8> H          0.56537        0.69681       -6.72386
|  9> H          0.22068        1.58177       -8.20752
| 10> H         -1.40624        4.18151       -6.40326
| 11> H         -0.93421        3.68160       -7.99947
| 12> H         -1.28888        2.82674       -4.59500
| 13> H         -0.65170        1.18634       -4.75655
| 14> H          1.66208        2.08894       -4.68750
| 15> H          0.76716        2.51042       -3.24717
| 16> H          1.02677        3.70527       -4.49537
| 17> *
| 18>
| 19> %MaxCore 64000
| 20>
| 21> %pal nprocs 4
| 22> end
| 23>
| 24> %scf
| 25>   MaxIter 150
| 26> end
| 27>
| 28>
| 29>                          ****END OF INPUT****

CARTESIAN COORDINATES (ANGSTROEM)
---------------------------------
  C     -0.461290    2.234690   -4.989620
  C      0.848880    2.667970   -4.302350
  C     -0.423840    2.398770   -6.474320
  N     -0.959470    3.492650   -7.007400
  C      0.145580    1.486890   -7.203990
  H      0.565370    0.696810   -6.723860
  H      0.220680    1.581770   -8.207520
  H     -1.406240    4.181510   -6.403260
  H     -0.934210    3.681600   -7.999470
  H     -1.288880    2.826740   -4.595000
  H     -0.651700    1.186340   -4.756550
  H      1.662080    2.088940   -4.687500
  H      0.767160    2.510420   -3.247170
  H      1.026770    3.705270   -4.495370

 Total Charge           Charge          ....    0
 Multiplicity           Mult            ....    1
 Number of Electrons    NEL             ....   40
 Basis Dimension        Dim             ....  266

ORBITAL ENERGIES
----------------

  NO   OCC          E(Eh)            E(eV)
   0   2.0000     -13.986832      -380.6011
   1   2.0000      -9.895333      -269.2657
   2   2.0000      -9.880798      -268.8702
   3   2.0000      -9.864022      -268.4137
   4   2.0000      -9.810721      -266.9633
   5   2.0000      -0.845469       -23.0064
   6   2.0000      -0.708456       -19.2781
   7   2.0000      -0.648198       -17.6384
   8   2.0000      -0.574363       -15.6292
   9   2.0000      -0.510635       -13.8951
  10   2.0000      -0.470891       -12.8136
  11   2.0000      -0.432202       -11.7608
  12   2.0000      -0.392294       -10.6749
  13   2.0000      -0.368438       -10.0257
  14   2.0000      -0.347645        -9.4599
  15   2.0000      -0.338367        -9.2074
  16   2.0000      -0.307616        -8.3706
  17   2.0000      -0.295547        -8.0422
  18   2.0000      -0.286528        -7.7968
  19   2.0000      -0.161037        -4.3820
  20   0.0000      -0.015260        -0.4152
  21   0.0000       0.007567         0.2059
  22   0.0000       0.018869         0.5135
  23   0.0000       0.025128         0.6838
  24   0.0000       0.033390         0.9086

MULLIKEN ATOMIC CHARGES
-----------------------
   0 C :   -0.287840
   1 C :   -0.828901
   2 C :    0.796946
   3 N :   -0.264417
   4 C :   -1.183853
   5 H :    0.240616
   6 H :    0.235402
   7 H :    0.141003
   8 H :    0.116046
   9 H :    0.167584
  10 H :    0.170265
  11 H :    0.254268
  12 H :    0.215913
  13 H :    0.226968
Sum of atomic charges:   -0.0000000

LOEWDIN ATOMIC CHARGES
----------------------
   0 C :   -0.202632
   1 C :   -0.088444
   2 C :   -0.507871
   3 N :    0.113333
   4 C :    0.014566
   5 H :    0.030159
   6 H :    0.023970
   7 H :    0.102785
   8 H :    0.105181
   9 H :    0.103729
  10 H :    0.112025
  11 H :    0.066219
  12 H :    0.060758
  13 H :    0.066222

  Mayer bond orders larger than 0.100000
B(  0-C ,  1-C ) :   0.7353 B(  0-C ,  2-C ) :   0.7753 B(  0-C ,  4-C ) :   0.1006
B(  0-C ,  9-H ) :   1.0432 B(  0-C , 10-H ) :   0.9435 B(  1-C ,  2-C ) :   0.1453
B(  1-C , 11-H ) :   0.9706 B(  1-C , 12-H ) :   0.9761 B(  1-C , 13-H ) :   0.9842
B(  2-C ,  3-N ) :   0.9752 B(  2-C ,  4-C ) :   1.2358 B(  3-N ,  4-C ) :   0.1357
B(  3-N ,  7-H ) :   1.0259 B(  3-N ,  8-H ) :   1.0477 B(  4-C ,  5-H ) :   0.9764
B(  4-C ,  6-H ) :   1.0355

Dispersion correction           -0.010489846
FINAL SINGLE POINT ENERGY      -212.361620685418

DIPOLE MOMENT
-------------
                                X             Y             Z
Electronic contribution:     -1.70369       0.58247      -2.42501
Nuclear contribution   :      1.40335       0.04939       2.56207
                        -----------------------------------------
Total Dipole Moment    :     -0.30034       0.63185       0.13706
                        -----------------------------------------
Magnitude (a.u.)       :      0.71290
Magnitude (Debye)      :      1.81206

Rotational constants in cm-1:     0.271383     0.128194     0.101873
Rotational constants in MHz :  8135.853259  3843.152748  3054.074278

                             ****ORCA TERMINATED NORMALLY****
TOTAL RUN TIME: 0 days 0 hours 0 minutes 15 seconds 701 msec
