                         Program Version 5.0.0 -  RELEASE  -
|  1> !PBE D3BJ RIJCOSX def2-TZVPD def2/J TightSCF
|  2> *xyz 0 1
|  3> C          0.84888        2.66797       -4.30235
|  4> C          2.09343        1.86104       -4.65684
|  5> H          2.44481        2.04157       -5.67499
|  6> H          2.90175        2.13786       -3.98034
|  7> S          1.87964        0.07859       -4.46297
|  8> O          3.20757       -0.46611       -4.42026
|  9> O          1.07506       -0.05616       -3.26876
| 10> F          1.13166       -0.31996       -5.67903
| 11> H          0.05064        2.40112       -4.96303
| 12> H          1.06043        3.71210       -4.40203
| 13> H          0.56237        2.45684       -3.29327
| 14> *
| 15>
| 16> %MaxCore 64000
| 17>
| 18> %pal nprocs 4
| 19> end
| 20>
| 21> %scf
| 22>   MaxIter 150
| 23> end
| 24>
| 25>
| 26>                          ****END OF INPUT****

CARTESIAN COORDINATES (ANGSTROEM)
---------------------------------
  C      0.848880    2.667970   -4.302350
  C      2.093430    1.861040   -4.656840
  H      2.444810    2.041570   -5.674990
  H      2.901750    2.137860   -3.980340
  S      1.879640    0.078590   -4.462970
  O      3.207570   -0.466110   -4.420260
  O      1.075060   -0.056160   -3.268760
  F      1.131660   -0.319960   -5.679030
  H      0.050640    2.401120   -4.963030
  H      1.060430    3.712100   -4.402030
  H      0.562370    2.456840   -3.293270

 Total Charge           Charge          ....    0
 Multiplicity           Mult            ....    1
 Number of Electrons    NEL             ....   58
 Basis Dimension        Dim             ....  285

ORBITAL ENERGIES
----------------

  NO   OCC          E(Eh)            E(eV)
   0   2.0000     -88.265896     -2401.8371
   1   2.0000     -24.354820      -662.7284
   2   2.0000     -18.765710      -510.6409
   3   2.0000     -18.762625      -510.5570
   4   2.0000      -9.936532      -270.3868
   5   2.0000      -9.895104      -269.2595
   6   2.0000      -7.861970      -213.9351
   7   2.0000      -5.886380      -160.1765
   8   2.0000      -5.879913      -160.0006
   9   2.0000      -5.879400      -159.9866
  10   2.0000      -1.245706       -33.8974
  11   2.0000      -1.026351       -27.9284
  12   2.0000      -0.940053       -25.5801
  13   2.0000      -0.746112       -20.3028
  14   2.0000      -0.653648       -17.7867
  15   2.0000      -0.604811       -16.4577
  16   2.0000      -0.516541       -14.0558
  17   2.0000      -0.497990       -13.5510
  18   2.0000      -0.489782       -13.3276
  19   2.0000      -0.442294       -12.0354
  20   2.0000      -0.425708       -11.5841
  21   2.0000      -0.405283       -11.0283
  22   2.0000      -0.384624       -10.4662
  23   2.0000      -0.358557        -9.7568
  24   2.0000      -0.355749        -9.6804
  25   2.0000      -0.336293        -9.1510
  26   2.0000      -0.296254        -8.0615
  27   2.0000      -0.289884        -7.8882
  28   2.0000      -0.276829        -7.5329
  29   0.0000      -0.032154        -0.8749
  30   0.0000      -0.003739        -0.1017
  31   0.0000       0.007859         0.2138
  32   0.0000       0.010886         0.2962
  33   0.0000       0.020051         0.5456

MULLIKEN ATOMIC CHARGES
-----------------------
   0 C :   -0.876678
   1 C :   -0.207517
   2 H :    0.249333
   3 H :    0.217799
   4 S :    0.972980
   5 O :   -0.487386
   6 O :   -0.505386
   7 F :   -0.122022
   8 H :    0.267257
   9 H :    0.216670
  10 H :    0.274950
Sum of atomic charges:    0.0000000

LOEWDIN ATOMIC CHARGES
----------------------
   0 C :   -0.118229
   1 C :   -0.282626
   2 H :    0.099947
   3 H :    0.105267
   4 S :    0.538229
   5 O :   -0.244317
   6 O :   -0.247383
   7 F :   -0.065105
   8 H :    0.072119
   9 H :    0.072584
  10 H :    0.069515

  Mayer bond orders larger than 0.100000
B(  0-C ,  1-C ) :   0.8799 B(  0-C ,  8-H ) :   0.9354 B(  0-C ,  9-H ) :   0.9754
B(  0-C , 10-H ) :   0.9722 B(  1-C ,  2-H ) :   0.9112 B(  1-C ,  3-H ) :   0.9401
B(  1-C ,  4-S ) :   0.8396 B(  1-C ,  5-O ) :   0.1230 B(  4-S ,  5-O ) :   1.7617
B(  4-S ,  6-O ) :   1.7489 B(  4-S ,  7-F ) :   1.0311 B(  5-O ,  6-O ) :   0.1198

Dispersion correction           -0.009255166
FINAL SINGLE POINT ENERGY      -727.336253482149

DIPOLE MOMENT
-------------
                                X             Y             Z
Electronic contribution:      0.65436      -9.14900      -2.00490
Nuclear contribution   :     -0.92438      10.38956       1.27076
                        -----------------------------------------
Total Dipole Moment    :     -0.27002       1.24056      -0.73414
                        -----------------------------------------
Magnitude (a.u.)       :      1.46658
Magnitude (Debye)      :      3.72776

Rotational constants in cm-1:     0.154243     0.082247     0.080562
Rotational constants in MHz :  4624.087322  2465.703680  2415.175852

                             ****ORCA TERMINATED NORMALLY****
TOTAL RUN TIME: 0 days 0 hours 0 minutes 15 seconds 479 msec
