                         Program Version 5.0.0 -  RELEASE  -
|  1> !PBE D3BJ RIJCOSX def2-TZVPD def2/J TightSCF xyzfile
|  2>
|  3> *xyzfile 0 1 D1.xyz
|  4>
|  5> %MaxCore 64000
|  6>
|  7> %pal nprocs 4
|  8> end
|  9>
| 10> %scf
| 11>   MaxIter 150
| 12> end
| 13>
| 14>
| 15>                          ****END OF INPUT****

CARTESIAN COORDINATES (ANGSTROEM)
---------------------------------
  C     -0.461293    2.234686   -4.989619
  C      0.848883    2.667967   -4.302351
  C      2.093434    1.861037   -4.656845
  H      2.444814    2.041567   -5.674990
  H      2.901748    2.137864   -3.980338
  S      1.879644    0.078594   -4.462965
  C     -0.423841    2.398772   -6.474317
  C     -0.959467    3.492647   -7.007401
  N      0.145585    1.486891   -7.203987
  H      0.565371    0.696807   -6.723858
  H      0.220682    1.581768   -8.207520
  H     -1.406243    4.181507   -6.403261
  H     -0.934215    3.681601   -7.999468
  F      3.207574   -0.466111   -4.420259
  O      1.075064   -0.056160   -3.268758
  O      1.131661   -0.319960   -5.679031
  H      0.668432    2.559427   -3.232850
  H      1.034074    3.729426   -4.497081
  H     -1.288884    2.826737   -4.594997
  H     -0.651696    1.186343   -4.756552

 Total Charge           Charge          ....    0
 Multiplicity           Mult            ....    1
 Number of Electrons    NEL             ....   88
 Basis Dimension        Dim             ....  478

ORBITAL ENERGIES
----------------

  NO   OCC          E(Eh)            E(eV)
   0   2.0000     -88.287887     -2402.4356
   1   2.0000     -24.393218      -663.7732
   2   2.0000     -18.779298      -511.0107
   3   2.0000     -18.776631      -510.9381
   4   2.0000     -13.962098      -379.9280
   5   2.0000      -9.943906      -270.5875
   6   2.0000      -9.909051      -269.6390
   7   2.0000      -9.890494      -269.1340
   8   2.0000      -9.882811      -268.9250
   9   2.0000      -9.805928      -266.8329
  10   2.0000      -7.883949      -214.5332
  11   2.0000      -5.908092      -160.7674
  12   2.0000      -5.901963      -160.6006
  13   2.0000      -5.901447      -160.5865
  14   2.0000      -1.298526       -35.3347
  15   2.0000      -1.036061       -28.1926
  16   2.0000      -0.945755       -25.7353
  17   2.0000      -0.841847       -22.9078
  18   2.0000      -0.760154       -20.6848
  19   2.0000      -0.699980       -19.0474
  20   2.0000      -0.669784       -18.2257
  21   2.0000      -0.627386       -17.0721
  22   2.0000      -0.582875       -15.8608
  23   2.0000      -0.543810       -14.7978
  24   2.0000      -0.535970       -14.5845
  25   2.0000      -0.521829       -14.1997
  26   2.0000      -0.502573       -13.6757
  27   2.0000      -0.473400       -12.8819
  28   2.0000      -0.450749       -12.2655
  29   2.0000      -0.439955       -11.9718
  30   2.0000      -0.422087       -11.4856
  31   2.0000      -0.408376       -11.1125
  32   2.0000      -0.400538       -10.8992
  33   2.0000      -0.366803        -9.9812
  34   2.0000      -0.352920        -9.6034
  35   2.0000      -0.349535        -9.5113
  36   2.0000      -0.334965        -9.1149
  37   2.0000      -0.322584        -8.7780
  38   2.0000      -0.307130        -8.3574
  39   2.0000      -0.301630        -8.2078
  40   2.0000      -0.287314        -7.8182
  41   2.0000      -0.285264        -7.7624
  42   2.0000      -0.278597        -7.5810
  43   2.0000      -0.148776        -4.0484
  44   0.0000      -0.042485        -1.1561
  45   0.0000      -0.016924        -0.4605
  46   0.0000      -0.003752        -0.1021
  47   0.0000       0.003252         0.0885
  48   0.0000       0.007928         0.2157

MULLIKEN ATOMIC CHARGES
-----------------------
   0 C :   -0.370024
   1 C :   -0.216625
   2 C :   -0.501637
   3 H :    0.312205
   4 H :    0.195738
   5 S :    1.008068
   6 C :    0.562929
   7 C :   -1.251533
   8 N :   -0.184762
   9 H :    0.224228
  10 H :    0.098690
  11 H :    0.246611
  12 H :    0.246390
  13 F :   -0.057561
  14 O :   -0.508539
  15 O :   -0.602694
  16 H :    0.176681
  17 H :    0.168609
  18 H :    0.132555
  19 H :    0.320670
Sum of atomic charges:    0.0000000

LOEWDIN ATOMIC CHARGES
----------------------
   0 C :   -0.146553
   1 C :   -0.196400
   2 C :   -0.226030
   3 H :    0.107817
   4 H :    0.101001
   5 S :    0.589181
   6 C :   -0.495766
   7 C :    0.019449
   8 N :    0.130019
   9 H :    0.019118
  10 H :    0.120099
  11 H :    0.017361
  12 H :    0.013517
  13 F :   -0.018107
  14 O :   -0.226067
  15 O :   -0.274898
  16 H :    0.110295
  17 H :    0.127354
  18 H :    0.121689
  19 H :    0.106920

  Mayer bond orders larger than 0.100000
B(  0-C ,  1-C ) :   0.8942 B(  0-C ,  6-C ) :   0.8438 B(  0-C , 18-H ) :   0.9670
B(  0-C , 19-H ) :   0.8725 B(  1-C ,  2-C ) :   1.1124 B(  1-C ,  6-C ) :   0.2250
B(  1-C , 16-H ) :   0.8709 B(  1-C , 17-H ) :   0.9270 B(  2-C ,  3-H ) :   0.8524
B(  2-C ,  4-H ) :   0.9319 B(  2-C ,  5-S ) :   0.8222 B(  2-C ,  8-N ) :   0.1580
B(  2-C , 15-O ) :   0.1257 B(  5-S , 13-F ) :   1.0584 B(  5-S , 14-O ) :   1.7672
B(  5-S , 15-O ) :   1.6253 B(  6-C ,  7-C ) :   1.1853 B(  6-C ,  8-N ) :   1.0937
B(  7-C ,  8-N ) :   0.1401 B(  7-C , 11-H ) :   1.0110 B(  7-C , 12-H ) :   1.0184
B(  8-N ,  9-H ) :   0.8721 B(  8-N , 10-H ) :   1.0147 B(  9-H , 15-O ) :   0.1012

Dispersion correction           -0.022824120
FINAL SINGLE POINT ENERGY      -899.217237798191

DIPOLE MOMENT
-------------
                                X             Y             Z
Electronic contribution:     10.09837     -13.98934       5.44858
Nuclear contribution   :     -8.53047      14.15581      -5.17613
                        -----------------------------------------
Total Dipole Moment    :      1.56790       0.16647       0.27245
                        -----------------------------------------
Magnitude (a.u.)       :      1.60008
Magnitude (Debye)      :      4.06709

Rotational constants in cm-1:     0.081196     0.024861     0.022477
Rotational constants in MHz :  2434.181666   745.320670   673.846846

                             ****ORCA TERMINATED NORMALLY****
TOTAL RUN TIME: 0 days 0 hours 0 minutes 41 seconds 120 msec
