                         Program Version 5.0.0 -  RELEASE  -
|  1> !PBE D3BJ RIJCOSX def2-TZVPD def2/J TightSCF xyzfile
|  2>
|  3> *xyzfile 0 1 D2.xyz
|  4>
|  5> %MaxCore 64000
|  6>
|  7> %pal nprocs 4
|  8> end
|  9>
| 10> %scf
| 11>   MaxIter 150
| 12> end
| 13>
| 14>
| 15>                          ****END OF INPUT****

CARTESIAN COORDINATES (ANGSTROEM)
---------------------------------
  C     -0.461293    2.234686   -4.989619
  C      0.848883    2.667967   -4.302351
  C      2.093434    1.861037   -4.656845
  H      2.444814    2.041567   -5.674990
  H      2.901748    2.137864   -3.980338
  S      1.879644    0.078594   -4.462965
  C     -0.423841    2.398772   -6.474317
  N     -0.959467    3.492647   -7.007401
  C      0.145585    1.486891   -7.203987
  H      0.565371    0.696807   -6.723858
  H      0.220682    1.581768   -8.207520
  H     -1.406243    4.181507   -6.403261
  H     -0.934215    3.681601   -7.999468
  F      3.207574   -0.466111   -4.420259
  O      1.075064   -0.056160   -3.268758
  O      1.131661   -0.319960   -5.679031
  H      0.668432    2.559427   -3.232850
  H      1.034074    3.729426   -4.497081
  H     -1.288884    2.826737   -4.594997
  H     -0.651696    1.186343   -4.756552

 Total Charge           Charge          ....    0
 Multiplicity           Mult            ....    1
 Number of Electrons    NEL             ....   88
 Basis Dimension        Dim             ....  478

ORBITAL ENERGIES
----------------

  NO   OCC          E(Eh)            E(eV)
   0   2.0000     -88.269743     -2401.9418
   1   2.0000     -24.377551      -663.3469
   2   2.0000     -18.763578      -510.5829
   3   2.0000     -18.754232      -510.3286
   4   2.0000     -13.982034      -380.4705
   5   2.0000      -9.932866      -270.2870
   6   2.0000      -9.906663      -269.5740
   7   2.0000      -9.888580      -269.0819
   8   2.0000      -9.883338      -268.9393
   9   2.0000      -9.790605      -266.4159
  10   2.0000      -7.865893      -214.0418
  11   2.0000      -5.890151      -160.2792
  12   2.0000      -5.883799      -160.1063
  13   2.0000      -5.883377      -160.0948
  14   2.0000      -1.282982       -34.9117
  15   2.0000      -1.018274       -27.7086
  16   2.0000      -0.925970       -25.1969
  17   2.0000      -0.841309       -22.8932
  18   2.0000      -0.753069       -20.4920
  19   2.0000      -0.696914       -18.9640
  20   2.0000      -0.656937       -17.8762
  21   2.0000      -0.633333       -17.2339
  22   2.0000      -0.575596       -15.6628
  23   2.0000      -0.529734       -14.4148
  24   2.0000      -0.524312       -14.2672
  25   2.0000      -0.505666       -13.7599
  26   2.0000      -0.503947       -13.7131
  27   2.0000      -0.463992       -12.6259
  28   2.0000      -0.443488       -12.0679
  29   2.0000      -0.434736       -11.8298
  30   2.0000      -0.422123       -11.4865
  31   2.0000      -0.406604       -11.0643
  32   2.0000      -0.391755       -10.6602
  33   2.0000      -0.359142        -9.7728
  34   2.0000      -0.354871        -9.6565
  35   2.0000      -0.342168        -9.3109
  36   2.0000      -0.326780        -8.8921
  37   2.0000      -0.318246        -8.6599
  38   2.0000      -0.295471        -8.0402
  39   2.0000      -0.294109        -8.0031
  40   2.0000      -0.280113        -7.6223
  41   2.0000      -0.269592        -7.3360
  42   2.0000      -0.252529        -6.8717
  43   2.0000      -0.154500        -4.2041
  44   0.0000      -0.028604        -0.7784
  45   0.0000      -0.017655        -0.4804
  46   0.0000      -0.002214        -0.0602
  47   0.0000       0.001788         0.0487
  48   0.0000       0.017500         0.4762

MULLIKEN ATOMIC CHARGES
-----------------------
   0 C :   -0.434153
   1 C :   -0.220993
   2 C :   -0.527464
   3 H :    0.381810
   4 H :    0.182129
   5 S :    0.951988
   6 C :    0.709360
   7 N :   -0.272692
   8 C :   -1.648128
   9 H :    0.768852
  10 H :    0.176365
  11 H :    0.145234
  12 H :    0.111547
  13 F :   -0.065307
  14 O :   -0.521326
  15 O :   -0.499566
  16 H :    0.178801
  17 H :    0.118095
  18 H :    0.176142
  19 H :    0.289306
Sum of atomic charges:   -0.0000000

LOEWDIN ATOMIC CHARGES
----------------------
   0 C :   -0.143893
   1 C :   -0.198807
   2 C :   -0.226637
   3 H :    0.106831
   4 H :    0.099451
   5 S :    0.580459
   6 C :   -0.478327
   7 N :    0.110541
   8 C :    0.026383
   9 H :   -0.036728
  10 H :    0.036432
  11 H :    0.099579
  12 H :    0.104271
  13 F :   -0.023872
  14 O :   -0.237034
  15 O :   -0.278195
  16 H :    0.109467
  17 H :    0.123637
  18 H :    0.115806
  19 H :    0.110636

  Mayer bond orders larger than 0.100000
B(  0-C ,  1-C ) :   0.9115 B(  0-C ,  6-C ) :   0.8075 B(  0-C ,  7-N ) :   0.1268
B(  0-C , 18-H ) :   0.9968 B(  0-C , 19-H ) :   0.8979 B(  1-C ,  2-C ) :   1.1181
B(  1-C ,  6-C ) :   0.2013 B(  1-C , 16-H ) :   0.8729 B(  1-C , 17-H ) :   0.9367
B(  2-C ,  3-H ) :   0.8236 B(  2-C ,  4-H ) :   0.9381 B(  2-C ,  5-S ) :   0.7999
B(  2-C ,  8-C ) :   0.1729 B(  2-C , 15-O ) :   0.1396 B(  5-S , 13-F ) :   1.0500
B(  5-S , 14-O ) :   1.7479 B(  5-S , 15-O ) :   1.7061 B(  6-C ,  7-N ) :   0.9220
B(  6-C ,  8-C ) :   1.0113 B(  6-C , 10-H ) :  -0.1407 B(  7-N ,  8-C ) :   0.1352
B(  7-N , 11-H ) :   1.0323 B(  7-N , 12-H ) :   1.0512 B(  8-C ,  9-H ) :   0.4446
B(  8-C , 10-H ) :   1.1535 B(  8-C , 15-O ) :   0.1134 B(  9-H , 15-O ) :  -0.2184

Dispersion correction           -0.022957798
FINAL SINGLE POINT ENERGY      -899.198438653701

DIPOLE MOMENT
-------------
                                X             Y             Z
Electronic contribution:      9.17746     -12.49842       5.37112
Nuclear contribution   :     -8.42493      13.96425      -5.19491
                        -----------------------------------------
Total Dipole Moment    :      0.75253       1.46583       0.17621
                        -----------------------------------------
Magnitude (a.u.)       :      1.65711
Magnitude (Debye)      :      4.21203

Rotational constants in cm-1:     0.082815     0.024151     0.022015
Rotational constants in MHz :  2482.732265   724.035221   660.002136

                             ****ORCA TERMINATED NORMALLY****
TOTAL RUN TIME: 0 days 0 hours 0 minutes 39 seconds 840 msec
