                         Program Version 5.0.0 -  RELEASE  -
|  1> !PBE D3BJ RIJCOSX def2-TZVPD def2/J TightSCF xyzfile
|  2>
|  3> *xyzfile 0 1 D3.xyz
|  4>
|  5> %MaxCore 64000
|  6>
|  7> %pal nprocs 4
|  8> end
|  9>
| 10> %scf
| 11>   MaxIter 150
| 12> end
| 13>
| 14>
| 15>                          ****END OF INPUT****

CARTESIAN COORDINATES (ANGSTROEM)
---------------------------------
  C     -0.461293    2.234686   -4.989619
  C      0.848883    2.667967   -4.302351
  C      2.093434    1.861037   -4.656845
  H      2.444814    2.041567   -5.674990
  H      2.901748    2.137864   -3.980338
  S      1.879644    0.078594   -4.462965
  C     -0.423841    2.398772   -6.474317
  C     -0.959467    3.492647   -7.007401
  N      0.145585    1.486891   -7.203987
  H      0.565371    0.696807   -6.723858
  H      0.220682    1.581768   -8.207520
  H     -1.406243    4.181507   -6.403261
  H     -0.934215    3.681601   -7.999468
  O      3.207574   -0.466111   -4.420259
  F      1.075064   -0.056160   -3.268758
  O      1.131661   -0.319960   -5.679031
  H      0.668432    2.559427   -3.232850
  H      1.034074    3.729426   -4.497081
  H     -1.288884    2.826737   -4.594997
  H     -0.651696    1.186343   -4.756552

 Total Charge           Charge          ....    0
 Multiplicity           Mult            ....    1
 Number of Electrons    NEL             ....   88
 Basis Dimension        Dim             ....  478

ORBITAL ENERGIES
----------------

  NO   OCC          E(Eh)            E(eV)
   0   2.0000     -88.287193     -2402.4166
   1   2.0000     -24.387768      -663.6249
   2   2.0000     -18.782050      -511.0856
   3   2.0000     -18.775649      -510.9114
   4   2.0000     -13.964587      -379.9957
   5   2.0000      -9.943525      -270.5771
   6   2.0000      -9.913882      -269.7705
   7   2.0000      -9.895685      -269.2753
   8   2.0000      -9.892586      -269.1909
   9   2.0000      -9.810355      -266.9533
  10   2.0000      -7.883229      -214.5136
  11   2.0000      -5.907588      -160.7536
  12   2.0000      -5.901295      -160.5824
  13   2.0000      -5.900499      -160.5607
  14   2.0000      -1.290133       -35.1063
  15   2.0000      -1.038603       -28.2618
  16   2.0000      -0.948826       -25.8189
  17   2.0000      -0.845315       -23.0022
  18   2.0000      -0.765787       -20.8381
  19   2.0000      -0.698714       -19.0130
  20   2.0000      -0.669359       -18.2142
  21   2.0000      -0.631797       -17.1921
  22   2.0000      -0.584549       -15.9064
  23   2.0000      -0.544349       -14.8125
  24   2.0000      -0.539176       -14.6717
  25   2.0000      -0.516873       -14.0648
  26   2.0000      -0.508114       -13.8265
  27   2.0000      -0.468007       -12.7351
  28   2.0000      -0.449922       -12.2430
  29   2.0000      -0.442523       -12.0417
  30   2.0000      -0.424131       -11.5412
  31   2.0000      -0.411861       -11.2073
  32   2.0000      -0.405747       -11.0409
  33   2.0000      -0.373931       -10.1752
  34   2.0000      -0.359088        -9.7713
  35   2.0000      -0.354339        -9.6421
  36   2.0000      -0.338376        -9.2077
  37   2.0000      -0.335388        -9.1264
  38   2.0000      -0.304321        -8.2810
  39   2.0000      -0.303509        -8.2589
  40   2.0000      -0.297323        -8.0906
  41   2.0000      -0.286906        -7.8071
  42   2.0000      -0.279758        -7.6126
  43   2.0000      -0.152524        -4.1504
  44   0.0000      -0.044211        -1.2030
  45   0.0000      -0.012470        -0.3393
  46   0.0000      -0.005326        -0.1449
  47   0.0000       0.002285         0.0622
  48   0.0000       0.004950         0.1347

MULLIKEN ATOMIC CHARGES
-----------------------
   0 C :   -0.242804
   1 C :   -0.223143
   2 C :   -0.427740
   3 H :    0.286847
   4 H :    0.167765
   5 S :    1.006090
   6 C :    0.521013
   7 C :   -1.254915
   8 N :   -0.184539
   9 H :    0.238675
  10 H :    0.096913
  11 H :    0.245682
  12 H :    0.247361
  13 O :   -0.483579
  14 F :   -0.103362
  15 O :   -0.599908
  16 H :    0.161909
  17 H :    0.169081
  18 H :    0.116820
  19 H :    0.261834
Sum of atomic charges:    0.0000000

LOEWDIN ATOMIC CHARGES
----------------------
   0 C :   -0.153130
   1 C :   -0.207185
   2 C :   -0.215533
   3 H :    0.117654
   4 H :    0.104237
   5 S :    0.585681
   6 C :   -0.495660
   7 C :    0.021353
   8 N :    0.131507
   9 H :    0.020260
  10 H :    0.121342
  11 H :    0.017841
  12 H :    0.015006
  13 O :   -0.225167
  14 F :   -0.020131
  15 O :   -0.273175
  16 H :    0.106204
  17 H :    0.125677
  18 H :    0.120784
  19 H :    0.102437

  Mayer bond orders larger than 0.100000
B(  0-C ,  1-C ) :   0.8483 B(  0-C ,  6-C ) :   0.8920 B(  0-C , 18-H ) :   0.9956
B(  0-C , 19-H ) :   0.8447 B(  1-C ,  2-C ) :   1.0667 B(  1-C ,  6-C ) :   0.2191
B(  1-C , 16-H ) :   0.9093 B(  1-C , 17-H ) :   0.9202 B(  2-C ,  3-H ) :   0.8732
B(  2-C ,  4-H ) :   1.0099 B(  2-C ,  5-S ) :   0.8076 B(  2-C ,  8-N ) :   0.1557
B(  2-C , 13-O ) :   0.1226 B(  2-C , 15-O ) :   0.1178 B(  5-S , 13-O ) :   1.7222
B(  5-S , 14-F ) :   1.0849 B(  5-S , 15-O ) :   1.6270 B(  6-C ,  7-C ) :   1.1928
B(  6-C ,  8-N ) :   1.1106 B(  7-C ,  8-N ) :   0.1433 B(  7-C , 11-H ) :   1.0138
B(  7-C , 12-H ) :   1.0144 B(  8-N ,  9-H ) :   0.8598 B(  8-N , 10-H ) :   1.0106

Dispersion correction           -0.022695350
FINAL SINGLE POINT ENERGY      -899.221173688154

DIPOLE MOMENT
-------------
                                X             Y             Z
Electronic contribution:      6.47999     -13.24292       7.32409
Nuclear contribution   :     -6.19944      13.70770      -6.43483
                        -----------------------------------------
Total Dipole Moment    :      0.28055       0.46478       0.88926
                        -----------------------------------------
Magnitude (a.u.)       :      1.04188
Magnitude (Debye)      :      2.64825

Rotational constants in cm-1:     0.079903     0.025241     0.022805
Rotational constants in MHz :  2395.439281   756.708181   683.680583

                             ****ORCA TERMINATED NORMALLY****
TOTAL RUN TIME: 0 days 0 hours 0 minutes 34 seconds 916 msec
