                         Program Version 5.0.0 -  RELEASE  -
|  1> !PBE D3BJ RIJCOSX def2-TZVPD def2/J TightSCF xyzfile
|  2>
|  3> *xyzfile 0 1 D4.xyz
|  4>
|  5> %MaxCore 64000
|  6>
|  7> %pal nprocs 4
|  8> end
|  9>
| 10> %scf
| 11>   MaxIter 150
| 12> end
| 13>
| 14>
| 15>                          ****END OF INPUT****

CARTESIAN COORDINATES (ANGSTROEM)
---------------------------------
  C     -0.461293    2.234686   -4.989619
  C      0.848883    2.667967   -4.302351
  C      2.093434    1.861037   -4.656845
  H      2.444814    2.041567   -5.674990
  H      2.901748    2.137864   -3.980338
  S      1.879644    0.078594   -4.462965
  C     -0.423841    2.398772   -6.474317
  N     -0.959467    3.492647   -7.007401
  C      0.145585    1.486891   -7.203987
  H      0.565371    0.696807   -6.723858
  H      0.220682    1.581768   -8.207520
  H     -1.406243    4.181507   -6.403261
  H     -0.934215    3.681601   -7.999468
  O      3.207574   -0.466111   -4.420259
  F      1.075064   -0.056160   -3.268758
  O      1.131661   -0.319960   -5.679031
  H      0.668432    2.559427   -3.232850
  H      1.034074    3.729426   -4.497081
  H     -1.288884    2.826737   -4.594997
  H     -0.651696    1.186343   -4.756552

 Total Charge           Charge          ....    0
 Multiplicity           Mult            ....    1
 Number of Electrons    NEL             ....   88
 Basis Dimension        Dim             ....  478

ORBITAL ENERGIES
----------------

  NO   OCC          E(Eh)            E(eV)
   0   2.0000     -88.268784     -2401.9157
   1   2.0000     -24.373103      -663.2259
   2   2.0000     -18.765485      -510.6348
   3   2.0000     -18.753223      -510.3011
   4   2.0000     -13.985679      -380.5697
   5   2.0000      -9.932539      -270.2781
   6   2.0000      -9.911627      -269.7091
   7   2.0000      -9.893288      -269.2100
   8   2.0000      -9.893089      -269.2046
   9   2.0000      -9.794071      -266.5102
  10   2.0000      -7.864938      -214.0158
  11   2.0000      -5.889451      -160.2601
  12   2.0000      -5.882728      -160.0772
  13   2.0000      -5.882309      -160.0658
  14   2.0000      -1.275645       -34.7121
  15   2.0000      -1.020500       -27.7692
  16   2.0000      -0.928455       -25.2645
  17   2.0000      -0.845472       -23.0065
  18   2.0000      -0.759353       -20.6630
  19   2.0000      -0.696900       -18.9636
  20   2.0000      -0.655859       -17.8468
  21   2.0000      -0.637317       -17.3423
  22   2.0000      -0.577851       -15.7241
  23   2.0000      -0.535609       -14.5747
  24   2.0000      -0.522942       -14.2300
  25   2.0000      -0.511565       -13.9204
  26   2.0000      -0.496831       -13.5195
  27   2.0000      -0.466328       -12.6894
  28   2.0000      -0.445377       -12.1193
  29   2.0000      -0.429696       -11.6926
  30   2.0000      -0.425946       -11.5906
  31   2.0000      -0.411131       -11.1874
  32   2.0000      -0.395149       -10.7526
  33   2.0000      -0.366070        -9.9613
  34   2.0000      -0.357814        -9.7366
  35   2.0000      -0.346479        -9.4282
  36   2.0000      -0.332874        -9.0580
  37   2.0000      -0.328976        -8.9519
  38   2.0000      -0.301479        -8.2037
  39   2.0000      -0.291607        -7.9350
  40   2.0000      -0.284881        -7.7520
  41   2.0000      -0.275565        -7.4985
  42   2.0000      -0.249392        -6.7863
  43   2.0000      -0.158240        -4.3059
  44   0.0000      -0.033262        -0.9051
  45   0.0000      -0.015159        -0.4125
  46   0.0000      -0.002725        -0.0742
  47   0.0000      -0.000504        -0.0137
  48   0.0000       0.013560         0.3690

MULLIKEN ATOMIC CHARGES
-----------------------
   0 C :   -0.314566
   1 C :   -0.214634
   2 C :   -0.453782
   3 H :    0.349052
   4 H :    0.160040
   5 S :    0.948564
   6 C :    0.665303
   7 N :   -0.272558
   8 C :   -1.637647
   9 H :    0.764525
  10 H :    0.183962
  11 H :    0.143310
  12 H :    0.112950
  13 O :   -0.502342
  14 F :   -0.105475
  15 O :   -0.498750
  16 H :    0.162322
  17 H :    0.117278
  18 H :    0.160675
  19 H :    0.231773
Sum of atomic charges:    0.0000000

LOEWDIN ATOMIC CHARGES
----------------------
   0 C :   -0.150325
   1 C :   -0.209233
   2 C :   -0.216254
   3 H :    0.116628
   4 H :    0.102587
   5 S :    0.576314
   6 C :   -0.478554
   7 N :    0.110812
   8 C :    0.029972
   9 H :   -0.035622
  10 H :    0.038198
  11 H :    0.099655
  12 H :    0.105266
  13 O :   -0.234014
  14 F :   -0.027536
  15 O :   -0.276613
  16 H :    0.105480
  17 H :    0.122074
  18 H :    0.114966
  19 H :    0.106199

  Mayer bond orders larger than 0.100000
B(  0-C ,  1-C ) :   0.8616 B(  0-C ,  6-C ) :   0.8548 B(  0-C ,  7-N ) :   0.1280
B(  0-C , 18-H ) :   1.0285 B(  0-C , 19-H ) :   0.8677 B(  1-C ,  2-C ) :   1.0632
B(  1-C ,  6-C ) :   0.1944 B(  1-C , 16-H ) :   0.9048 B(  1-C , 17-H ) :   0.9331
B(  2-C ,  3-H ) :   0.8486 B(  2-C ,  4-H ) :   1.0122 B(  2-C ,  5-S ) :   0.7865
B(  2-C ,  8-C ) :   0.1786 B(  2-C , 13-O ) :   0.1288 B(  2-C , 15-O ) :   0.1286
B(  5-S , 13-O ) :   1.7082 B(  5-S , 14-F ) :   1.0737 B(  5-S , 15-O ) :   1.7075
B(  6-C ,  7-N ) :   0.9196 B(  6-C ,  8-C ) :   1.0271 B(  6-C , 10-H ) :  -0.1412
B(  7-N ,  8-C ) :   0.1369 B(  7-N , 11-H ) :   1.0337 B(  7-N , 12-H ) :   1.0491
B(  8-C ,  9-H ) :   0.4805 B(  8-C , 10-H ) :   1.1406 B(  8-C , 15-O ) :   0.1143
B(  9-H , 15-O ) :  -0.2313

Dispersion correction           -0.022828563
FINAL SINGLE POINT ENERGY      -899.201356986952

DIPOLE MOMENT
-------------
                                X             Y             Z
Electronic contribution:      5.54650     -11.76050       7.25552
Nuclear contribution   :     -6.09390      13.51614      -6.45360
                        -----------------------------------------
Total Dipole Moment    :     -0.54739       1.75564       0.80192
                        -----------------------------------------
Magnitude (a.u.)       :      2.00624
Magnitude (Debye)      :      5.09945

Rotational constants in cm-1:     0.081469     0.024519     0.022336
Rotational constants in MHz :  2442.393231   735.066768   669.628729

                             ****ORCA TERMINATED NORMALLY****
TOTAL RUN TIME: 0 days 0 hours 0 minutes 38 seconds 633 msec
