                         Program Version 5.0.0 -  RELEASE  -
|  1> !PBE D3BJ RIJCOSX def2-TZVPD def2/J TightSCF xyzfile
|  2>
|  3> *xyzfile 0 1 D5.xyz
|  4>
|  5> %MaxCore 64000
|  6>
|  7> %pal nprocs 4
|  8> end
|  9>
| 10> %scf
| 11>   MaxIter 150
| 12> end
| 13>
| 14>
| 15>                          ****END OF INPUT****

CARTESIAN COORDINATES (ANGSTROEM)
---------------------------------
  C     -0.461293    2.234686   -4.989619
  C      0.848883    2.667967   -4.302351
  C      2.093434    1.861037   -4.656845
  H      2.444814    2.041567   -5.674990
  H      2.901748    2.137864   -3.980338
  S      1.879644    0.078594   -4.462965
  C     -0.423841    2.398772   -6.474317
  C     -0.959467    3.492647   -7.007401
  N      0.145585    1.486891   -7.203987
  H      0.565371    0.696807   -6.723858
  H      0.220682    1.581768   -8.207520
  H     -1.406243    4.181507   -6.403261
  H     -0.934215    3.681601   -7.999468
  O      3.207574   -0.466111   -4.420259
  O      1.075064   -0.056160   -3.268758
  F      1.131661   -0.319960   -5.679031
  H      0.668432    2.559427   -3.232850
  H      1.034074    3.729426   -4.497081
  H     -1.288884    2.826737   -4.594997
  H     -0.651696    1.186343   -4.756552

 Total Charge           Charge          ....    0
 Multiplicity           Mult            ....    1
 Number of Electrons    NEL             ....   88
 Basis Dimension        Dim             ....  478

ORBITAL ENERGIES
----------------

  NO   OCC          E(Eh)            E(eV)
   0   2.0000     -88.277769     -2402.1602
   1   2.0000     -24.379653      -663.4041
   2   2.0000     -18.777134      -510.9518
   3   2.0000     -18.773651      -510.8570
   4   2.0000     -13.990844      -380.7102
   5   2.0000      -9.940624      -270.4981
   6   2.0000      -9.909333      -269.6467
   7   2.0000      -9.907001      -269.5832
   8   2.0000      -9.895911      -269.2814
   9   2.0000      -9.821873      -267.2668
  10   2.0000      -7.874338      -214.2716
  11   2.0000      -5.899110      -160.5229
  12   2.0000      -5.891941      -160.3279
  13   2.0000      -5.891534      -160.3168
  14   2.0000      -1.274417       -34.6787
  15   2.0000      -1.039218       -28.2786
  16   2.0000      -0.951265       -25.8852
  17   2.0000      -0.866577       -23.5808
  18   2.0000      -0.762258       -20.7421
  19   2.0000      -0.700864       -19.0715
  20   2.0000      -0.679404       -18.4875
  21   2.0000      -0.633320       -17.2335
  22   2.0000      -0.594233       -16.1699
  23   2.0000      -0.544719       -14.8226
  24   2.0000      -0.525216       -14.2919
  25   2.0000      -0.517242       -14.0749
  26   2.0000      -0.501087       -13.6353
  27   2.0000      -0.482769       -13.1368
  28   2.0000      -0.451084       -12.2746
  29   2.0000      -0.439410       -11.9570
  30   2.0000      -0.424490       -11.5510
  31   2.0000      -0.417726       -11.3669
  32   2.0000      -0.401794       -10.9334
  33   2.0000      -0.376698       -10.2505
  34   2.0000      -0.360640        -9.8135
  35   2.0000      -0.351976        -9.5778
  36   2.0000      -0.343764        -9.3543
  37   2.0000      -0.334927        -9.1138
  38   2.0000      -0.309094        -8.4109
  39   2.0000      -0.307576        -8.3696
  40   2.0000      -0.300135        -8.1671
  41   2.0000      -0.293426        -7.9845
  42   2.0000      -0.286294        -7.7904
  43   2.0000      -0.167048        -4.5456
  44   0.0000      -0.038352        -1.0436
  45   0.0000      -0.011100        -0.3021
  46   0.0000      -0.008684        -0.2363
  47   0.0000      -0.003819        -0.1039
  48   0.0000       0.005325         0.1449

MULLIKEN ATOMIC CHARGES
-----------------------
   0 C :   -0.392435
   1 C :   -0.150138
   2 C :   -0.479608
   3 H :    0.307867
   4 H :    0.163193
   5 S :    0.952927
   6 C :    0.648650
   7 C :   -1.247821
   8 N :   -0.228320
   9 H :    0.285028
  10 H :    0.093516
  11 H :    0.246136
  12 H :    0.242559
  13 O :   -0.494026
  14 O :   -0.505391
  15 F :   -0.200100
  16 H :    0.184445
  17 H :    0.181066
  18 H :    0.125726
  19 H :    0.266726
Sum of atomic charges:    0.0000000

LOEWDIN ATOMIC CHARGES
----------------------
   0 C :   -0.148973
   1 C :   -0.203479
   2 C :   -0.222032
   3 H :    0.106089
   4 H :    0.111911
   5 S :    0.561170
   6 C :   -0.494433
   7 C :    0.029697
   8 N :    0.131412
   9 H :    0.049182
  10 H :    0.123867
  11 H :    0.022791
  12 H :    0.017171
  13 O :   -0.230373
  14 O :   -0.229204
  15 F :   -0.088217
  16 H :    0.111193
  17 H :    0.125179
  18 H :    0.123322
  19 H :    0.103727

  Mayer bond orders larger than 0.100000
B(  0-C ,  1-C ) :   0.8636 B(  0-C ,  2-C ) :   0.1085 B(  0-C ,  6-C ) :   0.8283
B(  0-C , 18-H ) :   0.9670 B(  0-C , 19-H ) :   0.8997 B(  1-C ,  2-C ) :   1.0365
B(  1-C ,  6-C ) :   0.2071 B(  1-C , 16-H ) :   0.8852 B(  1-C , 17-H ) :   0.9374
B(  2-C ,  3-H ) :   0.8619 B(  2-C ,  4-H ) :   0.9681 B(  2-C ,  5-S ) :   0.8114
B(  2-C ,  8-N ) :   0.1596 B(  2-C , 13-O ) :   0.1266 B(  5-S , 13-O ) :   1.7089
B(  5-S , 14-O ) :   1.7619 B(  5-S , 15-F ) :   1.0131 B(  6-C ,  7-C ) :   1.1517
B(  6-C ,  8-N ) :   1.0457 B(  7-C ,  8-N ) :   0.1351 B(  7-C , 11-H ) :   1.0069
B(  7-C , 12-H ) :   1.0237 B(  8-N ,  9-H ) :   0.8887 B(  8-N , 10-H ) :   1.0269
B( 13-O , 14-O ) :   0.1238

Dispersion correction           -0.022589234
FINAL SINGLE POINT ENERGY      -899.223719679754

DIPOLE MOMENT
-------------
                                X             Y             Z
Electronic contribution:      6.43183     -13.49726       3.19678
Nuclear contribution   :     -6.26130      13.99605      -3.80018
                        -----------------------------------------
Total Dipole Moment    :      0.17052       0.49879      -0.60339
                        -----------------------------------------
Magnitude (a.u.)       :      0.80122
Magnitude (Debye)      :      2.03654

Rotational constants in cm-1:     0.079895     0.025630     0.022948
Rotational constants in MHz :  2395.188639   768.373696   687.955250

                             ****ORCA TERMINATED NORMALLY****
TOTAL RUN TIME: 0 days 0 hours 0 minutes 42 seconds 498 msec
