                         Program Version 5.0.0 -  RELEASE  -
|  1> !PBE D3BJ RIJCOSX def2-TZVPD def2/J TightSCF xyzfile
|  2>
|  3> *xyzfile 0 1 D6.xyz
|  4>
|  5> %MaxCore 64000
|  6>
|  7> %pal nprocs 4
|  8> end
|  9>
| 10> %scf
| 11>   MaxIter 150
| 12> end
| 13>
| 14>
| 15>                          ****END OF INPUT****

CARTESIAN COORDINATES (ANGSTROEM)
---------------------------------
  C     -0.461293    2.234686   -4.989619
  C      0.848883    2.667967   -4.302351
  C      2.093434    1.861037   -4.656845
  H      2.444814    2.041567   -5.674990
  H      2.901748    2.137864   -3.980338
  S      1.879644    0.078594   -4.462965
  C     -0.423841    2.398772   -6.474317
  N     -0.959467    3.492647   -7.007401
  C      0.145585    1.486891   -7.203987
  H      0.565371    0.696807   -6.723858
  H      0.220682    1.581768   -8.207520
  H     -1.406243    4.181507   -6.403261
  H     -0.934215    3.681601   -7.999468
  O      3.207574   -0.466111   -4.420259
  O      1.075064   -0.056160   -3.268758
  F      1.131661   -0.319960   -5.679031
  H      0.668432    2.559427   -3.232850
  H      1.034074    3.729426   -4.497081
  H     -1.288884    2.826737   -4.594997
  H     -0.651696    1.186343   -4.756552

 Total Charge           Charge          ....    0
 Multiplicity           Mult            ....    1
 Number of Electrons    NEL             ....   88
 Basis Dimension        Dim             ....  478

ORBITAL ENERGIES
----------------

  NO   OCC          E(Eh)            E(eV)
   0   2.0000     -88.264586     -2401.8015
   1   2.0000     -24.354712      -662.7254
   2   2.0000     -18.764023      -510.5950
   3   2.0000     -18.761495      -510.5262
   4   2.0000     -13.997061      -380.8794
   5   2.0000      -9.930342      -270.2183
   6   2.0000      -9.907831      -269.6058
   7   2.0000      -9.907067      -269.5850
   8   2.0000      -9.896492      -269.2972
   9   2.0000      -9.814734      -267.0725
  10   2.0000      -7.860866      -213.9050
  11   2.0000      -5.885354      -160.1486
  12   2.0000      -5.878729      -159.9683
  13   2.0000      -5.878225      -159.9546
  14   2.0000      -1.250879       -34.0382
  15   2.0000      -1.025878       -27.9156
  16   2.0000      -0.939011       -25.5518
  17   2.0000      -0.856668       -23.3111
  18   2.0000      -0.757475       -20.6120
  19   2.0000      -0.701006       -19.0753
  20   2.0000      -0.655677       -17.8419
  21   2.0000      -0.645362       -17.5612
  22   2.0000      -0.576705       -15.6929
  23   2.0000      -0.541646       -14.7389
  24   2.0000      -0.503455       -13.6997
  25   2.0000      -0.500193       -13.6109
  26   2.0000      -0.492744       -13.4082
  27   2.0000      -0.480758       -13.0821
  28   2.0000      -0.448466       -12.2034
  29   2.0000      -0.436753       -11.8847
  30   2.0000      -0.420126       -11.4322
  31   2.0000      -0.406417       -11.0592
  32   2.0000      -0.399182       -10.8623
  33   2.0000      -0.365706        -9.9514
  34   2.0000      -0.357515        -9.7285
  35   2.0000      -0.349887        -9.5209
  36   2.0000      -0.336480        -9.1561
  37   2.0000      -0.328076        -8.9274
  38   2.0000      -0.304095        -8.2748
  39   2.0000      -0.299028        -8.1370
  40   2.0000      -0.293094        -7.9755
  41   2.0000      -0.284999        -7.7552
  42   2.0000      -0.275694        -7.5020
  43   2.0000      -0.172883        -4.7044
  44   0.0000      -0.027948        -0.7605
  45   0.0000      -0.015998        -0.4353
  46   0.0000      -0.006903        -0.1878
  47   0.0000       0.000257         0.0070
  48   0.0000       0.013060         0.3554

MULLIKEN ATOMIC CHARGES
-----------------------
   0 C :   -0.427984
   1 C :   -0.151124
   2 C :   -0.505619
   3 H :    0.370248
   4 H :    0.151940
   5 S :    0.931347
   6 C :    0.766463
   7 N :   -0.261942
   8 C :   -1.718362
   9 H :    0.795090
  10 H :    0.184261
  11 H :    0.149685
  12 H :    0.114459
  13 O :   -0.509378
  14 O :   -0.513358
  15 F :   -0.099437
  16 H :    0.188962
  17 H :    0.127268
  18 H :    0.165264
  19 H :    0.242216
Sum of atomic charges:    0.0000000

LOEWDIN ATOMIC CHARGES
----------------------
   0 C :   -0.146098
   1 C :   -0.205240
   2 C :   -0.221755
   3 H :    0.105808
   4 H :    0.110417
   5 S :    0.559480
   6 C :   -0.476927
   7 N :    0.119572
   8 C :    0.026715
   9 H :   -0.012496
  10 H :    0.038096
  11 H :    0.104303
  12 H :    0.107478
  13 O :   -0.235486
  14 O :   -0.236333
  15 F :   -0.094875
  16 H :    0.110625
  17 H :    0.121544
  18 H :    0.117602
  19 H :    0.107570

  Mayer bond orders larger than 0.100000
B(  0-C ,  1-C ) :   0.8928 B(  0-C ,  6-C ) :   0.7730 B(  0-C ,  7-N ) :   0.1272
B(  0-C ,  8-C ) :   0.1215 B(  0-C , 18-H ) :   1.0054 B(  0-C , 19-H ) :   0.9096
B(  1-C ,  2-C ) :   1.0440 B(  1-C ,  6-C ) :   0.1870 B(  1-C , 16-H ) :   0.8836
B(  1-C , 17-H ) :   0.9463 B(  2-C ,  3-H ) :   0.8323 B(  2-C ,  4-H ) :   0.9768
B(  2-C ,  5-S ) :   0.8082 B(  2-C ,  8-C ) :   0.1955 B(  2-C , 13-O ) :   0.1313
B(  5-S , 13-O ) :   1.6936 B(  5-S , 14-O ) :   1.7477 B(  5-S , 15-F ) :   1.0692
B(  6-C ,  7-N ) :   0.9328 B(  6-C ,  8-C ) :   1.0137 B(  6-C , 10-H ) :  -0.1141
B(  7-N ,  8-C ) :   0.1276 B(  7-N , 11-H ) :   1.0249 B(  7-N , 12-H ) :   1.0476
B(  8-C ,  9-H ) :   0.3860 B(  8-C , 10-H ) :   1.1264 B(  8-C , 15-F ) :   0.1374
B(  9-H , 15-F ) :  -0.2239 B( 13-O , 14-O ) :   0.1174

Dispersion correction           -0.022716284
FINAL SINGLE POINT ENERGY      -899.216178990904

DIPOLE MOMENT
-------------
                                X             Y             Z
Electronic contribution:      5.54413     -12.03574       3.20095
Nuclear contribution   :     -6.15577      13.80449      -3.81895
                        -----------------------------------------
Total Dipole Moment    :     -0.61163       1.76876      -0.61800
                        -----------------------------------------
Magnitude (a.u.)       :      1.97092
Magnitude (Debye)      :      5.00967

Rotational constants in cm-1:     0.081431     0.024887     0.022470
Rotational constants in MHz :  2441.231544   746.086417   673.646914

                             ****ORCA TERMINATED NORMALLY****
TOTAL RUN TIME: 0 days 0 hours 0 minutes 37 seconds 822 msec
