                         Program Version 5.0.0 -  RELEASE  -
|  1> !wB97X-D3 RIJCOSX def2-TZVP def2/J TightSCF
|  2> *xyz -1 1
|  3> C          0.69721        3.22791       -0.52513
|  4> O          1.48929        2.37470        0.19919
|  5> H          0.26505        2.70007       -1.34946
|  6> H          1.28994        4.03943       -0.89255
|  7> H         -0.08148        3.61005        0.10138
|  8> *
|  9>
| 10> %MaxCore 64000
| 11> %pal nprocs 8
| 12> end
| 13>
| 14> %scf
| 15>   MaxIter 150
| 16> end
| 17>
| 18>
| 19>                          ****END OF INPUT****

CARTESIAN COORDINATES (ANGSTROEM)
---------------------------------
  C      0.697210    3.227910   -0.525130
  O      1.489290    2.374700    0.199190
  H      0.265050    2.700070   -1.349460
  H      1.289940    4.039430   -0.892550
  H     -0.081480    3.610050    0.101380

 Total Charge           Charge          ....   -1
 Multiplicity           Mult            ....    1
 Number of Electrons    NEL             ....   18
 Basis Dimension        Dim             ....   80

ORBITAL ENERGIES
----------------

  NO   OCC          E(Eh)            E(eV)
   0   2.0000     -18.839296      -512.6433
   1   2.0000     -10.043288      -273.2918
   2   2.0000      -0.749790       -20.4028
   3   2.0000      -0.495437       -13.4815
   4   2.0000      -0.282571        -7.6892
   5   2.0000      -0.282551        -7.6886
   6   2.0000      -0.173549        -4.7225
   7   2.0000      -0.019267        -0.5243
   8   2.0000      -0.019264        -0.5242
   9   0.0000       0.330165         8.9843
  10   0.0000       0.403189        10.9713
  11   0.0000       0.403199        10.9716
  12   0.0000       0.408396        11.1130
  13   0.0000       0.514068        13.9885

MULLIKEN ATOMIC CHARGES
-----------------------
   0 C :   -0.009886
   1 O :   -0.873001
   2 H :   -0.039068
   3 H :   -0.039031
   4 H :   -0.039014
Sum of atomic charges:   -1.0000000

LOEWDIN ATOMIC CHARGES
----------------------
   0 C :   -0.566862
   1 O :   -0.530337
   2 H :    0.032400
   3 H :    0.032402
   4 H :    0.032396

  Mayer bond orders larger than 0.100000
B(  0-C ,  1-O ) :   1.4582 B(  0-C ,  2-H ) :   0.9551 B(  0-C ,  3-H ) :   0.9552
B(  0-C ,  4-H ) :   0.9552

Dispersion correction           -0.000090821
FINAL SINGLE POINT ENERGY      -115.095437150052

DIPOLE MOMENT
-------------
                                X             Y             Z
Electronic contribution:      1.14100      -1.22905       1.04333
Nuclear contribution   :     -1.66672       1.79535      -1.52413
                        -----------------------------------------
Total Dipole Moment    :     -0.52572       0.56630      -0.48080
                        -----------------------------------------
Magnitude (a.u.)       :      0.91008
Magnitude (Debye)      :      2.31323

Rotational constants in cm-1:     5.477728     0.937442     0.937441
Rotational constants in MHz : 164218.159175 28103.818547 28103.787504

                             ****ORCA TERMINATED NORMALLY****
TOTAL RUN TIME: 0 days 0 hours 0 minutes 4 seconds 216 msec
