                         Program Version 5.0.0 -  RELEASE  -
|  1> !wB97X-D3 RIJCOSX def2-TZVP def2/J TightSCF
|  2> *xyz 1 1
|  3> C          3.95643        0.50147       -0.37910
|  4> N          3.80389        1.96157       -0.15675
|  5> H          4.20643        2.24441        0.74536
|  6> H          2.80827        2.21132       -0.09610
|  7> H          4.28076        2.50155       -0.89104
|  8> H          3.52890        0.23799       -1.32393
|  9> H          3.45469       -0.03240        0.40073
| 10> H          4.99562        0.24661       -0.37434
| 11> *
| 12>
| 13> %MaxCore 64000
| 14> %pal nprocs 8
| 15> end
| 16>
| 17> %scf
| 18>   MaxIter 150
| 19> end
| 20>
| 21>
| 22>                          ****END OF INPUT****

CARTESIAN COORDINATES (ANGSTROEM)
---------------------------------
  C      3.956430    0.501470   -0.379100
  N      3.803890    1.961570   -0.156750
  H      4.206430    2.244410    0.745360
  H      2.808270    2.211320   -0.096100
  H      4.280760    2.501550   -0.891040
  H      3.528900    0.237990   -1.323930
  H      3.454690   -0.032400    0.400730
  H      4.995620    0.246610   -0.374340

 Total Charge           Charge          ....    1
 Multiplicity           Mult            ....    1
 Number of Electrons    NEL             ....   18
 Basis Dimension        Dim             ....   98

ORBITAL ENERGIES
----------------

  NO   OCC          E(Eh)            E(eV)
   0   2.0000     -14.771809      -401.9613
   1   2.0000     -10.530005      -286.5360
   2   2.0000      -1.343830       -36.5675
   3   2.0000      -1.052255       -28.6333
   4   2.0000      -0.917163       -24.9573
   5   2.0000      -0.905729       -24.6461
   6   2.0000      -0.812883       -22.1197
   7   2.0000      -0.724274       -19.7085
   8   2.0000      -0.722527       -19.6610
   9   0.0000      -0.118438        -3.2229
  10   0.0000      -0.047439        -1.2909
  11   0.0000      -0.046120        -1.2550
  12   0.0000      -0.028597        -0.7782
  13   0.0000       0.017296         0.4706

MULLIKEN ATOMIC CHARGES
-----------------------
   0 C :   -0.323573
   1 N :   -0.310829
   2 H :    0.338861
   3 H :    0.342140
   4 H :    0.344798
   5 H :    0.203766
   6 H :    0.202212
   7 H :    0.202625
Sum of atomic charges:    1.0000000

LOEWDIN ATOMIC CHARGES
----------------------
   0 C :   -0.246811
   1 N :    0.153579
   2 H :    0.225362
   3 H :    0.226985
   4 H :    0.227192
   5 H :    0.138044
   6 H :    0.137855
   7 H :    0.137794

  Mayer bond orders larger than 0.100000
B(  0-C ,  1-N ) :   0.9038 B(  0-C ,  5-H ) :   0.9532 B(  0-C ,  6-H ) :   0.9527
B(  0-C ,  7-H ) :   0.9534 B(  1-N ,  2-H ) :   0.8731 B(  1-N ,  3-H ) :   0.8708
B(  1-N ,  4-H ) :   0.8683

Dispersion correction           -0.000504075
FINAL SINGLE POINT ENERGY       -96.226374518047

DIPOLE MOMENT
-------------
                                X             Y             Z
Electronic contribution:     -0.11222       1.09351       0.14438
Nuclear contribution   :      0.02154      -0.23654       0.01355
                        -----------------------------------------
Total Dipole Moment    :     -0.09068       0.85697       0.15793
                        -----------------------------------------
Magnitude (a.u.)       :      0.87611
Magnitude (Debye)      :      2.22688

Rotational constants in cm-1:     2.873586     0.687737     0.684128
Rotational constants in MHz : 86147.950763 20617.847271 20509.632222

                             ****ORCA TERMINATED NORMALLY****
TOTAL RUN TIME: 0 days 0 hours 0 minutes 5 seconds 317 msec
