                         Program Version 5.0.0 -  RELEASE  -
|  1> !wB97X-D3 RIJCOSX def2-TZVP def2/J TightSCF
|  2> *xyz 0 1
|  3> C          0.69721        3.22791       -0.52513
|  4> F          1.48929        2.37470        0.19919
|  5> H          0.26505        2.70007       -1.34946
|  6> H          1.28994        4.03943       -0.89255
|  7> H         -0.08148        3.61005        0.10138
|  8> *
|  9>
| 10> %MaxCore 64000
| 11> %pal nprocs 8
| 12> end
| 13>
| 14> %scf
| 15>   MaxIter 150
| 16> end
| 17>
| 18>
| 19>                          ****END OF INPUT****

CARTESIAN COORDINATES (ANGSTROEM)
---------------------------------
  C      0.697210    3.227910   -0.525130
  F      1.489290    2.374700    0.199190
  H      0.265050    2.700070   -1.349460
  H      1.289940    4.039430   -0.892550
  H     -0.081480    3.610050    0.101380

 Total Charge           Charge          ....    0
 Multiplicity           Mult            ....    1
 Number of Electrons    NEL             ....   18
 Basis Dimension        Dim             ....   80

ORBITAL ENERGIES
----------------

  NO   OCC          E(Eh)            E(eV)
   0   2.0000     -24.763181      -673.8404
   1   2.0000     -10.338487      -281.3245
   2   2.0000      -1.308204       -35.5980
   3   2.0000      -0.819794       -22.3077
   4   2.0000      -0.592845       -16.1321
   5   2.0000      -0.590010       -16.0550
   6   2.0000      -0.589995       -16.0546
   7   2.0000      -0.445720       -12.1287
   8   2.0000      -0.445706       -12.1283
   9   0.0000       0.139227         3.7886
  10   0.0000       0.163874         4.4592
  11   0.0000       0.203994         5.5510
  12   0.0000       0.204002         5.5512
  13   0.0000       0.295035         8.0283

MULLIKEN ATOMIC CHARGES
-----------------------
   0 C :   -0.069400
   1 F :   -0.249347
   2 H :    0.106213
   3 H :    0.106271
   4 H :    0.106263
Sum of atomic charges:   -0.0000000

LOEWDIN ATOMIC CHARGES
----------------------
   0 C :   -0.343601
   1 F :    0.059767
   2 H :    0.094609
   3 H :    0.094616
   4 H :    0.094609

  Mayer bond orders larger than 0.100000
B(  0-C ,  1-F ) :   0.9794 B(  0-C ,  2-H ) :   0.9788 B(  0-C ,  3-H ) :   0.9788
B(  0-C ,  4-H ) :   0.9788

Dispersion correction           -0.000130378
FINAL SINGLE POINT ENERGY      -139.764785325849

DIPOLE MOMENT
-------------
                                X             Y             Z
Electronic contribution:      1.69882      -1.82992       1.55337
Nuclear contribution   :     -2.11402       2.27717      -1.93317
                        -----------------------------------------
Total Dipole Moment    :     -0.41520       0.44725      -0.37981
                        -----------------------------------------
Magnitude (a.u.)       :      0.71880
Magnitude (Debye)      :      1.82704

Rotational constants in cm-1:     5.477728     0.872600     0.872599
Rotational constants in MHz : 164218.159175 26159.886777 26159.859881

                             ****ORCA TERMINATED NORMALLY****
TOTAL RUN TIME: 0 days 0 hours 0 minutes 3 seconds 821 msec
