                         Program Version 5.0.0 -  RELEASE  -
|  1> !wB97X-D3 RIJCOSX def2-TZVP def2/J TightSCF
|  2> *xyz 0 1
|  3> C          3.95643        0.50147       -0.37910
|  4> C          3.80389        1.96157       -0.15675
|  5> H          4.20643        2.24441        0.74536
|  6> H          2.80827        2.21132       -0.09610
|  7> H          4.28076        2.50155       -0.89104
|  8> H          3.52890        0.23799       -1.32393
|  9> H          3.45469       -0.03240        0.40073
| 10> H          4.99562        0.24661       -0.37434
| 11> *
| 12>
| 13> %MaxCore 64000
| 14> %pal nprocs 8
| 15> end
| 16>
| 17> %scf
| 18>   MaxIter 150
| 19> end
| 20>
| 21>
| 22>                          ****END OF INPUT****

CARTESIAN COORDINATES (ANGSTROEM)
---------------------------------
  C      3.956430    0.501470   -0.379100
  C      3.803890    1.961570   -0.156750
  H      4.206430    2.244410    0.745360
  H      2.808270    2.211320   -0.096100
  H      4.280760    2.501550   -0.891040
  H      3.528900    0.237990   -1.323930
  H      3.454690   -0.032400    0.400730
  H      4.995620    0.246610   -0.374340

 Total Charge           Charge          ....    0
 Multiplicity           Mult            ....    1
 Number of Electrons    NEL             ....   18
 Basis Dimension        Dim             ....   98

ORBITAL ENERGIES
----------------

  NO   OCC          E(Eh)            E(eV)
   0   2.0000     -10.248153      -278.8664
   1   2.0000     -10.233539      -278.4687
   2   2.0000      -0.885665       -24.1002
   3   2.0000      -0.732746       -19.9390
   4   2.0000      -0.552568       -15.0361
   5   2.0000      -0.545840       -14.8531
   6   2.0000      -0.463428       -12.6105
   7   2.0000      -0.442992       -12.0544
   8   2.0000      -0.436473       -11.8770
   9   0.0000       0.127403         3.4668
  10   0.0000       0.171241         4.6597
  11   0.0000       0.199590         5.4311
  12   0.0000       0.201390         5.4801
  13   0.0000       0.212952         5.7947

MULLIKEN ATOMIC CHARGES
-----------------------
   0 C :   -0.303207
   1 C :   -0.302177
   2 H :    0.101808
   3 H :    0.101668
   4 H :    0.102454
   5 H :    0.100058
   6 H :    0.099752
   7 H :    0.099644
Sum of atomic charges:    0.0000000

LOEWDIN ATOMIC CHARGES
----------------------
   0 C :   -0.330892
   1 C :   -0.327017
   2 H :    0.105723
   3 H :    0.106304
   4 H :    0.105631
   5 H :    0.113374
   6 H :    0.113598
   7 H :    0.113279

  Mayer bond orders larger than 0.100000
B(  0-C ,  1-C ) :   0.9818 B(  0-C ,  5-H ) :   0.9812 B(  0-C ,  6-H ) :   0.9819
B(  0-C ,  7-H ) :   0.9819 B(  1-C ,  2-H ) :   0.9838 B(  1-C ,  3-H ) :   0.9829
B(  1-C ,  4-H ) :   0.9820

Dispersion correction           -0.000493281
FINAL SINGLE POINT ENERGY       -79.823237221530

DIPOLE MOMENT
-------------
                                X             Y             Z
Electronic contribution:      0.00215       0.01120      -0.03618
Nuclear contribution   :     -0.00471       0.01526       0.05114
                        -----------------------------------------
Total Dipole Moment    :     -0.00256       0.02646       0.01496
                        -----------------------------------------
Magnitude (a.u.)       :      0.03050
Magnitude (Debye)      :      0.07753

Rotational constants in cm-1:     2.873610     0.717865     0.713933
Rotational constants in MHz : 86148.646881 21521.066032 21403.176468

                             ****ORCA TERMINATED NORMALLY****
TOTAL RUN TIME: 0 days 0 hours 0 minutes 5 seconds 290 msec
