                         Program Version 5.0.0 -  RELEASE  -
|  1> !LC-BLYP RIJCOSX def2-TZVP def2/J TightSCF
|  2> *xyz -1 1
|  3> C         -0.90349       -0.87394       -1.98739
|  4> C         -0.96015       -0.52236       -0.48987
|  5> H         -1.69039       -1.20813       -0.02168
|  6> H         -1.41449        0.48633       -0.40668
|  7> O          0.26170       -0.58031        0.13861
|  8> H         -1.88568       -0.80774       -2.40670
|  9> H         -0.53143       -1.87013       -2.10605
| 10> H         -0.25399       -0.18836       -2.49039
| 11> *
| 12>
| 13> %MaxCore 64000
| 14>
| 15> %pal nprocs 4
| 16> end
| 17>
| 18> %scf
| 19>   MaxIter 150
| 20> end
| 21>
| 22>
| 23>                          ****END OF INPUT****

CARTESIAN COORDINATES (ANGSTROEM)
---------------------------------
  C     -0.903490   -0.873940   -1.987390
  C     -0.960150   -0.522360   -0.489870
  H     -1.690390   -1.208130   -0.021680
  H     -1.414490    0.486330   -0.406680
  O      0.261700   -0.580310    0.138610
  H     -1.885680   -0.807740   -2.406700
  H     -0.531430   -1.870130   -2.106050
  H     -0.253990   -0.188360   -2.490390

 Total Charge           Charge          ....   -1
 Multiplicity           Mult            ....    1
 Number of Electrons    NEL             ....   26
 Basis Dimension        Dim             ....  123

ORBITAL ENERGIES
----------------

  NO   OCC          E(Eh)            E(eV)
   0   2.0000     -18.577133      -505.5095
   1   2.0000      -9.871977      -268.6302
   2   2.0000      -9.852741      -268.1067
   3   2.0000      -0.756701       -20.5909
   4   2.0000      -0.626499       -17.0479
   5   2.0000      -0.470776       -12.8105
   6   2.0000      -0.350526        -9.5383
   7   2.0000      -0.325505        -8.8574
   8   2.0000      -0.266908        -7.2629
   9   2.0000      -0.249103        -6.7784
  10   2.0000      -0.194726        -5.2988
  11   2.0000      -0.049179        -1.3382
  12   2.0000      -0.046153        -1.2559
  13   0.0000       0.280146         7.6232
  14   0.0000       0.318812         8.6753
  15   0.0000       0.345054         9.3894
  16   0.0000       0.345530         9.4023
  17   0.0000       0.381190        10.3727

MULLIKEN ATOMIC CHARGES
-----------------------
   0 C :   -0.218707
   1 C :   -0.019709
   2 H :   -0.049153
   3 H :   -0.051148
   4 O :   -0.742718
   5 H :   -0.005831
   6 H :    0.043602
   7 H :    0.043664
Sum of atomic charges:   -1.0000000

LOEWDIN ATOMIC CHARGES
----------------------
   0 C :   -0.377205
   1 C :   -0.567275
   2 H :    0.058744
   3 H :    0.058403
   4 O :   -0.435511
   5 H :    0.079824
   6 H :    0.091507
   7 H :    0.091513

  Mayer bond orders larger than 0.100000
B(  0-C ,  1-C ) :   0.8663 B(  0-C ,  4-O ) :  -0.2213 B(  0-C ,  5-H ) :   0.9380
B(  0-C ,  6-H ) :   0.9722 B(  0-C ,  7-H ) :   0.9722 B(  1-C ,  2-H ) :   0.9365
B(  1-C ,  3-H ) :   0.9355 B(  1-C ,  4-O ) :   1.6757

FINAL SINGLE POINT ENERGY      -154.100097003761

DIPOLE MOMENT
-------------
                                X             Y             Z
Electronic contribution:      1.98141       0.16490       2.17052
Nuclear contribution   :     -2.90669      -0.27617      -3.31210
                        -----------------------------------------
Total Dipole Moment    :     -0.92528      -0.11126      -1.14159
                        -----------------------------------------
Magnitude (a.u.)       :      1.47368
Magnitude (Debye)      :      3.74580

Rotational constants in cm-1:     1.291883     0.321656     0.284469
Rotational constants in MHz : 38729.676116  9643.011620  8528.167295

                             ****ORCA TERMINATED NORMALLY****
TOTAL RUN TIME: 0 days 0 hours 0 minutes 13 seconds 67 msec
