                         Program Version 5.0.0 -  RELEASE  -
|  1> !LC-BLYP RIJCOSX def2-TZVP def2/J TightSCF
|  2> *xyz 1 1
|  3> C          4.36645       -0.13321       -1.41606
|  4> C          4.50829       -0.93187       -2.72425
|  5> C          3.05650       -0.32080       -0.70738
|  6> N          2.38983        0.71129       -0.24391
|  7> N          2.51600       -1.50772       -0.55023
|  8> H          2.96768       -2.32291       -0.95631
|  9> H          1.54987       -1.49063       -0.24988
| 10> H          2.74307        1.64947       -0.41280
| 11> H          1.44036        0.50278        0.03703
| 12> H          4.48784        0.93300       -1.61157
| 13> H          5.16967       -0.41443       -0.72982
| 14> H          5.46700       -0.73824       -3.15818
| 15> H          3.74074       -0.63528       -3.40821
| 16> H          4.41574       -1.97727       -2.51573
| 17> *
| 18>
| 19> %MaxCore 64000
| 20>
| 21> %pal nprocs 4
| 22> end
| 23>
| 24> %scf
| 25>   MaxIter 150
| 26> end
| 27>
| 28>
| 29>                          ****END OF INPUT****

CARTESIAN COORDINATES (ANGSTROEM)
---------------------------------
  C      4.366450   -0.133210   -1.416060
  C      4.508290   -0.931870   -2.724250
  C      3.056500   -0.320800   -0.707380
  N      2.389830    0.711290   -0.243910
  N      2.516000   -1.507720   -0.550230
  H      2.967680   -2.322910   -0.956310
  H      1.549870   -1.490630   -0.249880
  H      2.743070    1.649470   -0.412800
  H      1.440360    0.502780    0.037030
  H      4.487840    0.933000   -1.611570
  H      5.169670   -0.414430   -0.729820
  H      5.467000   -0.738240   -3.158180
  H      3.740740   -0.635280   -3.408210
  H      4.415740   -1.977270   -2.515730

 Total Charge           Charge          ....    1
 Multiplicity           Mult            ....    1
 Number of Electrons    NEL             ....   40
 Basis Dimension        Dim             ....  209

ORBITAL ENERGIES
----------------

  NO   OCC          E(Eh)            E(eV)
   0   2.0000     -14.416096      -392.2819
   1   2.0000     -14.414817      -392.2471
   2   2.0000     -10.393333      -282.8170
   3   2.0000     -10.270539      -279.4756
   4   2.0000     -10.226372      -278.2737
   5   2.0000      -1.314712       -35.7751
   6   2.0000      -1.208075       -32.8734
   7   2.0000      -1.081284       -29.4232
   8   2.0000      -0.968354       -26.3502
   9   2.0000      -0.925909       -25.1953
  10   2.0000      -0.875168       -23.8145
  11   2.0000      -0.860644       -23.4193
  12   2.0000      -0.804407       -21.8890
  13   2.0000      -0.771812       -21.0021
  14   2.0000      -0.732031       -19.9196
  15   2.0000      -0.707470       -19.2512
  16   2.0000      -0.655292       -17.8314
  17   2.0000      -0.641037       -17.4435
  18   2.0000      -0.625490       -17.0204
  19   2.0000      -0.593180       -16.1412
  20   0.0000      -0.130057        -3.5390
  21   0.0000      -0.097688        -2.6582
  22   0.0000      -0.052153        -1.4191
  23   0.0000      -0.050665        -1.3787
  24   0.0000      -0.012074        -0.3285

MULLIKEN ATOMIC CHARGES
-----------------------
   0 C :   -0.300003
   1 C :   -0.406515
   2 C :    0.278889
   3 N :   -0.288410
   4 N :   -0.276918
   5 H :    0.296770
   6 H :    0.267226
   7 H :    0.300044
   8 H :    0.264249
   9 H :    0.160407
  10 H :    0.209167
  11 H :    0.192786
  12 H :    0.172445
  13 H :    0.129862
Sum of atomic charges:    1.0000000

LOEWDIN ATOMIC CHARGES
----------------------
   0 C :   -0.227114
   1 C :   -0.276355
   2 C :   -0.299200
   3 N :    0.113306
   4 N :    0.113764
   5 H :    0.210386
   6 H :    0.202512
   7 H :    0.212844
   8 H :    0.201776
   9 H :    0.164038
  10 H :    0.179454
  11 H :    0.144998
  12 H :    0.135521
  13 H :    0.124070

  Mayer bond orders larger than 0.100000
B(  0-C ,  1-C ) :   0.9384 B(  0-C ,  2-C ) :   0.9345 B(  0-C ,  9-H ) :   0.9703
B(  0-C , 10-H ) :   0.9281 B(  1-C , 11-H ) :   0.9656 B(  1-C , 12-H ) :   0.9597
B(  1-C , 13-H ) :   0.9637 B(  2-C ,  3-N ) :   1.4588 B(  2-C ,  4-N ) :   1.4339
B(  3-N ,  7-H ) :   0.8873 B(  3-N ,  8-H ) :   0.9008 B(  4-N ,  5-H ) :   0.8926
B(  4-N ,  6-H ) :   0.8987

FINAL SINGLE POINT ENERGY      -228.501837809557

DIPOLE MOMENT
-------------
                                X             Y             Z
Electronic contribution:     -2.67816       0.63600       3.11996
Nuclear contribution   :      1.78847      -0.48174      -2.67127
                        -----------------------------------------
Total Dipole Moment    :     -0.88969       0.15426       0.44868
                        -----------------------------------------
Magnitude (a.u.)       :      1.00830
Magnitude (Debye)      :      2.56289

Rotational constants in cm-1:     0.286883     0.123210     0.094446
Rotational constants in MHz :  8600.540572  3693.747366  2831.415242

                             ****ORCA TERMINATED NORMALLY****
TOTAL RUN TIME: 0 days 0 hours 0 minutes 28 seconds 86 msec
