                         Program Version 5.0.0 -  RELEASE  -
|  1> !LC-BLYP RIJCOSX def2-TZVP def2/J TightSCF
|  2> *xyz 0 1
|  3> C         -0.90349       -0.87394       -1.98739
|  4> C         -0.96015       -0.52236       -0.48987
|  5> H         -1.69039       -1.20813       -0.02168
|  6> H         -1.41449        0.48633       -0.40668
|  7> F          0.26170       -0.58031        0.13861
|  8> H         -1.88568       -0.80774       -2.40670
|  9> H         -0.53143       -1.87013       -2.10605
| 10> H         -0.25399       -0.18836       -2.49039
| 11> *
| 12>
| 13> %MaxCore 64000
| 14>
| 15> %pal nprocs 4
| 16> end
| 17>
| 18> %scf
| 19>   MaxIter 150
| 20> end
| 21>
| 22>
| 23>                          ****END OF INPUT****

CARTESIAN COORDINATES (ANGSTROEM)
---------------------------------
  C     -0.903490   -0.873940   -1.987390
  C     -0.960150   -0.522360   -0.489870
  H     -1.690390   -1.208130   -0.021680
  H     -1.414490    0.486330   -0.406680
  F      0.261700   -0.580310    0.138610
  H     -1.885680   -0.807740   -2.406700
  H     -0.531430   -1.870130   -2.106050
  H     -0.253990   -0.188360   -2.490390

 Total Charge           Charge          ....    0
 Multiplicity           Mult            ....    1
 Number of Electrons    NEL             ....   26
 Basis Dimension        Dim             ....  123

ORBITAL ENERGIES
----------------

  NO   OCC          E(Eh)            E(eV)
   0   2.0000     -24.436689      -664.9561
   1   2.0000     -10.146810      -276.1087
   2   2.0000     -10.063803      -273.8500
   3   2.0000      -1.273995       -34.6672
   4   2.0000      -0.874446       -23.7949
   5   2.0000      -0.739056       -20.1107
   6   2.0000      -0.610236       -16.6054
   7   2.0000      -0.601717       -16.3736
   8   2.0000      -0.559437       -15.2230
   9   2.0000      -0.505905       -13.7664
  10   2.0000      -0.502151       -13.6642
  11   2.0000      -0.434208       -11.8154
  12   2.0000      -0.427685       -11.6379
  13   0.0000       0.105163         2.8616
  14   0.0000       0.144953         3.9444
  15   0.0000       0.166101         4.5198
  16   0.0000       0.167872         4.5680
  17   0.0000       0.180581         4.9139

MULLIKEN ATOMIC CHARGES
-----------------------
   0 C :   -0.380245
   1 C :   -0.011170
   2 H :    0.106803
   3 H :    0.106394
   4 F :   -0.219270
   5 H :    0.126586
   6 H :    0.135417
   7 H :    0.135485
Sum of atomic charges:   -0.0000000

LOEWDIN ATOMIC CHARGES
----------------------
   0 C :   -0.323734
   1 C :   -0.383722
   2 H :    0.120403
   3 H :    0.121018
   4 F :    0.097555
   5 H :    0.126052
   6 H :    0.121212
   7 H :    0.121215

  Mayer bond orders larger than 0.100000
B(  0-C ,  1-C ) :   0.9549 B(  0-C ,  5-H ) :   0.9568 B(  0-C ,  6-H ) :   0.9697
B(  0-C ,  7-H ) :   0.9697 B(  1-C ,  2-H ) :   0.9723 B(  1-C ,  3-H ) :   0.9722
B(  1-C ,  4-F ) :   1.0256

FINAL SINGLE POINT ENERGY      -178.739982476375

DIPOLE MOMENT
-------------
                                X             Y             Z
Electronic contribution:      3.22081       0.37689       3.98369
Nuclear contribution   :     -3.84149      -0.36812      -4.38946
                        -----------------------------------------
Total Dipole Moment    :     -0.62067       0.00877      -0.40578
                        -----------------------------------------
Magnitude (a.u.)       :      0.74160
Magnitude (Debye)      :      1.88499

Rotational constants in cm-1:     1.270659     0.299196     0.265842
Rotational constants in MHz : 38093.410361  8969.665806  7969.741481

                             ****ORCA TERMINATED NORMALLY****
TOTAL RUN TIME: 0 days 0 hours 0 minutes 12 seconds 695 msec
