                         Program Version 5.0.0 -  RELEASE  -
|  1> !LC-BLYP RIJCOSX def2-TZVP def2/J TightSCF
|  2> *xyz 0 1
|  3> C          4.36645       -0.13321       -1.41606
|  4> C          4.50829       -0.93187       -2.72425
|  5> C          3.05650       -0.32080       -0.70738
|  6> C          2.38983        0.71129       -0.24391
|  7> N          2.51600       -1.50772       -0.55023
|  8> H          2.96768       -2.32291       -0.95631
|  9> H          1.54987       -1.49063       -0.24988
| 10> H          2.74307        1.64947       -0.41280
| 11> H          1.44036        0.50278        0.03703
| 12> H          4.48784        0.93300       -1.61157
| 13> H          5.16967       -0.41443       -0.72982
| 14> H          5.46700       -0.73824       -3.15818
| 15> H          3.74074       -0.63528       -3.40821
| 16> H          4.41574       -1.97727       -2.51573
| 17> *
| 18>
| 19> %MaxCore 64000
| 20>
| 21> %pal nprocs 4
| 22> end
| 23>
| 24> %scf
| 25>   MaxIter 150
| 26> end
| 27>
| 28>
| 29>                          ****END OF INPUT****

CARTESIAN COORDINATES (ANGSTROEM)
---------------------------------
  C      4.366450   -0.133210   -1.416060
  C      4.508290   -0.931870   -2.724250
  C      3.056500   -0.320800   -0.707380
  C      2.389830    0.711290   -0.243910
  N      2.516000   -1.507720   -0.550230
  H      2.967680   -2.322910   -0.956310
  H      1.549870   -1.490630   -0.249880
  H      2.743070    1.649470   -0.412800
  H      1.440360    0.502780    0.037030
  H      4.487840    0.933000   -1.611570
  H      5.169670   -0.414430   -0.729820
  H      5.467000   -0.738240   -3.158180
  H      3.740740   -0.635280   -3.408210
  H      4.415740   -1.977270   -2.515730

 Total Charge           Charge          ....    0
 Multiplicity           Mult            ....    1
 Number of Electrons    NEL             ....   40
 Basis Dimension        Dim             ....  209

ORBITAL ENERGIES
----------------

  NO   OCC          E(Eh)            E(eV)
   0   2.0000     -14.166005      -385.4766
   1   2.0000     -10.087169      -274.4858
   2   2.0000     -10.069741      -274.0116
   3   2.0000     -10.059513      -273.7333
   4   2.0000      -9.997264      -272.0394
   5   2.0000      -1.034427       -28.1482
   6   2.0000      -0.887362       -24.1464
   7   2.0000      -0.829742       -22.5784
   8   2.0000      -0.744471       -20.2581
   9   2.0000      -0.667438       -18.1619
  10   2.0000      -0.638701       -17.3799
  11   2.0000      -0.576357       -15.6835
  12   2.0000      -0.544386       -14.8135
  13   2.0000      -0.534743       -14.5511
  14   2.0000      -0.492643       -13.4055
  15   2.0000      -0.483814       -13.1652
  16   2.0000      -0.456643       -12.4259
  17   2.0000      -0.443274       -12.0621
  18   2.0000      -0.425386       -11.5753
  19   2.0000      -0.283955        -7.7268
  20   0.0000       0.089221         2.4278
  21   0.0000       0.116180         3.1614
  22   0.0000       0.134810         3.6684
  23   0.0000       0.139415         3.7937
  24   0.0000       0.156896         4.2694

MULLIKEN ATOMIC CHARGES
-----------------------
   0 C :   -0.248158
   1 C :   -0.393536
   2 C :    0.211185
   3 C :   -0.431055
   4 N :   -0.392686
   5 H :    0.219560
   6 H :    0.223815
   7 H :    0.094585
   8 H :    0.076218
   9 H :    0.124802
  10 H :    0.132476
  11 H :    0.138237
  12 H :    0.141833
  13 H :    0.102725
Sum of atomic charges:   -0.0000000

LOEWDIN ATOMIC CHARGES
----------------------
   0 C :   -0.244629
   1 C :   -0.310146
   2 C :   -0.374201
   3 C :   -0.286455
   4 N :   -0.001335
   5 H :    0.169416
   6 H :    0.179635
   7 H :    0.107755
   8 H :    0.102867
   9 H :    0.151243
  10 H :    0.146758
  11 H :    0.122221
  12 H :    0.124252
  13 H :    0.112619

  Mayer bond orders larger than 0.100000
B(  0-C ,  1-C ) :   0.9339 B(  0-C ,  2-C ) :   0.9283 B(  0-C ,  9-H ) :   0.9837
B(  0-C , 10-H ) :   0.9733 B(  1-C , 11-H ) :   0.9830 B(  1-C , 12-H ) :   0.9705
B(  1-C , 13-H ) :   0.9764 B(  2-C ,  3-C ) :   1.7439 B(  2-C ,  4-N ) :   1.1542
B(  3-C ,  7-H ) :   1.0093 B(  3-C ,  8-H ) :   0.9941 B(  4-N ,  5-H ) :   0.9372
B(  4-N ,  6-H ) :   0.9260

FINAL SINGLE POINT ENERGY      -212.034782695677

DIPOLE MOMENT
-------------
                                X             Y             Z
Electronic contribution:     -1.48515      -0.45394       2.06284
Nuclear contribution   :      1.56827      -0.21459      -2.46657
                        -----------------------------------------
Total Dipole Moment    :      0.08311      -0.66853      -0.40373
                        -----------------------------------------
Magnitude (a.u.)       :      0.78539
Magnitude (Debye)      :      1.99631

Rotational constants in cm-1:     0.294070     0.127722     0.097792
Rotational constants in MHz :  8815.983970  3829.010547  2931.715816

                             ****ORCA TERMINATED NORMALLY****
TOTAL RUN TIME: 0 days 0 hours 0 minutes 29 seconds 835 msec
