                         Program Version 5.0.0 -  RELEASE  -
|  1> !LC-BLYP RIJCOSX def2-TZVP def2/J TightSCF
|  2> *xyz 0 1
|  3> C          4.36645       -0.13321       -1.41606
|  4> C          4.50829       -0.93187       -2.72425
|  5> C          3.05650       -0.32080       -0.70738
|  6> N          2.38983        0.71129       -0.24391
|  7> C          2.51600       -1.50772       -0.55023
|  8> H          2.96768       -2.32291       -0.95631
|  9> H          1.54987       -1.49063       -0.24988
| 10> H          2.74307        1.64947       -0.41280
| 11> H          1.44036        0.50278        0.03703
| 12> H          4.48784        0.93300       -1.61157
| 13> H          5.16967       -0.41443       -0.72982
| 14> H          5.46700       -0.73824       -3.15818
| 15> H          3.74074       -0.63528       -3.40821
| 16> H          4.41574       -1.97727       -2.51573
| 17> *
| 18>
| 19> %MaxCore 64000
| 20>
| 21> %pal nprocs 4
| 22> end
| 23>
| 24> %scf
| 25>   MaxIter 150
| 26> end
| 27>
| 28>
| 29>                          ****END OF INPUT****

CARTESIAN COORDINATES (ANGSTROEM)
---------------------------------
  C      4.366450   -0.133210   -1.416060
  C      4.508290   -0.931870   -2.724250
  C      3.056500   -0.320800   -0.707380
  N      2.389830    0.711290   -0.243910
  C      2.516000   -1.507720   -0.550230
  H      2.967680   -2.322910   -0.956310
  H      1.549870   -1.490630   -0.249880
  H      2.743070    1.649470   -0.412800
  H      1.440360    0.502780    0.037030
  H      4.487840    0.933000   -1.611570
  H      5.169670   -0.414430   -0.729820
  H      5.467000   -0.738240   -3.158180
  H      3.740740   -0.635280   -3.408210
  H      4.415740   -1.977270   -2.515730

 Total Charge           Charge          ....    0
 Multiplicity           Mult            ....    1
 Number of Electrons    NEL             ....   40
 Basis Dimension        Dim             ....  209

ORBITAL ENERGIES
----------------

  NO   OCC          E(Eh)            E(eV)
   0   2.0000     -14.166401      -385.4874
   1   2.0000     -10.087319      -274.4899
   2   2.0000     -10.071097      -274.0485
   3   2.0000     -10.052976      -273.5554
   4   2.0000      -9.995390      -271.9884
   5   2.0000      -1.034515       -28.1506
   6   2.0000      -0.889042       -24.1921
   7   2.0000      -0.817879       -22.2556
   8   2.0000      -0.754564       -20.5327
   9   2.0000      -0.657441       -17.8899
  10   2.0000      -0.635652       -17.2970
  11   2.0000      -0.583522       -15.8785
  12   2.0000      -0.557370       -15.1668
  13   2.0000      -0.509484       -13.8638
  14   2.0000      -0.491223       -13.3669
  15   2.0000      -0.482400       -13.1268
  16   2.0000      -0.457853       -12.4588
  17   2.0000      -0.439914       -11.9707
  18   2.0000      -0.427252       -11.6261
  19   2.0000      -0.282356        -7.6833
  20   0.0000       0.093241         2.5372
  21   0.0000       0.111648         3.0381
  22   0.0000       0.135857         3.6969
  23   0.0000       0.137127         3.7314
  24   0.0000       0.160968         4.3802

MULLIKEN ATOMIC CHARGES
-----------------------
   0 C :   -0.248934
   1 C :   -0.389149
   2 C :    0.225254
   3 N :   -0.401858
   4 C :   -0.428137
   5 H :    0.086514
   6 H :    0.078038
   7 H :    0.220580
   8 H :    0.221230
   9 H :    0.099824
  10 H :    0.142359
  11 H :    0.129605
  12 H :    0.135049
  13 H :    0.129625
Sum of atomic charges:    0.0000000

LOEWDIN ATOMIC CHARGES
----------------------
   0 C :   -0.244902
   1 C :   -0.301713
   2 C :   -0.373037
   3 N :   -0.002970
   4 C :   -0.289139
   5 H :    0.106801
   6 H :    0.103268
   7 H :    0.169808
   8 H :    0.178913
   9 H :    0.137011
  10 H :    0.152363
  11 H :    0.118607
  12 H :    0.123192
  13 H :    0.121798

  Mayer bond orders larger than 0.100000
B(  0-C ,  1-C ) :   0.9553 B(  0-C ,  2-C ) :   0.9023 B(  0-C ,  9-H ) :   0.9866
B(  0-C , 10-H ) :   0.9752 B(  1-C , 11-H ) :   0.9808 B(  1-C , 12-H ) :   0.9737
B(  1-C , 13-H ) :   0.9761 B(  2-C ,  3-N ) :   1.1702 B(  2-C ,  4-C ) :   1.7098
B(  3-N ,  7-H ) :   0.9305 B(  3-N ,  8-H ) :   0.9262 B(  4-C ,  5-H ) :   1.0184
B(  4-C ,  6-H ) :   0.9908

FINAL SINGLE POINT ENERGY      -212.033562553522

DIPOLE MOMENT
-------------
                                X             Y             Z
Electronic contribution:     -1.60036       1.49798       2.34597
Nuclear contribution   :      1.59749      -0.72853      -2.53752
                        -----------------------------------------
Total Dipole Moment    :     -0.00287       0.76945      -0.19155
                        -----------------------------------------
Magnitude (a.u.)       :      0.79293
Magnitude (Debye)      :      2.01548

Rotational constants in cm-1:     0.304597     0.124127     0.096828
Rotational constants in MHz :  9131.600925  3721.227051  2902.830760

                             ****ORCA TERMINATED NORMALLY****
TOTAL RUN TIME: 0 days 0 hours 0 minutes 29 seconds 188 msec
