                         Program Version 5.0.0 -  RELEASE  -
|  1> !LC-BLYP RIJCOSX def2-TZVP def2/J TightSCF xyzfile
|  2>
|  3> *xyzfile 0 1 D1.xyz
|  4>
|  5> %MaxCore 64000
|  6>
|  7> %pal nprocs 18
|  8> end
|  9>
| 10> %scf
| 11>   MaxIter 150
| 12> end
| 13>
| 14>
| 15>                          ****END OF INPUT****

CARTESIAN COORDINATES (ANGSTROEM)
---------------------------------
  C      4.366454   -0.133215   -1.416062
  C      4.508292   -0.931872   -2.724249
  H      4.753716   -1.972051   -2.488408
  C      3.294164   -0.918214   -3.656570
  H      5.385637   -0.536236   -3.242640
  H      2.483463   -1.477378   -3.185764
  H      3.553092   -1.478495   -4.560331
  C      2.772335    0.460100   -4.051448
  H      2.608762    1.065107   -3.155194
  C      1.465354    0.410537   -4.853644
  H      3.532940    0.988848   -4.635671
  C      0.326171   -0.375613   -4.192580
  H      1.666704   -0.022269   -5.839323
  H      1.138198    1.439246   -5.035449
  C     -0.017405    0.080588   -2.778406
  H      0.585573   -1.439385   -4.168057
  H     -0.560005   -0.311425   -4.831461
  H      0.902090    0.201296   -2.206729
  C     -0.903495   -0.873945   -1.987388
  H     -0.479549    1.074657   -2.811915
  H     -0.502554   -1.892096   -2.081204
  H     -1.917039   -0.895427   -2.406277
  C     -0.960148   -0.522365   -0.489867
  H     -1.690392   -1.208130   -0.021677
  H     -1.414490    0.486329   -0.406677
  F      0.261703   -0.580307    0.138611
  C      3.056503   -0.320797   -0.707384
  C      2.389825    0.711285   -0.243909
  N      2.515999   -1.507721   -0.550229
  H      2.967683   -2.322915   -0.956305
  H      1.549872   -1.490634   -0.249876
  H      2.743071    1.649471   -0.412802
  H      1.440364    0.502778    0.037031
  H      4.487835    0.932997   -1.611569
  H      5.169672   -0.414432   -0.729817

 Total Charge           Charge          ....    0
 Multiplicity           Mult            ....    1
 Number of Electrons    NEL             ....  104
 Basis Dimension        Dim             ....  535

ORBITAL ENERGIES
----------------

  NO   OCC          E(Eh)            E(eV)
   0   2.0000     -24.470902      -665.8871
   1   2.0000     -14.142015      -384.8238
   2   2.0000     -10.159714      -276.4599
   3   2.0000     -10.080698      -274.3097
   4   2.0000     -10.069995      -274.0185
   5   2.0000     -10.060875      -273.7703
   6   2.0000     -10.060496      -273.7600
   7   2.0000     -10.058226      -273.6982
   8   2.0000     -10.058204      -273.6977
   9   2.0000     -10.055901      -273.6350
  10   2.0000     -10.053753      -273.5765
  11   2.0000     -10.051734      -273.5216
  12   2.0000      -9.972451      -271.3642
  13   2.0000      -1.316758       -35.8308
  14   2.0000      -1.017499       -27.6876
  15   2.0000      -0.929900       -25.3039
  16   2.0000      -0.906887       -24.6776
  17   2.0000      -0.880464       -23.9587
  18   2.0000      -0.840863       -22.8810
  19   2.0000      -0.814015       -22.1505
  20   2.0000      -0.794327       -21.6147
  21   2.0000      -0.746227       -20.3059
  22   2.0000      -0.724586       -19.7170
  23   2.0000      -0.695665       -18.9300
  24   2.0000      -0.664196       -18.0737
  25   2.0000      -0.648505       -17.6467
  26   2.0000      -0.640697       -17.4343
  27   2.0000      -0.631768       -17.1913
  28   2.0000      -0.620183       -16.8760
  29   2.0000      -0.595186       -16.1958
  30   2.0000      -0.578222       -15.7342
  31   2.0000      -0.565530       -15.3888
  32   2.0000      -0.548075       -14.9139
  33   2.0000      -0.542261       -14.7557
  34   2.0000      -0.531777       -14.4704
  35   2.0000      -0.526502       -14.3269
  36   2.0000      -0.499245       -13.5851
  37   2.0000      -0.489953       -13.3323
  38   2.0000      -0.480572       -13.0770
  39   2.0000      -0.472871       -12.8675
  40   2.0000      -0.465414       -12.6646
  41   2.0000      -0.455026       -12.3819
  42   2.0000      -0.449963       -12.2441
  43   2.0000      -0.440125       -11.9764
  44   2.0000      -0.436215       -11.8700
  45   2.0000      -0.428491       -11.6598
  46   2.0000      -0.409925       -11.1546
  47   2.0000      -0.409761       -11.1502
  48   2.0000      -0.400844       -10.9075
  49   2.0000      -0.397564       -10.8183
  50   2.0000      -0.394413       -10.7325
  51   2.0000      -0.265999        -7.2382
  52   0.0000       0.089683         2.4404
  53   0.0000       0.100608         2.7377
  54   0.0000       0.107235         2.9180
  55   0.0000       0.116175         3.1613
  56   0.0000       0.125096         3.4040

MULLIKEN ATOMIC CHARGES
-----------------------
   0 C :   -0.247990
   1 C :   -0.332450
   2 H :    0.144443
   3 C :   -0.219710
   4 H :    0.132152
   5 H :    0.113570
   6 H :    0.124332
   7 C :   -0.291809
   8 H :    0.158930
   9 C :   -0.214101
  10 H :    0.125864
  11 C :   -0.303038
  12 H :    0.127405
  13 H :    0.127345
  14 C :   -0.234752
  15 H :    0.141779
  16 H :    0.127508
  17 H :    0.138327
  18 C :   -0.269611
  19 H :    0.125705
  20 H :    0.135535
  21 H :    0.135236
  22 C :   -0.036903
  23 H :    0.138802
  24 H :    0.135018
  25 F :   -0.215214
  26 C :    0.102937
  27 C :   -0.475548
  28 N :   -0.368895
  29 H :    0.217545
  30 H :    0.234483
  31 H :    0.092215
  32 H :    0.144219
  33 H :    0.146015
  34 H :    0.140656
Sum of atomic charges:   -0.0000000

LOEWDIN ATOMIC CHARGES
----------------------
   0 C :   -0.227270
   1 C :   -0.276959
   2 H :    0.136410
   3 C :   -0.279247
   4 H :    0.142323
   5 H :    0.136745
   6 H :    0.139990
   7 C :   -0.276885
   8 H :    0.145459
   9 C :   -0.274785
  10 H :    0.138768
  11 C :   -0.281349
  12 H :    0.139740
  13 H :    0.140345
  14 C :   -0.279558
  15 H :    0.137960
  16 H :    0.138363
  17 H :    0.154574
  18 C :   -0.287074
  19 H :    0.140742
  20 H :    0.142175
  21 H :    0.147686
  22 C :   -0.351400
  23 H :    0.131177
  24 H :    0.134481
  25 F :    0.154279
  26 C :   -0.384952
  27 C :   -0.300434
  28 N :   -0.001784
  29 H :    0.165336
  30 H :    0.156100
  31 H :    0.102797
  32 H :    0.095185
  33 H :    0.152059
  34 H :    0.149006

  Mayer bond orders larger than 0.100000
B(  0-C ,  1-C ) :   0.8930 B(  0-C , 26-C ) :   0.9036 B(  0-C , 33-H ) :   0.9929
B(  0-C , 34-H ) :   0.9833 B(  1-C ,  2-H ) :   1.0044 B(  1-C ,  3-C ) :   0.8983
B(  1-C ,  4-H ) :   0.9827 B(  3-C ,  5-H ) :   0.9837 B(  3-C ,  6-H ) :   0.9809
B(  3-C ,  7-C ) :   0.8678 B(  7-C ,  8-H ) :   0.9841 B(  7-C ,  9-C ) :   0.9274
B(  7-C , 10-H ) :   0.9826 B(  9-C , 11-C ) :   0.9311 B(  9-C , 12-H ) :   0.9893
B(  9-C , 13-H ) :   0.9914 B( 11-C , 14-C ) :   0.8913 B( 11-C , 15-H ) :   0.9921
B( 11-C , 16-H ) :   0.9869 B( 14-C , 17-H ) :   0.9859 B( 14-C , 18-C ) :   0.9030
B( 14-C , 19-H ) :   0.9778 B( 18-C , 20-H ) :   0.9764 B( 18-C , 21-H ) :   0.9594
B( 18-C , 22-C ) :   0.9477 B( 22-C , 23-H ) :   0.9820 B( 22-C , 24-H ) :   0.9806
B( 22-C , 25-F ) :   0.9179 B( 26-C , 27-C ) :   1.7328 B( 26-C , 28-N ) :   1.1644
B( 27-C , 31-H ) :   1.0144 B( 27-C , 32-H ) :   0.9816 B( 28-N , 29-H ) :   0.9339
B( 28-N , 30-H ) :   0.8901

FINAL SINGLE POINT ENERGY      -585.621683711767

DIPOLE MOMENT
-------------
                                X             Y             Z
Electronic contribution:     -2.70618      -1.61910      10.43555
Nuclear contribution   :      1.82572       1.04089     -11.09065
                        -----------------------------------------
Total Dipole Moment    :     -0.88046      -0.57820      -0.65509
                        -----------------------------------------
Magnitude (a.u.)       :      1.24043
Magnitude (Debye)      :      3.15293

Rotational constants in cm-1:     0.028436     0.022359     0.014416
Rotational constants in MHz :   852.496561   670.291843   432.183951

                             ****ORCA TERMINATED NORMALLY****
TOTAL RUN TIME: 0 days 0 hours 1 minutes 3 seconds 297 msec
