                         Program Version 5.0.0 -  RELEASE  -
|  1> !LC-BLYP RIJCOSX def2-TZVP def2/J TightSCF xyzfile
|  2>
|  3> *xyzfile 0 1 D2.xyz
|  4>
|  5> %MaxCore 64000
|  6>
|  7> %pal nprocs 18
|  8> end
|  9>
| 10> %scf
| 11>   MaxIter 150
| 12> end
| 13>
| 14>
| 15>                          ****END OF INPUT****

CARTESIAN COORDINATES (ANGSTROEM)
---------------------------------
  C      4.366454   -0.133215   -1.416062
  C      4.508292   -0.931872   -2.724249
  H      4.753716   -1.972051   -2.488408
  C      3.294164   -0.918214   -3.656570
  H      5.385637   -0.536236   -3.242640
  H      2.483463   -1.477378   -3.185764
  H      3.553092   -1.478495   -4.560331
  C      2.772335    0.460100   -4.051448
  H      2.608762    1.065107   -3.155194
  C      1.465354    0.410537   -4.853644
  H      3.532940    0.988848   -4.635671
  C      0.326171   -0.375613   -4.192580
  H      1.666704   -0.022269   -5.839323
  H      1.138198    1.439246   -5.035449
  C     -0.017405    0.080588   -2.778406
  H      0.585573   -1.439385   -4.168057
  H     -0.560005   -0.311425   -4.831461
  H      0.902090    0.201296   -2.206729
  C     -0.903495   -0.873945   -1.987388
  H     -0.479549    1.074657   -2.811915
  H     -0.502554   -1.892096   -2.081204
  H     -1.917039   -0.895427   -2.406277
  C     -0.960148   -0.522365   -0.489867
  H     -1.690392   -1.208130   -0.021677
  H     -1.414490    0.486329   -0.406677
  F      0.261703   -0.580307    0.138611
  C      3.056503   -0.320797   -0.707384
  N      2.389825    0.711285   -0.243909
  C      2.515999   -1.507721   -0.550229
  H      2.967683   -2.322915   -0.956305
  H      1.549872   -1.490634   -0.249876
  H      2.743071    1.649471   -0.412802
  H      1.440364    0.502778    0.037031
  H      4.487835    0.932997   -1.611569
  H      5.169672   -0.414432   -0.729817

 Total Charge           Charge          ....    0
 Multiplicity           Mult            ....    1
 Number of Electrons    NEL             ....  104
 Basis Dimension        Dim             ....  535

ORBITAL ENERGIES
----------------

  NO   OCC          E(Eh)            E(eV)
   0   2.0000     -24.470959      -665.8886
   1   2.0000     -14.141704      -384.8153
   2   2.0000     -10.159952      -276.4663
   3   2.0000     -10.079019      -274.2640
   4   2.0000     -10.069543      -274.0062
   5   2.0000     -10.060667      -273.7647
   6   2.0000     -10.060298      -273.7546
   7   2.0000     -10.058735      -273.7121
   8   2.0000     -10.057343      -273.6742
   9   2.0000     -10.056210      -273.6434
  10   2.0000     -10.053483      -273.5692
  11   2.0000     -10.047589      -273.4088
  12   2.0000      -9.970592      -271.3136
  13   2.0000      -1.316817       -35.8324
  14   2.0000      -1.017153       -27.6782
  15   2.0000      -0.929748       -25.2997
  16   2.0000      -0.906411       -24.6647
  17   2.0000      -0.881224       -23.9793
  18   2.0000      -0.837662       -22.7939
  19   2.0000      -0.806149       -21.9364
  20   2.0000      -0.795529       -21.6474
  21   2.0000      -0.750347       -20.4180
  22   2.0000      -0.725866       -19.7518
  23   2.0000      -0.696949       -18.9649
  24   2.0000      -0.661178       -17.9916
  25   2.0000      -0.652115       -17.7450
  26   2.0000      -0.635869       -17.3029
  27   2.0000      -0.627799       -17.0833
  28   2.0000      -0.616325       -16.7710
  29   2.0000      -0.589474       -16.0404
  30   2.0000      -0.583560       -15.8795
  31   2.0000      -0.567837       -15.4516
  32   2.0000      -0.554472       -15.0879
  33   2.0000      -0.540730       -14.7140
  34   2.0000      -0.532578       -14.4922
  35   2.0000      -0.517964       -14.0945
  36   2.0000      -0.498951       -13.5771
  37   2.0000      -0.489442       -13.3184
  38   2.0000      -0.480423       -13.0730
  39   2.0000      -0.467780       -12.7289
  40   2.0000      -0.463554       -12.6139
  41   2.0000      -0.457541       -12.4503
  42   2.0000      -0.449914       -12.2428
  43   2.0000      -0.447219       -12.1695
  44   2.0000      -0.429635       -11.6910
  45   2.0000      -0.424014       -11.5380
  46   2.0000      -0.411704       -11.2030
  47   2.0000      -0.404944       -11.0191
  48   2.0000      -0.402986       -10.9658
  49   2.0000      -0.397082       -10.8051
  50   2.0000      -0.393643       -10.7116
  51   2.0000      -0.264656        -7.2016
  52   0.0000       0.092628         2.5205
  53   0.0000       0.102548         2.7905
  54   0.0000       0.108382         2.9492
  55   0.0000       0.115603         3.1457
  56   0.0000       0.119954         3.2641

MULLIKEN ATOMIC CHARGES
-----------------------
   0 C :   -0.263730
   1 C :   -0.302322
   2 H :    0.148181
   3 C :   -0.215401
   4 H :    0.125349
   5 H :    0.139934
   6 H :    0.121126
   7 C :   -0.286701
   8 H :    0.125199
   9 C :   -0.212315
  10 H :    0.127191
  11 C :   -0.309781
  12 H :    0.129142
  13 H :    0.125268
  14 C :   -0.227964
  15 H :    0.148451
  16 H :    0.126955
  17 H :    0.114404
  18 C :   -0.253510
  19 H :    0.123075
  20 H :    0.147636
  21 H :    0.135573
  22 C :   -0.046627
  23 H :    0.142133
  24 H :    0.129028
  25 F :   -0.214290
  26 C :    0.115963
  27 N :   -0.395231
  28 C :   -0.453286
  29 H :    0.095820
  30 H :    0.135401
  31 H :    0.210753
  32 H :    0.242336
  33 H :    0.125319
  34 H :    0.146923
Sum of atomic charges:   -0.0000000

LOEWDIN ATOMIC CHARGES
----------------------
   0 C :   -0.227692
   1 C :   -0.266926
   2 H :    0.142592
   3 C :   -0.277738
   4 H :    0.139830
   5 H :    0.144497
   6 H :    0.139321
   7 C :   -0.277710
   8 H :    0.136798
   9 C :   -0.274636
  10 H :    0.138760
  11 C :   -0.279689
  12 H :    0.140625
  13 H :    0.139166
  14 C :   -0.282187
  15 H :    0.140593
  16 H :    0.138474
  17 H :    0.150830
  18 C :   -0.282978
  19 H :    0.138504
  20 H :    0.147567
  21 H :    0.147408
  22 C :   -0.352454
  23 H :    0.132752
  24 H :    0.131312
  25 F :    0.154790
  26 C :   -0.386225
  27 N :   -0.009038
  28 C :   -0.297535
  29 H :    0.104331
  30 H :    0.097353
  31 H :    0.162752
  32 H :    0.153772
  33 H :    0.138649
  34 H :    0.154133

  Mayer bond orders larger than 0.100000
B(  0-C ,  1-C ) :   0.9189 B(  0-C , 26-C ) :   0.8881 B(  0-C , 33-H ) :   1.0008
B(  0-C , 34-H ) :   0.9778 B(  1-C ,  2-H ) :   0.9922 B(  1-C ,  3-C ) :   0.9221
B(  1-C ,  4-H ) :   0.9846 B(  3-C ,  5-H ) :   0.9778 B(  3-C ,  6-H ) :   0.9797
B(  3-C ,  7-C ) :   0.8686 B(  7-C ,  8-H ) :   0.9864 B(  7-C ,  9-C ) :   0.9295
B(  7-C , 10-H ) :   0.9840 B(  9-C , 11-C ) :   0.9293 B(  9-C , 12-H ) :   0.9885
B(  9-C , 13-H ) :   0.9927 B( 11-C , 14-C ) :   0.8988 B( 11-C , 15-H ) :   0.9905
B( 11-C , 16-H ) :   0.9861 B( 14-C , 17-H ) :   0.9866 B( 14-C , 18-C ) :   0.9094
B( 14-C , 19-H ) :   0.9755 B( 18-C , 20-H ) :   0.9707 B( 18-C , 21-H ) :   0.9605
B( 18-C , 22-C ) :   0.9454 B( 22-C , 23-H ) :   0.9845 B( 22-C , 24-H ) :   0.9788
B( 22-C , 25-F ) :   0.9255 B( 26-C , 27-N ) :   1.1667 B( 26-C , 28-C ) :   1.7095
B( 27-N , 31-H ) :   0.9334 B( 27-N , 32-H ) :   0.8900 B( 28-C , 29-H ) :   1.0111
B( 28-C , 30-H ) :   0.9825

FINAL SINGLE POINT ENERGY      -585.620966607654

DIPOLE MOMENT
-------------
                                X             Y             Z
Electronic contribution:     -2.80354       0.02713      10.66993
Nuclear contribution   :      1.85154       0.58682     -11.15333
                        -----------------------------------------
Total Dipole Moment    :     -0.95200       0.61395      -0.48339
                        -----------------------------------------
Magnitude (a.u.)       :      1.23163
Magnitude (Debye)      :      3.13056

Rotational constants in cm-1:     0.028379     0.022321     0.014415
Rotational constants in MHz :   850.785777   669.176075   432.155504

                             ****ORCA TERMINATED NORMALLY****
TOTAL RUN TIME: 0 days 0 hours 1 minutes 16 seconds 643 msec
