                         Program Version 5.0.0 -  RELEASE  -
|  1> !LC-BLYP RIJCOSX def2-SVPD def2/J TightSCF
|  2> *xyz -1 1
|  3> C          3.38093        2.08304       -3.35013
|  4> C          2.49556        1.81615       -2.13636
|  5> C          1.87218        0.42790       -2.07750
|  6> H          2.61427       -0.36583       -2.19889
|  7> H          1.38995        0.27309       -1.11236
|  8> S          0.57902        0.14047       -3.29794
|  9> O          0.22886       -1.24687       -3.12787
| 10> O         -0.43927        1.11897       -3.01455
| 11> O          1.24788        0.40347       -4.59565
| 12> H          1.69700        2.56197       -2.14111
| 13> H          3.08079        1.98744       -1.22584
| 14> H          2.81820        1.91840       -4.24519
| 15> H          4.22171        1.42153       -3.33067
| 16> H          3.72372        3.09635       -3.32565
| 17> *
| 18>
| 19> %MaxCore 64000
| 20>
| 21> %pal nprocs 8
| 22> end
| 23>
| 24> %scf
| 25>   MaxIter 150
| 26> end
| 27>
| 28>
| 29>                          ****END OF INPUT****

CARTESIAN COORDINATES (ANGSTROEM)
---------------------------------
  C      3.380930    2.083040   -3.350130
  C      2.495560    1.816150   -2.136360
  C      1.872180    0.427900   -2.077500
  H      2.614270   -0.365830   -2.198890
  H      1.389950    0.273090   -1.112360
  S      0.579020    0.140470   -3.297940
  O      0.228860   -1.246870   -3.127870
  O     -0.439270    1.118970   -3.014550
  O      1.247880    0.403470   -4.595650
  H      1.697000    2.561970   -2.141110
  H      3.080790    1.987440   -1.225840
  H      2.818200    1.918400   -4.245190
  H      4.221710    1.421530   -3.330670
  H      3.723720    3.096350   -3.325650

 Total Charge           Charge          ....   -1
 Multiplicity           Mult            ....    1
 Number of Electrons    NEL             ....   66
 Basis Dimension        Dim             ....  212

ORBITAL ENERGIES
----------------

  NO   OCC          E(Eh)            E(eV)
   0   2.0000     -88.313494     -2403.1323
   1   2.0000     -18.744833      -510.0728
   2   2.0000     -18.744470      -510.0630
   3   2.0000     -18.730820      -509.6915
   4   2.0000      -9.953803      -270.8567
   5   2.0000      -9.948541      -270.7136
   6   2.0000      -9.932485      -270.2767
   7   2.0000      -7.862199      -213.9413
   8   2.0000      -5.896527      -160.4527
   9   2.0000      -5.896473      -160.4512
  10   2.0000      -5.895909      -160.4358
  11   2.0000      -1.038425       -28.2570
  12   2.0000      -0.894707       -24.3462
  13   2.0000      -0.869859       -23.6701
  14   2.0000      -0.762446       -20.7472
  15   2.0000      -0.671647       -18.2765
  16   2.0000      -0.573278       -15.5997
  17   2.0000      -0.491090       -13.3632
  18   2.0000      -0.443375       -12.0649
  19   2.0000      -0.426479       -11.6051
  20   2.0000      -0.400891       -10.9088
  21   2.0000      -0.385791       -10.4979
  22   2.0000      -0.374709       -10.1964
  23   2.0000      -0.360941        -9.8217
  24   2.0000      -0.320026        -8.7083
  25   2.0000      -0.313882        -8.5412
  26   2.0000      -0.300816        -8.1856
  27   2.0000      -0.262429        -7.1411
  28   2.0000      -0.260847        -7.0980
  29   2.0000      -0.224402        -6.1063
  30   2.0000      -0.213773        -5.8170
  31   2.0000      -0.200434        -5.4541
  32   2.0000      -0.170241        -4.6325
  33   0.0000       0.186872         5.0851
  34   0.0000       0.207866         5.6563
  35   0.0000       0.210989         5.7413
  36   0.0000       0.218536         5.9467
  37   0.0000       0.236615         6.4386

MULLIKEN ATOMIC CHARGES
-----------------------
   0 C :    1.110348
   1 C :   -0.071255
   2 C :    0.193523
   3 H :   -0.117954
   4 H :   -0.115325
   5 S :    1.153410
   6 O :   -0.721103
   7 O :   -0.718853
   8 O :   -0.789284
   9 H :   -0.102589
  10 H :   -0.230136
  11 H :   -0.366625
  12 H :   -0.096604
  13 H :   -0.127554
Sum of atomic charges:   -1.0000000

LOEWDIN ATOMIC CHARGES
----------------------
   0 C :    0.103290
   1 C :   -0.101903
   2 C :   -0.107459
   3 H :    0.015603
   4 H :    0.009197
   5 S :    0.812878
   6 O :   -0.554311
   7 O :   -0.551607
   8 O :   -0.562106
   9 H :    0.022462
  10 H :    0.012274
  11 H :   -0.052323
  12 H :   -0.018650
  13 H :   -0.027346

  Mayer bond orders larger than 0.100000
B(  0-C ,  1-C ) :   1.2395 B(  0-C ,  9-H ) :   0.1249 B(  0-C , 11-H ) :   0.6967
B(  0-C , 12-H ) :   0.6592 B(  0-C , 13-H ) :   0.6413 B(  1-C ,  2-C ) :   1.2152
B(  1-C ,  3-H ) :   0.1374 B(  1-C ,  4-H ) :   0.1500 B(  1-C ,  9-H ) :   0.8547
B(  1-C , 10-H ) :   0.8446 B(  1-C , 11-H ) :   0.2999 B(  1-C , 12-H ) :   0.2422
B(  1-C , 13-H ) :   0.2571 B(  2-C ,  3-H ) :   0.9256 B(  2-C ,  4-H ) :   0.8795
B(  2-C ,  5-S ) :   0.9012 B(  2-C ,  9-H ) :   0.1435 B(  2-C , 10-H ) :   0.1321
B(  5-S ,  6-O ) :   1.4192 B(  5-S ,  7-O ) :   1.3458 B(  5-S ,  8-O ) :   1.2912
B(  8-O , 11-H ) :   0.1344 B( 11-H , 12-H ) :   0.1338 B( 11-H , 13-H ) :   0.1125

FINAL SINGLE POINT ENERGY      -741.113273682480

DIPOLE MOMENT
-------------
                                X             Y             Z
Electronic contribution:     -8.77764      -5.53801      -2.84466
Nuclear contribution   :     10.42821       6.37804       4.08250
                        -----------------------------------------
Total Dipole Moment    :      1.65058       0.84003       1.23785
                        -----------------------------------------
Magnitude (a.u.)       :      2.22762
Magnitude (Debye)      :      5.66217

Rotational constants in cm-1:     0.136992     0.054831     0.052480
Rotational constants in MHz :  4106.928256  1643.799656  1573.299166

                             ****ORCA TERMINATED NORMALLY****
TOTAL RUN TIME: 0 days 0 hours 0 minutes 17 seconds 546 msec
