                         Program Version 5.0.0 -  RELEASE  -
|  1> !LC-BLYP RIJCOSX def2-SVPD def2/J TightSCF
|  2> *xyz 1 1
|  3> C          3.38093        2.08304       -3.35013
|  4> N          4.53592        1.18245       -3.42852
|  5> C          2.49556        1.81615       -2.13636
|  6> C          1.87218        0.42790       -2.07750
|  7> C          4.67196        0.12227       -4.22060
|  8> N          5.86602       -0.50785       -4.22428
|  9> N          3.69888       -0.31284       -4.98699
| 10> H          2.73141       -0.05009       -4.84900
| 11> H          3.89005       -1.05517       -5.64373
| 12> H          5.25193        1.30346       -2.72101
| 13> H          6.69516       -0.06232       -3.85160
| 14> H          5.97538       -1.39688       -4.69141
| 15> H          1.69700        2.56197       -2.14111
| 16> H          3.08079        1.98744       -1.22584
| 17> H          2.80646        1.98651       -4.26848
| 18> H          3.77871        3.09828       -3.30738
| 19> H          1.29954        0.25615       -2.96490
| 20> H          1.23321        0.35984       -1.22194
| 21> H          2.64581       -0.30765       -2.00430
| 22> *
| 23>
| 24> %MaxCore 64000
| 25>
| 26> %pal nprocs 8
| 27> end
| 28>
| 29> %scf
| 30>   MaxIter 150
| 31> end
| 32>
| 33>
| 34>                          ****END OF INPUT****

CARTESIAN COORDINATES (ANGSTROEM)
---------------------------------
  C      3.380930    2.083040   -3.350130
  N      4.535920    1.182450   -3.428520
  C      2.495560    1.816150   -2.136360
  C      1.872180    0.427900   -2.077500
  C      4.671960    0.122270   -4.220600
  N      5.866020   -0.507850   -4.224280
  N      3.698880   -0.312840   -4.986990
  H      2.731410   -0.050090   -4.849000
  H      3.890050   -1.055170   -5.643730
  H      5.251930    1.303460   -2.721010
  H      6.695160   -0.062320   -3.851600
  H      5.975380   -1.396880   -4.691410
  H      1.697000    2.561970   -2.141110
  H      3.080790    1.987440   -1.225840
  H      2.806460    1.986510   -4.268480
  H      3.778710    3.098280   -3.307380
  H      1.299540    0.256150   -2.964900
  H      1.233210    0.359840   -1.221940
  H      2.645810   -0.307650   -2.004300

 Total Charge           Charge          ....    1
 Multiplicity           Mult            ....    1
 Number of Electrons    NEL             ....   56
 Basis Dimension        Dim             ....  236

ORBITAL ENERGIES
----------------

  NO   OCC          E(Eh)            E(eV)
   0   2.0000     -14.412315      -392.1790
   1   2.0000     -14.408196      -392.0669
   2   2.0000     -14.405409      -391.9911
   3   2.0000     -10.422168      -283.6016
   4   2.0000     -10.285454      -279.8814
   5   2.0000     -10.226255      -278.2706
   6   2.0000     -10.205925      -277.7173
   7   2.0000      -1.306032       -35.5389
   8   2.0000      -1.196079       -32.5470
   9   2.0000      -1.181034       -32.1376
  10   2.0000      -1.044400       -28.4196
  11   2.0000      -0.969239       -26.3743
  12   2.0000      -0.927942       -25.2506
  13   2.0000      -0.892994       -24.2996
  14   2.0000      -0.867260       -23.5993
  15   2.0000      -0.833267       -22.6744
  16   2.0000      -0.798078       -21.7168
  17   2.0000      -0.792098       -21.5541
  18   2.0000      -0.748278       -20.3617
  19   2.0000      -0.737694       -20.0737
  20   2.0000      -0.705224       -19.1901
  21   2.0000      -0.683276       -18.5929
  22   2.0000      -0.656133       -17.8543
  23   2.0000      -0.611373       -16.6363
  24   2.0000      -0.589281       -16.0352
  25   2.0000      -0.580699       -15.8016
  26   2.0000      -0.574183       -15.6243
  27   2.0000      -0.539811       -14.6890
  28   0.0000      -0.091553        -2.4913
  29   0.0000      -0.087672        -2.3857
  30   0.0000      -0.058471        -1.5911
  31   0.0000      -0.049327        -1.3422
  32   0.0000      -0.028351        -0.7715

MULLIKEN ATOMIC CHARGES
-----------------------
   0 C :    0.907615
   1 N :   -0.375394
   2 C :   -0.154771
   3 C :    1.081817
   4 C :    1.095693
   5 N :    0.134517
   6 N :    0.233248
   7 H :   -0.165485
   8 H :   -0.142328
   9 H :   -0.227356
  10 H :   -0.107192
  11 H :   -0.053369
  12 H :   -0.115240
  13 H :   -0.134220
  14 H :   -0.146814
  15 H :   -0.330717
  16 H :   -0.144961
  17 H :   -0.248564
  18 H :   -0.106479
Sum of atomic charges:    1.0000000

LOEWDIN ATOMIC CHARGES
----------------------
   0 C :    0.063100
   1 N :    0.061588
   2 C :   -0.064643
   3 C :    0.120979
   4 C :   -0.062999
   5 N :    0.268693
   6 N :    0.293294
   7 H :    0.018456
   8 H :    0.043782
   9 H :    0.063983
  10 H :    0.036160
  11 H :    0.033227
  12 H :    0.042878
  13 H :    0.036565
  14 H :    0.029636
  15 H :    0.045537
  16 H :   -0.016149
  17 H :    0.003488
  18 H :   -0.017575

  Mayer bond orders larger than 0.100000
B(  0-C ,  1-N ) :   1.0195 B(  0-C ,  2-C ) :   1.1004 B(  0-C ,  9-H ) :  -0.2082
B(  0-C , 12-H ) :   0.1207 B(  0-C , 13-H ) :   0.1404 B(  0-C , 14-H ) :   0.6758
B(  0-C , 15-H ) :   0.8660 B(  1-N ,  4-C ) :   1.0095 B(  1-N ,  5-N ) :   0.2744
B(  1-N ,  6-N ) :   0.3093 B(  1-N ,  9-H ) :   1.3046 B(  1-N , 14-H ) :   0.1780
B(  1-N , 15-H ) :   0.1474 B(  2-C ,  3-C ) :   1.2790 B(  2-C , 12-H ) :   0.8726
B(  2-C , 13-H ) :   0.8667 B(  2-C , 14-H ) :   0.1475 B(  2-C , 16-H ) :   0.2696
B(  2-C , 17-H ) :   0.2533 B(  2-C , 18-H ) :   0.2688 B(  3-C , 12-H ) :   0.1070
B(  3-C , 16-H ) :   0.6945 B(  3-C , 17-H ) :   0.7365 B(  3-C , 18-H ) :   0.6926
B(  4-C ,  5-N ) :   0.9199 B(  4-C ,  6-N ) :   1.0365 B(  4-C ,  7-H ) :  -0.2027
B(  4-C ,  8-H ) :  -0.1956 B(  4-C ,  9-H ) :  -0.2712 B(  4-C , 10-H ) :  -0.1763
B(  4-C , 11-H ) :  -0.1072 B(  5-N ,  6-N ) :   0.1773 B(  5-N , 10-H ) :   1.2127
B(  5-N , 11-H ) :   1.1785 B(  6-N ,  7-H ) :   1.2020 B(  6-N ,  8-H ) :   1.3014
B(  6-N , 14-H ) :   0.1051 B(  7-H ,  8-H ) :  -0.2427 B( 10-H , 11-H ) :  -0.1866
B( 14-H , 15-H ) :  -0.1689 B( 16-H , 18-H ) :   0.1057

FINAL SINGLE POINT ENERGY      -322.652985639100

DIPOLE MOMENT
-------------
                                X             Y             Z
Electronic contribution:      5.30734      -1.46006      -3.78159
Nuclear contribution   :     -4.20917       0.72396       2.93051
                        -----------------------------------------
Total Dipole Moment    :      1.09817      -0.73610      -0.85107
                        -----------------------------------------
Magnitude (a.u.)       :      1.57230
Magnitude (Debye)      :      3.99648

Rotational constants in cm-1:     0.153116     0.051500     0.046494
Rotational constants in MHz :  4590.307026  1543.937577  1393.864628

                             ****ORCA TERMINATED NORMALLY****
TOTAL RUN TIME: 0 days 0 hours 0 minutes 19 seconds 937 msec
