                         Program Version 5.0.0 -  RELEASE  -
|  1> !LC-BLYP RIJCOSX def2-SVPD def2/J TightSCF
|  2> *xyz 0 1
|  3> C          3.38093        2.08304       -3.35013
|  4> C          2.49556        1.81615       -2.13636
|  5> C          1.87218        0.42790       -2.07750
|  6> H          2.61427       -0.36583       -2.19889
|  7> H          1.38995        0.27309       -1.11236
|  8> S          0.57902        0.14047       -3.29794
|  9> F          0.22886       -1.24687       -3.12787
| 10> O         -0.43927        1.11897       -3.01455
| 11> O          1.24788        0.40347       -4.59565
| 12> H          1.69700        2.56197       -2.14111
| 13> H          3.08079        1.98744       -1.22584
| 14> H          2.81820        1.91840       -4.24519
| 15> H          4.22171        1.42153       -3.33067
| 16> H          3.72372        3.09635       -3.32565
| 17> *
| 18>
| 19> %MaxCore 64000
| 20>
| 21> %pal nprocs 8
| 22> end
| 23>
| 24> %scf
| 25>   MaxIter 150
| 26> end
| 27>
| 28>
| 29>                          ****END OF INPUT****

CARTESIAN COORDINATES (ANGSTROEM)
---------------------------------
  C      3.380930    2.083040   -3.350130
  C      2.495560    1.816150   -2.136360
  C      1.872180    0.427900   -2.077500
  H      2.614270   -0.365830   -2.198890
  H      1.389950    0.273090   -1.112360
  S      0.579020    0.140470   -3.297940
  F      0.228860   -1.246870   -3.127870
  O     -0.439270    1.118970   -3.014550
  O      1.247880    0.403470   -4.595650
  H      1.697000    2.561970   -2.141110
  H      3.080790    1.987440   -1.225840
  H      2.818200    1.918400   -4.245190
  H      4.221710    1.421530   -3.330670
  H      3.723720    3.096350   -3.325650

 Total Charge           Charge          ....    0
 Multiplicity           Mult            ....    1
 Number of Electrons    NEL             ....   66
 Basis Dimension        Dim             ....  212

ORBITAL ENERGIES
----------------

  NO   OCC          E(Eh)            E(eV)
   0   2.0000     -88.568505     -2410.0716
   1   2.0000     -24.598319      -669.3543
   2   2.0000     -18.975423      -516.3475
   3   2.0000     -18.960736      -515.9479
   4   2.0000     -10.147526      -276.1282
   5   2.0000     -10.111955      -275.1603
   6   2.0000     -10.072052      -274.0745
   7   2.0000      -8.118184      -220.9070
   8   2.0000      -6.157020      -167.5410
   9   2.0000      -6.150217      -167.3559
  10   2.0000      -6.148601      -167.3119
  11   2.0000      -1.464464       -39.8501
  12   2.0000      -1.210314       -32.9343
  13   2.0000      -1.101601       -29.9761
  14   2.0000      -0.938107       -25.5272
  15   2.0000      -0.863944       -23.5091
  16   2.0000      -0.814448       -22.1623
  17   2.0000      -0.742164       -20.1953
  18   2.0000      -0.698241       -19.0001
  19   2.0000      -0.686698       -18.6860
  20   2.0000      -0.664073       -18.0703
  21   2.0000      -0.602646       -16.3988
  22   2.0000      -0.594622       -16.1805
  23   2.0000      -0.557937       -15.1822
  24   2.0000      -0.548365       -14.9218
  25   2.0000      -0.536581       -14.6011
  26   2.0000      -0.496506       -13.5106
  27   2.0000      -0.473046       -12.8722
  28   2.0000      -0.472089       -12.8462
  29   2.0000      -0.456451       -12.4207
  30   2.0000      -0.438846       -11.9416
  31   2.0000      -0.414265       -11.2727
  32   2.0000      -0.409213       -11.1353
  33   0.0000       0.045943         1.2502
  34   0.0000       0.071149         1.9360
  35   0.0000       0.078283         2.1302
  36   0.0000       0.082340         2.2406
  37   0.0000       0.106646         2.9020

MULLIKEN ATOMIC CHARGES
-----------------------
   0 C :    1.135813
   1 C :   -0.059018
   2 C :    0.158392
   3 H :   -0.068333
   4 H :   -0.057935
   5 S :    1.350137
   6 F :   -0.366375
   7 O :   -0.570149
   8 O :   -0.659581
   9 H :   -0.093306
  10 H :   -0.205807
  11 H :   -0.374336
  12 H :   -0.083382
  13 H :   -0.106120
Sum of atomic charges:   -0.0000000

LOEWDIN ATOMIC CHARGES
----------------------
   0 C :    0.126475
   1 C :   -0.073218
   2 C :   -0.072007
   3 H :    0.032506
   4 H :    0.026421
   5 S :    1.077003
   6 F :   -0.235383
   7 O :   -0.441117
   8 O :   -0.459270
   9 H :    0.035757
  10 H :    0.038689
  11 H :   -0.044225
  12 H :   -0.005490
  13 H :   -0.006142

  Mayer bond orders larger than 0.100000
B(  0-C ,  1-C ) :   1.2597 B(  0-C ,  9-H ) :   0.1193 B(  0-C , 11-H ) :   0.6992
B(  0-C , 12-H ) :   0.6537 B(  0-C , 13-H ) :   0.6440 B(  1-C ,  2-C ) :   1.2501
B(  1-C ,  3-H ) :   0.1310 B(  1-C ,  4-H ) :   0.1516 B(  1-C ,  9-H ) :   0.8513
B(  1-C , 10-H ) :   0.8481 B(  1-C , 11-H ) :   0.2857 B(  1-C , 12-H ) :   0.2403
B(  1-C , 13-H ) :   0.2501 B(  2-C ,  3-H ) :   0.9197 B(  2-C ,  4-H ) :   0.8558
B(  2-C ,  5-S ) :   0.9336 B(  2-C ,  9-H ) :   0.1384 B(  2-C , 10-H ) :   0.1306
B(  5-S ,  6-F ) :   0.7699 B(  5-S ,  7-O ) :   1.5570 B(  5-S ,  8-O ) :   1.4811
B(  8-O , 11-H ) :   0.1186 B( 11-H , 12-H ) :   0.1364 B( 11-H , 13-H ) :   0.1111

FINAL SINGLE POINT ENERGY      -765.579823725605

DIPOLE MOMENT
-------------
                                X             Y             Z
Electronic contribution:    -10.66405      -8.90638      -2.80079
Nuclear contribution   :     11.47400       8.34657       4.07449
                        -----------------------------------------
Total Dipole Moment    :      0.80995      -0.55980       1.27370
                        -----------------------------------------
Magnitude (a.u.)       :      1.60988
Magnitude (Debye)      :      4.09199

Rotational constants in cm-1:     0.134491     0.052696     0.050832
Rotational constants in MHz :  4031.952949  1579.780527  1523.918863

                             ****ORCA TERMINATED NORMALLY****
TOTAL RUN TIME: 0 days 0 hours 0 minutes 16 seconds 575 msec
