                         Program Version 5.0.0 -  RELEASE  -
|  1> !LC-BLYP RIJCOSX def2-SVPD def2/J TightSCF
|  2> *xyz 0 1
|  3> C          3.38093        2.08304       -3.35013
|  4> C          4.53592        1.18245       -3.42852
|  5> C          2.49556        1.81615       -2.13636
|  6> C          1.87218        0.42790       -2.07750
|  7> C          4.67196        0.12227       -4.22060
|  8> N          5.86602       -0.50785       -4.22428
|  9> N          3.69888       -0.31284       -4.98699
| 10> H          2.73141       -0.05009       -4.84900
| 11> H          3.89005       -1.05517       -5.64373
| 12> H          5.25193        1.30346       -2.72101
| 13> H          6.69516       -0.06232       -3.85160
| 14> H          5.97538       -1.39688       -4.69141
| 15> H          1.69700        2.56197       -2.14111
| 16> H          3.08079        1.98744       -1.22584
| 17> H          2.80646        1.98651       -4.26848
| 18> H          3.77871        3.09828       -3.30738
| 19> H          1.29954        0.25615       -2.96490
| 20> H          1.23321        0.35984       -1.22194
| 21> H          2.64581       -0.30765       -2.00430
| 22> *
| 23>
| 24> %MaxCore 64000
| 25>
| 26> %pal nprocs 8
| 27> end
| 28>
| 29> %scf
| 30>   MaxIter 150
| 31> end
| 32>
| 33>
| 34>                          ****END OF INPUT****

CARTESIAN COORDINATES (ANGSTROEM)
---------------------------------
  C      3.380930    2.083040   -3.350130
  C      4.535920    1.182450   -3.428520
  C      2.495560    1.816150   -2.136360
  C      1.872180    0.427900   -2.077500
  C      4.671960    0.122270   -4.220600
  N      5.866020   -0.507850   -4.224280
  N      3.698880   -0.312840   -4.986990
  H      2.731410   -0.050090   -4.849000
  H      3.890050   -1.055170   -5.643730
  H      5.251930    1.303460   -2.721010
  H      6.695160   -0.062320   -3.851600
  H      5.975380   -1.396880   -4.691410
  H      1.697000    2.561970   -2.141110
  H      3.080790    1.987440   -1.225840
  H      2.806460    1.986510   -4.268480
  H      3.778710    3.098280   -3.307380
  H      1.299540    0.256150   -2.964900
  H      1.233210    0.359840   -1.221940
  H      2.645810   -0.307650   -2.004300

 Total Charge           Charge          ....    0
 Multiplicity           Mult            ....    1
 Number of Electrons    NEL             ....   56
 Basis Dimension        Dim             ....  236

ORBITAL ENERGIES
----------------

  NO   OCC          E(Eh)            E(eV)
   0   2.0000     -14.191696      -386.1757
   1   2.0000     -14.184642      -385.9837
   2   2.0000     -10.130997      -275.6784
   3   2.0000     -10.061359      -273.7835
   4   2.0000     -10.056877      -273.6615
   5   2.0000     -10.055765      -273.6313
   6   2.0000     -10.008445      -272.3436
   7   2.0000      -1.055459       -28.7205
   8   2.0000      -0.961889       -26.1743
   9   2.0000      -0.888943       -24.1894
  10   2.0000      -0.823451       -22.4072
  11   2.0000      -0.762975       -20.7616
  12   2.0000      -0.703575       -19.1452
  13   2.0000      -0.668417       -18.1885
  14   2.0000      -0.648259       -17.6400
  15   2.0000      -0.611552       -16.6412
  16   2.0000      -0.582523       -15.8513
  17   2.0000      -0.549135       -14.9427
  18   2.0000      -0.539840       -14.6898
  19   2.0000      -0.519605       -14.1392
  20   2.0000      -0.491092       -13.3633
  21   2.0000      -0.478219       -13.0130
  22   2.0000      -0.450362       -12.2550
  23   2.0000      -0.431842       -11.7510
  24   2.0000      -0.413563       -11.2536
  25   2.0000      -0.406918       -11.0728
  26   2.0000      -0.365090        -9.9346
  27   2.0000      -0.252519        -6.8714
  28   0.0000       0.070350         1.9143
  29   0.0000       0.091148         2.4803
  30   0.0000       0.102150         2.7797
  31   0.0000       0.112798         3.0694
  32   0.0000       0.122500         3.3334

MULLIKEN ATOMIC CHARGES
-----------------------
   0 C :    0.469443
   1 C :   -0.235439
   2 C :   -0.202965
   3 C :    1.058786
   4 C :    0.755729
   5 N :    0.152510
   6 N :    0.334855
   7 H :   -0.192653
   8 H :   -0.291345
   9 H :   -0.439063
  10 H :   -0.122269
  11 H :   -0.163620
  12 H :   -0.159241
  13 H :   -0.137553
  14 H :   -0.177165
  15 H :   -0.151485
  16 H :   -0.161539
  17 H :   -0.230318
  18 H :   -0.106670
Sum of atomic charges:    0.0000000

LOEWDIN ATOMIC CHARGES
----------------------
   0 C :   -0.069081
   1 C :   -0.037598
   2 C :   -0.093332
   3 C :    0.105081
   4 C :   -0.242124
   5 N :    0.190517
   6 N :    0.212530
   7 H :   -0.012490
   8 H :   -0.005588
   9 H :   -0.042728
  10 H :    0.001542
  11 H :   -0.017449
  12 H :    0.017718
  13 H :    0.026133
  14 H :    0.008822
  15 H :    0.019365
  16 H :   -0.024701
  17 H :   -0.018186
  18 H :   -0.018433

  Mayer bond orders larger than 0.100000
B(  0-C ,  1-C ) :   1.1454 B(  0-C ,  2-C ) :   1.1319 B(  0-C ,  9-H ) :   0.2795
B(  0-C , 12-H ) :   0.1555 B(  0-C , 13-H ) :   0.1557 B(  0-C , 14-H ) :   0.6976
B(  0-C , 15-H ) :   0.7895 B(  1-C ,  2-C ) :   0.1297 B(  1-C ,  4-C ) :   1.6119
B(  1-C ,  5-N ) :   0.4489 B(  1-C ,  6-N ) :   0.3162 B(  1-C ,  9-H ) :   0.7951
B(  1-C , 14-H ) :   0.2910 B(  1-C , 15-H ) :   0.1763 B(  2-C ,  3-C ) :   1.2880
B(  2-C , 12-H ) :   0.8553 B(  2-C , 13-H ) :   0.8651 B(  2-C , 14-H ) :   0.1582
B(  2-C , 16-H ) :   0.2698 B(  2-C , 17-H ) :   0.2648 B(  2-C , 18-H ) :   0.2932
B(  3-C , 12-H ) :   0.1251 B(  3-C , 13-H ) :   0.1041 B(  3-C , 16-H ) :   0.7031
B(  3-C , 17-H ) :   0.6933 B(  3-C , 18-H ) :   0.6890 B(  4-C ,  5-N ) :   0.8194
B(  4-C ,  6-N ) :   1.0700 B(  4-C ,  8-H ) :  -0.2099 B(  4-C , 10-H ) :  -0.1680
B(  4-C , 14-H ) :  -0.1275 B(  5-N , 10-H ) :   1.2353 B(  5-N , 11-H ) :   1.1662
B(  6-N ,  7-H ) :   1.1643 B(  6-N ,  8-H ) :   1.3460 B(  7-H ,  8-H ) :  -0.2364
B( 10-H , 11-H ) :  -0.1760 B( 16-H , 18-H ) :   0.1246

FINAL SINGLE POINT ENERGY      -306.186646682176

DIPOLE MOMENT
-------------
                                X             Y             Z
Electronic contribution:      4.22231      -1.62628      -3.46122
Nuclear contribution   :     -4.04774       0.83876       2.94666
                        -----------------------------------------
Total Dipole Moment    :      0.17457      -0.78752      -0.51456
                        -----------------------------------------
Magnitude (a.u.)       :      0.95678
Magnitude (Debye)      :      2.43195

Rotational constants in cm-1:     0.155283     0.051523     0.046710
Rotational constants in MHz :  4655.262593  1544.606434  1400.328421

                             ****ORCA TERMINATED NORMALLY****
TOTAL RUN TIME: 0 days 0 hours 0 minutes 21 seconds 937 msec
