                         Program Version 5.0.0 -  RELEASE  -
|  1> !LC-BLYP RIJCOSX def2-SVPD def2/J TightSCF
|  2> *xyz 0 1
|  3> C          3.38093        2.08304       -3.35013
|  4> C          2.49556        1.81615       -2.13636
|  5> C          1.87218        0.42790       -2.07750
|  6> H          2.61427       -0.36583       -2.19889
|  7> H          1.38995        0.27309       -1.11236
|  8> S          0.57902        0.14047       -3.29794
|  9> O          0.22886       -1.24687       -3.12787
| 10> F         -0.43927        1.11897       -3.01455
| 11> O          1.24788        0.40347       -4.59565
| 12> H          1.69700        2.56197       -2.14111
| 13> H          3.08079        1.98744       -1.22584
| 14> H          2.81820        1.91840       -4.24519
| 15> H          4.22171        1.42153       -3.33067
| 16> H          3.72372        3.09635       -3.32565
| 17> *
| 18>
| 19> %MaxCore 64000
| 20>
| 21> %pal nprocs 8
| 22> end
| 23>
| 24> %scf
| 25>   MaxIter 150
| 26> end
| 27>
| 28>
| 29>                          ****END OF INPUT****

CARTESIAN COORDINATES (ANGSTROEM)
---------------------------------
  C      3.380930    2.083040   -3.350130
  C      2.495560    1.816150   -2.136360
  C      1.872180    0.427900   -2.077500
  H      2.614270   -0.365830   -2.198890
  H      1.389950    0.273090   -1.112360
  S      0.579020    0.140470   -3.297940
  O      0.228860   -1.246870   -3.127870
  F     -0.439270    1.118970   -3.014550
  O      1.247880    0.403470   -4.595650
  H      1.697000    2.561970   -2.141110
  H      3.080790    1.987440   -1.225840
  H      2.818200    1.918400   -4.245190
  H      4.221710    1.421530   -3.330670
  H      3.723720    3.096350   -3.325650

 Total Charge           Charge          ....    0
 Multiplicity           Mult            ....    1
 Number of Electrons    NEL             ....   66
 Basis Dimension        Dim             ....  212

ORBITAL ENERGIES
----------------

  NO   OCC          E(Eh)            E(eV)
   0   2.0000     -88.568778     -2410.0790
   1   2.0000     -24.598604      -669.3620
   2   2.0000     -18.975380      -516.3463
   3   2.0000     -18.961171      -515.9597
   4   2.0000     -10.147360      -276.1237
   5   2.0000     -10.115593      -275.2593
   6   2.0000     -10.075246      -274.1614
   7   2.0000      -8.118357      -220.9117
   8   2.0000      -6.157299      -167.5486
   9   2.0000      -6.150342      -167.3593
  10   2.0000      -6.148752      -167.3160
  11   2.0000      -1.465053       -39.8661
  12   2.0000      -1.209508       -32.9124
  13   2.0000      -1.102693       -30.0058
  14   2.0000      -0.941596       -25.6221
  15   2.0000      -0.860891       -23.4260
  16   2.0000      -0.817763       -22.2525
  17   2.0000      -0.742038       -20.1919
  18   2.0000      -0.705876       -19.2079
  19   2.0000      -0.695456       -18.9243
  20   2.0000      -0.653700       -17.7881
  21   2.0000      -0.599777       -16.3208
  22   2.0000      -0.595666       -16.2089
  23   2.0000      -0.564393       -15.3579
  24   2.0000      -0.550161       -14.9707
  25   2.0000      -0.537397       -14.6233
  26   2.0000      -0.497718       -13.5436
  27   2.0000      -0.478888       -13.0312
  28   2.0000      -0.475409       -12.9365
  29   2.0000      -0.459326       -12.4989
  30   2.0000      -0.437690       -11.9101
  31   2.0000      -0.418022       -11.3749
  32   2.0000      -0.406822       -11.0702
  33   0.0000       0.044445         1.2094
  34   0.0000       0.072695         1.9781
  35   0.0000       0.077894         2.1196
  36   0.0000       0.080532         2.1914
  37   0.0000       0.103742         2.8230

MULLIKEN ATOMIC CHARGES
-----------------------
   0 C :    1.139827
   1 C :   -0.013129
   2 C :    0.176106
   3 H :   -0.075681
   4 H :   -0.078635
   5 S :    1.309129
   6 O :   -0.565627
   7 F :   -0.342322
   8 O :   -0.648135
   9 H :   -0.126359
  10 H :   -0.209549
  11 H :   -0.378724
  12 H :   -0.080509
  13 H :   -0.106393
Sum of atomic charges:    0.0000000

LOEWDIN ATOMIC CHARGES
----------------------
   0 C :    0.124428
   1 C :   -0.087935
   2 C :   -0.061928
   3 H :    0.046256
   4 H :    0.026846
   5 S :    1.074268
   6 O :   -0.440916
   7 F :   -0.233278
   8 O :   -0.454591
   9 H :    0.028737
  10 H :    0.036020
  11 H :   -0.047646
  12 H :   -0.003270
  13 H :   -0.006991

  Mayer bond orders larger than 0.100000
B(  0-C ,  1-C ) :   1.2693 B(  0-C ,  9-H ) :   0.1211 B(  0-C , 11-H ) :   0.6950
B(  0-C , 12-H ) :   0.6572 B(  0-C , 13-H ) :   0.6482 B(  1-C ,  2-C ) :   1.2094
B(  1-C ,  3-H ) :   0.1270 B(  1-C ,  4-H ) :   0.1397 B(  1-C ,  9-H ) :   0.8359
B(  1-C , 10-H ) :   0.8441 B(  1-C , 11-H ) :   0.2909 B(  1-C , 12-H ) :   0.2414
B(  1-C , 13-H ) :   0.2482 B(  2-C ,  3-H ) :   0.9282 B(  2-C ,  4-H ) :   0.8817
B(  2-C ,  5-S ) :   0.9632 B(  2-C ,  9-H ) :   0.1311 B(  2-C , 10-H ) :   0.1218
B(  5-S ,  6-O ) :   1.6340 B(  5-S ,  7-F ) :   0.7323 B(  5-S ,  8-O ) :   1.5146
B(  8-O , 11-H ) :   0.1171 B( 11-H , 12-H ) :   0.1336 B( 11-H , 13-H ) :   0.1115

FINAL SINGLE POINT ENERGY      -765.579564359265

DIPOLE MOMENT
-------------
                                X             Y             Z
Electronic contribution:    -11.79162      -4.82430      -2.60450
Nuclear contribution   :     12.19253       5.80225       3.95262
                        -----------------------------------------
Total Dipole Moment    :      0.40091       0.97795       1.34812
                        -----------------------------------------
Magnitude (a.u.)       :      1.71305
Magnitude (Debye)      :      4.35424

Rotational constants in cm-1:     0.130581     0.053444     0.051914
Rotational constants in MHz :  3914.711139  1602.211061  1556.338643

                             ****ORCA TERMINATED NORMALLY****
TOTAL RUN TIME: 0 days 0 hours 0 minutes 16 seconds 685 msec
