                         Program Version 5.0.0 -  RELEASE  -
|  1> !LC-BLYP RIJCOSX def2-SVPD def2/J TightSCF
|  2> *xyz 0 1
|  3> C          3.38093        2.08304       -3.35013
|  4> N          4.53592        1.18245       -3.42852
|  5> C          2.49556        1.81615       -2.13636
|  6> C          1.87218        0.42790       -2.07750
|  7> C          4.67196        0.12227       -4.22060
|  8> C          5.86602       -0.50785       -4.22428
|  9> N          3.69888       -0.31284       -4.98699
| 10> H          2.73141       -0.05009       -4.84900
| 11> H          3.89005       -1.05517       -5.64373
| 12> H          5.25193        1.30346       -2.72101
| 13> H          6.69516       -0.06232       -3.85160
| 14> H          5.97538       -1.39688       -4.69141
| 15> H          1.69700        2.56197       -2.14111
| 16> H          3.08079        1.98744       -1.22584
| 17> H          2.80646        1.98651       -4.26848
| 18> H          3.77871        3.09828       -3.30738
| 19> H          1.29954        0.25615       -2.96490
| 20> H          1.23321        0.35984       -1.22194
| 21> H          2.64581       -0.30765       -2.00430
| 22> *
| 23>
| 24> %MaxCore 64000
| 25>
| 26> %pal nprocs 8
| 27> end
| 28>
| 29> %scf
| 30>   MaxIter 150
| 31> end
| 32>
| 33>
| 34>                          ****END OF INPUT****

CARTESIAN COORDINATES (ANGSTROEM)
---------------------------------
  C      3.380930    2.083040   -3.350130
  N      4.535920    1.182450   -3.428520
  C      2.495560    1.816150   -2.136360
  C      1.872180    0.427900   -2.077500
  C      4.671960    0.122270   -4.220600
  C      5.866020   -0.507850   -4.224280
  N      3.698880   -0.312840   -4.986990
  H      2.731410   -0.050090   -4.849000
  H      3.890050   -1.055170   -5.643730
  H      5.251930    1.303460   -2.721010
  H      6.695160   -0.062320   -3.851600
  H      5.975380   -1.396880   -4.691410
  H      1.697000    2.561970   -2.141110
  H      3.080790    1.987440   -1.225840
  H      2.806460    1.986510   -4.268480
  H      3.778710    3.098280   -3.307380
  H      1.299540    0.256150   -2.964900
  H      1.233210    0.359840   -1.221940
  H      2.645810   -0.307650   -2.004300

 Total Charge           Charge          ....    0
 Multiplicity           Mult            ....    1
 Number of Electrons    NEL             ....   56
 Basis Dimension        Dim             ....  236

ORBITAL ENERGIES
----------------

  NO   OCC          E(Eh)            E(eV)
   0   2.0000     -14.190763      -386.1503
   1   2.0000     -14.187376      -386.0581
   2   2.0000     -10.135003      -275.7874
   3   2.0000     -10.122277      -275.4412
   4   2.0000     -10.088107      -274.5113
   5   2.0000     -10.075063      -274.1564
   6   2.0000      -9.993347      -271.9328
   7   2.0000      -1.062886       -28.9226
   8   2.0000      -0.981475       -26.7073
   9   2.0000      -0.895270       -24.3615
  10   2.0000      -0.824475       -22.4351
  11   2.0000      -0.772680       -21.0257
  12   2.0000      -0.708214       -19.2715
  13   2.0000      -0.700107       -19.0509
  14   2.0000      -0.650359       -17.6972
  15   2.0000      -0.603263       -16.4156
  16   2.0000      -0.579108       -15.7583
  17   2.0000      -0.569491       -15.4966
  18   2.0000      -0.555259       -15.1094
  19   2.0000      -0.506282       -13.7766
  20   2.0000      -0.502358       -13.6698
  21   2.0000      -0.490203       -13.3391
  22   2.0000      -0.470973       -12.8158
  23   2.0000      -0.453688       -12.3455
  24   2.0000      -0.445579       -12.1248
  25   2.0000      -0.440923       -11.9981
  26   2.0000      -0.352145        -9.5823
  27   2.0000      -0.251542        -6.8448
  28   0.0000       0.066094         1.7985
  29   0.0000       0.089144         2.4257
  30   0.0000       0.096242         2.6189
  31   0.0000       0.099872         2.7176
  32   0.0000       0.123747         3.3673

MULLIKEN ATOMIC CHARGES
-----------------------
   0 C :    0.891211
   1 N :   -0.224652
   2 C :   -0.168488
   3 C :    1.047274
   4 C :    0.496351
   5 C :    0.608455
   6 N :    0.401569
   7 H :   -0.284095
   8 H :   -0.158500
   9 H :   -0.274652
  10 H :   -0.529383
  11 H :   -0.451849
  12 H :   -0.128105
  13 H :   -0.149354
  14 H :   -0.184286
  15 H :   -0.392804
  16 H :   -0.143121
  17 H :   -0.285237
  18 H :   -0.070332
Sum of atomic charges:   -0.0000000

LOEWDIN ATOMIC CHARGES
----------------------
   0 C :    0.033305
   1 N :    0.007710
   2 C :   -0.086090
   3 C :    0.109990
   4 C :   -0.259077
   5 C :    0.134868
   6 N :    0.210807
   7 H :   -0.024131
   8 H :    0.012045
   9 H :    0.038542
  10 H :   -0.105877
  11 H :   -0.108876
  12 H :    0.023458
  13 H :    0.025575
  14 H :    0.015751
  15 H :    0.021910
  16 H :   -0.022267
  17 H :   -0.014404
  18 H :   -0.013239

  Mayer bond orders larger than 0.100000
B(  0-C ,  1-N ) :   1.0277 B(  0-C ,  2-C ) :   1.0912 B(  0-C ,  9-H ) :  -0.2244
B(  0-C , 12-H ) :   0.1369 B(  0-C , 13-H ) :   0.1518 B(  0-C , 14-H ) :   0.6837
B(  0-C , 15-H ) :   0.8596 B(  1-N ,  4-C ) :   1.0884 B(  1-N ,  5-C ) :   0.2378
B(  1-N ,  6-N ) :   0.2062 B(  1-N ,  9-H ) :   1.2527 B(  1-N , 14-H ) :   0.2142
B(  1-N , 15-H ) :   0.1445 B(  2-C ,  3-C ) :   1.2771 B(  2-C , 12-H ) :   0.8600
B(  2-C , 13-H ) :   0.8592 B(  2-C , 14-H ) :   0.1517 B(  2-C , 16-H ) :   0.2722
B(  2-C , 17-H ) :   0.2559 B(  2-C , 18-H ) :   0.2679 B(  3-C , 12-H ) :   0.1048
B(  3-C , 16-H ) :   0.7084 B(  3-C , 17-H ) :   0.7127 B(  3-C , 18-H ) :   0.7131
B(  4-C ,  5-C ) :   1.3199 B(  4-C ,  6-N ) :   1.1207 B(  4-C ,  7-H ) :  -0.1025
B(  4-C ,  8-H ) :  -0.1089 B(  4-C ,  9-H ) :  -0.2375 B(  4-C , 11-H ) :   0.2253
B(  5-C ,  6-N ) :   0.2035 B(  5-C , 10-H ) :   0.7808 B(  5-C , 11-H ) :   0.6563
B(  6-N ,  7-H ) :   1.1742 B(  6-N ,  8-H ) :   1.2444 B(  6-N , 14-H ) :   0.1176
B(  7-H ,  8-H ) :  -0.2285 B( 14-H , 15-H ) :  -0.1730

FINAL SINGLE POINT ENERGY      -306.175051133768

DIPOLE MOMENT
-------------
                                X             Y             Z
Electronic contribution:      2.68680       0.02076      -2.60418
Nuclear contribution   :     -3.75638       0.46849       2.77235
                        -----------------------------------------
Total Dipole Moment    :     -1.06958       0.48925       0.16817
                        -----------------------------------------
Magnitude (a.u.)       :      1.18813
Magnitude (Debye)      :      3.01998

Rotational constants in cm-1:     0.154609     0.053528     0.048030
Rotational constants in MHz :  4635.053294  1604.739826  1439.897073

                             ****ORCA TERMINATED NORMALLY****
TOTAL RUN TIME: 0 days 0 hours 0 minutes 21 seconds 801 msec
