                         Program Version 5.0.0 -  RELEASE  -
|  1> !LC-BLYP RIJCOSX def2-SVPD def2/J TightSCF
|  2> *xyz 0 1
|  3> C          3.38093        2.08304       -3.35013
|  4> C          2.49556        1.81615       -2.13636
|  5> C          1.87218        0.42790       -2.07750
|  6> H          2.61427       -0.36583       -2.19889
|  7> H          1.38995        0.27309       -1.11236
|  8> S          0.57902        0.14047       -3.29794
|  9> O          0.22886       -1.24687       -3.12787
| 10> O         -0.43927        1.11897       -3.01455
| 11> F          1.24788        0.40347       -4.59565
| 12> H          1.69700        2.56197       -2.14111
| 13> H          3.08079        1.98744       -1.22584
| 14> H          2.81820        1.91840       -4.24519
| 15> H          4.22171        1.42153       -3.33067
| 16> H          3.72372        3.09635       -3.32565
| 17> *
| 18>
| 19> %MaxCore 64000
| 20>
| 21> %pal nprocs 8
| 22> end
| 23>
| 24> %scf
| 25>   MaxIter 150
| 26> end
| 27>
| 28>
| 29>                          ****END OF INPUT****

CARTESIAN COORDINATES (ANGSTROEM)
---------------------------------
  C      3.380930    2.083040   -3.350130
  C      2.495560    1.816150   -2.136360
  C      1.872180    0.427900   -2.077500
  H      2.614270   -0.365830   -2.198890
  H      1.389950    0.273090   -1.112360
  S      0.579020    0.140470   -3.297940
  O      0.228860   -1.246870   -3.127870
  O     -0.439270    1.118970   -3.014550
  F      1.247880    0.403470   -4.595650
  H      1.697000    2.561970   -2.141110
  H      3.080790    1.987440   -1.225840
  H      2.818200    1.918400   -4.245190
  H      4.221710    1.421530   -3.330670
  H      3.723720    3.096350   -3.325650

 Total Charge           Charge          ....    0
 Multiplicity           Mult            ....    1
 Number of Electrons    NEL             ....   66
 Basis Dimension        Dim             ....  212

ORBITAL ENERGIES
----------------

  NO   OCC          E(Eh)            E(eV)
   0   2.0000     -88.565639     -2409.9935
   1   2.0000     -24.576383      -668.7574
   2   2.0000     -18.974811      -516.3309
   3   2.0000     -18.974285      -516.3166
   4   2.0000     -10.145960      -276.0856
   5   2.0000     -10.115556      -275.2583
   6   2.0000     -10.090405      -274.5739
   7   2.0000      -8.115199      -220.8258
   8   2.0000      -6.153943      -167.4573
   9   2.0000      -6.147367      -167.2784
  10   2.0000      -6.145811      -167.2360
  11   2.0000      -1.429433       -38.8969
  12   2.0000      -1.218250       -33.1503
  13   2.0000      -1.121970       -30.5303
  14   2.0000      -0.943284       -25.6681
  15   2.0000      -0.859662       -23.3926
  16   2.0000      -0.806017       -21.9328
  17   2.0000      -0.747142       -20.3308
  18   2.0000      -0.686143       -18.6709
  19   2.0000      -0.671837       -18.2816
  20   2.0000      -0.654512       -17.8102
  21   2.0000      -0.602049       -16.3826
  22   2.0000      -0.586935       -15.9713
  23   2.0000      -0.572041       -15.5660
  24   2.0000      -0.560930       -15.2637
  25   2.0000      -0.541105       -14.7242
  26   2.0000      -0.507588       -13.8122
  27   2.0000      -0.488471       -13.2920
  28   2.0000      -0.471145       -12.8205
  29   2.0000      -0.463481       -12.6120
  30   2.0000      -0.445523       -12.1233
  31   2.0000      -0.430442       -11.7129
  32   2.0000      -0.423734       -11.5304
  33   0.0000       0.050166         1.3651
  34   0.0000       0.072726         1.9790
  35   0.0000       0.078918         2.1475
  36   0.0000       0.080348         2.1864
  37   0.0000       0.108759         2.9595

MULLIKEN ATOMIC CHARGES
-----------------------
   0 C :    1.121714
   1 C :   -0.014565
   2 C :    0.171594
   3 H :   -0.074311
   4 H :   -0.066378
   5 S :    1.290072
   6 O :   -0.576899
   7 O :   -0.585107
   8 F :   -0.390136
   9 H :   -0.097158
  10 H :   -0.200129
  11 H :   -0.396943
  12 H :   -0.075147
  13 H :   -0.106606
Sum of atomic charges:   -0.0000000

LOEWDIN ATOMIC CHARGES
----------------------
   0 C :    0.123569
   1 C :   -0.086329
   2 C :   -0.061288
   3 H :    0.034665
   4 H :    0.040183
   5 S :    1.062609
   6 O :   -0.441712
   7 O :   -0.439835
   8 F :   -0.255402
   9 H :    0.032642
  10 H :    0.037647
  11 H :   -0.038887
  12 H :   -0.004301
  13 H :   -0.003562

  Mayer bond orders larger than 0.100000
B(  0-C ,  1-C ) :   1.2591 B(  0-C ,  9-H ) :   0.1171 B(  0-C , 11-H ) :   0.6815
B(  0-C , 12-H ) :   0.6699 B(  0-C , 13-H ) :   0.6588 B(  1-C ,  2-C ) :   1.2210
B(  1-C ,  3-H ) :   0.1347 B(  1-C ,  4-H ) :   0.1416 B(  1-C ,  9-H ) :   0.8594
B(  1-C , 10-H ) :   0.8361 B(  1-C , 11-H ) :   0.2775 B(  1-C , 12-H ) :   0.2359
B(  1-C , 13-H ) :   0.2460 B(  2-C ,  3-H ) :   0.9356 B(  2-C ,  4-H ) :   0.8668
B(  2-C ,  5-S ) :   0.9759 B(  2-C ,  9-H ) :   0.1431 B(  2-C , 10-H ) :   0.1326
B(  5-S ,  6-O ) :   1.6202 B(  5-S ,  7-O ) :   1.5716 B(  5-S ,  8-F ) :   0.6948
B(  6-O ,  7-O ) :   0.1017 B( 11-H , 12-H ) :   0.1263 B( 11-H , 13-H ) :   0.1097

FINAL SINGLE POINT ENERGY      -765.598489210762

DIPOLE MOMENT
-------------
                                X             Y             Z
Electronic contribution:     -8.83448      -6.00932      -5.29995
Nuclear contribution   :     10.37810       6.57173       5.65300
                        -----------------------------------------
Total Dipole Moment    :      1.54362       0.56241       0.35306
                        -----------------------------------------
Magnitude (a.u.)       :      1.68039
Magnitude (Debye)      :      4.27122

Rotational constants in cm-1:     0.130522     0.054787     0.051463
Rotational constants in MHz :  3912.959799  1642.486768  1542.828917

                             ****ORCA TERMINATED NORMALLY****
TOTAL RUN TIME: 0 days 0 hours 0 minutes 16 seconds 353 msec
