                         Program Version 5.0.0 -  RELEASE  -
|  1> !LC-BLYP RIJCOSX def2-SVPD def2/J TightSCF
|  2> *xyz 0 1
|  3> C          3.38093        2.08304       -3.35013
|  4> N          4.53592        1.18245       -3.42852
|  5> C          2.49556        1.81615       -2.13636
|  6> C          1.87218        0.42790       -2.07750
|  7> C          4.67196        0.12227       -4.22060
|  8> N          5.86602       -0.50785       -4.22428
|  9> C          3.69888       -0.31284       -4.98699
| 10> H          2.73141       -0.05009       -4.84900
| 11> H          3.89005       -1.05517       -5.64373
| 12> H          5.25193        1.30346       -2.72101
| 13> H          6.69516       -0.06232       -3.85160
| 14> H          5.97538       -1.39688       -4.69141
| 15> H          1.69700        2.56197       -2.14111
| 16> H          3.08079        1.98744       -1.22584
| 17> H          2.80646        1.98651       -4.26848
| 18> H          3.77871        3.09828       -3.30738
| 19> H          1.29954        0.25615       -2.96490
| 20> H          1.23321        0.35984       -1.22194
| 21> H          2.64581       -0.30765       -2.00430
| 22> *
| 23>
| 24> %MaxCore 64000
| 25>
| 26> %pal nprocs 8
| 27> end
| 28>
| 29> %scf
| 30>   MaxIter 150
| 31> end
| 32>
| 33>
| 34>                          ****END OF INPUT****

CARTESIAN COORDINATES (ANGSTROEM)
---------------------------------
  C      3.380930    2.083040   -3.350130
  N      4.535920    1.182450   -3.428520
  C      2.495560    1.816150   -2.136360
  C      1.872180    0.427900   -2.077500
  C      4.671960    0.122270   -4.220600
  N      5.866020   -0.507850   -4.224280
  C      3.698880   -0.312840   -4.986990
  H      2.731410   -0.050090   -4.849000
  H      3.890050   -1.055170   -5.643730
  H      5.251930    1.303460   -2.721010
  H      6.695160   -0.062320   -3.851600
  H      5.975380   -1.396880   -4.691410
  H      1.697000    2.561970   -2.141110
  H      3.080790    1.987440   -1.225840
  H      2.806460    1.986510   -4.268480
  H      3.778710    3.098280   -3.307380
  H      1.299540    0.256150   -2.964900
  H      1.233210    0.359840   -1.221940
  H      2.645810   -0.307650   -2.004300

 Total Charge           Charge          ....    0
 Multiplicity           Mult            ....    1
 Number of Electrons    NEL             ....   56
 Basis Dimension        Dim             ....  236

ORBITAL ENERGIES
----------------

  NO   OCC          E(Eh)            E(eV)
   0   2.0000     -14.188551      -386.0901
   1   2.0000     -14.185357      -386.0032
   2   2.0000     -10.132915      -275.7306
   3   2.0000     -10.113834      -275.2114
   4   2.0000     -10.080393      -274.3014
   5   2.0000     -10.062033      -273.8018
   6   2.0000      -9.999138      -272.0904
   7   2.0000      -1.057220       -28.7684
   8   2.0000      -0.974126       -26.5073
   9   2.0000      -0.880923       -23.9711
  10   2.0000      -0.819498       -22.2997
  11   2.0000      -0.789607       -21.4863
  12   2.0000      -0.706497       -19.2248
  13   2.0000      -0.667426       -18.1616
  14   2.0000      -0.646165       -17.5830
  15   2.0000      -0.617207       -16.7951
  16   2.0000      -0.570939       -15.5361
  17   2.0000      -0.565236       -15.3809
  18   2.0000      -0.533717       -14.5232
  19   2.0000      -0.513568       -13.9749
  20   2.0000      -0.493062       -13.4169
  21   2.0000      -0.486636       -13.2420
  22   2.0000      -0.472108       -12.8467
  23   2.0000      -0.446577       -12.1520
  24   2.0000      -0.440289       -11.9809
  25   2.0000      -0.427530       -11.6337
  26   2.0000      -0.345616        -9.4047
  27   2.0000      -0.264838        -7.2066
  28   0.0000       0.070697         1.9238
  29   0.0000       0.090293         2.4570
  30   0.0000       0.097220         2.6455
  31   0.0000       0.106641         2.9019
  32   0.0000       0.123929         3.3723

MULLIKEN ATOMIC CHARGES
-----------------------
   0 C :    0.905542
   1 N :   -0.350849
   2 C :   -0.209650
   3 C :    1.063337
   4 C :    0.759229
   5 N :    0.271519
   6 C :    0.477588
   7 H :   -0.501580
   8 H :   -0.587711
   9 H :   -0.332117
  10 H :   -0.211365
  11 H :   -0.055329
  12 H :   -0.144844
  13 H :   -0.152051
  14 H :   -0.076678
  15 H :   -0.359009
  16 H :   -0.108079
  17 H :   -0.283207
  18 H :   -0.104749
Sum of atomic charges:   -0.0000000

LOEWDIN ATOMIC CHARGES
----------------------
   0 C :    0.040901
   1 N :   -0.001525
   2 C :   -0.083962
   3 C :    0.111874
   4 C :   -0.255499
   5 N :    0.193561
   6 C :    0.149222
   7 H :   -0.108724
   8 H :   -0.094071
   9 H :    0.024525
  10 H :   -0.013668
  11 H :    0.000213
  12 H :    0.023153
  13 H :    0.021621
  14 H :    0.021428
  15 H :    0.021919
  16 H :   -0.017469
  17 H :   -0.017404
  18 H :   -0.016092

  Mayer bond orders larger than 0.100000
B(  0-C ,  1-N ) :   0.9900 B(  0-C ,  2-C ) :   1.0749 B(  0-C ,  9-H ) :  -0.1990
B(  0-C , 12-H ) :   0.1294 B(  0-C , 13-H ) :   0.1280 B(  0-C , 14-H ) :   0.6877
B(  0-C , 15-H ) :   0.8522 B(  1-N ,  4-C ) :   0.9485 B(  1-N ,  5-N ) :   0.1701
B(  1-N ,  6-C ) :   0.4566 B(  1-N ,  9-H ) :   1.3573 B(  1-N , 14-H ) :   0.1625
B(  1-N , 15-H ) :   0.1420 B(  2-C ,  3-C ) :   1.2675 B(  2-C , 12-H ) :   0.8790
B(  2-C , 13-H ) :   0.8813 B(  2-C , 14-H ) :   0.1608 B(  2-C , 16-H ) :   0.2720
B(  2-C , 17-H ) :   0.2571 B(  2-C , 18-H ) :   0.2639 B(  3-C , 12-H ) :   0.1066
B(  3-C , 16-H ) :   0.7104 B(  3-C , 17-H ) :   0.7094 B(  3-C , 18-H ) :   0.7196
B(  4-C ,  5-N ) :   1.0189 B(  4-C ,  6-C ) :   1.3857 B(  4-C ,  8-H ) :   0.2964
B(  4-C ,  9-H ) :  -0.3010 B(  5-N ,  6-C ) :   0.3103 B(  5-N ,  8-H ) :   0.1083
B(  5-N , 10-H ) :   1.1884 B(  5-N , 11-H ) :   1.1312 B(  6-C ,  7-H ) :   0.6354
B(  6-C ,  8-H ) :   0.6959 B(  7-H ,  8-H ) :  -0.2025 B( 10-H , 11-H ) :  -0.1887
B( 14-H , 15-H ) :  -0.1717 B( 16-H , 18-H ) :   0.1140

FINAL SINGLE POINT ENERGY      -306.179499901217

DIPOLE MOMENT
-------------
                                X             Y             Z
Electronic contribution:      4.86857      -0.21922      -1.97220
Nuclear contribution   :     -4.23110       0.51121       2.60527
                        -----------------------------------------
Total Dipole Moment    :      0.63747       0.29199       0.63308
                        -----------------------------------------
Magnitude (a.u.)       :      0.94467
Magnitude (Debye)      :      2.40117

Rotational constants in cm-1:     0.158478     0.052124     0.047173
Rotational constants in MHz :  4751.056263  1562.646208  1414.197352

                             ****ORCA TERMINATED NORMALLY****
TOTAL RUN TIME: 0 days 0 hours 0 minutes 21 seconds 895 msec
