                         Program Version 5.0.0 -  RELEASE  -
|  1> !LC-BLYP RIJCOSX def2-SVPD def2/J TightSCF xyzfile
|  2>
|  3> *xyzfile 0 1 D7.xyz
|  4>
|  5> %MaxCore 64000
|  6>
|  7> %pal nprocs 4
|  8> end
|  9>
| 10> %scf
| 11>   MaxIter 150
| 12> end
| 13>
| 14>
| 15>                          ****END OF INPUT****

CARTESIAN COORDINATES (ANGSTROEM)
---------------------------------
  C      3.380928    2.083045   -3.350127
  C      4.535924    1.182447   -3.428518
  C      2.495557    1.816150   -2.136364
  C      1.872181    0.427903   -2.077497
  H      2.614270   -0.365825   -2.198894
  H      1.389953    0.273087   -1.112360
  S      0.579024    0.140472   -3.297943
  C      4.671956    0.122273   -4.220598
  N      5.866023   -0.507849   -4.224284
  N      3.698881   -0.312844   -4.986988
  H      2.731405   -0.050091   -4.849000
  H      3.890046   -1.055172   -5.643730
  H      5.251933    1.303459   -2.721014
  H      6.695165   -0.062322   -3.851596
  H      5.975383   -1.396884   -4.691414
  O      0.228860   -1.246868   -3.127871
  O     -0.439269    1.118966   -3.014550
  F      1.247881    0.403474   -4.595647
  H      1.697003    2.561969   -2.141109
  H      3.080787    1.987436   -1.225838
  H      2.806463    1.986511   -4.268484
  H      3.778714    3.098282   -3.307383

 Total Charge           Charge          ....    0
 Multiplicity           Mult            ....    1
 Number of Electrons    NEL             ....   96
 Basis Dimension        Dim             ....  324

ORBITAL ENERGIES
----------------

  NO   OCC          E(Eh)            E(eV)
   0   2.0000     -88.568410     -2410.0690
   1   2.0000     -24.593323      -669.2183
   2   2.0000     -18.977392      -516.4011
   3   2.0000     -18.976909      -516.3879
   4   2.0000     -14.195530      -386.2800
   5   2.0000     -14.195100      -386.2683
   6   2.0000     -10.145286      -276.0673
   7   2.0000     -10.138045      -275.8702
   8   2.0000     -10.099091      -274.8102
   9   2.0000     -10.079447      -274.2757
  10   2.0000     -10.023435      -272.7515
  11   2.0000      -8.117871      -220.8985
  12   2.0000      -6.157042      -167.5416
  13   2.0000      -6.149924      -167.3480
  14   2.0000      -6.148034      -167.2965
  15   2.0000      -1.448248       -39.4088
  16   2.0000      -1.222699       -33.2713
  17   2.0000      -1.124249       -30.5924
  18   2.0000      -1.066672       -29.0256
  19   2.0000      -0.973485       -26.4899
  20   2.0000      -0.938057       -25.5258
  21   2.0000      -0.873892       -23.7798
  22   2.0000      -0.838651       -22.8208
  23   2.0000      -0.796324       -21.6691
  24   2.0000      -0.753641       -20.5076
  25   2.0000      -0.707485       -19.2517
  26   2.0000      -0.695286       -18.9197
  27   2.0000      -0.680447       -18.5159
  28   2.0000      -0.661434       -17.9985
  29   2.0000      -0.653290       -17.7769
  30   2.0000      -0.619719       -16.8634
  31   2.0000      -0.603790       -16.4300
  32   2.0000      -0.585195       -15.9240
  33   2.0000      -0.580676       -15.8010
  34   2.0000      -0.567149       -15.4329
  35   2.0000      -0.559643       -15.2286
  36   2.0000      -0.518686       -14.1142
  37   2.0000      -0.516892       -14.0653
  38   2.0000      -0.513355       -13.9691
  39   2.0000      -0.494000       -13.4424
  40   2.0000      -0.467624       -12.7247
  41   2.0000      -0.454076       -12.3560
  42   2.0000      -0.445484       -12.1222
  43   2.0000      -0.439745       -11.9661
  44   2.0000      -0.429456       -11.6861
  45   2.0000      -0.421918       -11.4810
  46   2.0000      -0.374983       -10.2038
  47   2.0000      -0.268287        -7.3005
  48   0.0000       0.052872         1.4387
  49   0.0000       0.070143         1.9087
  50   0.0000       0.072431         1.9709
  51   0.0000       0.084280         2.2934
  52   0.0000       0.099547         2.7088

MULLIKEN ATOMIC CHARGES
-----------------------
   0 C :    0.641032
   1 C :   -0.079923
   2 C :    0.394532
   3 C :    0.325916
   4 H :   -0.045903
   5 H :   -0.187698
   6 S :    1.243196
   7 C :    0.684315
   8 N :    0.180887
   9 N :    0.758124
  10 H :   -0.472469
  11 H :   -0.278561
  12 H :   -0.507242
  13 H :   -0.140770
  14 H :   -0.154186
  15 O :   -0.576801
  16 O :   -0.608115
  17 F :   -0.481823
  18 H :   -0.078871
  19 H :   -0.100946
  20 H :   -0.303149
  21 H :   -0.211546
Sum of atomic charges:   -0.0000000

LOEWDIN ATOMIC CHARGES
----------------------
   0 C :   -0.050292
   1 C :   -0.031649
   2 C :   -0.040150
   3 C :   -0.045439
   4 H :    0.026298
   5 H :    0.039403
   6 S :    1.074139
   7 C :   -0.230066
   8 N :    0.195000
   9 N :    0.238786
  10 H :   -0.105986
  11 H :    0.006387
  12 H :   -0.042555
  13 H :    0.003453
  14 H :   -0.013408
  15 O :   -0.434623
  16 O :   -0.429201
  17 F :   -0.260764
  18 H :    0.030042
  19 H :    0.041705
  20 H :    0.000419
  21 H :    0.028501

  Mayer bond orders larger than 0.100000
B(  0-C ,  1-C ) :   1.0858 B(  0-C ,  2-C ) :   1.1098 B(  0-C ,  7-C ) :   0.1182
B(  0-C , 12-H ) :   0.2584 B(  0-C , 18-H ) :   0.1858 B(  0-C , 19-H ) :   0.1747
B(  0-C , 20-H ) :   0.6466 B(  0-C , 21-H ) :   0.6925 B(  1-C ,  2-C ) :   0.1259
B(  1-C ,  7-C ) :   1.5944 B(  1-C ,  8-N ) :   0.4222 B(  1-C ,  9-N ) :   0.2458
B(  1-C , 10-H ) :  -0.1158 B(  1-C , 12-H ) :   0.7115 B(  1-C , 20-H ) :   0.3584
B(  1-C , 21-H ) :   0.1497 B(  2-C ,  3-C ) :   1.2573 B(  2-C ,  4-H ) :   0.1749
B(  2-C ,  5-H ) :   0.1882 B(  2-C , 18-H ) :   0.7525 B(  2-C , 19-H ) :   0.6963
B(  2-C , 20-H ) :   0.1938 B(  2-C , 21-H ) :   0.1134 B(  3-C ,  4-H ) :   0.9402
B(  3-C ,  5-H ) :   0.6987 B(  3-C ,  6-S ) :   0.9725 B(  3-C , 18-H ) :   0.1835
B(  3-C , 19-H ) :   0.1659 B(  5-H ,  6-S ) :   0.1385 B(  6-S , 15-O ) :   1.5914
B(  6-S , 16-O ) :   1.5981 B(  6-S , 17-F ) :   0.6803 B(  7-C ,  8-N ) :   0.8318
B(  7-C ,  9-N ) :   1.0821 B(  7-C , 10-H ) :  -0.1162 B(  7-C , 11-H ) :  -0.2011
B(  7-C , 13-H ) :  -0.1943 B(  7-C , 20-H ) :  -0.1726 B(  8-N , 12-H ) :   0.1206
B(  8-N , 13-H ) :   1.2488 B(  8-N , 14-H ) :   1.1480 B(  9-N , 10-H ) :   1.1344
B(  9-N , 11-H ) :   1.1810 B( 10-H , 11-H ) :  -0.1795 B( 10-H , 17-F ) :   0.1456
B( 13-H , 14-H ) :  -0.1753 B( 15-O , 16-O ) :   0.1119 B( 18-H , 19-H ) :  -0.1124

FINAL SINGLE POINT ENERGY      -953.114397953223

DIPOLE MOMENT
-------------
                                X             Y             Z
Electronic contribution:    -13.15454      -3.81193      -3.61239
Nuclear contribution   :     14.80811       3.53278       3.42836
                        -----------------------------------------
Total Dipole Moment    :      1.65357      -0.27915      -0.18403
                        -----------------------------------------
Magnitude (a.u.)       :      1.68703
Magnitude (Debye)      :      4.28810

Rotational constants in cm-1:     0.059173     0.020923     0.018056
Rotational constants in MHz :  1773.956621   627.264018   541.303397

                             ****ORCA TERMINATED NORMALLY****
TOTAL RUN TIME: 0 days 0 hours 1 minutes 31 seconds 731 msec
