                         Program Version 5.0.0 -  RELEASE  -
|  1> !LC-BLYP RIJCOSX def2-SVPD def2/J TightSCF xyzfile
|  2>
|  3> *xyzfile 0 1 D8.xyz
|  4>
|  5> %MaxCore 64000
|  6>
|  7> %pal nprocs 4
|  8> end
|  9>
| 10> %scf
| 11>   MaxIter 150
| 12> end
| 13>
| 14>
| 15>                          ****END OF INPUT****

CARTESIAN COORDINATES (ANGSTROEM)
---------------------------------
  C      3.380928    2.083045   -3.350127
  N      4.535924    1.182447   -3.428518
  C      2.495557    1.816150   -2.136364
  C      1.872181    0.427903   -2.077497
  H      2.614270   -0.365825   -2.198894
  H      1.389953    0.273087   -1.112360
  S      0.579024    0.140472   -3.297943
  C      4.671956    0.122273   -4.220598
  C      5.866023   -0.507849   -4.224284
  N      3.698881   -0.312844   -4.986988
  H      2.731405   -0.050091   -4.849000
  H      3.890046   -1.055172   -5.643730
  H      5.251933    1.303459   -2.721014
  H      6.695165   -0.062322   -3.851596
  H      5.975383   -1.396884   -4.691414
  O      0.228860   -1.246868   -3.127871
  O     -0.439269    1.118966   -3.014550
  F      1.247881    0.403474   -4.595647
  H      1.697003    2.561969   -2.141109
  H      3.080787    1.987436   -1.225838
  H      2.806463    1.986511   -4.268484
  H      3.778714    3.098282   -3.307383

 Total Charge           Charge          ....    0
 Multiplicity           Mult            ....    1
 Number of Electrons    NEL             ....   96
 Basis Dimension        Dim             ....  324

ORBITAL ENERGIES
----------------

  NO   OCC          E(Eh)            E(eV)
   0   2.0000     -88.581312     -2410.4200
   1   2.0000     -24.604730      -669.5287
   2   2.0000     -18.989361      -516.7268
   3   2.0000     -18.988352      -516.6993
   4   2.0000     -14.203733      -386.5032
   5   2.0000     -14.192353      -386.1936
   6   2.0000     -10.156198      -276.3642
   7   2.0000     -10.144901      -276.0568
   8   2.0000     -10.144822      -276.0546
   9   2.0000     -10.125661      -275.5332
  10   2.0000     -10.003068      -272.1973
  11   2.0000      -8.130648      -221.2462
  12   2.0000      -6.169771      -167.8880
  13   2.0000      -6.162640      -167.6940
  14   2.0000      -6.160979      -167.6488
  15   2.0000      -1.459904       -39.7260
  16   2.0000      -1.234464       -33.5915
  17   2.0000      -1.135882       -30.9089
  18   2.0000      -1.076478       -29.2925
  19   2.0000      -0.996307       -27.1109
  20   2.0000      -0.947581       -25.7850
  21   2.0000      -0.880775       -23.9671
  22   2.0000      -0.835061       -22.7232
  23   2.0000      -0.810986       -22.0681
  24   2.0000      -0.752766       -20.4838
  25   2.0000      -0.724080       -19.7032
  26   2.0000      -0.717970       -19.5370
  27   2.0000      -0.701893       -19.0995
  28   2.0000      -0.670270       -18.2390
  29   2.0000      -0.645929       -17.5766
  30   2.0000      -0.626331       -17.0433
  31   2.0000      -0.607098       -16.5200
  32   2.0000      -0.599855       -16.3229
  33   2.0000      -0.591634       -16.0992
  34   2.0000      -0.576033       -15.6747
  35   2.0000      -0.565117       -15.3776
  36   2.0000      -0.536920       -14.6103
  37   2.0000      -0.515463       -14.0265
  38   2.0000      -0.512938       -13.9578
  39   2.0000      -0.497273       -13.5315
  40   2.0000      -0.490058       -13.3352
  41   2.0000      -0.482773       -13.1369
  42   2.0000      -0.465586       -12.6692
  43   2.0000      -0.457947       -12.4614
  44   2.0000      -0.443486       -12.0679
  45   2.0000      -0.437344       -11.9007
  46   2.0000      -0.366064        -9.9611
  47   2.0000      -0.262581        -7.1452
  48   0.0000       0.044819         1.2196
  49   0.0000       0.061371         1.6700
  50   0.0000       0.071050         1.9334
  51   0.0000       0.073179         1.9913
  52   0.0000       0.094150         2.5620

MULLIKEN ATOMIC CHARGES
-----------------------
   0 C :    1.077846
   1 N :   -0.168521
   2 C :    0.377462
   3 C :    0.365402
   4 H :    0.016737
   5 H :   -0.245764
   6 S :    1.231822
   7 C :    0.347223
   8 C :    0.539055
   9 N :    0.894897
  10 H :   -0.580227
  11 H :   -0.197330
  12 H :   -0.248783
  13 H :   -0.500448
  14 H :   -0.380896
  15 O :   -0.567090
  16 O :   -0.604462
  17 F :   -0.489159
  18 H :   -0.072385
  19 H :   -0.120632
  20 H :   -0.241167
  21 H :   -0.433579
Sum of atomic charges:   -0.0000000

LOEWDIN ATOMIC CHARGES
----------------------
   0 C :    0.053901
   1 N :    0.010694
   2 C :   -0.032281
   3 C :   -0.044263
   4 H :    0.030759
   5 H :    0.041656
   6 S :    1.076115
   7 C :   -0.252788
   8 C :    0.138960
   9 N :    0.237914
  10 H :   -0.114965
  11 H :    0.022439
  12 H :    0.040010
  13 H :   -0.103561
  14 H :   -0.104372
  15 O :   -0.426360
  16 O :   -0.427034
  17 F :   -0.262007
  18 H :    0.034892
  19 H :    0.040770
  20 H :    0.007511
  21 H :    0.032011

  Mayer bond orders larger than 0.100000
B(  0-C ,  1-N ) :   1.0062 B(  0-C ,  2-C ) :   1.0623 B(  0-C , 12-H ) :  -0.2036
B(  0-C , 18-H ) :   0.1606 B(  0-C , 19-H ) :   0.1582 B(  0-C , 20-H ) :   0.6453
B(  0-C , 21-H ) :   0.7683 B(  1-N ,  7-C ) :   1.0907 B(  1-N ,  8-C ) :   0.2280
B(  1-N ,  9-N ) :   0.1260 B(  1-N , 12-H ) :   1.2197 B(  1-N , 20-H ) :   0.2632
B(  1-N , 21-H ) :   0.1526 B(  2-C ,  3-C ) :   1.2373 B(  2-C ,  4-H ) :   0.1699
B(  2-C ,  5-H ) :   0.1864 B(  2-C , 18-H ) :   0.7974 B(  2-C , 19-H ) :   0.7189
B(  2-C , 20-H ) :   0.1781 B(  3-C ,  4-H ) :   0.9206 B(  3-C ,  5-H ) :   0.6910
B(  3-C ,  6-S ) :   0.9727 B(  3-C , 18-H ) :   0.1458 B(  3-C , 19-H ) :   0.1537
B(  5-H ,  6-S ) :   0.1363 B(  6-S , 15-O ) :   1.5987 B(  6-S , 16-O ) :   1.5959
B(  6-S , 17-F ) :   0.6840 B(  7-C ,  8-C ) :   1.3465 B(  7-C ,  9-N ) :   1.1163
B(  7-C , 11-H ) :  -0.1021 B(  7-C , 12-H ) :  -0.2220 B(  7-C , 13-H ) :   0.1155
B(  7-C , 14-H ) :   0.2182 B(  7-C , 20-H ) :  -0.1050 B(  8-C ,  9-N ) :   0.1448
B(  8-C , 13-H ) :   0.6748 B(  8-C , 14-H ) :   0.7042 B(  9-N , 10-H ) :   0.9250
B(  9-N , 11-H ) :   1.1195 B(  9-N , 20-H ) :   0.1177 B( 10-H , 11-H ) :  -0.1953
B( 10-H , 17-F ) :   0.1585 B( 13-H , 14-H ) :   0.1333 B( 15-O , 16-O ) :   0.1132
B( 20-H , 21-H ) :  -0.1866

FINAL SINGLE POINT ENERGY      -953.097616011544

DIPOLE MOMENT
-------------
                                X             Y             Z
Electronic contribution:    -14.57917      -2.40103      -2.85579
Nuclear contribution   :     14.93782       3.36795       3.35075
                        -----------------------------------------
Total Dipole Moment    :      0.35865       0.96692       0.49496
                        -----------------------------------------
Magnitude (a.u.)       :      1.14392
Magnitude (Debye)      :      2.90762

Rotational constants in cm-1:     0.059219     0.021387     0.018380
Rotational constants in MHz :  1775.354399   641.172207   551.019443

                             ****ORCA TERMINATED NORMALLY****
TOTAL RUN TIME: 0 days 0 hours 1 minutes 40 seconds 57 msec
