                         Program Version 5.0.0 -  RELEASE  -
|  1> !LC-BLYP RIJCOSX def2-SVPD def2/J TightSCF xyzfile
|  2>
|  3> *xyzfile 0 1 D9.xyz
|  4>
|  5> %MaxCore 64000
|  6>
|  7> %pal nprocs 4
|  8> end
|  9>
| 10> %scf
| 11>   MaxIter 150
| 12> end
| 13>
| 14>
| 15>                          ****END OF INPUT****

CARTESIAN COORDINATES (ANGSTROEM)
---------------------------------
  C      3.380928    2.083045   -3.350127
  N      4.535924    1.182447   -3.428518
  C      2.495557    1.816150   -2.136364
  C      1.872181    0.427903   -2.077497
  H      2.614270   -0.365825   -2.198894
  H      1.389953    0.273087   -1.112360
  S      0.579024    0.140472   -3.297943
  C      4.671956    0.122273   -4.220598
  N      5.866023   -0.507849   -4.224284
  C      3.698881   -0.312844   -4.986988
  H      2.731405   -0.050091   -4.849000
  H      3.890046   -1.055172   -5.643730
  H      5.251933    1.303459   -2.721014
  H      6.695165   -0.062322   -3.851596
  H      5.975383   -1.396884   -4.691414
  O      0.228860   -1.246868   -3.127871
  O     -0.439269    1.118966   -3.014550
  F      1.247881    0.403474   -4.595647
  H      1.697003    2.561969   -2.141109
  H      3.080787    1.987436   -1.225838
  H      2.806463    1.986511   -4.268484
  H      3.778714    3.098282   -3.307383

 Total Charge           Charge          ....    0
 Multiplicity           Mult            ....    1
 Number of Electrons    NEL             ....   96
 Basis Dimension        Dim             ....  324

ORBITAL ENERGIES
----------------

  NO   OCC          E(Eh)            E(eV)
   0   2.0000     -88.563961     -2409.9479
   1   2.0000     -24.574158      -668.6968
   2   2.0000     -18.972518      -516.2685
   3   2.0000     -18.970796      -516.2216
   4   2.0000     -14.205945      -386.5634
   5   2.0000     -14.195538      -386.2802
   6   2.0000     -10.144931      -276.0576
   7   2.0000     -10.142642      -275.9953
   8   2.0000     -10.138062      -275.8707
   9   2.0000     -10.118025      -275.3255
  10   2.0000     -10.003323      -272.2043
  11   2.0000      -8.112856      -220.7620
  12   2.0000      -6.151734      -167.3972
  13   2.0000      -6.145000      -167.2140
  14   2.0000      -6.143477      -167.1725
  15   2.0000      -1.431499       -38.9531
  16   2.0000      -1.216129       -33.0926
  17   2.0000      -1.118836       -30.4451
  18   2.0000      -1.072511       -29.1845
  19   2.0000      -0.990490       -26.9526
  20   2.0000      -0.933635       -25.4055
  21   2.0000      -0.857080       -23.3223
  22   2.0000      -0.837298       -22.7840
  23   2.0000      -0.802191       -21.8287
  24   2.0000      -0.762773       -20.7561
  25   2.0000      -0.699150       -19.0248
  26   2.0000      -0.690293       -18.7838
  27   2.0000      -0.671576       -18.2745
  28   2.0000      -0.663681       -18.0597
  29   2.0000      -0.648976       -17.6595
  30   2.0000      -0.622694       -16.9444
  31   2.0000      -0.607563       -16.5326
  32   2.0000      -0.588375       -16.0105
  33   2.0000      -0.575640       -15.6640
  34   2.0000      -0.569147       -15.4873
  35   2.0000      -0.552118       -15.0239
  36   2.0000      -0.525613       -14.3027
  37   2.0000      -0.514505       -14.0004
  38   2.0000      -0.505919       -13.7668
  39   2.0000      -0.488004       -13.2793
  40   2.0000      -0.482800       -13.1377
  41   2.0000      -0.475881       -12.9494
  42   2.0000      -0.458655       -12.4806
  43   2.0000      -0.441818       -12.0225
  44   2.0000      -0.428049       -11.6478
  45   2.0000      -0.420570       -11.4443
  46   2.0000      -0.361309        -9.8317
  47   2.0000      -0.277274        -7.5450
  48   0.0000       0.053393         1.4529
  49   0.0000       0.067679         1.8416
  50   0.0000       0.076712         2.0874
  51   0.0000       0.078574         2.1381
  52   0.0000       0.099130         2.6975

MULLIKEN ATOMIC CHARGES
-----------------------
   0 C :    1.068262
   1 N :   -0.376063
   2 C :    0.359245
   3 C :    0.421846
   4 H :   -0.030121
   5 H :   -0.251727
   6 S :    1.258405
   7 C :    0.769955
   8 N :    0.270952
   9 C :    1.066668
  10 H :   -1.066016
  11 H :   -0.509310
  12 H :   -0.300076
  13 H :   -0.187919
  14 H :   -0.050180
  15 O :   -0.579209
  16 O :   -0.622348
  17 F :   -0.509943
  18 H :   -0.094302
  19 H :   -0.117139
  20 H :   -0.107218
  21 H :   -0.413761
Sum of atomic charges:   -0.0000000

LOEWDIN ATOMIC CHARGES
----------------------
   0 C :    0.061712
   1 N :    0.001687
   2 C :   -0.030677
   3 C :   -0.044562
   4 H :    0.027165
   5 H :    0.038702
   6 S :    1.073740
   7 C :   -0.242678
   8 N :    0.196166
   9 C :    0.180405
  10 H :   -0.177765
  11 H :   -0.077617
  12 H :    0.026464
  13 H :   -0.012166
  14 H :    0.003157
  15 O :   -0.431770
  16 O :   -0.435880
  17 F :   -0.273664
  18 H :    0.034571
  19 H :    0.036922
  20 H :    0.013769
  21 H :    0.032322

  Mayer bond orders larger than 0.100000
B(  0-C ,  1-N ) :   0.9757 B(  0-C ,  2-C ) :   1.0373 B(  0-C ,  3-C ) :   0.1076
B(  0-C , 12-H ) :  -0.1836 B(  0-C , 18-H ) :   0.1461 B(  0-C , 19-H ) :   0.1403
B(  0-C , 20-H ) :   0.6452 B(  0-C , 21-H ) :   0.8006 B(  1-N ,  7-C ) :   0.9668
B(  1-N ,  8-N ) :   0.1784 B(  1-N ,  9-C ) :   0.3481 B(  1-N , 12-H ) :   1.3627
B(  1-N , 20-H ) :   0.1922 B(  1-N , 21-H ) :   0.1423 B(  2-C ,  3-C ) :   1.2234
B(  2-C ,  4-H ) :   0.1704 B(  2-C ,  5-H ) :   0.1933 B(  2-C , 18-H ) :   0.8139
B(  2-C , 19-H ) :   0.7366 B(  2-C , 20-H ) :   0.1785 B(  3-C ,  4-H ) :   0.9408
B(  3-C ,  5-H ) :   0.6593 B(  3-C ,  6-S ) :   0.9702 B(  3-C , 17-F ) :   0.1073
B(  3-C , 18-H ) :   0.1520 B(  3-C , 19-H ) :   0.1495 B(  5-H ,  6-S ) :   0.1288
B(  6-S , 15-O ) :   1.5844 B(  6-S , 16-O ) :   1.5783 B(  6-S , 17-F ) :   0.6980
B(  7-C ,  8-N ) :   0.9818 B(  7-C ,  9-C ) :   1.7482 B(  7-C , 10-H ) :  -0.1367
B(  7-C , 11-H ) :   0.4028 B(  7-C , 12-H ) :  -0.3108 B(  7-C , 20-H ) :  -0.1061
B(  8-N ,  9-C ) :   0.3552 B(  8-N , 11-H ) :   0.1130 B(  8-N , 13-H ) :   1.1639
B(  8-N , 14-H ) :   1.1363 B(  9-C , 10-H ) :  -0.3101 B(  9-C , 11-H ) :   0.5895
B( 10-H , 11-H ) :  -0.1587 B( 10-H , 17-F ) :   0.2706 B( 13-H , 14-H ) :  -0.1856
B( 15-O , 16-O ) :   0.1092 B( 20-H , 21-H ) :  -0.2209

FINAL SINGLE POINT ENERGY      -953.094603082123

DIPOLE MOMENT
-------------
                                X             Y             Z
Electronic contribution:    -12.57298      -2.61600      -2.39959
Nuclear contribution   :     14.72648       3.38697       3.27638
                        -----------------------------------------
Total Dipole Moment    :      2.15350       0.77097       0.87679
                        -----------------------------------------
Magnitude (a.u.)       :      2.44964
Magnitude (Debye)      :      6.22648

Rotational constants in cm-1:     0.059651     0.020833     0.018010
Rotational constants in MHz :  1788.283887   624.555661   539.921162

                             ****ORCA TERMINATED NORMALLY****
TOTAL RUN TIME: 0 days 0 hours 1 minutes 39 seconds 659 msec
