                         Program Version 5.0.0 -  RELEASE  -
|  1> !LC-BLYP RIJCOSX def2-TZVP def2/J TightSCF
|  2> *xyz -1 1
|  3> C          4.90646       -3.10282       -5.95484
|  4> C          3.51177       -2.80621       -6.49228
|  5> H          2.73604       -3.37345       -5.97374
|  6> H          3.44490       -3.04083       -7.55528
|  7> S          3.00462       -1.09621       -6.38926
|  8> O          4.12886       -0.32965       -6.95372
|  9> O          1.78128       -1.00078       -7.13640
| 10> O          2.85155       -0.78368       -4.95679
| 11> H          5.62703       -2.52424       -6.49422
| 12> H          5.12164       -4.14387       -6.07654
| 13> H          4.95004       -2.84862       -4.91639
| 14> *
| 15>
| 16> %MaxCore 64000
| 17>
| 18> %pal nprocs 4
| 19> end
| 20>
| 21> %scf
| 22>   MaxIter 150
| 23> end
| 24>
| 25>
| 26>                          ****END OF INPUT****

CARTESIAN COORDINATES (ANGSTROEM)
---------------------------------
  C      4.906460   -3.102820   -5.954840
  C      3.511770   -2.806210   -6.492280
  H      2.736040   -3.373450   -5.973740
  H      3.444900   -3.040830   -7.555280
  S      3.004620   -1.096210   -6.389260
  O      4.128860   -0.329650   -6.953720
  O      1.781280   -1.000780   -7.136400
  O      2.851550   -0.783680   -4.956790
  H      5.627030   -2.524240   -6.494220
  H      5.121640   -4.143870   -6.076540
  H      4.950040   -2.848620   -4.916390

 Total Charge           Charge          ....   -1
 Multiplicity           Mult            ....    1
 Number of Electrons    NEL             ....   58
 Basis Dimension        Dim             ....  222

ORBITAL ENERGIES
----------------

  NO   OCC          E(Eh)            E(eV)
   0   2.0000     -88.251691     -2401.4506
   1   2.0000     -18.713387      -509.2172
   2   2.0000     -18.701060      -508.8817
   3   2.0000     -18.700493      -508.8663
   4   2.0000      -9.929576      -270.1975
   5   2.0000      -9.921813      -269.9863
   6   2.0000      -7.793583      -212.0742
   7   2.0000      -5.821666      -158.4156
   8   2.0000      -5.820650      -158.3879
   9   2.0000      -5.820341      -158.3795
  10   2.0000      -1.013094       -27.5677
  11   2.0000      -0.876213       -23.8430
  12   2.0000      -0.856154       -23.2971
  13   2.0000      -0.742861       -20.2143
  14   2.0000      -0.616373       -16.7724
  15   2.0000      -0.482307       -13.1243
  16   2.0000      -0.424865       -11.5612
  17   2.0000      -0.415239       -11.2992
  18   2.0000      -0.376419       -10.2429
  19   2.0000      -0.359395        -9.7796
  20   2.0000      -0.350994        -9.5510
  21   2.0000      -0.328023        -8.9260
  22   2.0000      -0.309819        -8.4306
  23   2.0000      -0.247255        -6.7282
  24   2.0000      -0.246823        -6.7164
  25   2.0000      -0.209060        -5.6888
  26   2.0000      -0.200493        -5.4557
  27   2.0000      -0.195391        -5.3169
  28   2.0000      -0.154586        -4.2065
  29   0.0000       0.236493         6.4353
  30   0.0000       0.279581         7.6078
  31   0.0000       0.296428         8.0662
  32   0.0000       0.301990         8.2176
  33   0.0000       0.332033         9.0351

MULLIKEN ATOMIC CHARGES
-----------------------
   0 C :   -0.373396
   1 C :   -0.266372
   2 H :    0.098232
   3 H :    0.099148
   4 S :    0.678792
   5 O :   -0.542848
   6 O :   -0.489348
   7 O :   -0.541435
   8 H :    0.131523
   9 H :    0.081492
  10 H :    0.124213
Sum of atomic charges:   -1.0000000

LOEWDIN ATOMIC CHARGES
----------------------
   0 C :   -0.355032
   1 C :   -0.442959
   2 H :    0.122332
   3 H :    0.123660
   4 S :    0.389997
   5 O :   -0.406996
   6 O :   -0.361625
   7 O :   -0.412094
   8 H :    0.119931
   9 H :    0.103784
  10 H :    0.119002

  Mayer bond orders larger than 0.100000
B(  0-C ,  1-C ) :   0.9214 B(  0-C ,  8-H ) :   0.9717 B(  0-C ,  9-H ) :   0.9705
B(  0-C , 10-H ) :   0.9737 B(  1-C ,  2-H ) :   0.9630 B(  1-C ,  3-H ) :   0.9608
B(  1-C ,  4-S ) :   0.8887 B(  4-S ,  5-O ) :   1.7821 B(  4-S ,  6-O ) :   1.8964
B(  4-S ,  7-O ) :   1.8084

FINAL SINGLE POINT ENERGY      -702.478094592819

DIPOLE MOMENT
-------------
                                X             Y             Z
Electronic contribution:     -4.38110       6.40731      -0.66742
Nuclear contribution   :      5.05690      -8.21735       0.57889
                        -----------------------------------------
Total Dipole Moment    :      0.67580      -1.81005      -0.08853
                        -----------------------------------------
Magnitude (a.u.)       :      1.93412
Magnitude (Debye)      :      4.91614

Rotational constants in cm-1:     0.162547     0.083494     0.081672
Rotational constants in MHz :  4873.033504  2503.090885  2448.458543

                             ****ORCA TERMINATED NORMALLY****
TOTAL RUN TIME: 0 days 0 hours 0 minutes 23 seconds 390 msec
