                         Program Version 5.0.0 -  RELEASE  -
|  1> !LC-BLYP RIJCOSX def2-TZVP def2/J TightSCF
|  2> *xyz 1 1
|  3> C          4.49059        1.15590       -2.46929
|  4> N          4.30539        1.22276       -3.90832
|  5> C          4.63192        2.24637       -4.67096
|  6> N          4.54169        2.14399       -5.98714
|  7> N          5.08409        3.39358       -4.11855
|  8> H          4.92067        3.57050       -3.13587
|  9> H          5.25465        4.19739       -4.70696
| 10> H          3.82453        0.44911       -4.35093
| 11> H          4.34337        1.24932       -6.41665
| 12> H          4.67671        2.95662       -6.57411
| 13> C          5.94213        0.93950       -2.03689
| 14> H          3.86431        0.32853       -2.13661
| 15> H          4.07623        2.04999       -1.98901
| 16> H          6.32982        0.06401       -2.51451
| 17> H          5.98308        0.81426       -0.97504
| 18> H          6.52865        1.78889       -2.31873
| 19> *
| 20>
| 21> %MaxCore 64000
| 22>
| 23> %pal nprocs 4
| 24> end
| 25>
| 26> %scf
| 27>   MaxIter 150
| 28> end
| 29>
| 30>
| 31>                          ****END OF INPUT****

CARTESIAN COORDINATES (ANGSTROEM)
---------------------------------
  C      4.490590    1.155900   -2.469290
  N      4.305390    1.222760   -3.908320
  C      4.631920    2.246370   -4.670960
  N      4.541690    2.143990   -5.987140
  N      5.084090    3.393580   -4.118550
  H      4.920670    3.570500   -3.135870
  H      5.254650    4.197390   -4.706960
  H      3.824530    0.449110   -4.350930
  H      4.343370    1.249320   -6.416650
  H      4.676710    2.956620   -6.574110
  C      5.942130    0.939500   -2.036890
  H      3.864310    0.328530   -2.136610
  H      4.076230    2.049990   -1.989010
  H      6.329820    0.064010   -2.514510
  H      5.983080    0.814260   -0.975040
  H      6.528650    1.788890   -2.318730

 Total Charge           Charge          ....    1
 Multiplicity           Mult            ....    1
 Number of Electrons    NEL             ....   48
 Basis Dimension        Dim             ....  246

ORBITAL ENERGIES
----------------

  NO   OCC          E(Eh)            E(eV)
   0   2.0000     -14.393688      -391.6722
   1   2.0000     -14.392446      -391.6384
   2   2.0000     -14.389957      -391.5706
   3   2.0000     -10.406178      -283.1665
   4   2.0000     -10.274956      -279.5958
   5   2.0000     -10.200533      -277.5706
   6   2.0000      -1.317409       -35.8485
   7   2.0000      -1.207777       -32.8653
   8   2.0000      -1.191700       -32.4278
   9   2.0000      -1.038740       -28.2656
  10   2.0000      -0.950942       -25.8764
  11   2.0000      -0.907850       -24.7039
  12   2.0000      -0.892408       -24.2837
  13   2.0000      -0.847147       -23.0520
  14   2.0000      -0.794636       -21.6231
  15   2.0000      -0.790274       -21.5044
  16   2.0000      -0.765767       -20.8376
  17   2.0000      -0.731719       -19.9111
  18   2.0000      -0.707589       -19.2545
  19   2.0000      -0.660376       -17.9697
  20   2.0000      -0.630230       -17.1494
  21   2.0000      -0.609007       -16.5719
  22   2.0000      -0.575493       -15.6599
  23   2.0000      -0.547289       -14.8925
  24   0.0000      -0.088787        -2.4160
  25   0.0000      -0.082702        -2.2504
  26   0.0000      -0.055210        -1.5023
  27   0.0000      -0.046949        -1.2775
  28   0.0000      -0.022275        -0.6061

MULLIKEN ATOMIC CHARGES
-----------------------
   0 C :   -0.290862
   1 N :   -0.214578
   2 C :    0.392397
   3 N :   -0.376838
   4 N :   -0.392437
   5 H :    0.286992
   6 H :    0.274315
   7 H :    0.260555
   8 H :    0.284348
   9 H :    0.284424
  10 C :   -0.345130
  11 H :    0.183079
  12 H :    0.175190
  13 H :    0.157528
  14 H :    0.179081
  15 H :    0.141936
Sum of atomic charges:    1.0000000

LOEWDIN ATOMIC CHARGES
----------------------
   0 C :   -0.299096
   1 N :    0.174479
   2 C :   -0.408085
   3 N :    0.069838
   4 N :    0.055492
   5 H :    0.196152
   6 H :    0.196212
   7 H :    0.214118
   8 H :    0.200941
   9 H :    0.200496
  10 C :   -0.295996
  11 H :    0.156280
  12 H :    0.141754
  13 H :    0.132095
  14 H :    0.140919
  15 H :    0.124399

  Mayer bond orders larger than 0.100000
B(  0-C ,  1-N ) :   0.8693 B(  0-C , 10-C ) :   0.9159 B(  0-C , 11-H ) :   0.9559
B(  0-C , 12-H ) :   0.9851 B(  1-N ,  2-C ) :   1.3815 B(  1-N ,  7-H ) :   0.9093
B(  2-C ,  3-N ) :   1.3283 B(  2-C ,  4-N ) :   1.3040 B(  3-N ,  8-H ) :   0.9026
B(  3-N ,  9-H ) :   0.9001 B(  4-N ,  5-H ) :   0.8912 B(  4-N ,  6-H ) :   0.9066
B( 10-C , 13-H ) :   0.9604 B( 10-C , 14-H ) :   0.9680 B( 10-C , 15-H ) :   0.9644

FINAL SINGLE POINT ENERGY      -283.780626118005

DIPOLE MOMENT
-------------
                                X             Y             Z
Electronic contribution:     -1.82981       1.58409      -4.48684
Nuclear contribution   :      1.34333      -1.11039       3.43667
                        -----------------------------------------
Total Dipole Moment    :     -0.48649       0.47369      -1.05017
                        -----------------------------------------
Magnitude (a.u.)       :      1.25057
Magnitude (Debye)      :      3.17869

Rotational constants in cm-1:     0.227161     0.075356     0.065003
Rotational constants in MHz :  6810.114531  2259.122204  1948.738523

                             ****ORCA TERMINATED NORMALLY****
TOTAL RUN TIME: 0 days 0 hours 0 minutes 31 seconds 327 msec
