                         Program Version 5.0.0 -  RELEASE  -
|  1> !LC-BLYP RIJCOSX def2-TZVP def2/J TightSCF xyzfile
|  2>
|  3> *xyzfile 0 1 B.xyz
|  4>
|  5> %MaxCore 64000
|  6>
|  7> %pal nprocs 18
|  8> end
|  9>
| 10> %scf
| 11>   MaxIter 150
| 12> end
| 13>
| 14>
| 15>                          ****END OF INPUT****

CARTESIAN COORDINATES (ANGSTROEM)
---------------------------------
  C      4.490588    1.155899   -2.469290
  N      4.305394    1.222762   -3.908317
  C      4.906458   -3.102816   -5.954844
  C      3.511771   -2.806215   -6.492283
  H      2.736044   -3.373445   -5.973736
  H      3.444904   -3.040831   -7.555281
  S      3.004618   -1.096206   -6.389259
  C      4.631918    2.246365   -4.670958
  N      4.541686    2.143990   -5.987139
  N      5.084086    3.393584   -4.118545
  H      4.920675    3.570501   -3.135870
  H      5.254652    4.197390   -4.706956
  H      3.824530    0.449113   -4.350926
  H      4.343373    1.249318   -6.416646
  H      4.676712    2.956624   -6.574113
  O      4.128856   -0.329647   -6.953717
  O      1.781285   -1.000779   -7.136399
  C      5.942129    0.939500   -2.036893
  H      3.864305    0.328532   -2.136611
  H      4.076233    2.049994   -1.989010
  C      6.462677   -3.117775   -3.944671
  C      5.024977   -3.025679   -4.437625
  H      4.423321   -3.818693   -3.977648
  H      4.579350   -2.087131   -4.108727
  H      5.201533   -4.100207   -6.296905
  H      5.605922   -2.397822   -6.413368
  C      6.559957   -0.356290   -2.559086
  H      5.967976    0.952567   -0.942444
  H      6.547184    1.788331   -2.368849
  C      6.006283   -1.615917   -1.899301
  H      7.642360   -0.318000   -2.402059
  H      6.414855   -0.403433   -3.642587
  C      6.608718   -2.917014   -2.435655
  H      6.190324   -1.561115   -0.820948
  H      4.919250   -1.651245   -2.016586
  H      7.066975   -2.374258   -4.475514
  H      6.887808   -4.089747   -4.215332
  H      6.135197   -3.755573   -1.915159
  H      7.671142   -2.955503   -2.172291
  O      2.851546   -0.783683   -4.956789

 Total Charge           Charge          ....    0
 Multiplicity           Mult            ....    1
 Number of Electrons    NEL             ....  144
 Basis Dimension        Dim             ....  671

ORBITAL ENERGIES
----------------

  NO   OCC          E(Eh)            E(eV)
   0   2.0000     -88.412426     -2405.8244
   1   2.0000     -18.876339      -513.6513
   2   2.0000     -18.876002      -513.6421
   3   2.0000     -18.861473      -513.2468
   4   2.0000     -14.244861      -387.6224
   5   2.0000     -14.213668      -386.7736
   6   2.0000     -14.210245      -386.6804
   7   2.0000     -10.241720      -278.6914
   8   2.0000     -10.133484      -275.7461
   9   2.0000     -10.087895      -274.5056
  10   2.0000     -10.071115      -274.0490
  11   2.0000     -10.064243      -273.8620
  12   2.0000     -10.059296      -273.7274
  13   2.0000     -10.059236      -273.7257
  14   2.0000     -10.052179      -273.5337
  15   2.0000     -10.050363      -273.4843
  16   2.0000     -10.042708      -273.2760
  17   2.0000      -7.955101      -216.4693
  18   2.0000      -5.983171      -162.8104
  19   2.0000      -5.982389      -162.7891
  20   2.0000      -5.981422      -162.7628
  21   2.0000      -1.179184       -32.0872
  22   2.0000      -1.153699       -31.3938
  23   2.0000      -1.047439       -28.5023
  24   2.0000      -1.039547       -28.2875
  25   2.0000      -1.033785       -28.1307
  26   2.0000      -1.027366       -27.9561
  27   2.0000      -0.934544       -25.4302
  28   2.0000      -0.908406       -24.7190
  29   2.0000      -0.881541       -23.9880
  30   2.0000      -0.843946       -22.9649
  31   2.0000      -0.808371       -21.9969
  32   2.0000      -0.783235       -21.3129
  33   2.0000      -0.755102       -20.5474
  34   2.0000      -0.735065       -20.0021
  35   2.0000      -0.722863       -19.6701
  36   2.0000      -0.701974       -19.1017
  37   2.0000      -0.682516       -18.5722
  38   2.0000      -0.658114       -17.9082
  39   2.0000      -0.649499       -17.6738
  40   2.0000      -0.641944       -17.4682
  41   2.0000      -0.621074       -16.9003
  42   2.0000      -0.607320       -16.5260
  43   2.0000      -0.591525       -16.0962
  44   2.0000      -0.586892       -15.9701
  45   2.0000      -0.572978       -15.5915
  46   2.0000      -0.564978       -15.3738
  47   2.0000      -0.555959       -15.1284
  48   2.0000      -0.537440       -14.6245
  49   2.0000      -0.535045       -14.5593
  50   2.0000      -0.527782       -14.3617
  51   2.0000      -0.518195       -14.1008
  52   2.0000      -0.508400       -13.8343
  53   2.0000      -0.498850       -13.5744
  54   2.0000      -0.488853       -13.3024
  55   2.0000      -0.480505       -13.0752
  56   2.0000      -0.463809       -12.6209
  57   2.0000      -0.456722       -12.4280
  58   2.0000      -0.447202       -12.1690
  59   2.0000      -0.431739       -11.7482
  60   2.0000      -0.424176       -11.5424
  61   2.0000      -0.420715       -11.4482
  62   2.0000      -0.415875       -11.3165
  63   2.0000      -0.410887       -11.1808
  64   2.0000      -0.408149       -11.1063
  65   2.0000      -0.403908       -10.9909
  66   2.0000      -0.398606       -10.8466
  67   2.0000      -0.382558       -10.4099
  68   2.0000      -0.369301       -10.0492
  69   2.0000      -0.360259        -9.8032
  70   2.0000      -0.351585        -9.5671
  71   2.0000      -0.324594        -8.8326
  72   0.0000       0.045586         1.2405
  73   0.0000       0.070055         1.9063
  74   0.0000       0.082219         2.2373
  75   0.0000       0.101295         2.7564
  76   0.0000       0.109262         2.9732

MULLIKEN ATOMIC CHARGES
-----------------------
   0 C :   -0.370544
   1 N :   -0.176571
   2 C :   -0.249243
   3 C :   -0.279309
   4 H :    0.144892
   5 H :    0.156420
   6 S :    0.745908
   7 C :    0.357015
   8 N :   -0.367617
   9 N :   -0.428343
  10 H :    0.263128
  11 H :    0.246541
  12 H :    0.255433
  13 H :    0.286080
  14 H :    0.234655
  15 O :   -0.561684
  16 O :   -0.427899
  17 C :   -0.205015
  18 H :    0.204618
  19 H :    0.160339
  20 C :   -0.289650
  21 C :   -0.261753
  22 H :    0.117661
  23 H :    0.128560
  24 H :    0.122653
  25 H :    0.146655
  26 C :   -0.256330
  27 H :    0.137002
  28 H :    0.137153
  29 C :   -0.312821
  30 H :    0.134899
  31 H :    0.157284
  32 C :   -0.216800
  33 H :    0.127290
  34 H :    0.152314
  35 H :    0.140492
  36 H :    0.128199
  37 H :    0.131272
  38 H :    0.127285
  39 O :   -0.540168
Sum of atomic charges:    0.0000000

LOEWDIN ATOMIC CHARGES
----------------------
   0 C :   -0.286017
   1 N :    0.180638
   2 C :   -0.299166
   3 C :   -0.387890
   4 H :    0.140100
   5 H :    0.142137
   6 S :    0.433678
   7 C :   -0.426121
   8 N :    0.063385
   9 N :    0.016297
  10 H :    0.182538
  11 H :    0.180983
  12 H :    0.172480
  13 H :    0.155126
  14 H :    0.179611
  15 O :   -0.363891
  16 O :   -0.308922
  17 C :   -0.280346
  18 H :    0.154455
  19 H :    0.132129
  20 C :   -0.282188
  21 C :   -0.283197
  22 H :    0.139757
  23 H :    0.139235
  24 H :    0.140562
  25 H :    0.145008
  26 C :   -0.275013
  27 H :    0.146772
  28 H :    0.138427
  29 C :   -0.280894
  30 H :    0.143801
  31 H :    0.146279
  32 C :   -0.276948
  33 H :    0.139707
  34 H :    0.140082
  35 H :    0.138307
  36 H :    0.139739
  37 H :    0.141877
  38 H :    0.139338
  39 O :   -0.361856

  Mayer bond orders larger than 0.100000
B(  0-C ,  1-N ) :   0.8837 B(  0-C , 17-C ) :   0.8672 B(  0-C , 18-H ) :   0.9793
B(  0-C , 19-H ) :   1.0010 B(  1-N ,  7-C ) :   1.4161 B(  1-N , 12-H ) :   0.7905
B(  2-C ,  3-C ) :   0.9247 B(  2-C , 21-C ) :   0.9227 B(  2-C , 24-H ) :   0.9702
B(  2-C , 25-H ) :   0.9705 B(  3-C ,  4-H ) :   0.9602 B(  3-C ,  5-H ) :   0.9686
B(  3-C ,  6-S ) :   0.9118 B(  6-S , 15-O ) :   1.5688 B(  6-S , 16-O ) :   2.0046
B(  6-S , 39-O ) :   1.5779 B(  7-C ,  8-N ) :   1.3931 B(  7-C ,  9-N ) :   1.2275
B(  8-N , 13-H ) :   0.7818 B(  8-N , 14-H ) :   0.9222 B(  9-N , 10-H ) :   0.9055
B(  9-N , 11-H ) :   0.9207 B( 12-H , 39-O ) :   0.2101 B( 13-H , 15-O ) :   0.1954
B( 17-C , 26-C ) :   0.9269 B( 17-C , 27-H ) :   0.9807 B( 17-C , 28-H ) :   0.9881
B( 20-C , 21-C ) :   0.8846 B( 20-C , 32-C ) :   0.9271 B( 20-C , 35-H ) :   0.9934
B( 20-C , 36-H ) :   0.9846 B( 21-C , 22-H ) :   0.9721 B( 21-C , 23-H ) :   0.9770
B( 26-C , 29-C ) :   0.8813 B( 26-C , 30-H ) :   0.9804 B( 26-C , 31-H ) :   0.9752
B( 29-C , 32-C ) :   0.9339 B( 29-C , 33-H ) :   0.9795 B( 29-C , 34-H ) :   0.9877
B( 32-C , 37-H ) :   0.9910 B( 32-C , 38-H ) :   0.9919

FINAL SINGLE POINT ENERGY     -1181.302827203280

DIPOLE MOMENT
-------------
                                X             Y             Z
Electronic contribution:    -14.53193       8.38552     -15.34160
Nuclear contribution   :     16.79156      -5.47215      17.54258
                        -----------------------------------------
Total Dipole Moment    :      2.25963       2.91337       2.20098
                        -----------------------------------------
Magnitude (a.u.)       :      4.29395
Magnitude (Debye)      :     10.91435

Rotational constants in cm-1:     0.014207     0.012373     0.007472
Rotational constants in MHz :   425.900436   370.942493   224.006604

                             ****ORCA TERMINATED NORMALLY****
TOTAL RUN TIME: 0 days 0 hours 2 minutes 15 seconds 366 msec
