                         Program Version 5.0.0 -  RELEASE  -
|  1> !LC-BLYP RIJCOSX def2-TZVP def2/J TightSCF
|  2> *xyz 0 1
|  3> C          4.90646       -3.10282       -5.95484
|  4> C          3.51177       -2.80621       -6.49228
|  5> H          2.73604       -3.37345       -5.97374
|  6> H          3.44490       -3.04083       -7.55528
|  7> S          3.00462       -1.09621       -6.38926
|  8> F          4.12886       -0.32965       -6.95372
|  9> O          1.78128       -1.00078       -7.13640
| 10> O          2.85155       -0.78368       -4.95679
| 11> H          5.62703       -2.52424       -6.49422
| 12> H          5.12164       -4.14387       -6.07654
| 13> H          4.95004       -2.84862       -4.91639
| 14> *
| 15>
| 16> %MaxCore 64000
| 17>
| 18> %pal nprocs 4
| 19> end
| 20>
| 21> %scf
| 22>   MaxIter 150
| 23> end
| 24>
| 25>
| 26>                          ****END OF INPUT****

CARTESIAN COORDINATES (ANGSTROEM)
---------------------------------
  C      4.906460   -3.102820   -5.954840
  C      3.511770   -2.806210   -6.492280
  H      2.736040   -3.373450   -5.973740
  H      3.444900   -3.040830   -7.555280
  S      3.004620   -1.096210   -6.389260
  F      4.128860   -0.329650   -6.953720
  O      1.781280   -1.000780   -7.136400
  O      2.851550   -0.783680   -4.956790
  H      5.627030   -2.524240   -6.494220
  H      5.121640   -4.143870   -6.076540
  H      4.950040   -2.848620   -4.916390

 Total Charge           Charge          ....    0
 Multiplicity           Mult            ....    1
 Number of Electrons    NEL             ....   58
 Basis Dimension        Dim             ....  222

ORBITAL ENERGIES
----------------

  NO   OCC          E(Eh)            E(eV)
   0   2.0000     -88.516324     -2408.6516
   1   2.0000     -24.560164      -668.3160
   2   2.0000     -18.952827      -515.7326
   3   2.0000     -18.940546      -515.3985
   4   2.0000     -10.133640      -275.7504
   5   2.0000     -10.092087      -274.6196
   6   2.0000      -8.058856      -219.2926
   7   2.0000      -6.090790      -165.7388
   8   2.0000      -6.083616      -165.5436
   9   2.0000      -6.083415      -165.5381
  10   2.0000      -1.440547       -39.1993
  11   2.0000      -1.204144       -32.7664
  12   2.0000      -1.104212       -30.0471
  13   2.0000      -0.940326       -25.5876
  14   2.0000      -0.831944       -22.6383
  15   2.0000      -0.784341       -21.3430
  16   2.0000      -0.692267       -18.8376
  17   2.0000      -0.673158       -18.3176
  18   2.0000      -0.648801       -17.6548
  19   2.0000      -0.603955       -16.4344
  20   2.0000      -0.580506       -15.7964
  21   2.0000      -0.557725       -15.1765
  22   2.0000      -0.539200       -14.6724
  23   2.0000      -0.514713       -14.0061
  24   2.0000      -0.502122       -13.6634
  25   2.0000      -0.483581       -13.1589
  26   2.0000      -0.437788       -11.9128
  27   2.0000      -0.426856       -11.6153
  28   2.0000      -0.411308       -11.1923
  29   0.0000       0.078036         2.1235
  30   0.0000       0.119518         3.2522
  31   0.0000       0.129896         3.5347
  32   0.0000       0.138492         3.7686
  33   0.0000       0.147229         4.0063

MULLIKEN ATOMIC CHARGES
-----------------------
   0 C :   -0.402428
   1 C :   -0.287222
   2 H :    0.183269
   3 H :    0.167244
   4 S :    0.740627
   5 F :   -0.097900
   6 O :   -0.355559
   7 O :   -0.406085
   8 H :    0.142919
   9 H :    0.149069
  10 H :    0.166065
Sum of atomic charges:    0.0000000

LOEWDIN ATOMIC CHARGES
----------------------
   0 C :   -0.328221
   1 C :   -0.403901
   2 H :    0.155539
   3 H :    0.145033
   4 S :    0.513432
   5 F :    0.075301
   6 O :   -0.247898
   7 O :   -0.295898
   8 H :    0.124501
   9 H :    0.130486
  10 H :    0.131624

  Mayer bond orders larger than 0.100000
B(  0-C ,  1-C ) :   0.9187 B(  0-C ,  8-H ) :   0.9684 B(  0-C ,  9-H ) :   0.9650
B(  0-C , 10-H ) :   0.9630 B(  1-C ,  2-H ) :   0.9390 B(  1-C ,  3-H ) :   0.9408
B(  1-C ,  4-S ) :   0.9146 B(  4-S ,  5-F ) :   1.1372 B(  4-S ,  6-O ) :   2.0090
B(  4-S ,  7-O ) :   1.9339

FINAL SINGLE POINT ENERGY      -726.996263274085

DIPOLE MOMENT
-------------
                                X             Y             Z
Electronic contribution:     -2.98343       8.18305      -1.75914
Nuclear contribution   :      4.18919      -9.36357       1.23251
                        -----------------------------------------
Total Dipole Moment    :      1.20576      -1.18052      -0.52663
                        -----------------------------------------
Magnitude (a.u.)       :      1.76772
Magnitude (Debye)      :      4.49318

Rotational constants in cm-1:     0.153152     0.082513     0.079874
Rotational constants in MHz :  4591.373714  2473.673397  2394.575279

                             ****ORCA TERMINATED NORMALLY****
TOTAL RUN TIME: 0 days 0 hours 0 minutes 23 seconds 273 msec
