                         Program Version 5.0.0 -  RELEASE  -
|  1> !LC-BLYP RIJCOSX def2-TZVP def2/J TightSCF
|  2> *xyz 0 1
|  3> C          4.49059        1.15590       -2.46929
|  4> C          4.30539        1.22276       -3.90832
|  5> C          4.63192        2.24637       -4.67096
|  6> N          4.54169        2.14399       -5.98714
|  7> N          5.08409        3.39358       -4.11855
|  8> H          4.92067        3.57050       -3.13587
|  9> H          5.25465        4.19739       -4.70696
| 10> H          3.82453        0.44911       -4.35093
| 11> H          4.34337        1.24932       -6.41665
| 12> H          4.67671        2.95662       -6.57411
| 13> C          5.94213        0.93950       -2.03689
| 14> H          3.86431        0.32853       -2.13661
| 15> H          4.07623        2.04999       -1.98901
| 16> H          6.32982        0.06401       -2.51451
| 17> H          5.98308        0.81426       -0.97504
| 18> H          6.52865        1.78889       -2.31873
| 19> *
| 20>
| 21> %MaxCore 64000
| 22>
| 23> %pal nprocs 4
| 24> end
| 25>
| 26> %scf
| 27>   MaxIter 150
| 28> end
| 29>
| 30>
| 31>                          ****END OF INPUT****

CARTESIAN COORDINATES (ANGSTROEM)
---------------------------------
  C      4.490590    1.155900   -2.469290
  C      4.305390    1.222760   -3.908320
  C      4.631920    2.246370   -4.670960
  N      4.541690    2.143990   -5.987140
  N      5.084090    3.393580   -4.118550
  H      4.920670    3.570500   -3.135870
  H      5.254650    4.197390   -4.706960
  H      3.824530    0.449110   -4.350930
  H      4.343370    1.249320   -6.416650
  H      4.676710    2.956620   -6.574110
  C      5.942130    0.939500   -2.036890
  H      3.864310    0.328530   -2.136610
  H      4.076230    2.049990   -1.989010
  H      6.329820    0.064010   -2.514510
  H      5.983080    0.814260   -0.975040
  H      6.528650    1.788890   -2.318730

 Total Charge           Charge          ....    0
 Multiplicity           Mult            ....    1
 Number of Electrons    NEL             ....   48
 Basis Dimension        Dim             ....  246

ORBITAL ENERGIES
----------------

  NO   OCC          E(Eh)            E(eV)
   0   2.0000     -14.167724      -385.5234
   1   2.0000     -14.164989      -385.4489
   2   2.0000     -10.110896      -275.1315
   3   2.0000     -10.039464      -273.1877
   4   2.0000     -10.027414      -272.8598
   5   2.0000      -9.985531      -271.7201
   6   2.0000      -1.059645       -28.8344
   7   2.0000      -0.969186       -26.3729
   8   2.0000      -0.878893       -23.9159
   9   2.0000      -0.799551       -21.7569
  10   2.0000      -0.722901       -19.6711
  11   2.0000      -0.681800       -18.5527
  12   2.0000      -0.645349       -17.5608
  13   2.0000      -0.610922       -16.6240
  14   2.0000      -0.573662       -15.6101
  15   2.0000      -0.538693       -14.6586
  16   2.0000      -0.525779       -14.3072
  17   2.0000      -0.490735       -13.3536
  18   2.0000      -0.487784       -13.2733
  19   2.0000      -0.449027       -12.2187
  20   2.0000      -0.424150       -11.5417
  21   2.0000      -0.411329       -11.1928
  22   2.0000      -0.363216        -9.8836
  23   2.0000      -0.251425        -6.8416
  24   0.0000       0.083758         2.2792
  25   0.0000       0.114092         3.1046
  26   0.0000       0.126891         3.4529
  27   0.0000       0.147042         4.0012
  28   0.0000       0.151546         4.1238

MULLIKEN ATOMIC CHARGES
-----------------------
   0 C :   -0.328069
   1 C :   -0.342891
   2 C :    0.338972
   3 N :   -0.440264
   4 N :   -0.459373
   5 H :    0.241590
   6 H :    0.209640
   7 H :    0.103930
   8 H :    0.239273
   9 H :    0.210720
  10 C :   -0.329876
  11 H :    0.110417
  12 H :    0.096295
  13 H :    0.120489
  14 H :    0.114456
  15 H :    0.114689
Sum of atomic charges:   -0.0000000

LOEWDIN ATOMIC CHARGES
----------------------
   0 C :   -0.318002
   1 C :   -0.291753
   2 C :   -0.456508
   3 N :   -0.012697
   4 N :   -0.022362
   5 H :    0.174402
   6 H :    0.161175
   7 H :    0.122880
   8 H :    0.179194
   9 H :    0.162324
  10 C :   -0.316831
  11 H :    0.143940
  12 H :    0.127321
  13 H :    0.118921
  14 H :    0.112544
  15 H :    0.115450

  Mayer bond orders larger than 0.100000
B(  0-C ,  1-C ) :   0.9788 B(  0-C , 10-C ) :   0.9161 B(  0-C , 11-H ) :   0.9956
B(  0-C , 12-H ) :   0.9915 B(  1-C ,  2-C ) :   1.6323 B(  1-C ,  7-H ) :   0.9922
B(  2-C ,  3-N ) :   1.1346 B(  2-C ,  4-N ) :   1.1169 B(  3-N ,  8-H ) :   0.9286
B(  3-N ,  9-H ) :   0.9333 B(  4-N ,  5-H ) :   0.9196 B(  4-N ,  6-H ) :   0.9376
B( 10-C , 13-H ) :   0.9794 B( 10-C , 14-H ) :   0.9857 B( 10-C , 15-H ) :   0.9755

FINAL SINGLE POINT ENERGY      -267.300139215139

DIPOLE MOMENT
-------------
                                X             Y             Z
Electronic contribution:     -1.26259       2.03161      -4.17325
Nuclear contribution   :      1.23062      -1.24683       3.43056
                        -----------------------------------------
Total Dipole Moment    :     -0.03198       0.78478      -0.74268
                        -----------------------------------------
Magnitude (a.u.)       :      1.08096
Magnitude (Debye)      :      2.74759

Rotational constants in cm-1:     0.231477     0.075416     0.065327
Rotational constants in MHz :  6939.497385  2260.912204  1958.442932

                             ****ORCA TERMINATED NORMALLY****
TOTAL RUN TIME: 0 days 0 hours 0 minutes 31 seconds 718 msec
