                         Program Version 5.0.0 -  RELEASE  -
|  1> !LC-BLYP RIJCOSX def2-TZVP def2/J TightSCF
|  2> *xyz 0 1
|  3> C          4.90646       -3.10282       -5.95484
|  4> C          3.51177       -2.80621       -6.49228
|  5> H          2.73604       -3.37345       -5.97374
|  6> H          3.44490       -3.04083       -7.55528
|  7> S          3.00462       -1.09621       -6.38926
|  8> O          4.12886       -0.32965       -6.95372
|  9> F          1.78128       -1.00078       -7.13640
| 10> O          2.85155       -0.78368       -4.95679
| 11> H          5.62703       -2.52424       -6.49422
| 12> H          5.12164       -4.14387       -6.07654
| 13> H          4.95004       -2.84862       -4.91639
| 14> *
| 15>
| 16> %MaxCore 64000
| 17>
| 18> %pal nprocs 4
| 19> end
| 20>
| 21> %scf
| 22>   MaxIter 150
| 23> end
| 24>
| 25>
| 26>                          ****END OF INPUT****

CARTESIAN COORDINATES (ANGSTROEM)
---------------------------------
  C      4.906460   -3.102820   -5.954840
  C      3.511770   -2.806210   -6.492280
  H      2.736040   -3.373450   -5.973740
  H      3.444900   -3.040830   -7.555280
  S      3.004620   -1.096210   -6.389260
  O      4.128860   -0.329650   -6.953720
  F      1.781280   -1.000780   -7.136400
  O      2.851550   -0.783680   -4.956790
  H      5.627030   -2.524240   -6.494220
  H      5.121640   -4.143870   -6.076540
  H      4.950040   -2.848620   -4.916390

 Total Charge           Charge          ....    0
 Multiplicity           Mult            ....    1
 Number of Electrons    NEL             ....   58
 Basis Dimension        Dim             ....  222

ORBITAL ENERGIES
----------------

  NO   OCC          E(Eh)            E(eV)
   0   2.0000     -88.518367     -2408.7072
   1   2.0000     -24.579109      -668.8316
   2   2.0000     -18.940592      -515.3997
   3   2.0000     -18.940530      -515.3980
   4   2.0000     -10.134372      -275.7703
   5   2.0000     -10.087022      -274.4818
   6   2.0000      -8.060869      -219.3474
   7   2.0000      -6.092563      -165.7871
   8   2.0000      -6.085649      -165.5989
   9   2.0000      -6.085505      -165.5950
  10   2.0000      -1.470804       -40.0226
  11   2.0000      -1.191256       -32.4157
  12   2.0000      -1.090925       -29.6856
  13   2.0000      -0.936954       -25.4958
  14   2.0000      -0.845938       -23.0191
  15   2.0000      -0.785814       -21.3831
  16   2.0000      -0.695689       -18.9307
  17   2.0000      -0.695048       -18.9132
  18   2.0000      -0.660247       -17.9662
  19   2.0000      -0.605000       -16.4629
  20   2.0000      -0.583800       -15.8860
  21   2.0000      -0.539327       -14.6758
  22   2.0000      -0.534345       -14.5403
  23   2.0000      -0.511613       -13.9217
  24   2.0000      -0.489640       -13.3238
  25   2.0000      -0.482848       -13.1390
  26   2.0000      -0.426026       -11.5927
  27   2.0000      -0.425091       -11.5673
  28   2.0000      -0.399833       -10.8800
  29   0.0000       0.088327         2.4035
  30   0.0000       0.106865         2.9080
  31   0.0000       0.131742         3.5849
  32   0.0000       0.135043         3.6747
  33   0.0000       0.151243         4.1155

MULLIKEN ATOMIC CHARGES
-----------------------
   0 C :   -0.398888
   1 C :   -0.274524
   2 H :    0.163607
   3 H :    0.156453
   4 S :    0.743016
   5 O :   -0.401092
   6 F :   -0.063157
   7 O :   -0.399166
   8 H :    0.165257
   9 H :    0.145926
  10 H :    0.162566
Sum of atomic charges:    0.0000000

LOEWDIN ATOMIC CHARGES
----------------------
   0 C :   -0.314367
   1 C :   -0.410169
   2 H :    0.143259
   3 H :    0.141947
   4 S :    0.507252
   5 O :   -0.289598
   6 F :    0.119064
   7 O :   -0.293089
   8 H :    0.132835
   9 H :    0.129923
  10 H :    0.132943

  Mayer bond orders larger than 0.100000
B(  0-C ,  1-C ) :   0.9367 B(  0-C ,  8-H ) :   0.9638 B(  0-C ,  9-H ) :   0.9617
B(  0-C , 10-H ) :   0.9651 B(  1-C ,  2-H ) :   0.9355 B(  1-C ,  3-H ) :   0.9343
B(  1-C ,  4-S ) :   0.9222 B(  4-S ,  5-O ) :   1.9212 B(  4-S ,  6-F ) :   1.1909
B(  4-S ,  7-O ) :   1.9382

FINAL SINGLE POINT ENERGY      -726.980914245055

DIPOLE MOMENT
-------------
                                X             Y             Z
Electronic contribution:     -6.98640       7.06327      -2.07046
Nuclear contribution   :      6.63544      -8.66423       1.42287
                        -----------------------------------------
Total Dipole Moment    :     -0.35095      -1.60096      -0.64759
                        -----------------------------------------
Magnitude (a.u.)       :      1.76227
Magnitude (Debye)      :      4.47934

Rotational constants in cm-1:     0.158118     0.080978     0.078216
Rotational constants in MHz :  4740.271775  2427.649826  2344.849020

                             ****ORCA TERMINATED NORMALLY****
TOTAL RUN TIME: 0 days 0 hours 0 minutes 23 seconds 175 msec
