                         Program Version 5.0.0 -  RELEASE  -
|  1> !LC-BLYP RIJCOSX def2-TZVP def2/J TightSCF
|  2> *xyz 0 1
|  3> C          4.49059        1.15590       -2.46929
|  4> N          4.30539        1.22276       -3.90832
|  5> C          4.63192        2.24637       -4.67096
|  6> C          4.54169        2.14399       -5.98714
|  7> N          5.08409        3.39358       -4.11855
|  8> H          4.92067        3.57050       -3.13587
|  9> H          5.25465        4.19739       -4.70696
| 10> H          3.82453        0.44911       -4.35093
| 11> H          4.34337        1.24932       -6.41665
| 12> H          4.67671        2.95662       -6.57411
| 13> C          5.94213        0.93950       -2.03689
| 14> H          3.86431        0.32853       -2.13661
| 15> H          4.07623        2.04999       -1.98901
| 16> H          6.32982        0.06401       -2.51451
| 17> H          5.98308        0.81426       -0.97504
| 18> H          6.52865        1.78889       -2.31873
| 19> *
| 20>
| 21> %MaxCore 64000
| 22>
| 23> %pal nprocs 4
| 24> end
| 25>
| 26> %scf
| 27>   MaxIter 150
| 28> end
| 29>
| 30>
| 31>                          ****END OF INPUT****

CARTESIAN COORDINATES (ANGSTROEM)
---------------------------------
  C      4.490590    1.155900   -2.469290
  N      4.305390    1.222760   -3.908320
  C      4.631920    2.246370   -4.670960
  C      4.541690    2.143990   -5.987140
  N      5.084090    3.393580   -4.118550
  H      4.920670    3.570500   -3.135870
  H      5.254650    4.197390   -4.706960
  H      3.824530    0.449110   -4.350930
  H      4.343370    1.249320   -6.416650
  H      4.676710    2.956620   -6.574110
  C      5.942130    0.939500   -2.036890
  H      3.864310    0.328530   -2.136610
  H      4.076230    2.049990   -1.989010
  H      6.329820    0.064010   -2.514510
  H      5.983080    0.814260   -0.975040
  H      6.528650    1.788890   -2.318730

 Total Charge           Charge          ....    0
 Multiplicity           Mult            ....    1
 Number of Electrons    NEL             ....   48
 Basis Dimension        Dim             ....  246

ORBITAL ENERGIES
----------------

  NO   OCC          E(Eh)            E(eV)
   0   2.0000     -14.168343      -385.5402
   1   2.0000     -14.166359      -385.4862
   2   2.0000     -10.114015      -275.2163
   3   2.0000     -10.108488      -275.0659
   4   2.0000     -10.054557      -273.5984
   5   2.0000      -9.976166      -271.4653
   6   2.0000      -1.069019       -29.0895
   7   2.0000      -0.981964       -26.7206
   8   2.0000      -0.879260       -23.9259
   9   2.0000      -0.807963       -21.9858
  10   2.0000      -0.737702       -20.0739
  11   2.0000      -0.702794       -19.1240
  12   2.0000      -0.640329       -17.4242
  13   2.0000      -0.602643       -16.3987
  14   2.0000      -0.580530       -15.7970
  15   2.0000      -0.552275       -15.0282
  16   2.0000      -0.527820       -14.3627
  17   2.0000      -0.504459       -13.7270
  18   2.0000      -0.481540       -13.1034
  19   2.0000      -0.473559       -12.8862
  20   2.0000      -0.459755       -12.5106
  21   2.0000      -0.451454       -12.2847
  22   2.0000      -0.352524        -9.5927
  23   2.0000      -0.255341        -6.9482
  24   0.0000       0.085541         2.3277
  25   0.0000       0.111485         3.0337
  26   0.0000       0.124100         3.3769
  27   0.0000       0.137591         3.7441
  28   0.0000       0.159360         4.3364

MULLIKEN ATOMIC CHARGES
-----------------------
   0 C :   -0.264380
   1 N :   -0.268699
   2 C :    0.400548
   3 C :   -0.601307
   4 N :   -0.468531
   5 H :    0.222346
   6 H :    0.234002
   7 H :    0.221119
   8 H :    0.101822
   9 H :    0.095801
  10 C :   -0.312018
  11 H :    0.131793
  12 H :    0.128612
  13 H :    0.126289
  14 H :    0.123537
  15 H :    0.129066
Sum of atomic charges:   -0.0000000

LOEWDIN ATOMIC CHARGES
----------------------
   0 C :   -0.330342
   1 N :    0.122183
   2 C :   -0.460309
   3 C :   -0.349841
   4 N :   -0.020259
   5 H :    0.161271
   6 H :    0.176161
   7 H :    0.196352
   8 H :    0.099409
   9 H :    0.098690
  10 C :   -0.317612
  11 H :    0.136858
  12 H :    0.125364
  13 H :    0.121766
  14 H :    0.120094
  15 H :    0.120215

  Mayer bond orders larger than 0.100000
B(  0-C ,  1-N ) :   0.9617 B(  0-C , 10-C ) :   0.9025 B(  0-C , 11-H ) :   0.9795
B(  0-C , 12-H ) :   0.9959 B(  1-N ,  2-C ) :   1.1733 B(  1-N ,  7-H ) :   0.9358
B(  2-C ,  3-C ) :   1.5728 B(  2-C ,  4-N ) :   1.1056 B(  3-C ,  8-H ) :   1.0212
B(  3-C ,  9-H ) :   1.0097 B(  4-N ,  5-H ) :   0.9270 B(  4-N ,  6-H ) :   0.9323
B( 10-C , 13-H ) :   0.9710 B( 10-C , 14-H ) :   0.9729 B( 10-C , 15-H ) :   0.9695

FINAL SINGLE POINT ENERGY      -267.293112537529

DIPOLE MOMENT
-------------
                                X             Y             Z
Electronic contribution:     -1.43267       1.09305      -1.92155
Nuclear contribution   :      1.28075      -1.05140       2.98955
                        -----------------------------------------
Total Dipole Moment    :     -0.15192       0.04165       1.06800
                        -----------------------------------------
Magnitude (a.u.)       :      1.07955
Magnitude (Debye)      :      2.74401

Rotational constants in cm-1:     0.229858     0.078444     0.067377
Rotational constants in MHz :  6890.979812  2351.691803  2019.910665

                             ****ORCA TERMINATED NORMALLY****
TOTAL RUN TIME: 0 days 0 hours 0 minutes 33 seconds 22 msec
