                         Program Version 5.0.0 -  RELEASE  -
|  1> !LC-BLYP RIJCOSX def2-TZVP def2/J TightSCF
|  2> *xyz 0 1
|  3> C          4.90646       -3.10282       -5.95484
|  4> C          3.51177       -2.80621       -6.49228
|  5> H          2.73604       -3.37345       -5.97374
|  6> H          3.44490       -3.04083       -7.55528
|  7> S          3.00462       -1.09621       -6.38926
|  8> O          4.12886       -0.32965       -6.95372
|  9> O          1.78128       -1.00078       -7.13640
| 10> F          2.85155       -0.78368       -4.95679
| 11> H          5.62703       -2.52424       -6.49422
| 12> H          5.12164       -4.14387       -6.07654
| 13> H          4.95004       -2.84862       -4.91639
| 14> *
| 15>
| 16> %MaxCore 64000
| 17>
| 18> %pal nprocs 4
| 19> end
| 20>
| 21> %scf
| 22>   MaxIter 150
| 23> end
| 24>
| 25>
| 26>                          ****END OF INPUT****

CARTESIAN COORDINATES (ANGSTROEM)
---------------------------------
  C      4.906460   -3.102820   -5.954840
  C      3.511770   -2.806210   -6.492280
  H      2.736040   -3.373450   -5.973740
  H      3.444900   -3.040830   -7.555280
  S      3.004620   -1.096210   -6.389260
  O      4.128860   -0.329650   -6.953720
  O      1.781280   -1.000780   -7.136400
  F      2.851550   -0.783680   -4.956790
  H      5.627030   -2.524240   -6.494220
  H      5.121640   -4.143870   -6.076540
  H      4.950040   -2.848620   -4.916390

 Total Charge           Charge          ....    0
 Multiplicity           Mult            ....    1
 Number of Electrons    NEL             ....   58
 Basis Dimension        Dim             ....  222

ORBITAL ENERGIES
----------------

  NO   OCC          E(Eh)            E(eV)
   0   2.0000     -88.516444     -2408.6549
   1   2.0000     -24.559882      -668.3084
   2   2.0000     -18.953072      -515.7393
   3   2.0000     -18.941004      -515.4109
   4   2.0000     -10.133476      -275.7459
   5   2.0000     -10.088895      -274.5328
   6   2.0000      -8.058969      -219.2957
   7   2.0000      -6.090857      -165.7407
   8   2.0000      -6.083858      -165.5502
   9   2.0000      -6.083443      -165.5389
  10   2.0000      -1.439684       -39.1758
  11   2.0000      -1.204384       -32.7730
  12   2.0000      -1.105903       -30.0932
  13   2.0000      -0.937950       -25.5229
  14   2.0000      -0.831375       -22.6229
  15   2.0000      -0.783173       -21.3112
  16   2.0000      -0.689276       -18.7562
  17   2.0000      -0.672025       -18.2867
  18   2.0000      -0.650934       -17.7128
  19   2.0000      -0.602558       -16.3964
  20   2.0000      -0.583494       -15.8777
  21   2.0000      -0.558050       -15.1853
  22   2.0000      -0.535600       -14.5744
  23   2.0000      -0.510800       -13.8996
  24   2.0000      -0.502600       -13.6765
  25   2.0000      -0.480701       -13.0806
  26   2.0000      -0.438051       -11.9200
  27   2.0000      -0.427576       -11.6349
  28   2.0000      -0.412924       -11.2362
  29   0.0000       0.079348         2.1592
  30   0.0000       0.116293         3.1645
  31   0.0000       0.127726         3.4756
  32   0.0000       0.140642         3.8271
  33   0.0000       0.150334         4.0908

MULLIKEN ATOMIC CHARGES
-----------------------
   0 C :   -0.395851
   1 C :   -0.290886
   2 H :    0.163719
   3 H :    0.182716
   4 S :    0.743591
   5 O :   -0.408123
   6 O :   -0.357399
   7 F :   -0.095997
   8 H :    0.170689
   9 H :    0.146741
  10 H :    0.140800
Sum of atomic charges:    0.0000000

LOEWDIN ATOMIC CHARGES
----------------------
   0 C :   -0.326797
   1 C :   -0.405679
   2 H :    0.142619
   3 H :    0.156493
   4 S :    0.514290
   5 O :   -0.291919
   6 O :   -0.248461
   7 F :    0.072259
   8 H :    0.132437
   9 H :    0.129472
  10 H :    0.125287

  Mayer bond orders larger than 0.100000
B(  0-C ,  1-C ) :   0.9199 B(  0-C ,  8-H ) :   0.9622 B(  0-C ,  9-H ) :   0.9639
B(  0-C , 10-H ) :   0.9686 B(  1-C ,  2-H ) :   0.9426 B(  1-C ,  3-H ) :   0.9376
B(  1-C ,  4-S ) :   0.9161 B(  4-S ,  5-O ) :   1.9176 B(  4-S ,  6-O ) :   2.0074
B(  4-S ,  7-F ) :   1.1436

FINAL SINGLE POINT ENERGY      -726.996631492754

DIPOLE MOMENT
-------------
                                X             Y             Z
Electronic contribution:     -5.16790       7.42370       1.65146
Nuclear contribution   :      5.52019      -8.89046      -0.84835
                        -----------------------------------------
Total Dipole Moment    :      0.35229      -1.46676       0.80311
                        -----------------------------------------
Magnitude (a.u.)       :      1.70894
Magnitude (Debye)      :      4.34378

Rotational constants in cm-1:     0.153332     0.082132     0.079755
Rotational constants in MHz :  4596.775407  2462.251277  2391.008596

                             ****ORCA TERMINATED NORMALLY****
TOTAL RUN TIME: 0 days 0 hours 0 minutes 23 seconds 284 msec
