                         Program Version 5.0.0 -  RELEASE  -
|  1> !LC-BLYP RIJCOSX def2-TZVP def2/J TightSCF
|  2> *xyz 0 1
|  3> C          4.49059        1.15590       -2.46929
|  4> N          4.30539        1.22276       -3.90832
|  5> C          4.63192        2.24637       -4.67096
|  6> N          4.54169        2.14399       -5.98714
|  7> C          5.08409        3.39358       -4.11855
|  8> H          4.92067        3.57050       -3.13587
|  9> H          5.25465        4.19739       -4.70696
| 10> H          3.82453        0.44911       -4.35093
| 11> H          4.34337        1.24932       -6.41665
| 12> H          4.67671        2.95662       -6.57411
| 13> C          5.94213        0.93950       -2.03689
| 14> H          3.86431        0.32853       -2.13661
| 15> H          4.07623        2.04999       -1.98901
| 16> H          6.32982        0.06401       -2.51451
| 17> H          5.98308        0.81426       -0.97504
| 18> H          6.52865        1.78889       -2.31873
| 19> *
| 20>
| 21> %MaxCore 64000
| 22>
| 23> %pal nprocs 4
| 24> end
| 25>
| 26> %scf
| 27>   MaxIter 150
| 28> end
| 29>
| 30>
| 31>                          ****END OF INPUT****

CARTESIAN COORDINATES (ANGSTROEM)
---------------------------------
  C      4.490590    1.155900   -2.469290
  N      4.305390    1.222760   -3.908320
  C      4.631920    2.246370   -4.670960
  N      4.541690    2.143990   -5.987140
  C      5.084090    3.393580   -4.118550
  H      4.920670    3.570500   -3.135870
  H      5.254650    4.197390   -4.706960
  H      3.824530    0.449110   -4.350930
  H      4.343370    1.249320   -6.416650
  H      4.676710    2.956620   -6.574110
  C      5.942130    0.939500   -2.036890
  H      3.864310    0.328530   -2.136610
  H      4.076230    2.049990   -1.989010
  H      6.329820    0.064010   -2.514510
  H      5.983080    0.814260   -0.975040
  H      6.528650    1.788890   -2.318730

 Total Charge           Charge          ....    0
 Multiplicity           Mult            ....    1
 Number of Electrons    NEL             ....   48
 Basis Dimension        Dim             ....  246

ORBITAL ENERGIES
----------------

  NO   OCC          E(Eh)            E(eV)
   0   2.0000     -14.172169      -385.6443
   1   2.0000     -14.168421      -385.5423
   2   2.0000     -10.116718      -275.2899
   3   2.0000     -10.099772      -274.8288
   4   2.0000     -10.043953      -273.3099
   5   2.0000      -9.976092      -271.4633
   6   2.0000      -1.072471       -29.1834
   7   2.0000      -0.989117       -26.9152
   8   2.0000      -0.859436       -23.3864
   9   2.0000      -0.812998       -22.1228
  10   2.0000      -0.747092       -20.3294
  11   2.0000      -0.665818       -18.1178
  12   2.0000      -0.657479       -17.8909
  13   2.0000      -0.624463       -16.9925
  14   2.0000      -0.574409       -15.6305
  15   2.0000      -0.542479       -14.7616
  16   2.0000      -0.516894       -14.0654
  17   2.0000      -0.497175       -13.5288
  18   2.0000      -0.479412       -13.0455
  19   2.0000      -0.463595       -12.6151
  20   2.0000      -0.461652       -12.5622
  21   2.0000      -0.441700       -12.0193
  22   2.0000      -0.347447        -9.4545
  23   2.0000      -0.256265        -6.9733
  24   0.0000       0.084419         2.2971
  25   0.0000       0.113408         3.0860
  26   0.0000       0.126776         3.4498
  27   0.0000       0.140847         3.8326
  28   0.0000       0.155852         4.2409

MULLIKEN ATOMIC CHARGES
-----------------------
   0 C :   -0.216815
   1 N :   -0.276956
   2 C :    0.359721
   3 N :   -0.444107
   4 C :   -0.584820
   5 H :    0.106730
   6 H :    0.081132
   7 H :    0.192431
   8 H :    0.211830
   9 H :    0.242596
  10 C :   -0.332792
  11 H :    0.124481
  12 H :    0.141993
  13 H :    0.112166
  14 H :    0.122899
  15 H :    0.159511
Sum of atomic charges:    0.0000000

LOEWDIN ATOMIC CHARGES
----------------------
   0 C :   -0.313675
   1 N :    0.119620
   2 C :   -0.468222
   3 N :   -0.007846
   4 C :   -0.365583
   5 H :    0.099645
   6 H :    0.095149
   7 H :    0.180036
   8 H :    0.162833
   9 H :    0.180097
  10 C :   -0.315422
  11 H :    0.133393
  12 H :    0.134312
  13 H :    0.117626
  14 H :    0.120128
  15 H :    0.127909

  Mayer bond orders larger than 0.100000
B(  0-C ,  1-N ) :   0.9508 B(  0-C , 10-C ) :   0.9193 B(  0-C , 11-H ) :   0.9774
B(  0-C , 12-H ) :   0.9881 B(  1-N ,  2-C ) :   1.1697 B(  1-N ,  7-H ) :   0.9399
B(  2-C ,  3-N ) :   1.1353 B(  2-C ,  4-C ) :   1.5880 B(  3-N ,  8-H ) :   0.9354
B(  3-N ,  9-H ) :   0.9268 B(  4-C ,  5-H ) :   1.0020 B(  4-C ,  6-H ) :   1.0086
B( 10-C , 13-H ) :   0.9724 B( 10-C , 14-H ) :   0.9760 B( 10-C , 15-H ) :   0.9696

FINAL SINGLE POINT ENERGY      -267.292085899249

DIPOLE MOMENT
-------------
                                X             Y             Z
Electronic contribution:     -1.92830      -0.18154      -3.88356
Nuclear contribution   :      1.39581      -0.78630       3.38596
                        -----------------------------------------
Total Dipole Moment    :     -0.53248      -0.96784      -0.49760
                        -----------------------------------------
Magnitude (a.u.)       :      1.21155
Magnitude (Debye)      :      3.07952

Rotational constants in cm-1:     0.239249     0.075811     0.066261
Rotational constants in MHz :  7172.504830  2272.756282  1986.457543

                             ****ORCA TERMINATED NORMALLY****
TOTAL RUN TIME: 0 days 0 hours 0 minutes 32 seconds 264 msec
