                         Program Version 5.0.0 -  RELEASE  -
|  1> !LC-BLYP RIJCOSX def2-TZVP def2/J TightSCF xyzfile
|  2>
|  3> *xyzfile 0 1 D1.xyz
|  4>
|  5> %MaxCore 64000
|  6>
|  7> %pal nprocs 18
|  8> end
|  9>
| 10> %scf
| 11>   MaxIter 150
| 12> end
| 13>
| 14>
| 15>                          ****END OF INPUT****

CARTESIAN COORDINATES (ANGSTROEM)
---------------------------------
  C      4.490588    1.155899   -2.469290
  C      4.305394    1.222762   -3.908317
  C      4.906458   -3.102816   -5.954844
  C      3.511771   -2.806215   -6.492283
  H      2.736044   -3.373445   -5.973736
  H      3.444904   -3.040831   -7.555281
  S      3.004618   -1.096206   -6.389259
  C      4.631918    2.246365   -4.670958
  N      4.541686    2.143990   -5.987139
  N      5.084086    3.393584   -4.118545
  H      4.920675    3.570501   -3.135870
  H      5.254652    4.197390   -4.706956
  H      3.824530    0.449113   -4.350926
  H      4.343373    1.249318   -6.416646
  H      4.676712    2.956624   -6.574113
  F      4.128856   -0.329647   -6.953717
  O      1.781285   -1.000779   -7.136399
  C      5.942129    0.939500   -2.036893
  H      3.864305    0.328532   -2.136611
  H      4.076233    2.049994   -1.989010
  C      6.462677   -3.117775   -3.944671
  C      5.024977   -3.025679   -4.437625
  H      4.423321   -3.818693   -3.977648
  H      4.579350   -2.087131   -4.108727
  H      5.201533   -4.100207   -6.296905
  H      5.605922   -2.397822   -6.413368
  C      6.559957   -0.356290   -2.559086
  H      5.967976    0.952567   -0.942444
  H      6.547184    1.788331   -2.368849
  C      6.006283   -1.615917   -1.899301
  H      7.642360   -0.318000   -2.402059
  H      6.414855   -0.403433   -3.642587
  C      6.608718   -2.917014   -2.435655
  H      6.190324   -1.561115   -0.820948
  H      4.919250   -1.651245   -2.016586
  H      7.066975   -2.374258   -4.475514
  H      6.887808   -4.089747   -4.215332
  H      6.135197   -3.755573   -1.915159
  H      7.671142   -2.955503   -2.172291
  O      2.851546   -0.783683   -4.956789

 Total Charge           Charge          ....    0
 Multiplicity           Mult            ....    1
 Number of Electrons    NEL             ....  144
 Basis Dimension        Dim             ....  671

ORBITAL ENERGIES
----------------

  NO   OCC          E(Eh)            E(eV)
   0   2.0000     -88.525391     -2408.8983
   1   2.0000     -24.580013      -668.8561
   2   2.0000     -18.961219      -515.9610
   3   2.0000     -18.947855      -515.5973
   4   2.0000     -14.155517      -385.1912
   5   2.0000     -14.151142      -385.0722
   6   2.0000     -10.134466      -275.7728
   7   2.0000     -10.097989      -274.7802
   8   2.0000     -10.095354      -274.7086
   9   2.0000     -10.066884      -273.9338
  10   2.0000     -10.062351      -273.8105
  11   2.0000     -10.055913      -273.6353
  12   2.0000     -10.046478      -273.3786
  13   2.0000     -10.039451      -273.1873
  14   2.0000     -10.034309      -273.0474
  15   2.0000     -10.027138      -272.8523
  16   2.0000      -9.959292      -271.0061
  17   2.0000      -8.068379      -219.5518
  18   2.0000      -6.100466      -166.0021
  19   2.0000      -6.092962      -165.7979
  20   2.0000      -6.092763      -165.7925
  21   2.0000      -1.462507       -39.7968
  22   2.0000      -1.214723       -33.0543
  23   2.0000      -1.116174       -30.3726
  24   2.0000      -1.047566       -28.5057
  25   2.0000      -0.959893       -26.1200
  26   2.0000      -0.954365       -25.9696
  27   2.0000      -0.916807       -24.9476
  28   2.0000      -0.887027       -24.1372
  29   2.0000      -0.860955       -23.4278
  30   2.0000      -0.833694       -22.6860
  31   2.0000      -0.809928       -22.0393
  32   2.0000      -0.779315       -21.2062
  33   2.0000      -0.748616       -20.3709
  34   2.0000      -0.725579       -19.7440
  35   2.0000      -0.716432       -19.4951
  36   2.0000      -0.698868       -19.0172
  37   2.0000      -0.690178       -18.7807
  38   2.0000      -0.666861       -18.1462
  39   2.0000      -0.665744       -18.1158
  40   2.0000      -0.648891       -17.6572
  41   2.0000      -0.631337       -17.1795
  42   2.0000      -0.606821       -16.5124
  43   2.0000      -0.597224       -16.2513
  44   2.0000      -0.591238       -16.0884
  45   2.0000      -0.578635       -15.7455
  46   2.0000      -0.566908       -15.4263
  47   2.0000      -0.555996       -15.1294
  48   2.0000      -0.554243       -15.0817
  49   2.0000      -0.551259       -15.0005
  50   2.0000      -0.529960       -14.4209
  51   2.0000      -0.522171       -14.2090
  52   2.0000      -0.521208       -14.1828
  53   2.0000      -0.508730       -13.8432
  54   2.0000      -0.493752       -13.4357
  55   2.0000      -0.484794       -13.1919
  56   2.0000      -0.482649       -13.1336
  57   2.0000      -0.469906       -12.7868
  58   2.0000      -0.468549       -12.7499
  59   2.0000      -0.453454       -12.3391
  60   2.0000      -0.449541       -12.2326
  61   2.0000      -0.441382       -12.0106
  62   2.0000      -0.435698       -11.8559
  63   2.0000      -0.420593       -11.4449
  64   2.0000      -0.418594       -11.3905
  65   2.0000      -0.411418       -11.1952
  66   2.0000      -0.403903       -10.9908
  67   2.0000      -0.394866       -10.7448
  68   2.0000      -0.387555       -10.5459
  69   2.0000      -0.371215       -10.1013
  70   2.0000      -0.351579        -9.5669
  71   2.0000      -0.236697        -6.4409
  72   0.0000       0.071138         1.9358
  73   0.0000       0.094404         2.5689
  74   0.0000       0.103010         2.8030
  75   0.0000       0.109397         2.9768
  76   0.0000       0.111171         3.0251

MULLIKEN ATOMIC CHARGES
-----------------------
   0 C :   -0.439965
   1 C :   -0.344046
   2 C :   -0.297697
   3 C :   -0.298035
   4 H :    0.192970
   5 H :    0.188669
   6 S :    0.759043
   7 C :    0.364929
   8 N :   -0.443455
   9 N :   -0.460103
  10 H :    0.238814
  11 H :    0.204656
  12 H :    0.100282
  13 H :    0.218128
  14 H :    0.206130
  15 F :   -0.118262
  16 O :   -0.345299
  17 C :   -0.176428
  18 H :    0.135262
  19 H :    0.119012
  20 C :   -0.295056
  21 C :   -0.275613
  22 H :    0.128839
  23 H :    0.175208
  24 H :    0.150360
  25 H :    0.157579
  26 C :   -0.210384
  27 H :    0.104167
  28 H :    0.116561
  29 C :   -0.318689
  30 H :    0.118599
  31 H :    0.132321
  32 C :   -0.214409
  33 H :    0.126045
  34 H :    0.148645
  35 H :    0.146057
  36 H :    0.127346
  37 H :    0.126624
  38 H :    0.128379
  39 O :   -0.377183
Sum of atomic charges:   -0.0000000

LOEWDIN ATOMIC CHARGES
----------------------
   0 C :   -0.294392
   1 C :   -0.293301
   2 C :   -0.296154
   3 C :   -0.370266
   4 H :    0.159965
   5 H :    0.148809
   6 S :    0.530459
   7 C :   -0.465455
   8 N :   -0.025337
   9 N :   -0.026295
  10 H :    0.173134
  11 H :    0.158006
  12 H :    0.109980
  13 H :    0.147367
  14 H :    0.159782
  15 F :    0.087009
  16 O :   -0.238481
  17 C :   -0.273992
  18 H :    0.146316
  19 H :    0.130389
  20 C :   -0.280960
  21 C :   -0.281346
  22 H :    0.142730
  23 H :    0.148205
  24 H :    0.150454
  25 H :    0.144587
  26 C :   -0.276224
  27 H :    0.133269
  28 H :    0.136792
  29 C :   -0.279536
  30 H :    0.137297
  31 H :    0.140510
  32 C :   -0.277517
  33 H :    0.140164
  34 H :    0.138769
  35 H :    0.140453
  36 H :    0.138589
  37 H :    0.139514
  38 H :    0.140556
  39 O :   -0.243848

  Mayer bond orders larger than 0.100000
B(  0-C ,  1-C ) :   0.9365 B(  0-C , 17-C ) :   0.8902 B(  0-C , 18-H ) :   1.0232
B(  0-C , 19-H ) :   1.0043 B(  1-C ,  7-C ) :   1.5911 B(  1-C , 12-H ) :   0.9884
B(  2-C ,  3-C ) :   0.9101 B(  2-C , 21-C ) :   0.8784 B(  2-C , 24-H ) :   0.9675
B(  2-C , 25-H ) :   0.9866 B(  3-C ,  4-H ) :   0.9412 B(  3-C ,  5-H ) :   0.9611
B(  3-C ,  6-S ) :   0.9178 B(  6-S , 15-F ) :   1.0659 B(  6-S , 16-O ) :   2.0538
B(  6-S , 39-O ) :   1.8513 B(  7-C ,  8-N ) :   1.1415 B(  7-C ,  9-N ) :   1.1236
B(  8-N , 13-H ) :   0.9169 B(  8-N , 14-H ) :   0.9343 B(  9-N , 10-H ) :   0.9206
B(  9-N , 11-H ) :   0.9391 B( 17-C , 26-C ) :   0.9535 B( 17-C , 27-H ) :   0.9904
B( 17-C , 28-H ) :   0.9808 B( 20-C , 21-C ) :   0.8951 B( 20-C , 32-C ) :   0.9365
B( 20-C , 35-H ) :   0.9884 B( 20-C , 36-H ) :   0.9846 B( 21-C , 22-H ) :   0.9694
B( 21-C , 23-H ) :   0.9762 B( 26-C , 29-C ) :   0.8812 B( 26-C , 30-H ) :   0.9860
B( 26-C , 31-H ) :   0.9718 B( 29-C , 32-C ) :   0.9215 B( 29-C , 33-H ) :   0.9817
B( 29-C , 34-H ) :   0.9928 B( 32-C , 37-H ) :   0.9940 B( 32-C , 38-H ) :   0.9893

FINAL SINGLE POINT ENERGY     -1189.140114946195

DIPOLE MOMENT
-------------
                                X             Y             Z
Electronic contribution:    -16.32256       4.90847     -21.48273
Nuclear contribution   :     17.24138      -5.45913      20.34076
                        -----------------------------------------
Total Dipole Moment    :      0.91882      -0.55066      -1.14197
                        -----------------------------------------
Magnitude (a.u.)       :      1.56575
Magnitude (Debye)      :      3.97981

Rotational constants in cm-1:     0.014201     0.012275     0.007453
Rotational constants in MHz :   425.728191   368.008875   223.435232

                             ****ORCA TERMINATED NORMALLY****
TOTAL RUN TIME: 0 days 0 hours 2 minutes 9 seconds 1 msec
