                         Program Version 5.0.0 -  RELEASE  -
|  1> !LC-BLYP RIJCOSX def2-TZVP def2/J TightSCF xyzfile
|  2>
|  3> *xyzfile 0 1 D4.xyz
|  4>
|  5> %MaxCore 64000
|  6>
|  7> %pal nprocs 18
|  8> end
|  9>
| 10> %scf
| 11>   MaxIter 150
| 12> end
| 13>
| 14>
| 15>                          ****END OF INPUT****

CARTESIAN COORDINATES (ANGSTROEM)
---------------------------------
  C      4.490588    1.155899   -2.469290
  C      4.305394    1.222762   -3.908317
  C      4.906458   -3.102816   -5.954844
  C      3.511771   -2.806215   -6.492283
  H      2.736044   -3.373445   -5.973736
  H      3.444904   -3.040831   -7.555281
  S      3.004618   -1.096206   -6.389259
  C      4.631918    2.246365   -4.670958
  N      4.541686    2.143990   -5.987139
  N      5.084086    3.393584   -4.118545
  H      4.920675    3.570501   -3.135870
  H      5.254652    4.197390   -4.706956
  H      3.824530    0.449113   -4.350926
  H      4.343373    1.249318   -6.416646
  H      4.676712    2.956624   -6.574113
  O      4.128856   -0.329647   -6.953717
  F      1.781285   -1.000779   -7.136399
  C      5.942129    0.939500   -2.036893
  H      3.864305    0.328532   -2.136611
  H      4.076233    2.049994   -1.989010
  C      6.462677   -3.117775   -3.944671
  C      5.024977   -3.025679   -4.437625
  H      4.423321   -3.818693   -3.977648
  H      4.579350   -2.087131   -4.108727
  H      5.201533   -4.100207   -6.296905
  H      5.605922   -2.397822   -6.413368
  C      6.559957   -0.356290   -2.559086
  H      5.967976    0.952567   -0.942444
  H      6.547184    1.788331   -2.368849
  C      6.006283   -1.615917   -1.899301
  H      7.642360   -0.318000   -2.402059
  H      6.414855   -0.403433   -3.642587
  C      6.608718   -2.917014   -2.435655
  H      6.190324   -1.561115   -0.820948
  H      4.919250   -1.651245   -2.016586
  H      7.066975   -2.374258   -4.475514
  H      6.887808   -4.089747   -4.215332
  H      6.135197   -3.755573   -1.915159
  H      7.671142   -2.955503   -2.172291
  O      2.851546   -0.783683   -4.956789

 Total Charge           Charge          ....    0
 Multiplicity           Mult            ....    1
 Number of Electrons    NEL             ....  144
 Basis Dimension        Dim             ....  671

ORBITAL ENERGIES
----------------

  NO   OCC          E(Eh)            E(eV)
   0   2.0000     -88.534086     -2409.1350
   1   2.0000     -24.590723      -669.1476
   2   2.0000     -18.962519      -515.9964
   3   2.0000     -18.952936      -515.7356
   4   2.0000     -14.143266      -384.8578
   5   2.0000     -14.122925      -384.3043
   6   2.0000     -10.138484      -275.8822
   7   2.0000     -10.095431      -274.7107
   8   2.0000     -10.080509      -274.3046
   9   2.0000     -10.063318      -273.8368
  10   2.0000     -10.057699      -273.6839
  11   2.0000     -10.051413      -273.5129
  12   2.0000     -10.041076      -273.2316
  13   2.0000     -10.031833      -272.9800
  14   2.0000     -10.026259      -272.8284
  15   2.0000     -10.018379      -272.6139
  16   2.0000      -9.945953      -270.6431
  17   2.0000      -8.076794      -219.7807
  18   2.0000      -6.108456      -166.2195
  19   2.0000      -6.101758      -166.0373
  20   2.0000      -6.101260      -166.0237
  21   2.0000      -1.482577       -40.3430
  22   2.0000      -1.212267       -32.9875
  23   2.0000      -1.112740       -30.2792
  24   2.0000      -1.029577       -28.0162
  25   2.0000      -0.954225       -25.9658
  26   2.0000      -0.938941       -25.5499
  27   2.0000      -0.913323       -24.8528
  28   2.0000      -0.882730       -24.0203
  29   2.0000      -0.861406       -23.4401
  30   2.0000      -0.830686       -22.6041
  31   2.0000      -0.805167       -21.9097
  32   2.0000      -0.771715       -20.9994
  33   2.0000      -0.743485       -20.2313
  34   2.0000      -0.721746       -19.6397
  35   2.0000      -0.709907       -19.3176
  36   2.0000      -0.696277       -18.9467
  37   2.0000      -0.690668       -18.7940
  38   2.0000      -0.676218       -18.4008
  39   2.0000      -0.655729       -17.8433
  40   2.0000      -0.641057       -17.4440
  41   2.0000      -0.622625       -16.9425
  42   2.0000      -0.608944       -16.5702
  43   2.0000      -0.600614       -16.3435
  44   2.0000      -0.582656       -15.8549
  45   2.0000      -0.573391       -15.6028
  46   2.0000      -0.568790       -15.4776
  47   2.0000      -0.557357       -15.1665
  48   2.0000      -0.550026       -14.9670
  49   2.0000      -0.532662       -14.4945
  50   2.0000      -0.524571       -14.2743
  51   2.0000      -0.515180       -14.0187
  52   2.0000      -0.513396       -13.9702
  53   2.0000      -0.507978       -13.8228
  54   2.0000      -0.482997       -13.1430
  55   2.0000      -0.479642       -13.0517
  56   2.0000      -0.474773       -12.9192
  57   2.0000      -0.465498       -12.6669
  58   2.0000      -0.456602       -12.4248
  59   2.0000      -0.447972       -12.1899
  60   2.0000      -0.443149       -12.0587
  61   2.0000      -0.433269       -11.7898
  62   2.0000      -0.426335       -11.6012
  63   2.0000      -0.418450       -11.3866
  64   2.0000      -0.414538       -11.2801
  65   2.0000      -0.411369       -11.1939
  66   2.0000      -0.397888       -10.8271
  67   2.0000      -0.388949       -10.5839
  68   2.0000      -0.380020       -10.3409
  69   2.0000      -0.364328        -9.9139
  70   2.0000      -0.333777        -9.0825
  71   2.0000      -0.221977        -6.0403
  72   0.0000       0.082932         2.2567
  73   0.0000       0.092323         2.5122
  74   0.0000       0.105826         2.8797
  75   0.0000       0.111786         3.0419
  76   0.0000       0.115440         3.1413

MULLIKEN ATOMIC CHARGES
-----------------------
   0 C :   -0.424774
   1 C :   -0.346739
   2 C :   -0.280553
   3 C :   -0.289092
   4 H :    0.177480
   5 H :    0.179599
   6 S :    0.793931
   7 C :    0.332147
   8 N :   -0.442566
   9 N :   -0.462077
  10 H :    0.233935
  11 H :    0.202200
  12 H :    0.125267
  13 H :    0.241152
  14 H :    0.191791
  15 O :   -0.430114
  16 F :   -0.058714
  17 C :   -0.171133
  18 H :    0.127210
  19 H :    0.112599
  20 C :   -0.301142
  21 C :   -0.276981
  22 H :    0.123152
  23 H :    0.175108
  24 H :    0.148286
  25 H :    0.177034
  26 C :   -0.219360
  27 H :    0.098506
  28 H :    0.115742
  29 C :   -0.316914
  30 H :    0.115432
  31 H :    0.147607
  32 C :   -0.211701
  33 H :    0.123873
  34 H :    0.145203
  35 H :    0.152153
  36 H :    0.124337
  37 H :    0.123585
  38 H :    0.127265
  39 O :   -0.382732
Sum of atomic charges:    0.0000000

LOEWDIN ATOMIC CHARGES
----------------------
   0 C :   -0.298293
   1 C :   -0.296936
   2 C :   -0.283934
   3 C :   -0.376012
   4 H :    0.149036
   5 H :    0.146204
   6 S :    0.536563
   7 C :   -0.465284
   8 N :   -0.023014
   9 N :   -0.029662
  10 H :    0.170607
  11 H :    0.156700
  12 H :    0.112249
  13 H :    0.145074
  14 H :    0.154027
  15 O :   -0.265445
  16 F :    0.125801
  17 C :   -0.274774
  18 H :    0.143882
  19 H :    0.128329
  20 C :   -0.279936
  21 C :   -0.279009
  22 H :    0.140719
  23 H :    0.149690
  24 H :    0.151198
  25 H :    0.154688
  26 C :   -0.276212
  27 H :    0.131534
  28 H :    0.136832
  29 C :   -0.280079
  30 H :    0.136587
  31 H :    0.143727
  32 C :   -0.278004
  33 H :    0.139394
  34 H :    0.137907
  35 H :    0.142656
  36 H :    0.137835
  37 H :    0.138462
  38 H :    0.140355
  39 O :   -0.243460

  Mayer bond orders larger than 0.100000
B(  0-C ,  1-C ) :   0.9291 B(  0-C , 17-C ) :   0.8930 B(  0-C , 18-H ) :   1.0253
B(  0-C , 19-H ) :   1.0019 B(  1-C ,  7-C ) :   1.6003 B(  1-C , 12-H ) :   0.9936
B(  2-C ,  3-C ) :   0.9286 B(  2-C , 21-C ) :   0.9105 B(  2-C , 24-H ) :   0.9647
B(  2-C , 25-H ) :   0.9696 B(  3-C ,  4-H ) :   0.9376 B(  3-C ,  5-H ) :   0.9487
B(  3-C ,  6-S ) :   0.9292 B(  6-S , 15-O ) :   1.7918 B(  6-S , 16-F ) :   1.2051
B(  6-S , 39-O ) :   1.8744 B(  7-C ,  8-N ) :   1.1776 B(  7-C ,  9-N ) :   1.1159
B(  8-N , 13-H ) :   0.8724 B(  8-N , 14-H ) :   0.9396 B(  9-N , 10-H ) :   0.9224
B(  9-N , 11-H ) :   0.9398 B( 13-H , 15-O ) :   0.1062 B( 17-C , 26-C ) :   0.9540
B( 17-C , 27-H ) :   0.9894 B( 17-C , 28-H ) :   0.9802 B( 20-C , 21-C ) :   0.9037
B( 20-C , 32-C ) :   0.9363 B( 20-C , 35-H ) :   0.9878 B( 20-C , 36-H ) :   0.9842
B( 21-C , 22-H ) :   0.9705 B( 21-C , 23-H ) :   0.9705 B( 26-C , 29-C ) :   0.8813
B( 26-C , 30-H ) :   0.9857 B( 26-C , 31-H ) :   0.9710 B( 29-C , 32-C ) :   0.9221
B( 29-C , 33-H ) :   0.9823 B( 29-C , 34-H ) :   0.9932 B( 32-C , 37-H ) :   0.9944
B( 32-C , 38-H ) :   0.9891

FINAL SINGLE POINT ENERGY     -1189.135759728429

DIPOLE MOMENT
-------------
                                X             Y             Z
Electronic contribution:    -20.61069       3.57229     -22.05444
Nuclear contribution   :     19.99734      -4.67125      20.55522
                        -----------------------------------------
Total Dipole Moment    :     -0.61335      -1.09896      -1.49922
                        -----------------------------------------
Magnitude (a.u.)       :      1.95744
Magnitude (Debye)      :      4.97542

Rotational constants in cm-1:     0.014213     0.012058     0.007367
Rotational constants in MHz :   426.102180   361.491761   220.844824

                             ****ORCA TERMINATED NORMALLY****
TOTAL RUN TIME: 0 days 0 hours 2 minutes 14 seconds 87 msec
