                         Program Version 5.0.0 -  RELEASE  -
|  1> !LC-BLYP RIJCOSX def2-TZVP def2/J TightSCF xyzfile
|  2>
|  3> *xyzfile 0 1 D7.xyz
|  4>
|  5> %MaxCore 64000
|  6>
|  7> %pal nprocs 18
|  8> end
|  9>
| 10> %scf
| 11>   MaxIter 150
| 12> end
| 13>
| 14>
| 15>                          ****END OF INPUT****

CARTESIAN COORDINATES (ANGSTROEM)
---------------------------------
  C      4.490588    1.155899   -2.469290
  C      4.305394    1.222762   -3.908317
  C      4.906458   -3.102816   -5.954844
  C      3.511771   -2.806215   -6.492283
  H      2.736044   -3.373445   -5.973736
  H      3.444904   -3.040831   -7.555281
  S      3.004618   -1.096206   -6.389259
  C      4.631918    2.246365   -4.670958
  N      4.541686    2.143990   -5.987139
  N      5.084086    3.393584   -4.118545
  H      4.920675    3.570501   -3.135870
  H      5.254652    4.197390   -4.706956
  H      3.824530    0.449113   -4.350926
  H      4.343373    1.249318   -6.416646
  H      4.676712    2.956624   -6.574113
  O      4.128856   -0.329647   -6.953717
  O      1.781285   -1.000779   -7.136399
  C      5.942129    0.939500   -2.036893
  H      3.864305    0.328532   -2.136611
  H      4.076233    2.049994   -1.989010
  C      6.462677   -3.117775   -3.944671
  C      5.024977   -3.025679   -4.437625
  H      4.423321   -3.818693   -3.977648
  H      4.579350   -2.087131   -4.108727
  H      5.201533   -4.100207   -6.296905
  H      5.605922   -2.397822   -6.413368
  C      6.559957   -0.356290   -2.559086
  H      5.967976    0.952567   -0.942444
  H      6.547184    1.788331   -2.368849
  C      6.006283   -1.615917   -1.899301
  H      7.642360   -0.318000   -2.402059
  H      6.414855   -0.403433   -3.642587
  C      6.608718   -2.917014   -2.435655
  H      6.190324   -1.561115   -0.820948
  H      4.919250   -1.651245   -2.016586
  H      7.066975   -2.374258   -4.475514
  H      6.887808   -4.089747   -4.215332
  H      6.135197   -3.755573   -1.915159
  H      7.671142   -2.955503   -2.172291
  F      2.851546   -0.783683   -4.956789

 Total Charge           Charge          ....    0
 Multiplicity           Mult            ....    1
 Number of Electrons    NEL             ....  144
 Basis Dimension        Dim             ....  671

ORBITAL ENERGIES
----------------

  NO   OCC          E(Eh)            E(eV)
   0   2.0000     -88.528198     -2408.9747
   1   2.0000     -24.565301      -668.4558
   2   2.0000     -18.962415      -515.9936
   3   2.0000     -18.958757      -515.8940
   4   2.0000     -14.156832      -385.2270
   5   2.0000     -14.133804      -384.6004
   6   2.0000     -10.134887      -275.7843
   7   2.0000     -10.098347      -274.7900
   8   2.0000     -10.094684      -274.6903
   9   2.0000     -10.076006      -274.1821
  10   2.0000     -10.066163      -273.9142
  11   2.0000     -10.059917      -273.7443
  12   2.0000     -10.051710      -273.5209
  13   2.0000     -10.042658      -273.2746
  14   2.0000     -10.038067      -273.1497
  15   2.0000     -10.034295      -273.0471
  16   2.0000      -9.969447      -271.2824
  17   2.0000      -8.070876      -219.6197
  18   2.0000      -6.102692      -166.0627
  19   2.0000      -6.095878      -165.8773
  20   2.0000      -6.095278      -165.8610
  21   2.0000      -1.449617       -39.4461
  22   2.0000      -1.217621       -33.1332
  23   2.0000      -1.123375       -30.5686
  24   2.0000      -1.043121       -28.3848
  25   2.0000      -0.956584       -26.0300
  26   2.0000      -0.950708       -25.8701
  27   2.0000      -0.920253       -25.0414
  28   2.0000      -0.890670       -24.2364
  29   2.0000      -0.864323       -23.5194
  30   2.0000      -0.827260       -22.5109
  31   2.0000      -0.814503       -22.1638
  32   2.0000      -0.777773       -21.1643
  33   2.0000      -0.751700       -20.4548
  34   2.0000      -0.732211       -19.9245
  35   2.0000      -0.699959       -19.0469
  36   2.0000      -0.693846       -18.8805
  37   2.0000      -0.686192       -18.6722
  38   2.0000      -0.680324       -18.5126
  39   2.0000      -0.657133       -17.8815
  40   2.0000      -0.652082       -17.7441
  41   2.0000      -0.629101       -17.1187
  42   2.0000      -0.606689       -16.5089
  43   2.0000      -0.592532       -16.1236
  44   2.0000      -0.590772       -16.0757
  45   2.0000      -0.582831       -15.8596
  46   2.0000      -0.578675       -15.7465
  47   2.0000      -0.564127       -15.3507
  48   2.0000      -0.553374       -15.0581
  49   2.0000      -0.543008       -14.7760
  50   2.0000      -0.532391       -14.4871
  51   2.0000      -0.527110       -14.3434
  52   2.0000      -0.524827       -14.2813
  53   2.0000      -0.507853       -13.8194
  54   2.0000      -0.496773       -13.5179
  55   2.0000      -0.486264       -13.2319
  56   2.0000      -0.477523       -12.9941
  57   2.0000      -0.471536       -12.8311
  58   2.0000      -0.468027       -12.7357
  59   2.0000      -0.454808       -12.3760
  60   2.0000      -0.446522       -12.1505
  61   2.0000      -0.441274       -12.0077
  62   2.0000      -0.435988       -11.8638
  63   2.0000      -0.429764       -11.6945
  64   2.0000      -0.425360       -11.5746
  65   2.0000      -0.423284       -11.5181
  66   2.0000      -0.416377       -11.3302
  67   2.0000      -0.400390       -10.8952
  68   2.0000      -0.393707       -10.7133
  69   2.0000      -0.388283       -10.5657
  70   2.0000      -0.345371        -9.3980
  71   2.0000      -0.239491        -6.5169
  72   0.0000       0.079069         2.1516
  73   0.0000       0.097460         2.6520
  74   0.0000       0.098309         2.6751
  75   0.0000       0.108703         2.9580
  76   0.0000       0.111628         3.0376

MULLIKEN ATOMIC CHARGES
-----------------------
   0 C :   -0.415265
   1 C :   -0.360835
   2 C :   -0.260659
   3 C :   -0.315554
   4 H :    0.180634
   5 H :    0.201410
   6 S :    0.782808
   7 C :    0.350381
   8 N :   -0.435388
   9 N :   -0.458263
  10 H :    0.236376
  11 H :    0.208834
  12 H :    0.071836
  13 H :    0.247843
  14 H :    0.197943
  15 O :   -0.437610
  16 O :   -0.349777
  17 C :   -0.172010
  18 H :    0.119617
  19 H :    0.122226
  20 C :   -0.305392
  21 C :   -0.269648
  22 H :    0.133697
  23 H :    0.126454
  24 H :    0.145452
  25 H :    0.178623
  26 C :   -0.227492
  27 H :    0.104705
  28 H :    0.120424
  29 C :   -0.312047
  30 H :    0.121302
  31 H :    0.152340
  32 C :   -0.216023
  33 H :    0.128659
  34 H :    0.136801
  35 H :    0.155855
  36 H :    0.131071
  37 H :    0.127143
  38 H :    0.131099
  39 F :   -0.077571
Sum of atomic charges:    0.0000000

LOEWDIN ATOMIC CHARGES
----------------------
   0 C :   -0.299254
   1 C :   -0.312970
   2 C :   -0.292939
   3 C :   -0.370861
   4 H :    0.148302
   5 H :    0.159980
   6 S :    0.541712
   7 C :   -0.457405
   8 N :   -0.013735
   9 N :   -0.022698
  10 H :    0.171949
  11 H :    0.160187
  12 H :    0.106495
  13 H :    0.145764
  14 H :    0.157930
  15 O :   -0.267011
  16 O :   -0.238266
  17 C :   -0.273760
  18 H :    0.142073
  19 H :    0.130951
  20 C :   -0.278007
  21 C :   -0.282778
  22 H :    0.142229
  23 H :    0.138878
  24 H :    0.149963
  25 H :    0.153676
  26 C :   -0.276207
  27 H :    0.133364
  28 H :    0.138135
  29 C :   -0.280428
  30 H :    0.138510
  31 H :    0.143467
  32 C :   -0.277495
  33 H :    0.140749
  34 H :    0.134838
  35 H :    0.143681
  36 H :    0.140444
  37 H :    0.139333
  38 H :    0.141614
  39 F :    0.099591

  Mayer bond orders larger than 0.100000
B(  0-C ,  1-C ) :   0.9340 B(  0-C , 17-C ) :   0.8930 B(  0-C , 18-H ) :   1.0186
B(  0-C , 19-H ) :   1.0056 B(  1-C ,  7-C ) :   1.5778 B(  1-C , 12-H ) :   1.0112
B(  2-C ,  3-C ) :   0.9062 B(  2-C , 21-C ) :   0.9063 B(  2-C , 24-H ) :   0.9627
B(  2-C , 25-H ) :   0.9682 B(  3-C ,  4-H ) :   0.9487 B(  3-C ,  5-H ) :   0.9529
B(  3-C ,  6-S ) :   0.9195 B(  6-S , 15-O ) :   1.7653 B(  6-S , 16-O ) :   2.0579
B(  6-S , 39-F ) :   1.1231 B(  7-C ,  8-N ) :   1.1967 B(  7-C ,  9-N ) :   1.1314
B(  8-N , 13-H ) :   0.8653 B(  8-N , 14-H ) :   0.9365 B(  9-N , 10-H ) :   0.9206
B(  9-N , 11-H ) :   0.9371 B( 13-H , 15-O ) :   0.1085 B( 17-C , 26-C ) :   0.9510
B( 17-C , 27-H ) :   0.9897 B( 17-C , 28-H ) :   0.9809 B( 20-C , 21-C ) :   0.9075
B( 20-C , 32-C ) :   0.9314 B( 20-C , 35-H ) :   0.9881 B( 20-C , 36-H ) :   0.9843
B( 21-C , 22-H ) :   0.9684 B( 21-C , 23-H ) :   0.9776 B( 26-C , 29-C ) :   0.8763
B( 26-C , 30-H ) :   0.9855 B( 26-C , 31-H ) :   0.9723 B( 29-C , 32-C ) :   0.9220
B( 29-C , 33-H ) :   0.9817 B( 29-C , 34-H ) :   0.9954 B( 32-C , 37-H ) :   0.9949
B( 32-C , 38-H ) :   0.9888

FINAL SINGLE POINT ENERGY     -1189.154701744006

DIPOLE MOMENT
-------------
                                X             Y             Z
Electronic contribution:    -18.42920       4.09987     -18.05373
Nuclear contribution   :     18.74089      -4.92611      17.99644
                        -----------------------------------------
Total Dipole Moment    :      0.31169      -0.82624      -0.05729
                        -----------------------------------------
Magnitude (a.u.)       :      0.88493
Magnitude (Debye)      :      2.24931

Rotational constants in cm-1:     0.014210     0.012324     0.007480
Rotational constants in MHz :   425.991442   369.455467   224.259162

                             ****ORCA TERMINATED NORMALLY****
TOTAL RUN TIME: 0 days 0 hours 2 minutes 0 seconds 796 msec
