                         Program Version 5.0.0 -  RELEASE  -
|  1> !LC-BLYP RIJCOSX def2-TZVP def2/J TightSCF xyzfile
|  2>
|  3> *xyzfile 0 1 D8.xyz
|  4>
|  5> %MaxCore 64000
|  6>
|  7> %pal nprocs 18
|  8> end
|  9>
| 10> %scf
| 11>   MaxIter 150
| 12> end
| 13>
| 14>
| 15>                          ****END OF INPUT****

CARTESIAN COORDINATES (ANGSTROEM)
---------------------------------
  C      4.490588    1.155899   -2.469290
  N      4.305394    1.222762   -3.908317
  C      4.906458   -3.102816   -5.954844
  C      3.511771   -2.806215   -6.492283
  H      2.736044   -3.373445   -5.973736
  H      3.444904   -3.040831   -7.555281
  S      3.004618   -1.096206   -6.389259
  C      4.631918    2.246365   -4.670958
  C      4.541686    2.143990   -5.987139
  N      5.084086    3.393584   -4.118545
  H      4.920675    3.570501   -3.135870
  H      5.254652    4.197390   -4.706956
  H      3.824530    0.449113   -4.350926
  H      4.343373    1.249318   -6.416646
  H      4.676712    2.956624   -6.574113
  O      4.128856   -0.329647   -6.953717
  O      1.781285   -1.000779   -7.136399
  C      5.942129    0.939500   -2.036893
  H      3.864305    0.328532   -2.136611
  H      4.076233    2.049994   -1.989010
  C      6.462677   -3.117775   -3.944671
  C      5.024977   -3.025679   -4.437625
  H      4.423321   -3.818693   -3.977648
  H      4.579350   -2.087131   -4.108727
  H      5.201533   -4.100207   -6.296905
  H      5.605922   -2.397822   -6.413368
  C      6.559957   -0.356290   -2.559086
  H      5.967976    0.952567   -0.942444
  H      6.547184    1.788331   -2.368849
  C      6.006283   -1.615917   -1.899301
  H      7.642360   -0.318000   -2.402059
  H      6.414855   -0.403433   -3.642587
  C      6.608718   -2.917014   -2.435655
  H      6.190324   -1.561115   -0.820948
  H      4.919250   -1.651245   -2.016586
  H      7.066975   -2.374258   -4.475514
  H      6.887808   -4.089747   -4.215332
  H      6.135197   -3.755573   -1.915159
  H      7.671142   -2.955503   -2.172291
  F      2.851546   -0.783683   -4.956789

 Total Charge           Charge          ....    0
 Multiplicity           Mult            ....    1
 Number of Electrons    NEL             ....  144
 Basis Dimension        Dim             ....  671

ORBITAL ENERGIES
----------------

  NO   OCC          E(Eh)            E(eV)
   0   2.0000     -88.523472     -2408.8461
   1   2.0000     -24.577632      -668.7914
   2   2.0000     -18.959162      -515.9050
   3   2.0000     -18.946241      -515.5534
   4   2.0000     -14.153184      -385.1277
   5   2.0000     -14.151775      -385.0894
   6   2.0000     -10.134358      -275.7699
   7   2.0000     -10.100014      -274.8353
   8   2.0000     -10.096921      -274.7512
   9   2.0000     -10.095198      -274.7043
  10   2.0000     -10.083426      -274.3840
  11   2.0000     -10.073661      -274.1183
  12   2.0000     -10.069925      -274.0166
  13   2.0000     -10.066325      -273.9186
  14   2.0000     -10.061377      -273.7840
  15   2.0000     -10.060517      -273.7606
  16   2.0000      -9.947295      -270.6797
  17   2.0000      -8.066484      -219.5002
  18   2.0000      -6.098578      -165.9507
  19   2.0000      -6.091109      -165.7475
  20   2.0000      -6.090797      -165.7390
  21   2.0000      -1.460149       -39.7327
  22   2.0000      -1.212667       -32.9984
  23   2.0000      -1.115012       -30.3410
  24   2.0000      -1.056192       -28.7404
  25   2.0000      -0.970797       -26.4167
  26   2.0000      -0.958545       -26.0833
  27   2.0000      -0.927663       -25.2430
  28   2.0000      -0.898324       -24.4446
  29   2.0000      -0.862274       -23.4637
  30   2.0000      -0.838156       -22.8074
  31   2.0000      -0.816919       -22.2295
  32   2.0000      -0.783811       -21.3286
  33   2.0000      -0.760550       -20.6956
  34   2.0000      -0.741089       -20.1661
  35   2.0000      -0.717366       -19.5205
  36   2.0000      -0.705698       -19.2030
  37   2.0000      -0.695159       -18.9162
  38   2.0000      -0.678179       -18.4542
  39   2.0000      -0.666022       -18.1234
  40   2.0000      -0.662098       -18.0166
  41   2.0000      -0.623416       -16.9640
  42   2.0000      -0.610728       -16.6188
  43   2.0000      -0.597424       -16.2567
  44   2.0000      -0.589364       -16.0374
  45   2.0000      -0.587821       -15.9954
  46   2.0000      -0.577033       -15.7019
  47   2.0000      -0.570128       -15.5140
  48   2.0000      -0.564293       -15.3552
  49   2.0000      -0.548478       -14.9248
  50   2.0000      -0.545500       -14.8438
  51   2.0000      -0.536111       -14.5883
  52   2.0000      -0.519741       -14.1429
  53   2.0000      -0.508184       -13.8284
  54   2.0000      -0.496414       -13.5081
  55   2.0000      -0.492308       -13.3964
  56   2.0000      -0.486333       -13.2338
  57   2.0000      -0.479115       -13.0374
  58   2.0000      -0.470257       -12.7964
  59   2.0000      -0.464812       -12.6482
  60   2.0000      -0.462813       -12.5938
  61   2.0000      -0.447550       -12.1785
  62   2.0000      -0.445391       -12.1197
  63   2.0000      -0.438255       -11.9255
  64   2.0000      -0.435226       -11.8431
  65   2.0000      -0.420871       -11.4525
  66   2.0000      -0.418415       -11.3856
  67   2.0000      -0.415229       -11.2990
  68   2.0000      -0.409514       -11.1434
  69   2.0000      -0.391330       -10.6486
  70   2.0000      -0.339844        -9.2476
  71   2.0000      -0.237282        -6.4568
  72   0.0000       0.074759         2.0343
  73   0.0000       0.092571         2.5190
  74   0.0000       0.094054         2.5593
  75   0.0000       0.103527         2.8171
  76   0.0000       0.107797         2.9333

MULLIKEN ATOMIC CHARGES
-----------------------
   0 C :   -0.367409
   1 N :   -0.262085
   2 C :   -0.262793
   3 C :   -0.316088
   4 H :    0.176473
   5 H :    0.203588
   6 S :    0.766994
   7 C :    0.417896
   8 C :   -0.623415
   9 N :   -0.477337
  10 H :    0.216703
  11 H :    0.230860
  12 H :    0.193789
  13 H :    0.127908
  14 H :    0.090710
  15 O :   -0.386816
  16 O :   -0.346563
  17 C :   -0.155608
  18 H :    0.155754
  19 H :    0.151689
  20 C :   -0.309589
  21 C :   -0.253672
  22 H :    0.137096
  23 H :    0.092694
  24 H :    0.145848
  25 H :    0.184280
  26 C :   -0.268002
  27 H :    0.116078
  28 H :    0.140161
  29 C :   -0.305738
  30 H :    0.131881
  31 H :    0.160077
  32 C :   -0.220773
  33 H :    0.133113
  34 H :    0.132509
  35 H :    0.161276
  36 H :    0.135576
  37 H :    0.131339
  38 H :    0.135499
  39 F :   -0.113901
Sum of atomic charges:    0.0000000

LOEWDIN ATOMIC CHARGES
----------------------
   0 C :   -0.311502
   1 N :    0.113772
   2 C :   -0.292560
   3 C :   -0.372945
   4 H :    0.146152
   5 H :    0.161119
   6 S :    0.532025
   7 C :   -0.470964
   8 C :   -0.348505
   9 N :   -0.026230
  10 H :    0.157604
  11 H :    0.174124
  12 H :    0.165358
  13 H :    0.087379
  14 H :    0.095592
  15 O :   -0.243242
  16 O :   -0.236528
  17 C :   -0.280512
  18 H :    0.135655
  19 H :    0.129435
  20 C :   -0.277207
  21 C :   -0.283614
  22 H :    0.142865
  23 H :    0.132719
  24 H :    0.150316
  25 H :    0.155279
  26 C :   -0.276867
  27 H :    0.140175
  28 H :    0.142849
  29 C :   -0.281904
  30 H :    0.142977
  31 H :    0.145229
  32 C :   -0.276224
  33 H :    0.141810
  34 H :    0.133066
  35 H :    0.144664
  36 H :    0.142252
  37 H :    0.140714
  38 H :    0.142978
  39 F :    0.082698

  Mayer bond orders larger than 0.100000
B(  0-C ,  1-N ) :   0.9412 B(  0-C , 17-C ) :   0.8606 B(  0-C , 18-H ) :   0.9988
B(  0-C , 19-H ) :   1.0079 B(  1-N ,  7-C ) :   1.1531 B(  1-N , 12-H ) :   0.9278
B(  2-C ,  3-C ) :   0.9052 B(  2-C , 21-C ) :   0.9106 B(  2-C , 24-H ) :   0.9621
B(  2-C , 25-H ) :   0.9653 B(  3-C ,  4-H ) :   0.9492 B(  3-C ,  5-H ) :   0.9516
B(  3-C ,  6-S ) :   0.9215 B(  6-S , 15-O ) :   1.8371 B(  6-S , 16-O ) :   2.0550
B(  6-S , 39-F ) :   1.0604 B(  7-C ,  8-C ) :   1.5638 B(  7-C ,  9-N ) :   1.0879
B(  8-C , 13-H ) :   1.0303 B(  8-C , 14-H ) :   1.0055 B(  9-N , 10-H ) :   0.9292
B(  9-N , 11-H ) :   0.9337 B( 17-C , 26-C ) :   0.9348 B( 17-C , 27-H ) :   0.9790
B( 17-C , 28-H ) :   0.9772 B( 20-C , 21-C ) :   0.9059 B( 20-C , 32-C ) :   0.9268
B( 20-C , 35-H ) :   0.9886 B( 20-C , 36-H ) :   0.9837 B( 21-C , 22-H ) :   0.9681
B( 21-C , 23-H ) :   0.9794 B( 26-C , 29-C ) :   0.8741 B( 26-C , 30-H ) :   0.9818
B( 26-C , 31-H ) :   0.9731 B( 29-C , 32-C ) :   0.9260 B( 29-C , 33-H ) :   0.9804
B( 29-C , 34-H ) :   0.9944 B( 32-C , 37-H ) :   0.9942 B( 32-C , 38-H ) :   0.9886

FINAL SINGLE POINT ENERGY     -1189.132643333008

DIPOLE MOMENT
-------------
                                X             Y             Z
Electronic contribution:    -18.46463       3.19021     -16.17718
Nuclear contribution   :     18.77618      -4.78855      17.68602
                        -----------------------------------------
Total Dipole Moment    :      0.31155      -1.59833       1.50884
                        -----------------------------------------
Magnitude (a.u.)       :      2.21998
Magnitude (Debye)      :      5.64275

Rotational constants in cm-1:     0.014368     0.012319     0.007509
Rotational constants in MHz :   430.738566   369.302170   225.105103

                             ****ORCA TERMINATED NORMALLY****
TOTAL RUN TIME: 0 days 0 hours 1 minutes 55 seconds 810 msec
