                         Program Version 5.0.0 -  RELEASE  -
|  1> !LC-BLYP RIJCOSX def2-SVPD def2/J TightSCF
|  2> *xyz -1 1
|  3> C          2.49670       -1.84416       -5.73570
|  4> O          2.45973       -0.50920       -5.50576
|  5> H          2.07863       -2.36209       -4.89793
|  6> H          3.51118       -2.15388       -5.87645
|  7> H          1.92949       -2.07059       -6.61428
|  8> *
|  9>
| 10> %MaxCore 64000
| 11>
| 12> %pal nprocs 4
| 13> end
| 14>
| 15> %scf
| 16>   MaxIter 150
| 17> end
| 18>
| 19>
| 20>                          ****END OF INPUT****

CARTESIAN COORDINATES (ANGSTROEM)
---------------------------------
  C      2.496700   -1.844160   -5.735700
  O      2.459730   -0.509200   -5.505760
  H      2.078630   -2.362090   -4.897930
  H      3.511180   -2.153880   -5.876450
  H      1.929490   -2.070590   -6.614280

 Total Charge           Charge          ....   -1
 Multiplicity           Mult            ....    1
 Number of Electrons    NEL             ....   18
 Basis Dimension        Dim             ....   67

ORBITAL ENERGIES
----------------

  NO   OCC          E(Eh)            E(eV)
   0   2.0000     -18.601348      -506.1684
   1   2.0000      -9.871307      -268.6119
   2   2.0000      -0.751421       -20.4472
   3   2.0000      -0.494852       -13.4656
   4   2.0000      -0.302844        -8.2408
   5   2.0000      -0.302842        -8.2407
   6   2.0000      -0.200998        -5.4694
   7   2.0000      -0.046523        -1.2660
   8   2.0000      -0.046515        -1.2657
   9   0.0000       0.248100         6.7512
  10   0.0000       0.323949         8.8151
  11   0.0000       0.323951         8.8152
  12   0.0000       0.332863         9.0577
  13   0.0000       0.368509        10.0276

MULLIKEN ATOMIC CHARGES
-----------------------
   0 C :    0.918726
   1 O :   -0.953776
   2 H :   -0.321632
   3 H :   -0.321666
   4 H :   -0.321651
Sum of atomic charges:   -1.0000000

LOEWDIN ATOMIC CHARGES
----------------------
   0 C :   -0.147496
   1 O :   -0.636757
   2 H :   -0.071919
   3 H :   -0.071917
   4 H :   -0.071911

  Mayer bond orders larger than 0.100000
B(  0-C ,  1-O ) :   1.2891 B(  0-C ,  2-H ) :   0.8710 B(  0-C ,  3-H ) :   0.8709
B(  0-C ,  4-H ) :   0.8709

FINAL SINGLE POINT ENERGY      -114.757429314986

DIPOLE MOMENT
-------------
                                X             Y             Z
Electronic contribution:     -0.04820       1.74092       0.29984
Nuclear contribution   :      0.07809      -2.81948      -0.48564
                        -----------------------------------------
Total Dipole Moment    :      0.02989      -1.07856      -0.18580
                        -----------------------------------------
Magnitude (a.u.)       :      1.09486
Magnitude (Debye)      :      2.78291

Rotational constants in cm-1:     5.477724     0.956378     0.956377
Rotational constants in MHz : 164218.041992 28671.483536 28671.460928

                             ****ORCA TERMINATED NORMALLY****
TOTAL RUN TIME: 0 days 0 hours 0 minutes 3 seconds 681 msec
