                         Program Version 5.0.0 -  RELEASE  -
|  1> !LC-BLYP RIJCOSX def2-SVPD def2/J TightSCF
|  2> *xyz 1 1
|  3> C          4.99986       -1.59613       -5.92488
|  4> N          5.28156       -1.97413       -4.53576
|  5> C          4.79250       -1.36132       -3.45730
|  6> N          3.93990       -0.37492       -3.55736
|  7> N          5.25986       -1.75422       -2.23913
|  8> H          5.92282       -2.52145       -2.18672
|  9> H          4.65468       -1.64040       -1.44202
| 10> H          5.70914       -2.87560       -4.38702
| 11> H          3.33010       -0.31764       -4.36125
| 12> H          3.69849        0.11447       -2.70833
| 13> H          5.52133       -2.25562       -6.58673
| 14> H          5.32493       -0.59081       -6.09388
| 15> H          3.94785       -1.66624       -6.10727
| 16> *
| 17>
| 18> %MaxCore 64000
| 19>
| 20> %pal nprocs 4
| 21> end
| 22>
| 23> %scf
| 24>   MaxIter 150
| 25> end
| 26>
| 27>
| 28>                          ****END OF INPUT****

CARTESIAN COORDINATES (ANGSTROEM)
---------------------------------
  C      4.999860   -1.596130   -5.924880
  N      5.281560   -1.974130   -4.535760
  C      4.792500   -1.361320   -3.457300
  N      3.939900   -0.374920   -3.557360
  N      5.259860   -1.754220   -2.239130
  H      5.922820   -2.521450   -2.186720
  H      4.654680   -1.640400   -1.442020
  H      5.709140   -2.875600   -4.387020
  H      3.330100   -0.317640   -4.361250
  H      3.698490    0.114470   -2.708330
  H      5.521330   -2.255620   -6.586730
  H      5.324930   -0.590810   -6.093880
  H      3.947850   -1.666240   -6.107270

 Total Charge           Charge          ....    1
 Multiplicity           Mult            ....    1
 Number of Electrons    NEL             ....   40
 Basis Dimension        Dim             ....  164

ORBITAL ENERGIES
----------------

  NO   OCC          E(Eh)            E(eV)
   0   2.0000     -14.422284      -392.4503
   1   2.0000     -14.420119      -392.3914
   2   2.0000     -14.411228      -392.1494
   3   2.0000     -10.429474      -283.8004
   4   2.0000     -10.291223      -280.0384
   5   2.0000      -1.315159       -35.7873
   6   2.0000      -1.204949       -32.7883
   7   2.0000      -1.188940       -32.3527
   8   2.0000      -1.010427       -27.4951
   9   2.0000      -0.935138       -25.4464
  10   2.0000      -0.899980       -24.4897
  11   2.0000      -0.855899       -23.2902
  12   2.0000      -0.808715       -22.0063
  13   2.0000      -0.799348       -21.7514
  14   2.0000      -0.761528       -20.7222
  15   2.0000      -0.738846       -20.1050
  16   2.0000      -0.698449       -19.0058
  17   2.0000      -0.682017       -18.5586
  18   2.0000      -0.586592       -15.9620
  19   2.0000      -0.558014       -15.1843
  20   0.0000      -0.104469        -2.8427
  21   0.0000      -0.096114        -2.6154
  22   0.0000      -0.062145        -1.6910
  23   0.0000      -0.055914        -1.5215
  24   0.0000      -0.028968        -0.7882

MULLIKEN ATOMIC CHARGES
-----------------------
   0 C :    1.281455
   1 N :   -0.354230
   2 C :    0.759066
   3 N :    0.229292
   4 N :    0.151482
   5 H :   -0.066522
   6 H :   -0.063531
   7 H :   -0.225821
   8 H :   -0.050802
   9 H :   -0.106482
  10 H :   -0.392786
  11 H :   -0.068563
  12 H :   -0.092559
Sum of atomic charges:    1.0000000

LOEWDIN ATOMIC CHARGES
----------------------
   0 C :    0.237218
   1 N :    0.035813
   2 C :   -0.068178
   3 N :    0.295082
   4 N :    0.271535
   5 H :    0.034165
   6 H :    0.028468
   7 H :    0.053082
   8 H :    0.036321
   9 H :    0.046277
  10 H :    0.015950
  11 H :    0.013244
  12 H :    0.001023

  Mayer bond orders larger than 0.100000
B(  0-C ,  1-N ) :   1.0033 B(  0-C ,  7-H ) :  -0.1198 B(  0-C , 10-H ) :   0.7524
B(  0-C , 11-H ) :   0.7761 B(  0-C , 12-H ) :   0.7909 B(  1-N ,  2-C ) :   1.1615
B(  1-N ,  3-N ) :   0.2391 B(  1-N ,  4-N ) :   0.1945 B(  1-N ,  7-H ) :   1.2259
B(  1-N , 10-H ) :   0.1949 B(  1-N , 11-H ) :   0.1536 B(  1-N , 12-H ) :   0.1274
B(  2-C ,  3-N ) :   1.1830 B(  2-C ,  4-N ) :   0.9809 B(  2-C ,  5-H ) :  -0.1078
B(  2-C ,  7-H ) :  -0.1900 B(  2-C ,  8-H ) :  -0.1163 B(  3-N ,  4-N ) :   0.1365
B(  3-N ,  8-H ) :   1.1292 B(  3-N ,  9-H ) :   1.1651 B(  4-N ,  5-H ) :   1.0946
B(  4-N ,  6-H ) :   1.1446 B(  5-H ,  6-H ) :  -0.1364 B(  8-H ,  9-H ) :  -0.1858

FINAL SINGLE POINT ENERGY      -244.308630372950

DIPOLE MOMENT
-------------
                                X             Y             Z
Electronic contribution:      0.16335       0.11159       2.67104
Nuclear contribution   :     -0.59263      -0.40751      -2.24260
                        -----------------------------------------
Total Dipole Moment    :     -0.42928      -0.29592       0.42844
                        -----------------------------------------
Magnitude (a.u.)       :      0.67484
Magnitude (Debye)      :      1.71531

Rotational constants in cm-1:     0.316984     0.131419     0.095004
Rotational constants in MHz :  9502.926758  3939.829875  2848.138998

                             ****ORCA TERMINATED NORMALLY****
TOTAL RUN TIME: 0 days 0 hours 0 minutes 16 seconds 851 msec
