                         Program Version 5.0.0 -  RELEASE  -
|  1> !LC-BLYP RIJCOSX def2-SVPD def2/J TightSCF xyzfile
|  2>
|  3> *xyzfile 0 1 B.xyz
|  4>
|  5> %MaxCore 64000
|  6>
|  7> %pal nprocs 4
|  8> end
|  9>
| 10> %scf
| 11>   MaxIter 150
| 12> end
| 13>
| 14>
| 15>                          ****END OF INPUT****

CARTESIAN COORDINATES (ANGSTROEM)
---------------------------------
  C      4.999862   -1.596133   -5.924876
  N      5.281560   -1.974132   -4.535764
  C      3.766779   -2.266110   -6.511752
  C      2.496702   -1.844161   -5.735704
  H      1.626416   -2.217434   -6.308950
  H      2.481824   -2.456069   -4.793414
  O      2.459729   -0.509204   -5.505757
  C      4.792500   -1.361316   -3.457295
  N      3.939898   -0.374925   -3.557359
  N      5.259860   -1.754224   -2.239133
  H      5.922824   -2.521451   -2.186720
  H      4.654678   -1.640404   -1.442016
  H      5.709139   -2.875599   -4.387021
  H      3.330101   -0.317639   -4.361247
  H      3.698494    0.114468   -2.708333
  H      4.843333   -0.517930   -5.943019
  H      5.901695   -1.822503   -6.496467
  H      3.886191   -3.357076   -6.533604
  H      3.685602   -1.922168   -7.547128

 Total Charge           Charge          ....    0
 Multiplicity           Mult            ....    1
 Number of Electrons    NEL             ....   64
 Basis Dimension        Dim             ....  251

ORBITAL ENERGIES
----------------

  NO   OCC          E(Eh)            E(eV)
   0   2.0000     -18.810110      -511.8491
   1   2.0000     -14.255271      -387.9057
   2   2.0000     -14.246949      -387.6792
   3   2.0000     -14.203524      -386.4975
   4   2.0000     -10.250056      -278.9182
   5   2.0000     -10.118446      -275.3369
   6   2.0000     -10.069681      -274.0099
   7   2.0000     -10.054993      -273.6103
   8   2.0000      -1.138652       -30.9843
   9   2.0000      -1.032373       -28.0923
  10   2.0000      -1.013648       -27.5828
  11   2.0000      -0.968491       -26.3540
  12   2.0000      -0.860897       -23.4262
  13   2.0000      -0.781034       -21.2530
  14   2.0000      -0.738423       -20.0935
  15   2.0000      -0.721484       -19.6326
  16   2.0000      -0.692568       -18.8457
  17   2.0000      -0.646912       -17.6034
  18   2.0000      -0.626601       -17.0507
  19   2.0000      -0.611079       -16.6283
  20   2.0000      -0.575453       -15.6589
  21   2.0000      -0.568966       -15.4824
  22   2.0000      -0.542101       -14.7513
  23   2.0000      -0.512157       -13.9365
  24   2.0000      -0.463448       -12.6111
  25   2.0000      -0.444307       -12.0902
  26   2.0000      -0.432429       -11.7670
  27   2.0000      -0.410536       -11.1713
  28   2.0000      -0.397040       -10.8040
  29   2.0000      -0.376581       -10.2473
  30   2.0000      -0.262426        -7.1410
  31   2.0000      -0.258638        -7.0379
  32   0.0000       0.036693         0.9985
  33   0.0000       0.069583         1.8934
  34   0.0000       0.073650         2.0041
  35   0.0000       0.090081         2.4512
  36   0.0000       0.110459         3.0057

MULLIKEN ATOMIC CHARGES
-----------------------
   0 C :    0.800601
   1 N :   -0.288672
   2 C :    0.260756
   3 C :    0.593867
   4 H :   -0.503479
   5 H :    0.072795
   6 O :   -0.541322
   7 C :    0.710045
   8 N :    0.591917
   9 N :    0.138146
  10 H :   -0.111386
  11 H :   -0.072212
  12 H :   -0.261584
  13 H :   -0.560149
  14 H :   -0.176799
  15 H :    0.140187
  16 H :   -0.511194
  17 H :   -0.224376
  18 H :   -0.057140
Sum of atomic charges:   -0.0000000

LOEWDIN ATOMIC CHARGES
----------------------
   0 C :    0.045088
   1 N :    0.054424
   2 C :   -0.034877
   3 C :   -0.126413
   4 H :    0.009822
   5 H :    0.003451
   6 O :   -0.403732
   7 C :   -0.079040
   8 N :    0.311472
   9 N :    0.236491
  10 H :    0.007316
  11 H :    0.007724
  12 H :    0.037938
  13 H :   -0.198111
  14 H :    0.029589
  15 H :    0.029487
  16 H :    0.023688
  17 H :    0.016170
  18 H :    0.029512

  Mayer bond orders larger than 0.100000
B(  0-C ,  1-N ) :   1.0278 B(  0-C ,  2-C ) :   1.1454 B(  0-C , 12-H ) :  -0.2000
B(  0-C , 15-H ) :   0.6668 B(  0-C , 16-H ) :   0.8179 B(  0-C , 17-H ) :   0.1735
B(  0-C , 18-H ) :   0.1242 B(  1-N ,  7-C ) :   1.1256 B(  1-N ,  8-N ) :   0.1703
B(  1-N ,  9-N ) :   0.1823 B(  1-N , 12-H ) :   1.2709 B(  1-N , 15-H ) :   0.1858
B(  1-N , 16-H ) :   0.1441 B(  2-C ,  3-C ) :   1.0608 B(  2-C ,  4-H ) :   0.1667
B(  2-C ,  5-H ) :   0.1489 B(  2-C , 15-H ) :   0.1351 B(  2-C , 17-H ) :   0.8375
B(  2-C , 18-H ) :   0.8154 B(  3-C ,  4-H ) :   0.9576 B(  3-C ,  5-H ) :   0.8083
B(  3-C ,  6-O ) :   1.2243 B(  3-C , 17-H ) :   0.1109 B(  3-C , 18-H ) :   0.1257
B(  6-O , 13-H ) :   0.4302 B(  7-C ,  8-N ) :   1.2427 B(  7-C ,  9-N ) :   0.9040
B(  7-C , 10-H ) :  -0.1170 B(  7-C , 12-H ) :  -0.2241 B(  7-C , 13-H ) :  -0.1605
B(  7-C , 14-H ) :  -0.1035 B(  8-N ,  9-N ) :   0.1587 B(  8-N , 13-H ) :   1.1694
B(  8-N , 14-H ) :   1.1384 B(  9-N , 10-H ) :   1.1252 B(  9-N , 11-H ) :   1.1342
B( 10-H , 11-H ) :  -0.1486 B( 13-H , 14-H ) :  -0.2251 B( 15-H , 16-H ) :  -0.1904

FINAL SINGLE POINT ENERGY      -397.282097171460

DIPOLE MOMENT
-------------
                                X             Y             Z
Electronic contribution:      1.94559       1.87454       3.70702
Nuclear contribution   :      0.51577      -3.31768      -1.36804
                        -----------------------------------------
Total Dipole Moment    :      2.46136      -1.44314       2.33898
                        -----------------------------------------
Magnitude (a.u.)       :      3.68942
Magnitude (Debye)      :      9.37775

Rotational constants in cm-1:     0.111492     0.050787     0.040163
Rotational constants in MHz :  3342.457536  1522.560798  1204.057148

                             ****ORCA TERMINATED NORMALLY****
TOTAL RUN TIME: 0 days 0 hours 0 minutes 55 seconds 103 msec
