                         Program Version 5.0.0 -  RELEASE  -
|  1> !LC-BLYP RIJCOSX def2-SVPD def2/J TightSCF
|  2> *xyz 0 1
|  3> C          2.49670       -1.84416       -5.73570
|  4> F          2.45973       -0.50920       -5.50576
|  5> H          2.07863       -2.36209       -4.89793
|  6> H          3.51118       -2.15388       -5.87645
|  7> H          1.92949       -2.07059       -6.61428
|  8> *
|  9>
| 10> %MaxCore 64000
| 11>
| 12> %pal nprocs 4
| 13> end
| 14>
| 15> %scf
| 16>   MaxIter 150
| 17> end
| 18>
| 19>
| 20>                          ****END OF INPUT****

CARTESIAN COORDINATES (ANGSTROEM)
---------------------------------
  C      2.496700   -1.844160   -5.735700
  F      2.459730   -0.509200   -5.505760
  H      2.078630   -2.362090   -4.897930
  H      3.511180   -2.153880   -5.876450
  H      1.929490   -2.070590   -6.614280

 Total Charge           Charge          ....    0
 Multiplicity           Mult            ....    1
 Number of Electrons    NEL             ....   18
 Basis Dimension        Dim             ....   67

ORBITAL ENERGIES
----------------

  NO   OCC          E(Eh)            E(eV)
   0   2.0000     -24.461130      -665.6212
   1   2.0000     -10.155485      -276.3448
   2   2.0000      -1.269988       -34.5581
   3   2.0000      -0.808273       -21.9942
   4   2.0000      -0.605561       -16.4781
   5   2.0000      -0.600351       -16.3364
   6   2.0000      -0.600347       -16.3363
   7   2.0000      -0.449640       -12.2353
   8   2.0000      -0.449636       -12.2352
   9   0.0000       0.075491         2.0542
  10   0.0000       0.126590         3.4447
  11   0.0000       0.156814         4.2671
  12   0.0000       0.156814         4.2671
  13   0.0000       0.195898         5.3306

MULLIKEN ATOMIC CHARGES
-----------------------
   0 C :    1.024986
   1 F :   -0.423232
   2 H :   -0.200578
   3 H :   -0.200578
   4 H :   -0.200598
Sum of atomic charges:   -0.0000000

LOEWDIN ATOMIC CHARGES
----------------------
   0 C :    0.230671
   1 F :   -0.229779
   2 H :   -0.000301
   3 H :   -0.000297
   4 H :   -0.000294

  Mayer bond orders larger than 0.100000
B(  0-C ,  1-F ) :   0.9405 B(  0-C ,  2-H ) :   0.9000 B(  0-C ,  3-H ) :   0.9000
B(  0-C ,  4-H ) :   0.9001

FINAL SINGLE POINT ENERGY      -139.367784276275

DIPOLE MOMENT
-------------
                                X             Y             Z
Electronic contribution:     -0.07921       2.86029       0.49264
Nuclear contribution   :      0.09898      -3.57380      -0.61557
                        -----------------------------------------
Total Dipole Moment    :      0.01977      -0.71351      -0.12293
                        -----------------------------------------
Magnitude (a.u.)       :      0.72429
Magnitude (Debye)      :      1.84100

Rotational constants in cm-1:     5.477724     0.890368     0.890367
Rotational constants in MHz : 164218.041992 26692.553985 26692.534390

                             ****ORCA TERMINATED NORMALLY****
TOTAL RUN TIME: 0 days 0 hours 0 minutes 3 seconds 312 msec
