                         Program Version 5.0.0 -  RELEASE  -
|  1> !LC-BLYP RIJCOSX def2-SVPD def2/J TightSCF
|  2> *xyz 0 1
|  3> C          4.99986       -1.59613       -5.92488
|  4> C          5.28156       -1.97413       -4.53576
|  5> C          4.79250       -1.36132       -3.45730
|  6> N          3.93990       -0.37492       -3.55736
|  7> N          5.25986       -1.75422       -2.23913
|  8> H          5.92282       -2.52145       -2.18672
|  9> H          4.65468       -1.64040       -1.44202
| 10> H          5.70914       -2.87560       -4.38702
| 11> H          3.33010       -0.31764       -4.36125
| 12> H          3.69849        0.11447       -2.70833
| 13> H          5.52133       -2.25562       -6.58673
| 14> H          5.32493       -0.59081       -6.09388
| 15> H          3.94785       -1.66624       -6.10727
| 16> *
| 17>
| 18> %MaxCore 64000
| 19>
| 20> %pal nprocs 4
| 21> end
| 22>
| 23> %scf
| 24>   MaxIter 150
| 25> end
| 26>
| 27>
| 28>                          ****END OF INPUT****

CARTESIAN COORDINATES (ANGSTROEM)
---------------------------------
  C      4.999860   -1.596130   -5.924880
  C      5.281560   -1.974130   -4.535760
  C      4.792500   -1.361320   -3.457300
  N      3.939900   -0.374920   -3.557360
  N      5.259860   -1.754220   -2.239130
  H      5.922820   -2.521450   -2.186720
  H      4.654680   -1.640400   -1.442020
  H      5.709140   -2.875600   -4.387020
  H      3.330100   -0.317640   -4.361250
  H      3.698490    0.114470   -2.708330
  H      5.521330   -2.255620   -6.586730
  H      5.324930   -0.590810   -6.093880
  H      3.947850   -1.666240   -6.107270

 Total Charge           Charge          ....    0
 Multiplicity           Mult            ....    1
 Number of Electrons    NEL             ....   40
 Basis Dimension        Dim             ....  164

ORBITAL ENERGIES
----------------

  NO   OCC          E(Eh)            E(eV)
   0   2.0000     -14.193107      -386.2141
   1   2.0000     -14.182999      -385.9390
   2   2.0000     -10.127663      -275.5877
   3   2.0000     -10.050122      -273.4777
   4   2.0000     -10.011619      -272.4300
   5   2.0000      -1.055824       -28.7304
   6   2.0000      -0.962734       -26.1973
   7   2.0000      -0.852944       -23.2098
   8   2.0000      -0.757127       -20.6025
   9   2.0000      -0.688590       -18.7375
  10   2.0000      -0.649688       -17.6789
  11   2.0000      -0.605816       -16.4851
  12   2.0000      -0.579234       -15.7617
  13   2.0000      -0.534103       -14.5337
  14   2.0000      -0.512307       -13.9406
  15   2.0000      -0.477929       -13.0051
  16   2.0000      -0.459884       -12.5141
  17   2.0000      -0.437213       -11.8972
  18   2.0000      -0.366617        -9.9761
  19   2.0000      -0.254873        -6.9354
  20   0.0000       0.072172         1.9639
  21   0.0000       0.097594         2.6557
  22   0.0000       0.108700         2.9579
  23   0.0000       0.137970         3.7543
  24   0.0000       0.142881         3.8880

MULLIKEN ATOMIC CHARGES
-----------------------
   0 C :    0.987503
   1 C :   -0.631435
   2 C :    0.594219
   3 N :    0.305575
   4 N :    0.176215
   5 H :   -0.070756
   6 H :   -0.145593
   7 H :   -0.563212
   8 H :   -0.093763
   9 H :   -0.254189
  10 H :   -0.141553
  11 H :   -0.042924
  12 H :   -0.120086
Sum of atomic charges:   -0.0000000

LOEWDIN ATOMIC CHARGES
----------------------
   0 C :    0.075656
   1 C :   -0.066224
   2 C :   -0.257264
   3 N :    0.210645
   4 N :    0.189206
   5 H :   -0.002216
   6 H :   -0.025014
   7 H :   -0.059461
   8 H :    0.000710
   9 H :   -0.004642
  10 H :   -0.016445
  11 H :   -0.016526
  12 H :   -0.028425

  Mayer bond orders larger than 0.100000
B(  0-C ,  1-C ) :   1.2552 B(  0-C ,  7-H ) :   0.1828 B(  0-C , 10-H ) :   0.6565
B(  0-C , 11-H ) :   0.5977 B(  0-C , 12-H ) :   0.7061 B(  1-C ,  2-C ) :   1.4572
B(  1-C ,  3-N ) :   0.3438 B(  1-C ,  4-N ) :   0.3468 B(  1-C ,  7-H ) :   0.9328
B(  1-C , 10-H ) :   0.3566 B(  1-C , 11-H ) :   0.3519 B(  1-C , 12-H ) :   0.2116
B(  2-C ,  3-N ) :   1.1378 B(  2-C ,  4-N ) :   0.9208 B(  3-N ,  8-H ) :   1.1144
B(  3-N ,  9-H ) :   1.2144 B(  4-N ,  5-H ) :   1.0821 B(  4-N ,  6-H ) :   1.1141
B(  5-H ,  6-H ) :  -0.1197 B(  7-H , 10-H ) :  -0.1467 B(  8-H ,  9-H ) :  -0.1753
B( 10-H , 11-H ) :   0.1216

FINAL SINGLE POINT ENERGY      -227.850251426992

DIPOLE MOMENT
-------------
                                X             Y             Z
Electronic contribution:     -0.14323       0.58713       3.06434
Nuclear contribution   :     -0.50372      -0.52081      -2.36443
                        -----------------------------------------
Total Dipole Moment    :     -0.64695       0.06632       0.69991
                        -----------------------------------------
Magnitude (a.u.)       :      0.95541
Magnitude (Debye)      :      2.42847

Rotational constants in cm-1:     0.322219     0.132365     0.095965
Rotational constants in MHz :  9659.878542  3968.206057  2876.950547

                             ****ORCA TERMINATED NORMALLY****
TOTAL RUN TIME: 0 days 0 hours 0 minutes 17 seconds 241 msec
