                         Program Version 5.0.0 -  RELEASE  -
|  1> !LC-BLYP RIJCOSX def2-SVPD def2/J TightSCF
|  2> *xyz 0 1
|  3> C          4.99986       -1.59613       -5.92488
|  4> N          5.28156       -1.97413       -4.53576
|  5> C          4.79250       -1.36132       -3.45730
|  6> C          3.93990       -0.37492       -3.55736
|  7> N          5.25986       -1.75422       -2.23913
|  8> H          5.92282       -2.52145       -2.18672
|  9> H          4.65468       -1.64040       -1.44202
| 10> H          5.70914       -2.87560       -4.38702
| 11> H          3.33010       -0.31764       -4.36125
| 12> H          3.69849        0.11447       -2.70833
| 13> H          5.52133       -2.25562       -6.58673
| 14> H          5.32493       -0.59081       -6.09388
| 15> H          3.94785       -1.66624       -6.10727
| 16> *
| 17>
| 18> %MaxCore 64000
| 19>
| 20> %pal nprocs 4
| 21> end
| 22>
| 23> %scf
| 24>   MaxIter 150
| 25> end
| 26>
| 27>
| 28>                          ****END OF INPUT****

CARTESIAN COORDINATES (ANGSTROEM)
---------------------------------
  C      4.999860   -1.596130   -5.924880
  N      5.281560   -1.974130   -4.535760
  C      4.792500   -1.361320   -3.457300
  C      3.939900   -0.374920   -3.557360
  N      5.259860   -1.754220   -2.239130
  H      5.922820   -2.521450   -2.186720
  H      4.654680   -1.640400   -1.442020
  H      5.709140   -2.875600   -4.387020
  H      3.330100   -0.317640   -4.361250
  H      3.698490    0.114470   -2.708330
  H      5.521330   -2.255620   -6.586730
  H      5.324930   -0.590810   -6.093880
  H      3.947850   -1.666240   -6.107270

 Total Charge           Charge          ....    0
 Multiplicity           Mult            ....    1
 Number of Electrons    NEL             ....   40
 Basis Dimension        Dim             ....  164

ORBITAL ENERGIES
----------------

  NO   OCC          E(Eh)            E(eV)
   0   2.0000     -14.192036      -386.1849
   1   2.0000     -14.185734      -386.0135
   2   2.0000     -10.132343      -275.7151
   3   2.0000     -10.109888      -275.1040
   4   2.0000     -10.001513      -272.1550
   5   2.0000      -1.056745       -28.7555
   6   2.0000      -0.971548       -26.4372
   7   2.0000      -0.826772       -22.4976
   8   2.0000      -0.800812       -21.7912
   9   2.0000      -0.670375       -18.2418
  10   2.0000      -0.649370       -17.6703
  11   2.0000      -0.616009       -16.7625
  12   2.0000      -0.564150       -15.3513
  13   2.0000      -0.539666       -14.6851
  14   2.0000      -0.519906       -14.1473
  15   2.0000      -0.485552       -13.2126
  16   2.0000      -0.484365       -13.1802
  17   2.0000      -0.459844       -12.5130
  18   2.0000      -0.349610        -9.5134
  19   2.0000      -0.270565        -7.3625
  20   0.0000       0.070874         1.9286
  21   0.0000       0.091460         2.4887
  22   0.0000       0.107272         2.9190
  23   0.0000       0.138388         3.7657
  24   0.0000       0.141612         3.8535

MULLIKEN ATOMIC CHARGES
-----------------------
   0 C :    1.259872
   1 N :   -0.342045
   2 C :    0.368715
   3 C :    0.500580
   4 N :    0.210502
   5 H :   -0.195306
   6 H :   -0.074922
   7 H :   -0.355682
   8 H :   -0.289024
   9 H :   -0.485287
  10 H :   -0.478020
  11 H :   -0.080823
  12 H :   -0.038562
Sum of atomic charges:    0.0000000

LOEWDIN ATOMIC CHARGES
----------------------
   0 C :    0.189510
   1 N :   -0.034204
   2 C :   -0.261122
   3 C :    0.148847
   4 N :    0.195350
   5 H :   -0.016789
   6 H :   -0.007004
   7 H :    0.009701
   8 H :   -0.097990
   9 H :   -0.092052
  10 H :   -0.012489
  11 H :   -0.005678
  12 H :   -0.016081

  Mayer bond orders larger than 0.100000
B(  0-C ,  1-N ) :   0.9886 B(  0-C ,  7-H ) :  -0.1289 B(  0-C , 10-H ) :   0.7589
B(  0-C , 11-H ) :   0.7803 B(  0-C , 12-H ) :   0.8012 B(  1-N ,  2-C ) :   1.1132
B(  1-N ,  3-C ) :   0.3830 B(  1-N ,  4-N ) :   0.1363 B(  1-N ,  7-H ) :   1.2884
B(  1-N , 10-H ) :   0.1850 B(  1-N , 11-H ) :   0.1529 B(  1-N , 12-H ) :   0.1081
B(  2-C ,  3-C ) :   1.6706 B(  2-C ,  4-N ) :   0.9976 B(  2-C ,  7-H ) :  -0.1955
B(  2-C ,  8-H ) :   0.2202 B(  2-C ,  9-H ) :   0.2856 B(  3-C ,  4-N ) :   0.2483
B(  3-C ,  8-H ) :   0.6773 B(  3-C ,  9-H ) :   0.6604 B(  4-N ,  5-H ) :   1.0954
B(  4-N ,  6-H ) :   1.1099 B(  5-H ,  6-H ) :  -0.1288 B(  8-H ,  9-H ) :   0.1275

FINAL SINGLE POINT ENERGY      -227.840772731634

DIPOLE MOMENT
-------------
                                X             Y             Z
Electronic contribution:      1.09861      -0.86908       2.10798
Nuclear contribution   :     -0.77547      -0.19690      -2.16626
                        -----------------------------------------
Total Dipole Moment    :      0.32314      -1.06598      -0.05827
                        -----------------------------------------
Magnitude (a.u.)       :      1.11540
Magnitude (Debye)      :      2.83513

Rotational constants in cm-1:     0.340409     0.131955     0.097296
Rotational constants in MHz : 10205.195281  3955.909122  2916.861706

                             ****ORCA TERMINATED NORMALLY****
TOTAL RUN TIME: 0 days 0 hours 0 minutes 17 seconds 122 msec
