                         Program Version 5.0.0 -  RELEASE  -
|  1> !LC-BLYP RIJCOSX def2-SVPD def2/J TightSCF
|  2> *xyz 0 1
|  3> C          4.99986       -1.59613       -5.92488
|  4> N          5.28156       -1.97413       -4.53576
|  5> C          4.79250       -1.36132       -3.45730
|  6> N          3.93990       -0.37492       -3.55736
|  7> C          5.25986       -1.75422       -2.23913
|  8> H          5.92282       -2.52145       -2.18672
|  9> H          4.65468       -1.64040       -1.44202
| 10> H          5.70914       -2.87560       -4.38702
| 11> H          3.33010       -0.31764       -4.36125
| 12> H          3.69849        0.11447       -2.70833
| 13> H          5.52133       -2.25562       -6.58673
| 14> H          5.32493       -0.59081       -6.09388
| 15> H          3.94785       -1.66624       -6.10727
| 16> *
| 17>
| 18> %MaxCore 64000
| 19>
| 20> %pal nprocs 4
| 21> end
| 22>
| 23> %scf
| 24>   MaxIter 150
| 25> end
| 26>
| 27>
| 28>                          ****END OF INPUT****

CARTESIAN COORDINATES (ANGSTROEM)
---------------------------------
  C      4.999860   -1.596130   -5.924880
  N      5.281560   -1.974130   -4.535760
  C      4.792500   -1.361320   -3.457300
  N      3.939900   -0.374920   -3.557360
  C      5.259860   -1.754220   -2.239130
  H      5.922820   -2.521450   -2.186720
  H      4.654680   -1.640400   -1.442020
  H      5.709140   -2.875600   -4.387020
  H      3.330100   -0.317640   -4.361250
  H      3.698490    0.114470   -2.708330
  H      5.521330   -2.255620   -6.586730
  H      5.324930   -0.590810   -6.093880
  H      3.947850   -1.666240   -6.107270

 Total Charge           Charge          ....    0
 Multiplicity           Mult            ....    1
 Number of Electrons    NEL             ....   40
 Basis Dimension        Dim             ....  164

ORBITAL ENERGIES
----------------

  NO   OCC          E(Eh)            E(eV)
   0   2.0000     -14.194323      -386.2472
   1   2.0000     -14.191202      -386.1622
   2   2.0000     -10.136895      -275.8389
   3   2.0000     -10.118724      -275.3445
   4   2.0000      -9.994532      -271.9650
   5   2.0000      -1.066825       -29.0298
   6   2.0000      -0.982209       -26.7273
   7   2.0000      -0.843259       -22.9463
   8   2.0000      -0.765338       -20.8259
   9   2.0000      -0.709242       -19.2995
  10   2.0000      -0.650152       -17.6915
  11   2.0000      -0.599856       -16.3229
  12   2.0000      -0.584943       -15.9171
  13   2.0000      -0.558817       -15.2062
  14   2.0000      -0.507403       -13.8071
  15   2.0000      -0.493328       -13.4241
  16   2.0000      -0.484367       -13.1803
  17   2.0000      -0.453597       -12.3430
  18   2.0000      -0.357843        -9.7374
  19   2.0000      -0.254133        -6.9153
  20   0.0000       0.064534         1.7561
  21   0.0000       0.100857         2.7445
  22   0.0000       0.103876         2.8266
  23   0.0000       0.132214         3.5977
  24   0.0000       0.141519         3.8509

MULLIKEN ATOMIC CHARGES
-----------------------
   0 C :    1.311101
   1 N :   -0.285735
   2 C :    0.237242
   3 N :    0.277720
   4 C :    0.621599
   5 H :   -0.371868
   6 H :   -0.545789
   7 H :   -0.277874
   8 H :   -0.126005
   9 H :   -0.107699
  10 H :   -0.455227
  11 H :   -0.121843
  12 H :   -0.155622
Sum of atomic charges:   -0.0000000

LOEWDIN ATOMIC CHARGES
----------------------
   0 C :    0.184204
   1 N :   -0.021056
   2 C :   -0.259649
   3 N :    0.210083
   4 C :    0.131253
   5 H :   -0.109655
   6 H :   -0.116416
   7 H :    0.024605
   8 H :   -0.009220
   9 H :    0.012224
  10 H :   -0.010382
  11 H :   -0.011787
  12 H :   -0.024204

  Mayer bond orders larger than 0.100000
B(  0-C ,  1-N ) :   0.9891 B(  0-C ,  7-H ) :  -0.1428 B(  0-C , 10-H ) :   0.7286
B(  0-C , 11-H ) :   0.7867 B(  0-C , 12-H ) :   0.7876 B(  1-N ,  2-C ) :   1.1825
B(  1-N ,  3-N ) :   0.1793 B(  1-N ,  4-C ) :   0.2315 B(  1-N ,  7-H ) :   1.2031
B(  1-N , 10-H ) :   0.1965 B(  1-N , 11-H ) :   0.1389 B(  1-N , 12-H ) :   0.1557
B(  2-C ,  3-N ) :   1.1741 B(  2-C ,  4-C ) :   1.6171 B(  2-C ,  5-H ) :   0.2028
B(  2-C ,  6-H ) :   0.2213 B(  2-C ,  7-H ) :  -0.1506 B(  3-N ,  4-C ) :   0.2197
B(  3-N ,  8-H ) :   1.1113 B(  3-N ,  9-H ) :   1.1530 B(  4-C ,  5-H ) :   0.7117
B(  4-C ,  6-H ) :   0.6413 B(  5-H ,  6-H ) :   0.1620 B(  8-H ,  9-H ) :  -0.1794

FINAL SINGLE POINT ENERGY      -227.833756553984

DIPOLE MOMENT
-------------
                                X             Y             Z
Electronic contribution:     -0.16402       0.48305       0.76884
Nuclear contribution   :     -0.50812      -0.47627      -1.89926
                        -----------------------------------------
Total Dipole Moment    :     -0.67214       0.00678      -1.13041
                        -----------------------------------------
Magnitude (a.u.)       :      1.31516
Magnitude (Debye)      :      3.34287

Rotational constants in cm-1:     0.323645     0.137193     0.098606
Rotational constants in MHz :  9702.637007  4112.943433  2956.125886

                             ****ORCA TERMINATED NORMALLY****
TOTAL RUN TIME: 0 days 0 hours 0 minutes 18 seconds 465 msec
