                         Program Version 5.0.0 -  RELEASE  -
|  1> !LC-BLYP RIJCOSX def2-SVPD def2/J TightSCF xyzfile
|  2>
|  3> *xyzfile 0 1 D2.xyz
|  4>
|  5> %MaxCore 64000
|  6>
|  7> %pal nprocs 4
|  8> end
|  9>
| 10> %scf
| 11>   MaxIter 150
| 12> end
| 13>
| 14>
| 15>                          ****END OF INPUT****

CARTESIAN COORDINATES (ANGSTROEM)
---------------------------------
  C      4.999862   -1.596133   -5.924876
  N      5.281560   -1.974132   -4.535764
  C      3.766779   -2.266110   -6.511752
  C      2.496702   -1.844161   -5.735704
  H      1.626416   -2.217434   -6.308950
  H      2.481824   -2.456069   -4.793414
  F      2.459729   -0.509204   -5.505757
  C      4.792500   -1.361316   -3.457295
  C      3.939898   -0.374925   -3.557359
  N      5.259860   -1.754224   -2.239133
  H      5.922824   -2.521451   -2.186720
  H      4.654678   -1.640404   -1.442016
  H      5.709139   -2.875599   -4.387021
  H      3.330101   -0.317639   -4.361247
  H      3.698494    0.114468   -2.708333
  H      4.843333   -0.517930   -5.943019
  H      5.901695   -1.822503   -6.496467
  H      3.886191   -3.357076   -6.533604
  H      3.685602   -1.922168   -7.547128

 Total Charge           Charge          ....    0
 Multiplicity           Mult            ....    1
 Number of Electrons    NEL             ....   64
 Basis Dimension        Dim             ....  251

ORBITAL ENERGIES
----------------

  NO   OCC          E(Eh)            E(eV)
   0   2.0000     -24.476496      -666.0393
   1   2.0000     -14.187242      -386.0545
   2   2.0000     -14.178321      -385.8117
   3   2.0000     -10.168920      -276.7104
   4   2.0000     -10.121084      -275.4087
   5   2.0000     -10.118005      -275.3249
   6   2.0000     -10.096856      -274.7494
   7   2.0000      -9.974883      -271.4304
   8   2.0000      -1.292790       -35.1786
   9   2.0000      -1.052772       -28.6474
  10   2.0000      -0.970805       -26.4169
  11   2.0000      -0.887515       -24.1505
  12   2.0000      -0.813300       -22.1310
  13   2.0000      -0.797667       -21.7056
  14   2.0000      -0.718179       -19.5426
  15   2.0000      -0.674363       -18.3504
  16   2.0000      -0.657668       -17.8961
  17   2.0000      -0.624791       -17.0014
  18   2.0000      -0.621778       -16.9194
  19   2.0000      -0.601883       -16.3781
  20   2.0000      -0.589869       -16.0512
  21   2.0000      -0.561030       -15.2664
  22   2.0000      -0.532450       -14.4887
  23   2.0000      -0.510609       -13.8944
  24   2.0000      -0.489537       -13.3210
  25   2.0000      -0.481234       -13.0951
  26   2.0000      -0.459400       -12.5009
  27   2.0000      -0.446893       -12.1606
  28   2.0000      -0.435330       -11.8459
  29   2.0000      -0.403105       -10.9690
  30   2.0000      -0.346329        -9.4241
  31   2.0000      -0.258342        -7.0298
  32   0.0000       0.065817         1.7910
  33   0.0000       0.088580         2.4104
  34   0.0000       0.093548         2.5456
  35   0.0000       0.104441         2.8420
  36   0.0000       0.121312         3.3011

MULLIKEN ATOMIC CHARGES
-----------------------
   0 C :    0.792404
   1 N :   -0.245925
   2 C :    0.181901
   3 C :    0.854513
   4 H :   -0.456242
   5 H :    0.175996
   6 F :   -0.378782
   7 C :    0.484404
   8 C :    1.250956
   9 N :    0.178166
  10 H :   -0.161151
  11 H :   -0.035462
  12 H :   -0.346737
  13 H :   -1.191190
  14 H :   -0.448125
  15 H :    0.150306
  16 H :   -0.524251
  17 H :   -0.205693
  18 H :   -0.075088
Sum of atomic charges:   -0.0000000

LOEWDIN ATOMIC CHARGES
----------------------
   0 C :    0.042331
   1 N :    0.001160
   2 C :   -0.013643
   3 C :    0.109655
   4 H :    0.035860
   5 H :    0.049596
   6 F :   -0.180558
   7 C :   -0.246360
   8 C :    0.182524
   9 N :    0.193205
  10 H :   -0.020293
  11 H :   -0.008240
  12 H :    0.014890
  13 H :   -0.195727
  14 H :   -0.080252
  15 H :    0.030224
  16 H :    0.024553
  17 H :    0.032819
  18 H :    0.028258

  Mayer bond orders larger than 0.100000
B(  0-C ,  1-N ) :   1.0301 B(  0-C ,  2-C ) :   1.1136 B(  0-C ,  7-C ) :  -0.1059
B(  0-C , 12-H ) :  -0.1945 B(  0-C , 15-H ) :   0.6647 B(  0-C , 16-H ) :   0.8677
B(  0-C , 17-H ) :   0.1319 B(  0-C , 18-H ) :   0.1284 B(  1-N ,  7-C ) :   1.0792
B(  1-N ,  8-C ) :   0.3541 B(  1-N ,  9-N ) :   0.1270 B(  1-N , 12-H ) :   1.3135
B(  1-N , 15-H ) :   0.1554 B(  1-N , 16-H ) :   0.1321 B(  2-C ,  3-C ) :   1.2012
B(  2-C ,  4-H ) :   0.1639 B(  2-C ,  5-H ) :   0.1352 B(  2-C , 15-H ) :   0.1292
B(  2-C , 17-H ) :   0.8833 B(  2-C , 18-H ) :   0.8292 B(  3-C ,  4-H ) :   0.9151
B(  3-C ,  5-H ) :   0.7969 B(  3-C ,  6-F ) :   0.7580 B(  3-C , 13-H ) :   0.1427
B(  3-C , 18-H ) :   0.1009 B(  6-F , 13-H ) :   0.3641 B(  7-C ,  8-C ) :   1.7849
B(  7-C ,  9-N ) :   0.8780 B(  7-C , 12-H ) :  -0.2460 B(  7-C , 14-H ) :   0.4553
B(  8-C ,  9-N ) :   0.3434 B(  8-C , 13-H ) :  -0.1520 B(  8-C , 14-H ) :   0.4576
B(  9-N , 10-H ) :   1.0627 B(  9-N , 11-H ) :   1.0780 B(  9-N , 14-H ) :   0.1809
B( 10-H , 11-H ) :  -0.1504 B( 13-H , 15-H ) :   0.1359 B( 15-H , 16-H ) :  -0.2153

FINAL SINGLE POINT ENERGY      -405.187131614337

DIPOLE MOMENT
-------------
                                X             Y             Z
Electronic contribution:     -2.28037       2.66945      -0.16286
Nuclear contribution   :      2.43398      -4.26587      -0.19921
                        -----------------------------------------
Total Dipole Moment    :      0.15362      -1.59642      -0.36207
                        -----------------------------------------
Magnitude (a.u.)       :      1.64416
Magnitude (Debye)      :      4.17911

Rotational constants in cm-1:     0.110089     0.049944     0.039407
Rotational constants in MHz :  3300.378855  1497.273856  1181.385913

                             ****ORCA TERMINATED NORMALLY****
TOTAL RUN TIME: 0 days 0 hours 0 minutes 53 seconds 702 msec
