                         Program Version 5.0.0 -  RELEASE  -
|  1> !wB97X-D3 RIJCOSX def2-TZVP def2/J TightSCF
|  2> *xyz -1 1
|  3> C          1.44442        5.26658       -0.97546
|  4> O          1.56525        4.23349       -1.86489
|  5> H          1.76623        6.17572       -1.43893
|  6> H          2.05096        5.07018       -0.11614
|  7> H          0.42160        5.36155       -0.67592
|  8> *
|  9> %MaxCore 64000
| 10>
| 11> %pal nprocs 8
| 12> end
| 13>
| 14> %scf
| 15>   MaxIter 150
| 16> end
| 17>
| 18>
| 19>                          ****END OF INPUT****

CARTESIAN COORDINATES (ANGSTROEM)
---------------------------------
  C      1.444420    5.266580   -0.975460
  O      1.565250    4.233490   -1.864890
  H      1.766230    6.175720   -1.438930
  H      2.050960    5.070180   -0.116140
  H      0.421600    5.361550   -0.675920

 Total Charge           Charge          ....   -1
 Multiplicity           Mult            ....    1
 Number of Electrons    NEL             ....   18
 Basis Dimension        Dim             ....   80

ORBITAL ENERGIES
----------------

  NO   OCC          E(Eh)            E(eV)
   0   2.0000     -18.839177      -512.6401
   1   2.0000     -10.043113      -273.2870
   2   2.0000      -0.750838       -20.4313
   3   2.0000      -0.495093       -13.4722
   4   2.0000      -0.282718        -7.6931
   5   2.0000      -0.282670        -7.6918
   6   2.0000      -0.173927        -4.7328
   7   2.0000      -0.019282        -0.5247
   8   2.0000      -0.019270        -0.5244
   9   0.0000       0.330249         8.9865
  10   0.0000       0.403298        10.9743
  11   0.0000       0.403321        10.9749
  12   0.0000       0.408563        11.1176
  13   0.0000       0.514004        13.9868

MULLIKEN ATOMIC CHARGES
-----------------------
   0 C :   -0.008386
   1 O :   -0.872040
   2 H :   -0.039814
   3 H :   -0.039931
   4 H :   -0.039829
Sum of atomic charges:   -1.0000000

LOEWDIN ATOMIC CHARGES
----------------------
   0 C :   -0.568913
   1 O :   -0.527490
   2 H :    0.032147
   3 H :    0.032132
   4 H :    0.032125

  Mayer bond orders larger than 0.100000
B(  0-C ,  1-O ) :   1.4598 B(  0-C ,  2-H ) :   0.9550 B(  0-C ,  3-H ) :   0.9549
B(  0-C ,  4-H ) :   0.9549

Dispersion correction           -0.000090124
FINAL SINGLE POINT ENERGY      -115.095440509106

DIPOLE MOMENT
-------------
                                X             Y             Z
Electronic contribution:      0.17467      -1.49190      -1.28454
Nuclear contribution   :     -0.25440       2.17514       1.87266
                        -----------------------------------------
Total Dipole Moment    :     -0.07973       0.68324       0.58813
                        -----------------------------------------
Magnitude (a.u.)       :      0.90502
Magnitude (Debye)      :      2.30038

Rotational constants in cm-1:     5.477715     0.940444     0.940443
Rotational constants in MHz : 164217.753846 28193.799011 28193.774483

                             ****ORCA TERMINATED NORMALLY****
TOTAL RUN TIME: 0 days 0 hours 0 minutes 4 seconds 195 msec
