                         Program Version 5.0.0 -  RELEASE  -
|  1> !wB97X-D3 RIJCOSX def2-TZVP def2/J TightSCF
|  2> *xyz 1 1
|  3> C         -0.70169        4.07250       -4.00392
|  4> N          0.68053        4.61482       -4.04800
|  5> H          0.69993        5.58489       -4.38827
|  6> H          1.27804        4.05598       -4.66824
|  7> H          1.08573        4.53358       -3.10652
|  8> H         -1.14500        4.14653       -4.97495
|  9> H         -1.28296        4.63405       -3.30271
| 10> H         -0.67274        3.04629       -3.70235
| 11> *
| 12> %MaxCore 64000
| 13>
| 14> %pal nprocs 8
| 15> end
| 16>
| 17> %scf
| 18>   MaxIter 150
| 19> end
| 20>
| 21>
| 22>                          ****END OF INPUT****

CARTESIAN COORDINATES (ANGSTROEM)
---------------------------------
  C     -0.701690    4.072500   -4.003920
  N      0.680530    4.614820   -4.048000
  H      0.699930    5.584890   -4.388270
  H      1.278040    4.055980   -4.668240
  H      1.085730    4.533580   -3.106520
  H     -1.145000    4.146530   -4.974950
  H     -1.282960    4.634050   -3.302710
  H     -0.672740    3.046290   -3.702350

 Total Charge           Charge          ....    1
 Multiplicity           Mult            ....    1
 Number of Electrons    NEL             ....   18
 Basis Dimension        Dim             ....   98

ORBITAL ENERGIES
----------------

  NO   OCC          E(Eh)            E(eV)
   0   2.0000     -14.771726      -401.9591
   1   2.0000     -10.530014      -286.5362
   2   2.0000      -1.344015       -36.5725
   3   2.0000      -1.051559       -28.6144
   4   2.0000      -0.917706       -24.9720
   5   2.0000      -0.907529       -24.6951
   6   2.0000      -0.811802       -22.0903
   7   2.0000      -0.724376       -19.7113
   8   2.0000      -0.722671       -19.6649
   9   0.0000      -0.118476        -3.2239
  10   0.0000      -0.047348        -1.2884
  11   0.0000      -0.046206        -1.2573
  12   0.0000      -0.028305        -0.7702
  13   0.0000       0.016814         0.4575

MULLIKEN ATOMIC CHARGES
-----------------------
   0 C :   -0.326743
   1 N :   -0.309149
   2 H :    0.344994
   3 H :    0.339396
   4 H :    0.342561
   5 H :    0.202209
   6 H :    0.203900
   7 H :    0.202831
Sum of atomic charges:    1.0000000

LOEWDIN ATOMIC CHARGES
----------------------
   0 C :   -0.247285
   1 N :    0.154150
   2 H :    0.226699
   3 H :    0.224994
   4 H :    0.228191
   5 H :    0.137442
   6 H :    0.137914
   7 H :    0.137894

  Mayer bond orders larger than 0.100000
B(  0-C ,  1-N ) :   0.9048 B(  0-C ,  5-H ) :   0.9541 B(  0-C ,  6-H ) :   0.9531
B(  0-C ,  7-H ) :   0.9522 B(  1-N ,  2-H ) :   0.8678 B(  1-N ,  3-H ) :   0.8727
B(  1-N ,  4-H ) :   0.8714

Dispersion correction           -0.000499704
FINAL SINGLE POINT ENERGY       -96.226182231444

DIPOLE MOMENT
-------------
                                X             Y             Z
Electronic contribution:      1.03319       0.43052      -0.03929
Nuclear contribution   :     -0.21844      -0.13976       0.01729
                        -----------------------------------------
Total Dipole Moment    :      0.81475       0.29076      -0.02200
                        -----------------------------------------
Magnitude (a.u.)       :      0.86536
Magnitude (Debye)      :      2.19956

Rotational constants in cm-1:     2.865765     0.688517     0.685249
Rotational constants in MHz : 85913.460223 20641.211162 20543.252263

                             ****ORCA TERMINATED NORMALLY****
TOTAL RUN TIME: 0 days 0 hours 0 minutes 5 seconds 101 msec
