                         Program Version 5.0.0 -  RELEASE  -
|  1> !wB97X-D3 RIJCOSX def2-TZVP def2/J TightSCF
|  2> *xyz 0 1
|  3> C          1.44442        5.26658       -0.97546
|  4> F          1.56525        4.23349       -1.86489
|  5> H          1.76623        6.17572       -1.43893
|  6> H          2.05096        5.07018       -0.11614
|  7> H          0.42160        5.36155       -0.67592
|  8> *
|  9> %MaxCore 64000
| 10>
| 11> %pal nprocs 8
| 12> end
| 13>
| 14> %scf
| 15>   MaxIter 150
| 16> end
| 17>
| 18>
| 19>                          ****END OF INPUT****

CARTESIAN COORDINATES (ANGSTROEM)
---------------------------------
  C      1.444420    5.266580   -0.975460
  F      1.565250    4.233490   -1.864890
  H      1.766230    6.175720   -1.438930
  H      2.050960    5.070180   -0.116140
  H      0.421600    5.361550   -0.675920

 Total Charge           Charge          ....    0
 Multiplicity           Mult            ....    1
 Number of Electrons    NEL             ....   18
 Basis Dimension        Dim             ....   80

ORBITAL ENERGIES
----------------

  NO   OCC          E(Eh)            E(eV)
   0   2.0000     -24.763372      -673.8456
   1   2.0000     -10.338245      -281.3180
   2   2.0000      -1.309270       -35.6270
   3   2.0000      -0.819634       -22.3034
   4   2.0000      -0.593441       -16.1483
   5   2.0000      -0.590534       -16.0693
   6   2.0000      -0.590507       -16.0685
   7   2.0000      -0.445515       -12.1231
   8   2.0000      -0.445492       -12.1224
   9   0.0000       0.139293         3.7904
  10   0.0000       0.164547         4.4776
  11   0.0000       0.204092         5.5536
  12   0.0000       0.204109         5.5541
  13   0.0000       0.295006         8.0275

MULLIKEN ATOMIC CHARGES
-----------------------
   0 C :   -0.068801
   1 F :   -0.248505
   2 H :    0.105825
   3 H :    0.105685
   4 H :    0.105797
Sum of atomic charges:   -0.0000000

LOEWDIN ATOMIC CHARGES
----------------------
   0 C :   -0.346030
   1 F :    0.062546
   2 H :    0.094506
   3 H :    0.094487
   4 H :    0.094491

  Mayer bond orders larger than 0.100000
B(  0-C ,  1-F ) :   0.9798 B(  0-C ,  2-H ) :   0.9789 B(  0-C ,  3-H ) :   0.9789
B(  0-C ,  4-H ) :   0.9789

Dispersion correction           -0.000129361
FINAL SINGLE POINT ENERGY      -139.764758715970

DIPOLE MOMENT
-------------
                                X             Y             Z
Electronic contribution:      0.25977      -2.21949      -1.91091
Nuclear contribution   :     -0.32265       2.75860       2.37499
                        -----------------------------------------
Total Dipole Moment    :     -0.06287       0.53911       0.46408
                        -----------------------------------------
Magnitude (a.u.)       :      0.71412
Magnitude (Debye)      :      1.81514

Rotational constants in cm-1:     5.477715     0.875416     0.875415
Rotational constants in MHz : 164217.753846 26244.308980 26244.287726

                             ****ORCA TERMINATED NORMALLY****
TOTAL RUN TIME: 0 days 0 hours 0 minutes 3 seconds 924 msec
