                         Program Version 5.0.0 -  RELEASE  -
|  1> !wB97X-D3 RIJCOSX def2-TZVP def2/J TightSCF
|  2> *xyz 0 1
|  3> C         -0.70169        4.07250       -4.00392
|  4> C          0.68053        4.61482       -4.04800
|  5> H          0.69993        5.58489       -4.38827
|  6> H          1.27804        4.05598       -4.66824
|  7> H          1.08573        4.53358       -3.10652
|  8> H         -1.14500        4.14653       -4.97495
|  9> H         -1.28296        4.63405       -3.30271
| 10> H         -0.67274        3.04629       -3.70235
| 11> *
| 12> %MaxCore 64000
| 13>
| 14> %pal nprocs 8
| 15> end
| 16>
| 17> %scf
| 18>   MaxIter 150
| 19> end
| 20>
| 21>
| 22>                          ****END OF INPUT****

CARTESIAN COORDINATES (ANGSTROEM)
---------------------------------
  C     -0.701690    4.072500   -4.003920
  C      0.680530    4.614820   -4.048000
  H      0.699930    5.584890   -4.388270
  H      1.278040    4.055980   -4.668240
  H      1.085730    4.533580   -3.106520
  H     -1.145000    4.146530   -4.974950
  H     -1.282960    4.634050   -3.302710
  H     -0.672740    3.046290   -3.702350

 Total Charge           Charge          ....    0
 Multiplicity           Mult            ....    1
 Number of Electrons    NEL             ....   18
 Basis Dimension        Dim             ....   98

ORBITAL ENERGIES
----------------

  NO   OCC          E(Eh)            E(eV)
   0   2.0000     -10.247944      -278.8607
   1   2.0000     -10.233442      -278.4661
   2   2.0000      -0.885948       -24.1079
   3   2.0000      -0.731960       -19.9177
   4   2.0000      -0.553023       -15.0485
   5   2.0000      -0.546884       -14.8815
   6   2.0000      -0.462407       -12.5827
   7   2.0000      -0.442666       -12.0456
   8   2.0000      -0.436938       -11.8897
   9   0.0000       0.127362         3.4657
  10   0.0000       0.171691         4.6719
  11   0.0000       0.199535         5.4296
  12   0.0000       0.201160         5.4738
  13   0.0000       0.212522         5.7830

MULLIKEN ATOMIC CHARGES
-----------------------
   0 C :   -0.304787
   1 C :   -0.299149
   2 H :    0.102502
   3 H :    0.101724
   4 H :    0.100624
   5 H :    0.099100
   6 H :    0.100017
   7 H :    0.099969
Sum of atomic charges:   -0.0000000

LOEWDIN ATOMIC CHARGES
----------------------
   0 C :   -0.331322
   1 C :   -0.326035
   2 H :    0.104970
   3 H :    0.105265
   4 H :    0.107575
   5 H :    0.112687
   6 H :    0.113245
   7 H :    0.113614

  Mayer bond orders larger than 0.100000
B(  0-C ,  1-C ) :   0.9809 B(  0-C ,  5-H ) :   0.9823 B(  0-C ,  6-H ) :   0.9812
B(  0-C ,  7-H ) :   0.9817 B(  1-C ,  2-H ) :   0.9819 B(  1-C ,  3-H ) :   0.9838
B(  1-C ,  4-H ) :   0.9832

Dispersion correction           -0.000488889
FINAL SINGLE POINT ENERGY       -79.822947368296

DIPOLE MOMENT
-------------
                                X             Y             Z
Electronic contribution:      0.00844       0.04583      -0.01124
Nuclear contribution   :      0.01985      -0.04545       0.00953
                        -----------------------------------------
Total Dipole Moment    :      0.02829       0.00039      -0.00171
                        -----------------------------------------
Magnitude (a.u.)       :      0.02834
Magnitude (Debye)      :      0.07205

Rotational constants in cm-1:     2.865782     0.718825     0.715264
Rotational constants in MHz : 85913.996449 21549.842906 21443.078705

                             ****ORCA TERMINATED NORMALLY****
TOTAL RUN TIME: 0 days 0 hours 0 minutes 5 seconds 105 msec
