                         Program Version 5.0.0 -  RELEASE  -
|  1> !LC-PBE RIJCOSX def2-SVPD def2/J TightSCF
|  2> *xyz -1 1
|  3> C         -0.15102        0.25496       -4.09426
|  4> C         -0.72184       -0.99951       -3.43931
|  5> H         -1.08340       -1.69755       -4.20566
|  6> H         -1.58106       -0.72385       -2.82049
|  7> C          0.28725       -1.71177       -2.52740
|  8> H          1.13178       -2.06738       -3.15940
|  9> H         -0.20414       -2.63733       -2.17048
| 10> O          0.71050       -0.92751       -1.48177
| 11> H         -0.89787        0.70479       -4.71455
| 12> H          0.69695       -0.00870       -4.69119
| 13> H          0.14812        0.94842       -3.33628
| 14> *
| 15> %MaxCore 64000
| 16>
| 17> %pal nprocs 4
| 18> end
| 19>
| 20> %scf
| 21>   MaxIter 150
| 22> end
| 23>
| 24>
| 25>                          ****END OF INPUT****

CARTESIAN COORDINATES (ANGSTROEM)
---------------------------------
  C     -0.151020    0.254960   -4.094260
  C     -0.721840   -0.999510   -3.439310
  H     -1.083400   -1.697550   -4.205660
  H     -1.581060   -0.723850   -2.820490
  C      0.287250   -1.711770   -2.527400
  H      1.131780   -2.067380   -3.159400
  H     -0.204140   -2.637330   -2.170480
  O      0.710500   -0.927510   -1.481770
  H     -0.897870    0.704790   -4.714550
  H      0.696950   -0.008700   -4.691190
  H      0.148120    0.948420   -3.336280

 Total Charge           Charge          ....   -1
 Multiplicity           Mult            ....    1
 Number of Electrons    NEL             ....   34
 Basis Dimension        Dim             ....  139

ORBITAL ENERGIES
----------------

  NO   OCC          E(Eh)            E(eV)
   0   2.0000     -18.651454      -507.5319
   1   2.0000      -9.943430      -270.5745
   2   2.0000      -9.941053      -270.5098
   3   2.0000      -9.935741      -270.3653
   4   2.0000      -0.839347       -22.8398
   5   2.0000      -0.750579       -20.4243
   6   2.0000      -0.626469       -17.0471
   7   2.0000      -0.516051       -14.0425
   8   2.0000      -0.419512       -11.4155
   9   2.0000      -0.411255       -11.1908
  10   2.0000      -0.358553        -9.7567
  11   2.0000      -0.320182        -8.7126
  12   2.0000      -0.294080        -8.0023
  13   2.0000      -0.282045        -7.6748
  14   2.0000      -0.241195        -6.5633
  15   2.0000      -0.096720        -2.6319
  16   2.0000      -0.092842        -2.5264
  17   0.0000       0.231181         6.2908
  18   0.0000       0.256266         6.9734
  19   0.0000       0.273653         7.4465
  20   0.0000       0.308461         8.3937
  21   0.0000       0.325406         8.8547

MULLIKEN ATOMIC CHARGES
-----------------------
   0 C :    0.394040
   1 C :   -0.578014
   2 H :   -0.018322
   3 H :    0.001174
   4 C :    0.221720
   5 H :   -0.055516
   6 H :   -0.087008
   7 O :   -0.863005
   8 H :   -0.024308
   9 H :   -0.019913
  10 H :    0.029151
Sum of atomic charges:   -1.0000000

LOEWDIN ATOMIC CHARGES
----------------------
   0 C :    0.056663
   1 C :   -0.142833
   2 H :    0.004010
   3 H :    0.015931
   4 C :   -0.251662
   5 H :   -0.010583
   6 H :   -0.017434
   7 O :   -0.577718
   8 H :   -0.035765
   9 H :   -0.021391
  10 H :   -0.019220

  Mayer bond orders larger than 0.100000
B(  0-C ,  1-C ) :   1.2628 B(  0-C ,  8-H ) :   0.8362 B(  0-C ,  9-H ) :   0.8622
B(  0-C , 10-H ) :   0.8680 B(  1-C ,  2-H ) :   1.0083 B(  1-C ,  3-H ) :   0.9886
B(  1-C ,  4-C ) :   1.0627 B(  1-C ,  6-H ) :   0.1072 B(  1-C ,  8-H ) :   0.1561
B(  1-C ,  9-H ) :   0.1523 B(  1-C , 10-H ) :   0.1701 B(  3-H ,  4-C ) :   0.1117
B(  4-C ,  5-H ) :   0.9747 B(  4-C ,  6-H ) :   0.9724 B(  4-C ,  7-O ) :   1.3046

FINAL SINGLE POINT ENERGY      -192.998942423042

DIPOLE MOMENT
-------------
                                X             Y             Z
Electronic contribution:      0.96574      -0.26265       2.63439
Nuclear contribution   :     -1.95025       0.39850      -4.64834
                        -----------------------------------------
Total Dipole Moment    :     -0.98452       0.13585      -2.01395
                        -----------------------------------------
Magnitude (a.u.)       :      2.24582
Magnitude (Debye)      :      5.70842

Rotational constants in cm-1:     0.507767     0.175836     0.148827
Rotational constants in MHz : 15222.471408  5271.439482  4461.706759

                             ****ORCA TERMINATED NORMALLY****
TOTAL RUN TIME: 0 days 0 hours 0 minutes 11 seconds 346 msec
