                         Program Version 5.0.0 -  RELEASE  -
|  1> !LC-PBE RIJCOSX def2-SVPD def2/J TightSCF
|  2> *xyz 1 1
|  3> C          3.48828        1.60092       -1.52204
|  4> C          4.34297        1.31342       -2.75683
|  5> N          2.81029        0.42878       -1.01420
|  6> H          5.13203        0.60499       -2.48447
|  7> C          3.53590        0.74925       -3.92460
|  8> H          4.84125        2.24214       -3.05408
|  9> H          2.71455        2.33145       -1.76030
| 10> H          4.09099        2.06315       -0.73338
| 11> C          3.29098       -0.41802       -0.12908
| 12> N          2.51754       -1.43202        0.23936
| 13> N          4.53549       -0.28441        0.39580
| 14> H          5.04363        0.57189        0.22290
| 15> H          4.72335       -0.73327        1.28180
| 16> H          1.93479        0.10230       -1.40379
| 17> H          1.67464       -1.50562       -0.31610
| 18> H          2.92850       -2.21850        0.72549
| 19> H          4.18704        0.56990       -4.75451
| 20> H          2.78096        1.45217       -4.20898
| 21> H          3.07436       -0.16949       -3.62832
| 22> *
| 23> %MaxCore 64000
| 24>
| 25> %pal nprocs 4
| 26> end
| 27>
| 28> %scf
| 29>   MaxIter 150
| 30> end
| 31>
| 32>
| 33>                          ****END OF INPUT****

CARTESIAN COORDINATES (ANGSTROEM)
---------------------------------
  C      3.488280    1.600920   -1.522040
  C      4.342970    1.313420   -2.756830
  N      2.810290    0.428780   -1.014200
  H      5.132030    0.604990   -2.484470
  C      3.535900    0.749250   -3.924600
  H      4.841250    2.242140   -3.054080
  H      2.714550    2.331450   -1.760300
  H      4.090990    2.063150   -0.733380
  C      3.290980   -0.418020   -0.129080
  N      2.517540   -1.432020    0.239360
  N      4.535490   -0.284410    0.395800
  H      5.043630    0.571890    0.222900
  H      4.723350   -0.733270    1.281800
  H      1.934790    0.102300   -1.403790
  H      1.674640   -1.505620   -0.316100
  H      2.928500   -2.218500    0.725490
  H      4.187040    0.569900   -4.754510
  H      2.780960    1.452170   -4.208980
  H      3.074360   -0.169490   -3.628320

 Total Charge           Charge          ....    1
 Multiplicity           Mult            ....    1
 Number of Electrons    NEL             ....   56
 Basis Dimension        Dim             ....  236

ORBITAL ENERGIES
----------------

  NO   OCC          E(Eh)            E(eV)
   0   2.0000     -14.460298      -393.4847
   1   2.0000     -14.454088      -393.3157
   2   2.0000     -14.451008      -393.2319
   3   2.0000     -10.471634      -284.9477
   4   2.0000     -10.333717      -281.1947
   5   2.0000     -10.270948      -279.4867
   6   2.0000     -10.240892      -278.6688
   7   2.0000      -1.393644       -37.9230
   8   2.0000      -1.272195       -34.6182
   9   2.0000      -1.256220       -34.1835
  10   2.0000      -1.114039       -30.3145
  11   2.0000      -1.027210       -27.9518
  12   2.0000      -0.980354       -26.6768
  13   2.0000      -0.936851       -25.4930
  14   2.0000      -0.922126       -25.0923
  15   2.0000      -0.882071       -24.0024
  16   2.0000      -0.835591       -22.7376
  17   2.0000      -0.823265       -22.4022
  18   2.0000      -0.803864       -21.8742
  19   2.0000      -0.788149       -21.4466
  20   2.0000      -0.741767       -20.1845
  21   2.0000      -0.725550       -19.7432
  22   2.0000      -0.689367       -18.7586
  23   2.0000      -0.637691       -17.3525
  24   2.0000      -0.622089       -16.9279
  25   2.0000      -0.615909       -16.7597
  26   2.0000      -0.606122       -16.4934
  27   2.0000      -0.574966       -15.6456
  28   0.0000      -0.081447        -2.2163
  29   0.0000      -0.073111        -1.9894
  30   0.0000      -0.044472        -1.2102
  31   0.0000      -0.029257        -0.7961
  32   0.0000      -0.002899        -0.0789

MULLIKEN ATOMIC CHARGES
-----------------------
   0 C :    0.527213
   1 C :   -0.437143
   2 N :   -0.544528
   3 H :    0.062339
   4 C :    0.463553
   5 H :    0.018891
   6 H :   -0.119097
   7 H :   -0.006288
   8 C :    1.264225
   9 N :   -0.084903
  10 N :   -0.046044
  11 H :    0.002481
  12 H :   -0.077772
  13 H :   -0.133767
  14 H :    0.057662
  15 H :   -0.014486
  16 H :    0.029924
  17 H :    0.081602
  18 H :   -0.043863
Sum of atomic charges:    1.0000000

LOEWDIN ATOMIC CHARGES
----------------------
   0 C :    0.049205
   1 C :   -0.076541
   2 N :    0.037815
   3 H :    0.033385
   4 C :    0.103614
   5 H :    0.049304
   6 H :    0.056045
   7 H :    0.039643
   8 C :   -0.028461
   9 N :    0.247742
  10 N :    0.267173
  11 H :    0.017280
  12 H :    0.043984
  13 H :    0.064962
  14 H :    0.042226
  15 H :    0.054622
  16 H :    0.008907
  17 H :    0.004607
  18 H :   -0.015513

  Mayer bond orders larger than 0.100000
B(  0-C ,  1-C ) :   1.1019 B(  0-C ,  2-N ) :   0.9458 B(  0-C ,  6-H ) :   0.8750
B(  0-C ,  7-H ) :   0.9040 B(  0-C , 13-H ) :  -0.2162 B(  1-C ,  3-H ) :   0.9452
B(  1-C ,  4-C ) :   1.3092 B(  1-C ,  5-H ) :   1.0061 B(  1-C ,  6-H ) :   0.1040
B(  1-C , 16-H ) :   0.1662 B(  1-C , 17-H ) :   0.1572 B(  1-C , 18-H ) :   0.1544
B(  2-N ,  6-H ) :   0.1860 B(  2-N ,  7-H ) :   0.1051 B(  2-N ,  8-C ) :   1.0145
B(  2-N ,  9-N ) :   0.2732 B(  2-N , 10-N ) :   0.1988 B(  2-N , 13-H ) :   1.3151
B(  4-C , 16-H ) :   0.8575 B(  4-C , 17-H ) :   0.8157 B(  4-C , 18-H ) :   0.8686
B(  8-C ,  9-N ) :   0.9034 B(  8-C , 10-N ) :   0.9450 B(  8-C , 12-H ) :  -0.1082
B(  8-C , 13-H ) :  -0.2565 B(  8-C , 14-H ) :  -0.1025 B(  9-N , 10-N ) :   0.1205
B(  9-N , 14-H ) :   1.0561 B(  9-N , 15-H ) :   1.1696 B( 10-N , 11-H ) :   1.0280
B( 10-N , 12-H ) :   1.2259 B( 11-H , 12-H ) :  -0.1516 B( 14-H , 15-H ) :  -0.1326

FINAL SINGLE POINT ENERGY      -322.462028758303

DIPOLE MOMENT
-------------
                                X             Y             Z
Electronic contribution:     -1.35093      -2.89031       6.38661
Nuclear contribution   :      1.03951       2.07316      -5.00363
                        -----------------------------------------
Total Dipole Moment    :     -0.31142      -0.81716       1.38299
                        -----------------------------------------
Magnitude (a.u.)       :      1.63627
Magnitude (Debye)      :      4.15907

Rotational constants in cm-1:     0.160664     0.048801     0.043832
Rotational constants in MHz :  4816.589604  1463.007061  1314.037102

                             ****ORCA TERMINATED NORMALLY****
TOTAL RUN TIME: 0 days 0 hours 0 minutes 37 seconds 469 msec
