                         Program Version 5.0.0 -  RELEASE  -
|  1> !LC-PBE RIJCOSX def2-SVPD def2/J TightSCF
|  2> *xyz 0 1
|  3> C         -0.15102        0.25496       -4.09426
|  4> C         -0.72184       -0.99951       -3.43931
|  5> H         -1.08340       -1.69755       -4.20566
|  6> H         -1.58106       -0.72385       -2.82049
|  7> C          0.28725       -1.71177       -2.52740
|  8> H          1.13178       -2.06738       -3.15940
|  9> H         -0.20414       -2.63733       -2.17048
| 10> F          0.71050       -0.92751       -1.48177
| 11> H         -0.89787        0.70479       -4.71455
| 12> H          0.69695       -0.00870       -4.69119
| 13> H          0.14812        0.94842       -3.33628
| 14> *
| 15> %MaxCore 64000
| 16>
| 17> %pal nprocs 4
| 18> end
| 19>
| 20> %scf
| 21>   MaxIter 150
| 22> end
| 23>
| 24>
| 25>                          ****END OF INPUT****

CARTESIAN COORDINATES (ANGSTROEM)
---------------------------------
  C     -0.151020    0.254960   -4.094260
  C     -0.721840   -0.999510   -3.439310
  H     -1.083400   -1.697550   -4.205660
  H     -1.581060   -0.723850   -2.820490
  C      0.287250   -1.711770   -2.527400
  H      1.131780   -2.067380   -3.159400
  H     -0.204140   -2.637330   -2.170480
  F      0.710500   -0.927510   -1.481770
  H     -0.897870    0.704790   -4.714550
  H      0.696950   -0.008700   -4.691190
  H      0.148120    0.948420   -3.336280

 Total Charge           Charge          ....    0
 Multiplicity           Mult            ....    1
 Number of Electrons    NEL             ....   34
 Basis Dimension        Dim             ....  139

ORBITAL ENERGIES
----------------

  NO   OCC          E(Eh)            E(eV)
   0   2.0000     -24.494840      -666.5385
   1   2.0000     -10.207103      -277.7494
   2   2.0000     -10.135323      -275.7962
   3   2.0000     -10.113025      -275.1894
   4   2.0000      -1.339285       -36.4438
   5   2.0000      -0.963846       -26.2276
   6   2.0000      -0.853824       -23.2337
   7   2.0000      -0.753278       -20.4977
   8   2.0000      -0.661613       -18.0034
   9   2.0000      -0.646323       -17.5873
  10   2.0000      -0.618841       -16.8395
  11   2.0000      -0.580473       -15.7955
  12   2.0000      -0.542378       -14.7589
  13   2.0000      -0.514384       -13.9971
  14   2.0000      -0.483965       -13.1694
  15   2.0000      -0.458405       -12.4738
  16   2.0000      -0.457526       -12.4499
  17   0.0000       0.091191         2.4814
  18   0.0000       0.115664         3.1474
  19   0.0000       0.125180         3.4063
  20   0.0000       0.146435         3.9847
  21   0.0000       0.171223         4.6592

MULLIKEN ATOMIC CHARGES
-----------------------
   0 C :    0.384562
   1 C :   -0.621380
   2 H :    0.023517
   3 H :    0.018676
   4 C :    0.502509
   5 H :    0.045199
   6 H :    0.017548
   7 F :   -0.421482
   8 H :    0.013704
   9 H :    0.005646
  10 H :    0.031501
Sum of atomic charges:    0.0000000

LOEWDIN ATOMIC CHARGES
----------------------
   0 C :    0.088212
   1 C :   -0.095225
   2 H :    0.039703
   3 H :    0.035455
   4 C :    0.065511
   5 H :    0.048011
   6 H :    0.041314
   7 F :   -0.205837
   8 H :   -0.007360
   9 H :   -0.005667
  10 H :   -0.004115

  Mayer bond orders larger than 0.100000
B(  0-C ,  1-C ) :   1.2841 B(  0-C ,  8-H ) :   0.8591 B(  0-C ,  9-H ) :   0.8642
B(  0-C , 10-H ) :   0.8656 B(  1-C ,  2-H ) :   0.9934 B(  1-C ,  3-H ) :   0.9901
B(  1-C ,  4-C ) :   1.1761 B(  1-C ,  8-H ) :   0.1451 B(  1-C ,  9-H ) :   0.1397
B(  1-C , 10-H ) :   0.1491 B(  4-C ,  5-H ) :   0.9396 B(  4-C ,  6-H ) :   0.9423
B(  4-C ,  7-F ) :   0.7958

FINAL SINGLE POINT ENERGY      -217.587550868610

DIPOLE MOMENT
-------------
                                X             Y             Z
Electronic contribution:      2.45587      -0.85167       5.72053
Nuclear contribution   :     -2.76068       0.49992      -6.33880
                        -----------------------------------------
Total Dipole Moment    :     -0.30482      -0.35175      -0.61828
                        -----------------------------------------
Magnitude (a.u.)       :      0.77389
Magnitude (Debye)      :      1.96708

Rotational constants in cm-1:     0.493380     0.165620     0.140427
Rotational constants in MHz : 14791.174622  4965.163858  4209.902284

                             ****ORCA TERMINATED NORMALLY****
TOTAL RUN TIME: 0 days 0 hours 0 minutes 9 seconds 402 msec
