                         Program Version 5.0.0 -  RELEASE  -
|  1> !LC-PBE RIJCOSX def2-SVPD def2/J TightSCF
|  2> *xyz 0 1
|  3> C          3.48828        1.60092       -1.52204
|  4> C          4.34297        1.31342       -2.75683
|  5> C          2.81029        0.42878       -1.01420
|  6> H          5.13203        0.60499       -2.48447
|  7> C          3.53590        0.74925       -3.92460
|  8> H          4.84125        2.24214       -3.05408
|  9> H          2.71455        2.33145       -1.76030
| 10> H          4.09099        2.06315       -0.73338
| 11> C          3.29098       -0.41802       -0.12908
| 12> N          2.51754       -1.43202        0.23936
| 13> N          4.53549       -0.28441        0.39580
| 14> H          5.04363        0.57189        0.22290
| 15> H          4.72335       -0.73327        1.28180
| 16> H          1.93479        0.10230       -1.40379
| 17> H          1.67464       -1.50562       -0.31610
| 18> H          2.92850       -2.21850        0.72549
| 19> H          4.18704        0.56990       -4.75451
| 20> H          2.78096        1.45217       -4.20898
| 21> H          3.07436       -0.16949       -3.62832
| 22> *
| 23> %MaxCore 64000
| 24>
| 25> %pal nprocs 4
| 26> end
| 27>
| 28> %scf
| 29>   MaxIter 150
| 30> end
| 31>
| 32>
| 33>                          ****END OF INPUT****

CARTESIAN COORDINATES (ANGSTROEM)
---------------------------------
  C      3.488280    1.600920   -1.522040
  C      4.342970    1.313420   -2.756830
  C      2.810290    0.428780   -1.014200
  H      5.132030    0.604990   -2.484470
  C      3.535900    0.749250   -3.924600
  H      4.841250    2.242140   -3.054080
  H      2.714550    2.331450   -1.760300
  H      4.090990    2.063150   -0.733380
  C      3.290980   -0.418020   -0.129080
  N      2.517540   -1.432020    0.239360
  N      4.535490   -0.284410    0.395800
  H      5.043630    0.571890    0.222900
  H      4.723350   -0.733270    1.281800
  H      1.934790    0.102300   -1.403790
  H      1.674640   -1.505620   -0.316100
  H      2.928500   -2.218500    0.725490
  H      4.187040    0.569900   -4.754510
  H      2.780960    1.452170   -4.208980
  H      3.074360   -0.169490   -3.628320

 Total Charge           Charge          ....    0
 Multiplicity           Mult            ....    1
 Number of Electrons    NEL             ....   56
 Basis Dimension        Dim             ....  236

ORBITAL ENERGIES
----------------

  NO   OCC          E(Eh)            E(eV)
   0   2.0000     -14.230298      -387.2261
   1   2.0000     -14.225726      -387.1017
   2   2.0000     -10.173728      -276.8412
   3   2.0000     -10.105658      -274.9889
   4   2.0000     -10.103837      -274.9394
   5   2.0000     -10.093521      -274.6587
   6   2.0000     -10.052741      -273.5490
   7   2.0000      -1.130167       -30.7534
   8   2.0000      -1.031962       -28.0811
   9   2.0000      -0.962451       -26.1896
  10   2.0000      -0.889021       -24.1915
  11   2.0000      -0.819688       -22.3048
  12   2.0000      -0.747943       -20.3526
  13   2.0000      -0.725243       -19.7349
  14   2.0000      -0.688389       -18.7320
  15   2.0000      -0.653479       -17.7821
  16   2.0000      -0.606176       -16.4949
  17   2.0000      -0.587291       -15.9810
  18   2.0000      -0.585636       -15.9360
  19   2.0000      -0.547760       -14.9053
  20   2.0000      -0.540828       -14.7167
  21   2.0000      -0.511459       -13.9175
  22   2.0000      -0.495104       -13.4725
  23   2.0000      -0.461027       -12.5452
  24   2.0000      -0.443003       -12.0547
  25   2.0000      -0.439751       -11.9662
  26   2.0000      -0.401617       -10.9286
  27   2.0000      -0.280788        -7.6406
  28   0.0000       0.090036         2.4500
  29   0.0000       0.112391         3.0583
  30   0.0000       0.114930         3.1274
  31   0.0000       0.129919         3.5353
  32   0.0000       0.141681         3.8553

MULLIKEN ATOMIC CHARGES
-----------------------
   0 C :    0.111729
   1 C :   -0.410127
   2 C :   -0.300646
   3 H :   -0.001487
   4 C :    0.471120
   5 H :    0.010681
   6 H :    0.054599
   7 H :    0.013873
   8 C :    0.610940
   9 N :   -0.097778
  10 N :   -0.093049
  11 H :    0.017812
  12 H :   -0.176931
  13 H :   -0.245628
  14 H :    0.114132
  15 H :   -0.130940
  16 H :    0.020333
  17 H :    0.059989
  18 H :   -0.028623
Sum of atomic charges:    0.0000000

LOEWDIN ATOMIC CHARGES
----------------------
   0 C :   -0.084424
   1 C :   -0.101635
   2 C :   -0.058712
   3 H :    0.028118
   4 C :    0.086656
   5 H :    0.025706
   6 H :    0.030390
   7 H :    0.018897
   8 C :   -0.224911
   9 N :    0.157170
  10 N :    0.188018
  11 H :   -0.011942
  12 H :   -0.002449
  13 H :   -0.035622
  14 H :    0.010605
  15 H :    0.005722
  16 H :   -0.010730
  17 H :   -0.006173
  18 H :   -0.014683

  Mayer bond orders larger than 0.100000
B(  0-C ,  1-C ) :   1.1242 B(  0-C ,  2-C ) :   1.1543 B(  0-C ,  3-H ) :   0.1195
B(  0-C ,  6-H ) :   0.8435 B(  0-C ,  7-H ) :   0.8773 B(  0-C , 13-H ) :   0.2108
B(  1-C ,  3-H ) :   0.9869 B(  1-C ,  4-C ) :   1.3197 B(  1-C ,  5-H ) :   0.9514
B(  1-C , 16-H ) :   0.1839 B(  1-C , 17-H ) :   0.1747 B(  1-C , 18-H ) :   0.1851
B(  2-C ,  6-H ) :   0.1702 B(  2-C ,  7-H ) :   0.2240 B(  2-C ,  8-C ) :   1.8492
B(  2-C ,  9-N ) :   0.3208 B(  2-C , 10-N ) :   0.1765 B(  2-C , 13-H ) :   0.9385
B(  4-C , 16-H ) :   0.8080 B(  4-C , 17-H ) :   0.8189 B(  4-C , 18-H ) :   0.8520
B(  8-C ,  9-N ) :   0.8724 B(  8-C , 10-N ) :   0.9143 B(  8-C , 13-H ) :   0.1728
B(  9-N , 14-H ) :   1.0149 B(  9-N , 15-H ) :   1.1897 B( 10-N , 11-H ) :   0.9987
B( 10-N , 12-H ) :   1.2376 B( 11-H , 12-H ) :  -0.1307 B( 14-H , 15-H ) :  -0.1290

FINAL SINGLE POINT ENERGY      -306.014120613272

DIPOLE MOMENT
-------------
                                X             Y             Z
Electronic contribution:     -0.67726      -2.63906       5.54962
Nuclear contribution   :      0.88816       2.11069      -4.95634
                        -----------------------------------------
Total Dipole Moment    :      0.21090      -0.52837       0.59328
                        -----------------------------------------
Magnitude (a.u.)       :      0.82197
Magnitude (Debye)      :      2.08929

Rotational constants in cm-1:     0.162296     0.048922     0.043870
Rotational constants in MHz :  4865.524396  1466.649652  1315.198467

                             ****ORCA TERMINATED NORMALLY****
TOTAL RUN TIME: 0 days 0 hours 0 minutes 39 seconds 51 msec
