                         Program Version 5.0.0 -  RELEASE  -
|  1> !LC-PBE RIJCOSX def2-SVPD def2/J TightSCF
|  2> *xyz 0 1
|  3> C          3.48828        1.60092       -1.52204
|  4> C          4.34297        1.31342       -2.75683
|  5> N          2.81029        0.42878       -1.01420
|  6> H          5.13203        0.60499       -2.48447
|  7> C          3.53590        0.74925       -3.92460
|  8> H          4.84125        2.24214       -3.05408
|  9> H          2.71455        2.33145       -1.76030
| 10> H          4.09099        2.06315       -0.73338
| 11> C          3.29098       -0.41802       -0.12908
| 12> C          2.51754       -1.43202        0.23936
| 13> N          4.53549       -0.28441        0.39580
| 14> H          5.04363        0.57189        0.22290
| 15> H          4.72335       -0.73327        1.28180
| 16> H          1.93479        0.10230       -1.40379
| 17> H          1.67464       -1.50562       -0.31610
| 18> H          2.92850       -2.21850        0.72549
| 19> H          4.18704        0.56990       -4.75451
| 20> H          2.78096        1.45217       -4.20898
| 21> H          3.07436       -0.16949       -3.62832
| 22> *
| 23> %MaxCore 64000
| 24>
| 25> %pal nprocs 4
| 26> end
| 27>
| 28> %scf
| 29>   MaxIter 150
| 30> end
| 31>
| 32>
| 33>                          ****END OF INPUT****

CARTESIAN COORDINATES (ANGSTROEM)
---------------------------------
  C      3.488280    1.600920   -1.522040
  C      4.342970    1.313420   -2.756830
  N      2.810290    0.428780   -1.014200
  H      5.132030    0.604990   -2.484470
  C      3.535900    0.749250   -3.924600
  H      4.841250    2.242140   -3.054080
  H      2.714550    2.331450   -1.760300
  H      4.090990    2.063150   -0.733380
  C      3.290980   -0.418020   -0.129080
  C      2.517540   -1.432020    0.239360
  N      4.535490   -0.284410    0.395800
  H      5.043630    0.571890    0.222900
  H      4.723350   -0.733270    1.281800
  H      1.934790    0.102300   -1.403790
  H      1.674640   -1.505620   -0.316100
  H      2.928500   -2.218500    0.725490
  H      4.187040    0.569900   -4.754510
  H      2.780960    1.452170   -4.208980
  H      3.074360   -0.169490   -3.628320

 Total Charge           Charge          ....    0
 Multiplicity           Mult            ....    1
 Number of Electrons    NEL             ....   56
 Basis Dimension        Dim             ....  236

ORBITAL ENERGIES
----------------

  NO   OCC          E(Eh)            E(eV)
   0   2.0000     -14.232002      -387.2725
   1   2.0000     -14.229714      -387.2102
   2   2.0000     -10.178596      -276.9737
   3   2.0000     -10.168902      -276.7099
   4   2.0000     -10.129558      -275.6393
   5   2.0000     -10.114394      -275.2266
   6   2.0000     -10.035356      -273.0759
   7   2.0000      -1.142173       -31.0801
   8   2.0000      -1.047929       -28.5156
   9   2.0000      -0.964904       -26.2564
  10   2.0000      -0.894911       -24.3518
  11   2.0000      -0.831528       -22.6270
  12   2.0000      -0.765259       -20.8238
  13   2.0000      -0.743189       -20.2232
  14   2.0000      -0.683886       -18.6095
  15   2.0000      -0.651428       -17.7263
  16   2.0000      -0.622855       -16.9487
  17   2.0000      -0.602712       -16.4006
  18   2.0000      -0.585256       -15.9256
  19   2.0000      -0.553895       -15.0723
  20   2.0000      -0.531479       -14.4623
  21   2.0000      -0.521605       -14.1936
  22   2.0000      -0.512644       -13.9498
  23   2.0000      -0.484722       -13.1900
  24   2.0000      -0.480828       -13.0840
  25   2.0000      -0.470122       -12.7927
  26   2.0000      -0.389998       -10.6124
  27   2.0000      -0.280800        -7.6410
  28   0.0000       0.084300         2.2939
  29   0.0000       0.102983         2.8023
  30   0.0000       0.113272         3.0823
  31   0.0000       0.118838         3.2338
  32   0.0000       0.143007         3.8914

MULLIKEN ATOMIC CHARGES
-----------------------
   0 C :    0.550356
   1 C :   -0.446345
   2 N :   -0.377338
   3 H :    0.054136
   4 C :    0.471412
   5 H :   -0.030303
   6 H :   -0.191214
   7 H :   -0.045495
   8 C :    0.568301
   9 C :    0.286256
  10 N :    0.008856
  11 H :   -0.121759
  12 H :   -0.080588
  13 H :   -0.199115
  14 H :   -0.151615
  15 H :   -0.333552
  16 H :    0.001648
  17 H :    0.067745
  18 H :   -0.031386
Sum of atomic charges:    0.0000000

LOEWDIN ATOMIC CHARGES
----------------------
   0 C :    0.021615
   1 C :   -0.093917
   2 N :   -0.026250
   3 H :    0.029399
   4 C :    0.088495
   5 H :    0.030650
   6 H :    0.034359
   7 H :    0.023684
   8 C :   -0.232371
   9 C :    0.106158
  10 N :    0.187236
  11 H :   -0.024262
  12 H :    0.013594
  13 H :    0.040847
  14 H :   -0.090979
  15 H :   -0.082979
  16 H :   -0.006729
  17 H :   -0.006222
  18 H :   -0.012329

  Mayer bond orders larger than 0.100000
B(  0-C ,  1-C ) :   1.0974 B(  0-C ,  2-N ) :   0.9590 B(  0-C ,  6-H ) :   0.8739
B(  0-C ,  7-H ) :   0.9136 B(  0-C , 13-H ) :  -0.2467 B(  1-C ,  3-H ) :   0.9484
B(  1-C ,  4-C ) :   1.2940 B(  1-C ,  5-H ) :   1.0177 B(  1-C ,  6-H ) :   0.1104
B(  1-C , 16-H ) :   0.1728 B(  1-C , 17-H ) :   0.1629 B(  1-C , 18-H ) :   0.1693
B(  2-N ,  6-H ) :   0.1972 B(  2-N ,  7-H ) :   0.1141 B(  2-N ,  8-C ) :   1.0831
B(  2-N ,  9-C ) :   0.2568 B(  2-N , 10-N ) :   0.1166 B(  2-N , 13-H ) :   1.2768
B(  4-C , 16-H ) :   0.8476 B(  4-C , 17-H ) :   0.8120 B(  4-C , 18-H ) :   0.8706
B(  8-C ,  9-C ) :   1.7495 B(  8-C , 10-N ) :   0.8818 B(  8-C , 13-H ) :  -0.2050
B(  8-C , 14-H ) :   0.1823 B(  8-C , 15-H ) :   0.1868 B(  9-C , 10-N ) :   0.1843
B(  9-C , 14-H ) :   0.8390 B(  9-C , 15-H ) :   0.7822 B( 10-N , 11-H ) :   1.0343
B( 10-N , 12-H ) :   1.1882 B( 11-H , 12-H ) :  -0.1412

FINAL SINGLE POINT ENERGY      -305.999973028837

DIPOLE MOMENT
-------------
                                X             Y             Z
Electronic contribution:     -0.27747      -0.77199       4.27116
Nuclear contribution   :      0.82404       1.70307      -4.68174
                        -----------------------------------------
Total Dipole Moment    :      0.54656       0.93109      -0.41058
                        -----------------------------------------
Magnitude (a.u.)       :      1.15509
Magnitude (Debye)      :      2.93601

Rotational constants in cm-1:     0.164049     0.050262     0.045260
Rotational constants in MHz :  4918.051182  1506.829450  1356.872102

                             ****ORCA TERMINATED NORMALLY****
TOTAL RUN TIME: 0 days 0 hours 0 minutes 38 seconds 556 msec
