                         Program Version 5.0.0 -  RELEASE  -
|  1> !LC-PBE RIJCOSX def2-SVPD def2/J TightSCF
|  2> *xyz 0 1
|  3> C          3.48828        1.60092       -1.52204
|  4> C          4.34297        1.31342       -2.75683
|  5> N          2.81029        0.42878       -1.01420
|  6> H          5.13203        0.60499       -2.48447
|  7> C          3.53590        0.74925       -3.92460
|  8> H          4.84125        2.24214       -3.05408
|  9> H          2.71455        2.33145       -1.76030
| 10> H          4.09099        2.06315       -0.73338
| 11> C          3.29098       -0.41802       -0.12908
| 12> N          2.51754       -1.43202        0.23936
| 13> C          4.53549       -0.28441        0.39580
| 14> H          5.04363        0.57189        0.22290
| 15> H          4.72335       -0.73327        1.28180
| 16> H          1.93479        0.10230       -1.40379
| 17> H          1.67464       -1.50562       -0.31610
| 18> H          2.92850       -2.21850        0.72549
| 19> H          4.18704        0.56990       -4.75451
| 20> H          2.78096        1.45217       -4.20898
| 21> H          3.07436       -0.16949       -3.62832
| 22> *
| 23> %MaxCore 64000
| 24>
| 25> %pal nprocs 4
| 26> end
| 27>
| 28> %scf
| 29>   MaxIter 150
| 30> end
| 31>
| 32>
| 33>                          ****END OF INPUT****

CARTESIAN COORDINATES (ANGSTROEM)
---------------------------------
  C      3.488280    1.600920   -1.522040
  C      4.342970    1.313420   -2.756830
  N      2.810290    0.428780   -1.014200
  H      5.132030    0.604990   -2.484470
  C      3.535900    0.749250   -3.924600
  H      4.841250    2.242140   -3.054080
  H      2.714550    2.331450   -1.760300
  H      4.090990    2.063150   -0.733380
  C      3.290980   -0.418020   -0.129080
  N      2.517540   -1.432020    0.239360
  C      4.535490   -0.284410    0.395800
  H      5.043630    0.571890    0.222900
  H      4.723350   -0.733270    1.281800
  H      1.934790    0.102300   -1.403790
  H      1.674640   -1.505620   -0.316100
  H      2.928500   -2.218500    0.725490
  H      4.187040    0.569900   -4.754510
  H      2.780960    1.452170   -4.208980
  H      3.074360   -0.169490   -3.628320

 Total Charge           Charge          ....    0
 Multiplicity           Mult            ....    1
 Number of Electrons    NEL             ....   56
 Basis Dimension        Dim             ....  236

ORBITAL ENERGIES
----------------

  NO   OCC          E(Eh)            E(eV)
   0   2.0000     -14.238917      -387.4606
   1   2.0000     -14.232715      -387.2919
   2   2.0000     -10.182077      -277.0684
   3   2.0000     -10.161266      -276.5021
   4   2.0000     -10.122060      -275.4353
   5   2.0000     -10.111200      -275.1397
   6   2.0000     -10.036893      -273.1177
   7   2.0000      -1.151502       -31.3340
   8   2.0000      -1.055132       -28.7116
   9   2.0000      -0.951429       -25.8897
  10   2.0000      -0.873838       -23.7783
  11   2.0000      -0.858743       -23.3676
  12   2.0000      -0.766006       -20.8441
  13   2.0000      -0.706276       -19.2187
  14   2.0000      -0.696164       -18.9436
  15   2.0000      -0.676958       -18.4210
  16   2.0000      -0.620541       -16.8858
  17   2.0000      -0.599268       -16.3069
  18   2.0000      -0.581990       -15.8368
  19   2.0000      -0.546690       -14.8762
  20   2.0000      -0.541418       -14.7327
  21   2.0000      -0.517329       -14.0772
  22   2.0000      -0.503704       -13.7065
  23   2.0000      -0.482419       -13.1273
  24   2.0000      -0.473132       -12.8746
  25   2.0000      -0.463355       -12.6085
  26   2.0000      -0.383428       -10.4336
  27   2.0000      -0.283781        -7.7221
  28   0.0000       0.081390         2.2147
  29   0.0000       0.106935         2.9098
  30   0.0000       0.114655         3.1199
  31   0.0000       0.118955         3.2369
  32   0.0000       0.140536         3.8242

MULLIKEN ATOMIC CHARGES
-----------------------
   0 C :    0.510190
   1 C :   -0.411016
   2 N :   -0.555948
   3 H :    0.038959
   4 C :    0.460166
   5 H :   -0.025575
   6 H :   -0.185272
   7 H :    0.085769
   8 C :    0.628111
   9 N :   -0.016536
  10 C :    0.317873
  11 H :   -0.093327
  12 H :   -0.450841
  13 H :   -0.237805
  14 H :   -0.067900
  15 H :   -0.023661
  16 H :    0.001011
  17 H :    0.061812
  18 H :   -0.036011
Sum of atomic charges:    0.0000000

LOEWDIN ATOMIC CHARGES
----------------------
   0 C :    0.029849
   1 C :   -0.085638
   2 N :   -0.027224
   3 H :    0.031835
   4 C :    0.084501
   5 H :    0.032469
   6 H :    0.033857
   7 H :    0.031050
   8 C :   -0.238382
   9 N :    0.170292
  10 C :    0.126309
  11 H :   -0.114092
  12 H :   -0.094786
  13 H :    0.030416
  14 H :   -0.001954
  15 H :    0.024131
  16 H :   -0.007384
  17 H :   -0.008118
  18 H :   -0.017131

  Mayer bond orders larger than 0.100000
B(  0-C ,  1-C ) :   1.0865 B(  0-C ,  2-N ) :   0.9512 B(  0-C ,  3-H ) :   0.1124
B(  0-C ,  6-H ) :   0.9193 B(  0-C ,  7-H ) :   0.8735 B(  0-C , 13-H ) :  -0.2176
B(  1-C ,  3-H ) :   0.9586 B(  1-C ,  4-C ) :   1.2865 B(  1-C ,  5-H ) :   1.0199
B(  1-C , 16-H ) :   0.1709 B(  1-C , 17-H ) :   0.1604 B(  1-C , 18-H ) :   0.1633
B(  2-N ,  6-H ) :   0.1585 B(  2-N ,  8-C ) :   0.8497 B(  2-N ,  9-N ) :   0.1868
B(  2-N , 10-C ) :   0.3755 B(  2-N , 13-H ) :   1.3763 B(  4-C , 16-H ) :   0.8502
B(  4-C , 17-H ) :   0.8158 B(  4-C , 18-H ) :   0.8757 B(  6-H ,  7-H ) :  -0.1064
B(  8-C ,  9-N ) :   0.8722 B(  8-C , 10-C ) :   1.8107 B(  8-C , 11-H ) :   0.2440
B(  8-C , 12-H ) :   0.1921 B(  8-C , 13-H ) :  -0.2793 B(  9-N , 10-C ) :   0.2319
B(  9-N , 14-H ) :   1.0621 B(  9-N , 15-H ) :   1.1632 B( 10-C , 11-H ) :   0.7131
B( 10-C , 12-H ) :   0.8134 B( 14-H , 15-H ) :  -0.1259

FINAL SINGLE POINT ENERGY      -305.999733512828

DIPOLE MOMENT
-------------
                                X             Y             Z
Electronic contribution:     -2.22530      -2.02021       4.05251
Nuclear contribution   :      1.26608       1.95446      -4.64747
                        -----------------------------------------
Total Dipole Moment    :     -0.95922      -0.06575      -0.59496
                        -----------------------------------------
Magnitude (a.u.)       :      1.13067
Magnitude (Debye)      :      2.87392

Rotational constants in cm-1:     0.166109     0.049557     0.044716
Rotational constants in MHz :  4979.835529  1485.675017  1340.540851

                             ****ORCA TERMINATED NORMALLY****
TOTAL RUN TIME: 0 days 0 hours 0 minutes 38 seconds 475 msec
