                         Program Version 5.0.0 -  RELEASE  -
|  1> !PBE0 D3BJ RIJCOSX def2-SVPD def2/J TightSCF
|  2> *xyz -1 1
|  3> C          1.72854        1.42432       -5.63944
|  4> S          2.25263       -0.18811       -6.27184
|  5> O          3.56261       -0.44446       -5.63155
|  6> O          2.34494       -0.03374       -7.69650
|  7> O          1.26606       -1.15918       -5.80536
|  8> H          0.77944        1.68154       -6.06127
|  9> H          2.45151        2.16548       -5.90944
| 10> H          1.64478        1.37937       -4.57367
| 11> *
| 12>
| 13> %MaxCore 64000
| 14>
| 15> %pal nprocs 8
| 16> end
| 17>
| 18> %scf
| 19>   MaxIter 150
| 20> end
| 21>
| 22>
| 23>                          ****END OF INPUT****

CARTESIAN COORDINATES (ANGSTROEM)
---------------------------------
  C      1.728540    1.424320   -5.639440
  S      2.252630   -0.188110   -6.271840
  O      3.562610   -0.444460   -5.631550
  O      2.344940   -0.033740   -7.696500
  O      1.266060   -1.159180   -5.805360
  H      0.779440    1.681540   -6.061270
  H      2.451510    2.165480   -5.909440
  H      1.644780    1.379370   -4.573670

 Total Charge           Charge          ....   -1
 Multiplicity           Mult            ....    1
 Number of Electrons    NEL             ....   50
 Basis Dimension        Dim             ....  140

ORBITAL ENERGIES
----------------

  NO   OCC          E(Eh)            E(eV)
   0   2.0000     -89.037964     -2422.8462
   1   2.0000     -18.998484      -516.9750
   2   2.0000     -18.992335      -516.8077
   3   2.0000     -18.984386      -516.5914
   4   2.0000     -10.086897      -274.4784
   5   2.0000      -7.997197      -217.6148
   6   2.0000      -5.939406      -161.6195
   7   2.0000      -5.939247      -161.6151
   8   2.0000      -5.939062      -161.6101
   9   2.0000      -0.956120       -26.0173
  10   2.0000      -0.815638       -22.1946
  11   2.0000      -0.792350       -21.5609
  12   2.0000      -0.599791       -16.3211
  13   2.0000      -0.404833       -11.0161
  14   2.0000      -0.318161        -8.6576
  15   2.0000      -0.304542        -8.2870
  16   2.0000      -0.303531        -8.2595
  17   2.0000      -0.263720        -7.1762
  18   2.0000      -0.261557        -7.1173
  19   2.0000      -0.165055        -4.4914
  20   2.0000      -0.164390        -4.4733
  21   2.0000      -0.127975        -3.4824
  22   2.0000      -0.123064        -3.3487
  23   2.0000      -0.113596        -3.0911
  24   2.0000      -0.076108        -2.0710
  25   0.0000       0.157198         4.2776
  26   0.0000       0.190086         5.1725
  27   0.0000       0.190334         5.1793
  28   0.0000       0.194215         5.2849
  29   0.0000       0.218366         5.9420

MULLIKEN ATOMIC CHARGES
-----------------------
   0 C :    0.304773
   1 S :    1.172949
   2 O :   -0.825272
   3 O :   -0.781923
   4 O :   -0.805162
   5 H :   -0.023162
   6 H :   -0.018030
   7 H :   -0.024173
Sum of atomic charges:   -1.0000000

LOEWDIN ATOMIC CHARGES
----------------------
   0 C :    0.054534
   1 S :    0.843281
   2 O :   -0.606202
   3 O :   -0.582870
   4 O :   -0.593671
   5 H :   -0.039574
   6 H :   -0.037774
   7 H :   -0.037724

  Mayer bond orders larger than 0.100000
B(  0-C ,  1-S ) :   0.9472 B(  0-C ,  5-H ) :   0.9403 B(  0-C ,  6-H ) :   0.9406
B(  0-C ,  7-H ) :   0.9450 B(  1-S ,  2-O ) :   1.2841 B(  1-S ,  3-O ) :   1.3159
B(  1-S ,  4-O ) :   1.2957 B(  1-S ,  6-H ) :   0.1028 B(  1-S ,  7-H ) :   0.1074

Dispersion correction           -0.005329664
FINAL SINGLE POINT ENERGY      -663.077168880173

DIPOLE MOMENT
-------------
                                X             Y             Z
Electronic contribution:      1.18333      -3.81217      -1.60453
Nuclear contribution   :     -1.71379       5.17769       1.98321
                        -----------------------------------------
Total Dipole Moment    :     -0.53046       1.36552       0.37868
                        -----------------------------------------
Magnitude (a.u.)       :      1.51308
Magnitude (Debye)      :      3.84595

Rotational constants in cm-1:     0.172739     0.155771     0.153412
Rotational constants in MHz :  5178.588083  4669.889924  4599.189984

                             ****ORCA TERMINATED NORMALLY****
TOTAL RUN TIME: 0 days 0 hours 0 minutes 6 seconds 782 msec
