                         Program Version 5.0.0 -  RELEASE  -
|  1> !PBE0 D3BJ RIJCOSX def2-SVPD def2/J TightSCF
|  2> *xyz 1 1
|  3> C          2.91632       -1.24259       -1.54313
|  4> C          3.46659       -1.59097       -2.88908
|  5> N          4.65227       -1.14316       -3.25969
|  6> N          2.75226       -2.29204       -3.72803
|  7> H          1.77836       -2.48960       -3.51274
|  8> H          2.94861       -2.20854       -4.71681
|  9> H          5.14672       -0.51251       -2.63385
| 10> H          4.78303       -1.00720       -4.25350
| 11> H          1.95294       -1.69278       -1.42424
| 12> H          2.82618       -0.17973       -1.45886
| 13> H          3.57606       -1.60596       -0.78312
| 14> *
| 15>
| 16> %MaxCore 64000
| 17>
| 18> %pal nprocs 8
| 19> end
| 20>
| 21> %scf
| 22>   MaxIter 150
| 23> end
| 24>
| 25>
| 26>                          ****END OF INPUT****

CARTESIAN COORDINATES (ANGSTROEM)
---------------------------------
  C      2.916320   -1.242590   -1.543130
  C      3.466590   -1.590970   -2.889080
  N      4.652270   -1.143160   -3.259690
  N      2.752260   -2.292040   -3.728030
  H      1.778360   -2.489600   -3.512740
  H      2.948610   -2.208540   -4.716810
  H      5.146720   -0.512510   -2.633850
  H      4.783030   -1.007200   -4.253500
  H      1.952940   -1.692780   -1.424240
  H      2.826180   -0.179730   -1.458860
  H      3.576060   -1.605960   -0.783120

 Total Charge           Charge          ....    1
 Multiplicity           Mult            ....    1
 Number of Electrons    NEL             ....   32
 Basis Dimension        Dim             ....  136

ORBITAL ENERGIES
----------------

  NO   OCC          E(Eh)            E(eV)
   0   2.0000     -14.652632      -398.7184
   1   2.0000     -14.647468      -398.5779
   2   2.0000     -10.568902      -287.5944
   3   2.0000     -10.435102      -283.9536
   4   2.0000      -1.238582       -33.7035
   5   2.0000      -1.136617       -30.9289
   6   2.0000      -0.976434       -26.5701
   7   2.0000      -0.863731       -23.5033
   8   2.0000      -0.795979       -21.6597
   9   2.0000      -0.789575       -21.4854
  10   2.0000      -0.721775       -19.6405
  11   2.0000      -0.683508       -18.5992
  12   2.0000      -0.636867       -17.3300
  13   2.0000      -0.619417       -16.8552
  14   2.0000      -0.592301       -16.1173
  15   2.0000      -0.519649       -14.1404
  16   0.0000      -0.225107        -6.1255
  17   0.0000      -0.156644        -4.2625
  18   0.0000      -0.112785        -3.0690
  19   0.0000      -0.107125        -2.9150
  20   0.0000      -0.088248        -2.4013

MULLIKEN ATOMIC CHARGES
-----------------------
   0 C :    0.427984
   1 C :    0.349671
   2 N :   -0.056434
   3 N :   -0.062343
   4 H :    0.070615
   5 H :   -0.037400
   6 H :    0.070585
   7 H :   -0.024719
   8 H :    0.080569
   9 H :    0.081116
  10 H :    0.100357
Sum of atomic charges:    1.0000000

LOEWDIN ATOMIC CHARGES
----------------------
   0 C :    0.232860
   1 C :   -0.066925
   2 N :    0.274008
   3 N :    0.277999
   4 H :    0.059246
   5 H :    0.051681
   6 H :    0.060356
   7 H :    0.047137
   8 H :    0.009465
   9 H :    0.027769
  10 H :    0.026404

  Mayer bond orders larger than 0.100000
B(  0-C ,  1-C ) :   1.3291 B(  0-C ,  8-H ) :   0.8074 B(  0-C ,  9-H ) :   0.8425
B(  0-C , 10-H ) :   0.7243 B(  1-C ,  2-N ) :   1.0594 B(  1-C ,  3-N ) :   1.0299
B(  1-C ,  5-H ) :  -0.1370 B(  1-C ,  8-H ) :   0.2086 B(  1-C ,  9-H ) :   0.1106
B(  1-C , 10-H ) :   0.2012 B(  2-N ,  3-N ) :   0.1823 B(  2-N ,  6-H ) :   1.0176
B(  2-N ,  7-H ) :   1.1723 B(  3-N ,  4-H ) :   1.0297 B(  3-N ,  5-H ) :   1.2137
B(  4-H ,  5-H ) :  -0.1245 B(  6-H ,  7-H ) :  -0.1134 B(  8-H , 10-H ) :   0.1019

Dispersion correction           -0.005749270
FINAL SINGLE POINT ENERGY      -189.368365902580

DIPOLE MOMENT
-------------
                                X             Y             Z
Electronic contribution:      0.90194      -0.73517      -1.80832
Nuclear contribution   :     -1.03256       1.11747       1.26949
                        -----------------------------------------
Total Dipole Moment    :     -0.13062       0.38230      -0.53883
                        -----------------------------------------
Magnitude (a.u.)       :      0.67346
Magnitude (Debye)      :      1.71180

Rotational constants in cm-1:     0.336859     0.298586     0.163958
Rotational constants in MHz : 10098.776812  8951.369850  4915.333652

                             ****ORCA TERMINATED NORMALLY****
TOTAL RUN TIME: 0 days 0 hours 0 minutes 6 seconds 502 msec
