                         Program Version 5.0.0 -  RELEASE  -
|  1> !PBE0 D3BJ RIJCOSX def2-SVPD def2/J TightSCF
|  2> *xyz 0 1
|  3> C          1.72854        1.42432       -5.63944
|  4> S          2.25263       -0.18811       -6.27184
|  5> F          3.56261       -0.44446       -5.63155
|  6> O          2.34494       -0.03374       -7.69650
|  7> O          1.26606       -1.15918       -5.80536
|  8> H          0.77944        1.68154       -6.06127
|  9> H          2.45151        2.16548       -5.90944
| 10> H          1.64478        1.37937       -4.57367
| 11> *
| 12>
| 13> %MaxCore 64000
| 14>
| 15> %pal nprocs 8
| 16> end
| 17>
| 18> %scf
| 19>   MaxIter 150
| 20> end
| 21>
| 22>
| 23>                          ****END OF INPUT****

CARTESIAN COORDINATES (ANGSTROEM)
---------------------------------
  C      1.728540    1.424320   -5.639440
  S      2.252630   -0.188110   -6.271840
  F      3.562610   -0.444460   -5.631550
  O      2.344940   -0.033740   -7.696500
  O      1.266060   -1.159180   -5.805360
  H      0.779440    1.681540   -6.061270
  H      2.451510    2.165480   -5.909440
  H      1.644780    1.379370   -4.573670

 Total Charge           Charge          ....    0
 Multiplicity           Mult            ....    1
 Number of Electrons    NEL             ....   50
 Basis Dimension        Dim             ....  140

ORBITAL ENERGIES
----------------

  NO   OCC          E(Eh)            E(eV)
   0   2.0000     -89.303188     -2430.0633
   1   2.0000     -24.889773      -677.2852
   2   2.0000     -19.238253      -523.4995
   3   2.0000     -19.231938      -523.3276
   4   2.0000     -10.296649      -280.1861
   5   2.0000      -8.263008      -224.8479
   6   2.0000      -6.209058      -168.9571
   7   2.0000      -6.203008      -168.7924
   8   2.0000      -6.202120      -168.7683
   9   2.0000      -1.382668       -37.6243
  10   2.0000      -1.148456       -31.2511
  11   2.0000      -1.050151       -28.5761
  12   2.0000      -0.822036       -22.3687
  13   2.0000      -0.728726       -19.8296
  14   2.0000      -0.613872       -16.7043
  15   2.0000      -0.591508       -16.0957
  16   2.0000      -0.575791       -15.6681
  17   2.0000      -0.499017       -13.5789
  18   2.0000      -0.497136       -13.5278
  19   2.0000      -0.483882       -13.1671
  20   2.0000      -0.463472       -12.6117
  21   2.0000      -0.411151       -11.1880
  22   2.0000      -0.361855        -9.8466
  23   2.0000      -0.355206        -9.6657
  24   2.0000      -0.337190        -9.1754
  25   0.0000      -0.001323        -0.0360
  26   0.0000       0.034559         0.9404
  27   0.0000       0.039548         1.0762
  28   0.0000       0.051406         1.3988
  29   0.0000       0.051533         1.4023

MULLIKEN ATOMIC CHARGES
-----------------------
   0 C :    0.284914
   1 S :    1.337076
   2 F :   -0.404671
   3 O :   -0.655058
   4 O :   -0.677073
   5 H :    0.030705
   6 H :    0.045600
   7 H :    0.038507
Sum of atomic charges:    0.0000000

LOEWDIN ATOMIC CHARGES
----------------------
   0 C :    0.124924
   1 S :    1.113173
   2 F :   -0.275843
   3 O :   -0.465247
   4 O :   -0.474878
   5 H :    0.000969
   6 H :   -0.011527
   7 H :   -0.011570

  Mayer bond orders larger than 0.100000
B(  0-C ,  1-S ) :   1.0051 B(  0-C ,  5-H ) :   0.9292 B(  0-C ,  6-H ) :   0.9265
B(  0-C ,  7-H ) :   0.9321 B(  1-S ,  2-F ) :   0.6383 B(  1-S ,  3-O ) :   1.5227
B(  1-S ,  4-O ) :   1.5015 B(  1-S ,  5-H ) :   0.1001

Dispersion correction           -0.004995031
FINAL SINGLE POINT ENERGY      -687.564307758839

DIPOLE MOMENT
-------------
                                X             Y             Z
Electronic contribution:      3.34283      -4.18023      -0.53308
Nuclear contribution   :     -3.03874       5.51823       1.39394
                        -----------------------------------------
Total Dipole Moment    :      0.30410       1.33800       0.86085
                        -----------------------------------------
Magnitude (a.u.)       :      1.61981
Magnitude (Debye)      :      4.11722

Rotational constants in cm-1:     0.164301     0.151617     0.146802
Rotational constants in MHz :  4925.615104  4545.361281  4401.017554

                             ****ORCA TERMINATED NORMALLY****
TOTAL RUN TIME: 0 days 0 hours 0 minutes 7 seconds 420 msec
