                         Program Version 5.0.0 -  RELEASE  -
|  1> !PBE0 D3BJ RIJCOSX def2-SVPD def2/J TightSCF
|  2> *xyz 0 1
|  3> C          2.91632       -1.24259       -1.54313
|  4> C          3.46659       -1.59097       -2.88908
|  5> C          4.65227       -1.14316       -3.25969
|  6> N          2.75226       -2.29204       -3.72803
|  7> H          1.77836       -2.48960       -3.51274
|  8> H          2.94861       -2.20854       -4.71681
|  9> H          5.14672       -0.51251       -2.63385
| 10> H          4.78303       -1.00720       -4.25350
| 11> H          1.95294       -1.69278       -1.42424
| 12> H          2.82618       -0.17973       -1.45886
| 13> H          3.57606       -1.60596       -0.78312
| 14> *
| 15>
| 16> %MaxCore 64000
| 17>
| 18> %pal nprocs 8
| 19> end
| 20>
| 21> %scf
| 22>   MaxIter 150
| 23> end
| 24>
| 25>
| 26>                          ****END OF INPUT****

CARTESIAN COORDINATES (ANGSTROEM)
---------------------------------
  C      2.916320   -1.242590   -1.543130
  C      3.466590   -1.590970   -2.889080
  C      4.652270   -1.143160   -3.259690
  N      2.752260   -2.292040   -3.728030
  H      1.778360   -2.489600   -3.512740
  H      2.948610   -2.208540   -4.716810
  H      5.146720   -0.512510   -2.633850
  H      4.783030   -1.007200   -4.253500
  H      1.952940   -1.692780   -1.424240
  H      2.826180   -0.179730   -1.458860
  H      3.576060   -1.605960   -0.783120

 Total Charge           Charge          ....    0
 Multiplicity           Mult            ....    1
 Number of Electrons    NEL             ....   32
 Basis Dimension        Dim             ....  136

ORBITAL ENERGIES
----------------

  NO   OCC          E(Eh)            E(eV)
   0   2.0000     -14.400830      -391.8665
   1   2.0000     -10.256403      -279.0909
   2   2.0000     -10.225678      -278.2549
   3   2.0000     -10.161024      -276.4955
   4   2.0000      -0.956991       -26.0410
   5   2.0000      -0.775952       -21.1147
   6   2.0000      -0.707844       -19.2614
   7   2.0000      -0.591405       -16.0929
   8   2.0000      -0.540671       -14.7124
   9   2.0000      -0.485364       -13.2074
  10   2.0000      -0.448199       -12.1961
  11   2.0000      -0.412744       -11.2313
  12   2.0000      -0.402108       -10.9419
  13   2.0000      -0.375859       -10.2277
  14   2.0000      -0.345575        -9.4036
  15   2.0000      -0.201058        -5.4711
  16   0.0000       0.023598         0.6421
  17   0.0000       0.041156         1.1199
  18   0.0000       0.062949         1.7129
  19   0.0000       0.070488         1.9181
  20   0.0000       0.096721         2.6319

MULLIKEN ATOMIC CHARGES
-----------------------
   0 C :    0.599022
   1 C :   -0.425662
   2 C :    0.278300
   3 N :    0.005668
   4 H :   -0.061672
   5 H :   -0.069830
   6 H :   -0.053774
   7 H :   -0.311182
   8 H :   -0.040556
   9 H :    0.021323
  10 H :    0.058363
Sum of atomic charges:    0.0000000

LOEWDIN ATOMIC CHARGES
----------------------
   0 C :    0.165778
   1 C :   -0.292312
   2 C :    0.152397
   3 N :    0.157441
   4 H :    0.002364
   5 H :    0.009504
   6 H :   -0.076581
   7 H :   -0.087770
   8 H :   -0.024953
   9 H :   -0.002732
  10 H :   -0.003136

  Mayer bond orders larger than 0.100000
B(  0-C ,  1-C ) :   1.2185 B(  0-C ,  8-H ) :   0.7577 B(  0-C ,  9-H ) :   0.8520
B(  0-C , 10-H ) :   0.7408 B(  1-C ,  2-C ) :   1.9549 B(  1-C ,  3-N ) :   0.9946
B(  1-C ,  6-H ) :   0.1754 B(  1-C ,  7-H ) :   0.2007 B(  1-C ,  8-H ) :   0.2537
B(  1-C ,  9-H ) :   0.1035 B(  1-C , 10-H ) :   0.2142 B(  2-C ,  3-N ) :   0.2500
B(  2-C ,  6-H ) :   0.7861 B(  2-C ,  7-H ) :   0.8975 B(  3-N ,  4-H ) :   1.0693
B(  3-N ,  5-H ) :   1.1341 B(  4-H ,  5-H ) :  -0.1128 B(  6-H ,  7-H ) :   0.1389

Dispersion correction           -0.006040966
FINAL SINGLE POINT ENERGY      -172.920097069392

DIPOLE MOMENT
-------------
                                X             Y             Z
Electronic contribution:     -0.15714      -1.17654      -1.31848
Nuclear contribution   :     -0.76183       1.20997       1.18381
                        -----------------------------------------
Total Dipole Moment    :     -0.91897       0.03344      -0.13467
                        -----------------------------------------
Magnitude (a.u.)       :      0.92939
Magnitude (Debye)      :      2.36232

Rotational constants in cm-1:     0.357745     0.302571     0.170012
Rotational constants in MHz : 10724.926457  9070.849165  5096.845195

                             ****ORCA TERMINATED NORMALLY****
TOTAL RUN TIME: 0 days 0 hours 0 minutes 6 seconds 671 msec
