                         Program Version 5.0.0 -  RELEASE  -
|  1> !PBE0 D3BJ RIJCOSX def2-SVPD def2/J TightSCF
|  2> *xyz 0 1
|  3> C          1.72854        1.42432       -5.63944
|  4> S          2.25263       -0.18811       -6.27184
|  5> O          3.56261       -0.44446       -5.63155
|  6> F          2.34494       -0.03374       -7.69650
|  7> O          1.26606       -1.15918       -5.80536
|  8> H          0.77944        1.68154       -6.06127
|  9> H          2.45151        2.16548       -5.90944
| 10> H          1.64478        1.37937       -4.57367
| 11> *
| 12>
| 13> %MaxCore 64000
| 14>
| 15> %pal nprocs 8
| 16> end
| 17>
| 18> %scf
| 19>   MaxIter 150
| 20> end
| 21>
| 22>
| 23>                          ****END OF INPUT****

CARTESIAN COORDINATES (ANGSTROEM)
---------------------------------
  C      1.728540    1.424320   -5.639440
  S      2.252630   -0.188110   -6.271840
  O      3.562610   -0.444460   -5.631550
  F      2.344940   -0.033740   -7.696500
  O      1.266060   -1.159180   -5.805360
  H      0.779440    1.681540   -6.061270
  H      2.451510    2.165480   -5.909440
  H      1.644780    1.379370   -4.573670

 Total Charge           Charge          ....    0
 Multiplicity           Mult            ....    1
 Number of Electrons    NEL             ....   50
 Basis Dimension        Dim             ....  140

ORBITAL ENERGIES
----------------

  NO   OCC          E(Eh)            E(eV)
   0   2.0000     -89.305512     -2430.1265
   1   2.0000     -24.911904      -677.8874
   2   2.0000     -19.232405      -523.3404
   3   2.0000     -19.224154      -523.1158
   4   2.0000     -10.297700      -280.2146
   5   2.0000      -8.265374      -224.9123
   6   2.0000      -6.211711      -169.0292
   7   2.0000      -6.205102      -168.8494
   8   2.0000      -6.204250      -168.8262
   9   2.0000      -1.420790       -38.6617
  10   2.0000      -1.134693       -30.8766
  11   2.0000      -1.030052       -28.0292
  12   2.0000      -0.825433       -22.4612
  13   2.0000      -0.747507       -20.3407
  14   2.0000      -0.632073       -17.1996
  15   2.0000      -0.618073       -16.8186
  16   2.0000      -0.579626       -15.7724
  17   2.0000      -0.497009       -13.5243
  18   2.0000      -0.495674       -13.4880
  19   2.0000      -0.485219       -13.2035
  20   2.0000      -0.456767       -12.4293
  21   2.0000      -0.403668       -10.9844
  22   2.0000      -0.354056        -9.6343
  23   2.0000      -0.345388        -9.3985
  24   2.0000      -0.321930        -8.7601
  25   0.0000      -0.003463        -0.0942
  26   0.0000       0.036264         0.9868
  27   0.0000       0.038337         1.0432
  28   0.0000       0.049519         1.3475
  29   0.0000       0.051669         1.4060

MULLIKEN ATOMIC CHARGES
-----------------------
   0 C :    0.286824
   1 S :    1.324851
   2 O :   -0.682404
   3 F :   -0.382845
   4 O :   -0.663292
   5 H :    0.042106
   6 H :    0.046704
   7 H :    0.028057
Sum of atomic charges:   -0.0000000

LOEWDIN ATOMIC CHARGES
----------------------
   0 C :    0.124456
   1 S :    1.115497
   2 O :   -0.486383
   3 F :   -0.257301
   4 O :   -0.474266
   5 H :   -0.012967
   6 H :   -0.011272
   7 H :    0.002236

  Mayer bond orders larger than 0.100000
B(  0-C ,  1-S ) :   1.0046 B(  0-C ,  5-H ) :   0.9248 B(  0-C ,  6-H ) :   0.9256
B(  0-C ,  7-H ) :   0.9355 B(  1-S ,  2-O ) :   1.4944 B(  1-S ,  3-F ) :   0.6856
B(  1-S ,  4-O ) :   1.5058 B(  1-S ,  7-H ) :   0.1067

Dispersion correction           -0.004994346
FINAL SINGLE POINT ENERGY      -687.545280652861

DIPOLE MOMENT
-------------
                                X             Y             Z
Electronic contribution:      1.29945      -3.50185      -3.96790
Nuclear contribution   :     -1.82220       5.10789       3.45696
                        -----------------------------------------
Total Dipole Moment    :     -0.52275       1.60605      -0.51094
                        -----------------------------------------
Magnitude (a.u.)       :      1.76457
Magnitude (Debye)      :      4.48519

Rotational constants in cm-1:     0.163267     0.154654     0.145086
Rotational constants in MHz :  4894.631475  4636.404456  4349.567403

                             ****ORCA TERMINATED NORMALLY****
TOTAL RUN TIME: 0 days 0 hours 0 minutes 7 seconds 356 msec
