                         Program Version 5.0.0 -  RELEASE  -
|  1> !PBE0 D3BJ RIJCOSX def2-SVPD def2/J TightSCF
|  2> *xyz 0 1
|  3> C          2.91632       -1.24259       -1.54313
|  4> C          3.46659       -1.59097       -2.88908
|  5> N          4.65227       -1.14316       -3.25969
|  6> C          2.75226       -2.29204       -3.72803
|  7> H          1.77836       -2.48960       -3.51274
|  8> H          2.94861       -2.20854       -4.71681
|  9> H          5.14672       -0.51251       -2.63385
| 10> H          4.78303       -1.00720       -4.25350
| 11> H          1.95294       -1.69278       -1.42424
| 12> H          2.82618       -0.17973       -1.45886
| 13> H          3.57606       -1.60596       -0.78312
| 14> *
| 15>
| 16> %MaxCore 64000
| 17>
| 18> %pal nprocs 8
| 19> end
| 20>
| 21> %scf
| 22>   MaxIter 150
| 23> end
| 24>
| 25>
| 26>                          ****END OF INPUT****

CARTESIAN COORDINATES (ANGSTROEM)
---------------------------------
  C      2.916320   -1.242590   -1.543130
  C      3.466590   -1.590970   -2.889080
  N      4.652270   -1.143160   -3.259690
  C      2.752260   -2.292040   -3.728030
  H      1.778360   -2.489600   -3.512740
  H      2.948610   -2.208540   -4.716810
  H      5.146720   -0.512510   -2.633850
  H      4.783030   -1.007200   -4.253500
  H      1.952940   -1.692780   -1.424240
  H      2.826180   -0.179730   -1.458860
  H      3.576060   -1.605960   -0.783120

 Total Charge           Charge          ....    0
 Multiplicity           Mult            ....    1
 Number of Electrons    NEL             ....   32
 Basis Dimension        Dim             ....  136

ORBITAL ENERGIES
----------------

  NO   OCC          E(Eh)            E(eV)
   0   2.0000     -14.397298      -391.7704
   1   2.0000     -10.255308      -279.0611
   2   2.0000     -10.224441      -278.2212
   3   2.0000     -10.165447      -276.6159
   4   2.0000      -0.951487       -25.8913
   5   2.0000      -0.776700       -21.1351
   6   2.0000      -0.709094       -19.2954
   7   2.0000      -0.584669       -15.9097
   8   2.0000      -0.541467       -14.7341
   9   2.0000      -0.488346       -13.2886
  10   2.0000      -0.448914       -12.2156
  11   2.0000      -0.412431       -11.2228
  12   2.0000      -0.405816       -11.0428
  13   2.0000      -0.371066       -10.0972
  14   2.0000      -0.341181        -9.2840
  15   2.0000      -0.208646        -5.6775
  16   0.0000       0.024120         0.6563
  17   0.0000       0.045160         1.2289
  18   0.0000       0.064682         1.7601
  19   0.0000       0.071233         1.9384
  20   0.0000       0.098810         2.6888

MULLIKEN ATOMIC CHARGES
-----------------------
   0 C :    0.609347
   1 C :   -0.527162
   2 N :    0.025474
   3 C :    0.252100
   4 H :   -0.009212
   5 H :   -0.331009
   6 H :   -0.079687
   7 H :   -0.057403
   8 H :    0.071698
   9 H :    0.016959
  10 H :    0.028894
Sum of atomic charges:   -0.0000000

LOEWDIN ATOMIC CHARGES
----------------------
   0 C :    0.162216
   1 C :   -0.298968
   2 N :    0.157095
   3 C :    0.159382
   4 H :   -0.077145
   5 H :   -0.081560
   6 H :    0.003878
   7 H :    0.005321
   8 H :   -0.011588
   9 H :   -0.007064
  10 H :   -0.011566

  Mayer bond orders larger than 0.100000
B(  0-C ,  1-C ) :   1.3606 B(  0-C ,  8-H ) :   0.8163 B(  0-C ,  9-H ) :   0.7345
B(  0-C , 10-H ) :   0.6941 B(  1-C ,  2-N ) :   1.0200 B(  1-C ,  3-C ) :   1.9498
B(  1-C ,  5-H ) :   0.2005 B(  1-C ,  8-H ) :   0.2111 B(  1-C ,  9-H ) :   0.2477
B(  1-C , 10-H ) :   0.2405 B(  2-N ,  3-C ) :   0.2686 B(  2-N ,  6-H ) :   1.0645
B(  2-N ,  7-H ) :   1.0986 B(  3-C ,  4-H ) :   0.8613 B(  3-C ,  5-H ) :   0.8124
B(  4-H ,  5-H ) :   0.1741 B(  6-H ,  7-H ) :  -0.1019 B(  8-H ,  9-H ) :   0.1090

Dispersion correction           -0.006040731
FINAL SINGLE POINT ENERGY      -172.923776254113

DIPOLE MOMENT
-------------
                                X             Y             Z
Electronic contribution:      1.51912      -0.17652      -0.92996
Nuclear contribution   :     -1.18794       0.95232       1.07877
                        -----------------------------------------
Total Dipole Moment    :      0.33118       0.77579       0.14881
                        -----------------------------------------
Magnitude (a.u.)       :      0.85655
Magnitude (Debye)      :      2.17718

Rotational constants in cm-1:     0.358436     0.301769     0.169913
Rotational constants in MHz : 10745.629007  9046.806054  5093.859032

                             ****ORCA TERMINATED NORMALLY****
TOTAL RUN TIME: 0 days 0 hours 0 minutes 6 seconds 318 msec
