                         Program Version 5.0.0 -  RELEASE  -
|  1> !PBE0 D3BJ RIJCOSX def2-SVPD def2/J TightSCF
|  2> *xyz 0 1
|  3> C          1.72854        1.42432       -5.63944
|  4> S          2.25263       -0.18811       -6.27184
|  5> O          3.56261       -0.44446       -5.63155
|  6> O          2.34494       -0.03374       -7.69650
|  7> F          1.26606       -1.15918       -5.80536
|  8> H          0.77944        1.68154       -6.06127
|  9> H          2.45151        2.16548       -5.90944
| 10> H          1.64478        1.37937       -4.57367
| 11> *
| 12>
| 13> %MaxCore 64000
| 14>
| 15> %pal nprocs 8
| 16> end
| 17>
| 18> %scf
| 19>   MaxIter 150
| 20> end
| 21>
| 22>
| 23>                          ****END OF INPUT****

CARTESIAN COORDINATES (ANGSTROEM)
---------------------------------
  C      1.728540    1.424320   -5.639440
  S      2.252630   -0.188110   -6.271840
  O      3.562610   -0.444460   -5.631550
  O      2.344940   -0.033740   -7.696500
  F      1.266060   -1.159180   -5.805360
  H      0.779440    1.681540   -6.061270
  H      2.451510    2.165480   -5.909440
  H      1.644780    1.379370   -4.573670

 Total Charge           Charge          ....    0
 Multiplicity           Mult            ....    1
 Number of Electrons    NEL             ....   50
 Basis Dimension        Dim             ....  140

ORBITAL ENERGIES
----------------

  NO   OCC          E(Eh)            E(eV)
   0   2.0000     -89.304112     -2430.0884
   1   2.0000     -24.900826      -677.5859
   2   2.0000     -19.238625      -523.5096
   3   2.0000     -19.224048      -523.1129
   4   2.0000     -10.297192      -280.2008
   5   2.0000      -8.263997      -224.8748
   6   2.0000      -6.210152      -168.9868
   7   2.0000      -6.203875      -168.8160
   8   2.0000      -6.203006      -168.7924
   9   2.0000      -1.399928       -38.0940
  10   2.0000      -1.144653       -31.1476
  11   2.0000      -1.038610       -28.2620
  12   2.0000      -0.822758       -22.3884
  13   2.0000      -0.737950       -20.0806
  14   2.0000      -0.621712       -16.9176
  15   2.0000      -0.603475       -16.4214
  16   2.0000      -0.577880       -15.7249
  17   2.0000      -0.498261       -13.5584
  18   2.0000      -0.496882       -13.5208
  19   2.0000      -0.485477       -13.2105
  20   2.0000      -0.460294       -12.5252
  21   2.0000      -0.408575       -11.1179
  22   2.0000      -0.360450        -9.8084
  23   2.0000      -0.346279        -9.4227
  24   2.0000      -0.328804        -8.9472
  25   0.0000      -0.003843        -0.1046
  26   0.0000       0.032942         0.8964
  27   0.0000       0.038691         1.0528
  28   0.0000       0.050492         1.3740
  29   0.0000       0.051536         1.4024

MULLIKEN ATOMIC CHARGES
-----------------------
   0 C :    0.287060
   1 S :    1.330611
   2 O :   -0.689211
   3 O :   -0.648339
   4 F :   -0.396183
   5 H :    0.042266
   6 H :    0.035040
   7 H :    0.038756
Sum of atomic charges:    0.0000000

LOEWDIN ATOMIC CHARGES
----------------------
   0 C :    0.124861
   1 S :    1.114770
   2 O :   -0.486520
   3 O :   -0.464734
   4 F :   -0.266223
   5 H :   -0.012759
   6 H :    0.002240
   7 H :   -0.011634

  Mayer bond orders larger than 0.100000
B(  0-C ,  1-S ) :   1.0057 B(  0-C ,  5-H ) :   0.9257 B(  0-C ,  6-H ) :   0.9298
B(  0-C ,  7-H ) :   0.9308 B(  1-S ,  2-O ) :   1.4918 B(  1-S ,  3-O ) :   1.5242
B(  1-S ,  4-F ) :   0.6568 B(  1-S ,  6-H ) :   0.1025

Dispersion correction           -0.004995739
FINAL SINGLE POINT ENERGY      -687.554437084189

DIPOLE MOMENT
-------------
                                X             Y             Z
Electronic contribution:     -0.49899      -5.36889      -0.83107
Nuclear contribution   :     -0.74433       6.23228       1.56758
                        -----------------------------------------
Total Dipole Moment    :     -1.24332       0.86339       0.73651
                        -----------------------------------------
Magnitude (a.u.)       :      1.68337
Magnitude (Debye)      :      4.27879

Rotational constants in cm-1:     0.164764     0.152261     0.145794
Rotational constants in MHz :  4939.488001  4564.674339  4370.797804

                             ****ORCA TERMINATED NORMALLY****
TOTAL RUN TIME: 0 days 0 hours 0 minutes 7 seconds 330 msec
