                         Program Version 5.0.0 -  RELEASE  -
|  1> !PBE0 D3BJ RIJCOSX def2-SVPD def2/J TightSCF xyzfile
|  2>
|  3> *xyzfile 0 1 D1.xyz
|  4>
|  5> %MaxCore 64000
|  6>
|  7> %pal nprocs 4
|  8> end
|  9>
| 10> %scf
| 11>   MaxIter 150
| 12> end
| 13>
| 14>
| 15>                          ****END OF INPUT****

CARTESIAN COORDINATES (ANGSTROEM)
---------------------------------
  C      2.916324   -1.242589   -1.543125
  C      0.704661    1.443129   -4.503630
  C      1.728539    1.424320   -5.639443
  H      2.646718    1.953794   -5.381054
  H      1.299916    1.930613   -6.503614
  S      2.252625   -0.188115   -6.271840
  C      3.466585   -1.590971   -2.889082
  C      4.652275   -1.143164   -3.259692
  N      2.752264   -2.292043   -3.728029
  H      1.778364   -2.489604   -3.512738
  H      2.948612   -2.208544   -4.716813
  H      5.146723   -0.512508   -2.633852
  H      4.783030   -1.007203   -4.253498
  F      3.562607   -0.444464   -5.631552
  O      2.344944   -0.033742   -7.696501
  C      2.804084    0.290698   -1.359243
  C      1.052550    0.695659   -3.214915
  H     -0.232483    1.032925   -4.884449
  H      0.511700    2.495794   -4.267966
  C      2.388380    1.093669   -2.597108
  H      3.763425    0.674718   -0.999889
  H      2.094788    0.461222   -0.545756
  O      1.266058   -1.159177   -5.805365
  H      3.167316    1.013242   -3.359430
  H      2.357690    2.149375   -2.310997
  H      1.039284   -0.368429   -3.449329
  H      0.250787    0.865605   -2.488283
  H      1.940472   -1.716529   -1.441161
  H      3.558569   -1.663433   -0.766371

 Total Charge           Charge          ....    0
 Multiplicity           Mult            ....    1
 Number of Electrons    NEL             ....  112
 Basis Dimension        Dim             ....  404

ORBITAL ENERGIES
----------------

  NO   OCC          E(Eh)            E(eV)
   0   2.0000     -89.305092     -2430.1151
   1   2.0000     -24.894449      -677.4124
   2   2.0000     -19.242527      -523.6158
   3   2.0000     -19.238596      -523.5088
   4   2.0000     -14.393043      -391.6546
   5   2.0000     -10.300457      -280.2897
   6   2.0000     -10.265274      -279.3323
   7   2.0000     -10.253447      -279.0105
   8   2.0000     -10.242260      -278.7061
   9   2.0000     -10.239756      -278.6379
  10   2.0000     -10.237561      -278.5782
  11   2.0000     -10.237520      -278.5771
  12   2.0000     -10.160112      -276.4707
  13   2.0000      -8.264197      -224.8802
  14   2.0000      -6.210431      -168.9944
  15   2.0000      -6.204370      -168.8295
  16   2.0000      -6.202960      -168.7911
  17   2.0000      -1.389211       -37.8024
  18   2.0000      -1.153616       -31.3915
  19   2.0000      -1.056878       -28.7591
  20   2.0000      -0.953842       -25.9554
  21   2.0000      -0.861673       -23.4473
  22   2.0000      -0.823636       -22.4123
  23   2.0000      -0.783786       -21.3279
  24   2.0000      -0.754398       -20.5282
  25   2.0000      -0.719994       -19.5920
  26   2.0000      -0.706000       -19.2112
  27   2.0000      -0.653883       -17.7931
  28   2.0000      -0.616202       -16.7677
  29   2.0000      -0.601616       -16.3708
  30   2.0000      -0.591535       -16.0965
  31   2.0000      -0.582923       -15.8621
  32   2.0000      -0.566430       -15.4133
  33   2.0000      -0.532481       -14.4896
  34   2.0000      -0.518741       -14.1157
  35   2.0000      -0.509793       -13.8722
  36   2.0000      -0.494937       -13.4679
  37   2.0000      -0.491932       -13.3862
  38   2.0000      -0.481784       -13.1100
  39   2.0000      -0.461693       -12.5633
  40   2.0000      -0.450536       -12.2597
  41   2.0000      -0.439548       -11.9607
  42   2.0000      -0.418620       -11.3912
  43   2.0000      -0.409543       -11.1442
  44   2.0000      -0.401882       -10.9358
  45   2.0000      -0.396873       -10.7995
  46   2.0000      -0.389885       -10.6093
  47   2.0000      -0.373334       -10.1589
  48   2.0000      -0.367077        -9.9887
  49   2.0000      -0.359253        -9.7758
  50   2.0000      -0.353787        -9.6270
  51   2.0000      -0.343944        -9.3592
  52   2.0000      -0.338035        -9.1984
  53   2.0000      -0.335650        -9.1335
  54   2.0000      -0.330264        -8.9869
  55   2.0000      -0.198673        -5.4062
  56   0.0000       0.004075         0.1109
  57   0.0000       0.018024         0.4905
  58   0.0000       0.022954         0.6246
  59   0.0000       0.028015         0.7623
  60   0.0000       0.031389         0.8541

MULLIKEN ATOMIC CHARGES
-----------------------
   0 C :    0.444640
   1 C :    0.372251
   2 C :   -0.038410
   3 H :    0.219546
   4 H :   -0.131709
   5 S :    1.666038
   6 C :   -0.446006
   7 C :    0.508139
   8 N :    0.201497
   9 H :   -0.004019
  10 H :   -0.144111
  11 H :    0.087590
  12 H :   -0.518156
  13 F :   -0.578470
  14 O :   -0.711815
  15 C :    0.220565
  16 C :    0.061219
  17 H :    0.095562
  18 H :    0.009308
  19 C :   -0.171598
  20 H :    0.057999
  21 H :   -0.066913
  22 O :   -0.827361
  23 H :    0.059125
  24 H :   -0.118721
  25 H :   -0.213365
  26 H :   -0.026370
  27 H :    0.145234
  28 H :   -0.151690
Sum of atomic charges:   -0.0000000

LOEWDIN ATOMIC CHARGES
----------------------
   0 C :    0.025479
   1 C :   -0.028091
   2 C :   -0.030873
   3 H :    0.019344
   4 H :    0.025410
   5 S :    1.151378
   6 C :   -0.250039
   7 C :    0.168895
   8 N :    0.188915
   9 H :    0.009421
  10 H :   -0.037395
  11 H :   -0.070498
  12 H :   -0.115535
  13 F :   -0.287837
  14 O :   -0.448839
  15 C :   -0.011161
  16 C :   -0.020629
  17 H :    0.034361
  18 H :    0.037453
  19 C :   -0.028605
  20 H :    0.022147
  21 H :    0.020068
  22 O :   -0.465932
  23 H :   -0.003832
  24 H :    0.028579
  25 H :   -0.012417
  26 H :    0.035548
  27 H :    0.014154
  28 H :    0.030531

  Mayer bond orders larger than 0.100000
B(  0-C ,  6-C ) :   1.2519 B(  0-C ,  8-N ) :   0.1029 B(  0-C , 15-C ) :   1.1635
B(  0-C , 21-H ) :   0.1682 B(  0-C , 27-H ) :   0.6249 B(  0-C , 28-H ) :   0.7793
B(  1-C ,  2-C ) :   1.2714 B(  1-C ,  4-H ) :   0.1934 B(  1-C , 16-C ) :   1.2771
B(  1-C , 17-H ) :   0.6981 B(  1-C , 18-H ) :   0.7675 B(  2-C ,  3-H ) :   0.8473
B(  2-C ,  4-H ) :   0.9362 B(  2-C ,  5-S ) :   0.9698 B(  2-C , 17-H ) :   0.1129
B(  2-C , 18-H ) :   0.1366 B(  5-S , 13-F ) :   0.5872 B(  5-S , 14-O ) :   1.4899
B(  5-S , 22-O ) :   1.4198 B(  6-C ,  7-C ) :   2.1815 B(  6-C ,  8-N ) :   0.8971
B(  6-C , 11-H ) :   0.1328 B(  6-C , 12-H ) :   0.3284 B(  6-C , 27-H ) :   0.2304
B(  6-C , 28-H ) :   0.2229 B(  7-C ,  8-N ) :   0.3507 B(  7-C , 11-H ) :   0.6056
B(  7-C , 12-H ) :   0.5247 B(  8-N ,  9-H ) :   0.9187 B(  8-N , 10-H ) :   0.9906
B(  8-N , 11-H ) :   0.1438 B(  9-H , 10-H ) :  -0.1312 B( 12-H , 13-F ) :   0.2625
B( 15-C , 19-C ) :   1.2657 B( 15-C , 20-H ) :   0.7229 B( 15-C , 21-H ) :   0.8603
B( 15-C , 23-H ) :   0.1605 B( 15-C , 27-H ) :   0.1223 B( 16-C , 17-H ) :   0.2379
B( 16-C , 19-C ) :   1.2487 B( 16-C , 23-H ) :   0.1145 B( 16-C , 24-H ) :   0.1633
B( 16-C , 25-H ) :   0.9620 B( 16-C , 26-H ) :   0.7427 B( 19-C , 20-H ) :   0.2369
B( 19-C , 21-H ) :   0.1776 B( 19-C , 23-H ) :   0.8549 B( 19-C , 24-H ) :   0.8847
B( 19-C , 25-H ) :   0.1169 B( 19-C , 26-H ) :   0.2070 B( 20-H , 21-H ) :  -0.1037

Dispersion correction           -0.032153673
FINAL SINGLE POINT ENERGY     -1016.258813397445

DIPOLE MOMENT
-------------
                                X             Y             Z
Electronic contribution:      2.12991      -4.92197     -18.55235
Nuclear contribution   :     -2.89481       6.29550      19.36835
                        -----------------------------------------
Total Dipole Moment    :     -0.76490       1.37353       0.81600
                        -----------------------------------------
Magnitude (a.u.)       :      1.77131
Magnitude (Debye)      :      4.50230

Rotational constants in cm-1:     0.036515     0.018832     0.015081
Rotational constants in MHz :  1094.679513   564.567051   452.109105

                             ****ORCA TERMINATED NORMALLY****
TOTAL RUN TIME: 0 days 0 hours 2 minutes 20 seconds 16 msec
