                         Program Version 5.0.0 -  RELEASE  -
|  1> !PBE0 D3BJ RIJCOSX def2-SVPD def2/J TightSCF xyzfile
|  2>
|  3> *xyzfile 0 1 D6.xyz
|  4>
|  5> %MaxCore 64000
|  6>
|  7> %pal nprocs 4
|  8> end
|  9>
| 10> %scf
| 11>   MaxIter 150
| 12> end
| 13>
| 14>
| 15>                          ****END OF INPUT****

CARTESIAN COORDINATES (ANGSTROEM)
---------------------------------
  C      2.916324   -1.242589   -1.543125
  C      0.704661    1.443129   -4.503630
  C      1.728539    1.424320   -5.639443
  H      2.646718    1.953794   -5.381054
  H      1.299916    1.930613   -6.503614
  S      2.252625   -0.188115   -6.271840
  C      3.466585   -1.590971   -2.889082
  N      4.652275   -1.143164   -3.259692
  C      2.752264   -2.292043   -3.728029
  H      1.778364   -2.489604   -3.512738
  H      2.948612   -2.208544   -4.716813
  H      5.146723   -0.512508   -2.633852
  H      4.783030   -1.007203   -4.253498
  O      3.562607   -0.444464   -5.631552
  O      2.344944   -0.033742   -7.696501
  C      2.804084    0.290698   -1.359243
  C      1.052550    0.695659   -3.214915
  H     -0.232483    1.032925   -4.884449
  H      0.511700    2.495794   -4.267966
  C      2.388380    1.093669   -2.597108
  H      3.763425    0.674718   -0.999889
  H      2.094788    0.461222   -0.545756
  F      1.266058   -1.159177   -5.805365
  H      3.167316    1.013242   -3.359430
  H      2.357690    2.149375   -2.310997
  H      1.039284   -0.368429   -3.449329
  H      0.250787    0.865605   -2.488283
  H      1.940472   -1.716529   -1.441161
  H      3.558569   -1.663433   -0.766371

 Total Charge           Charge          ....    0
 Multiplicity           Mult            ....    1
 Number of Electrons    NEL             ....  112
 Basis Dimension        Dim             ....  404

ORBITAL ENERGIES
----------------

  NO   OCC          E(Eh)            E(eV)
   0   2.0000     -89.304141     -2430.0892
   1   2.0000     -24.896888      -677.4788
   2   2.0000     -19.240262      -523.5541
   3   2.0000     -19.226497      -523.1796
   4   2.0000     -14.377979      -391.2447
   5   2.0000     -10.298777      -280.2440
   6   2.0000     -10.267987      -279.4061
   7   2.0000     -10.242871      -278.7227
   8   2.0000     -10.242277      -278.7065
   9   2.0000     -10.239426      -278.6290
  10   2.0000     -10.237201      -278.5684
  11   2.0000     -10.230633      -278.3897
  12   2.0000     -10.154740      -276.3245
  13   2.0000      -8.262911      -224.8452
  14   2.0000      -6.209174      -168.9602
  15   2.0000      -6.203197      -168.7976
  16   2.0000      -6.201560      -168.7530
  17   2.0000      -1.396423       -37.9986
  18   2.0000      -1.146307       -31.1926
  19   2.0000      -1.043753       -28.4020
  20   2.0000      -0.937338       -25.5063
  21   2.0000      -0.862603       -23.4726
  22   2.0000      -0.819391       -22.2968
  23   2.0000      -0.777937       -21.1688
  24   2.0000      -0.750394       -20.4193
  25   2.0000      -0.728954       -19.8359
  26   2.0000      -0.696268       -18.9464
  27   2.0000      -0.650664       -17.7055
  28   2.0000      -0.616785       -16.7836
  29   2.0000      -0.604719       -16.4552
  30   2.0000      -0.592249       -16.1159
  31   2.0000      -0.578975       -15.7547
  32   2.0000      -0.558069       -15.1858
  33   2.0000      -0.525745       -14.3062
  34   2.0000      -0.513266       -13.9667
  35   2.0000      -0.509072       -13.8526
  36   2.0000      -0.494458       -13.4549
  37   2.0000      -0.483786       -13.1645
  38   2.0000      -0.474487       -12.9114
  39   2.0000      -0.459197       -12.4954
  40   2.0000      -0.455439       -12.3931
  41   2.0000      -0.431627       -11.7452
  42   2.0000      -0.420749       -11.4492
  43   2.0000      -0.410416       -11.1680
  44   2.0000      -0.400111       -10.8876
  45   2.0000      -0.396925       -10.8009
  46   2.0000      -0.380246       -10.3470
  47   2.0000      -0.374586       -10.1930
  48   2.0000      -0.363511        -9.8916
  49   2.0000      -0.350150        -9.5281
  50   2.0000      -0.345074        -9.3899
  51   2.0000      -0.338158        -9.2018
  52   2.0000      -0.336974        -9.1695
  53   2.0000      -0.320535        -8.7222
  54   2.0000      -0.319952        -8.7063
  55   2.0000      -0.197051        -5.3620
  56   0.0000      -0.003362        -0.0915
  57   0.0000       0.021125         0.5748
  58   0.0000       0.025922         0.7054
  59   0.0000       0.031107         0.8465
  60   0.0000       0.043279         1.1777

MULLIKEN ATOMIC CHARGES
-----------------------
   0 C :    0.313852
   1 C :    0.330595
   2 C :   -0.022298
   3 H :    0.219702
   4 H :   -0.107381
   5 S :    1.532318
   6 C :   -0.499963
   7 N :    0.203190
   8 C :    0.568795
   9 H :    0.017251
  10 H :   -0.414776
  11 H :   -0.014423
  12 H :   -0.226319
  13 O :   -0.732589
  14 O :   -0.703964
  15 C :    0.326269
  16 C :    0.069507
  17 H :    0.066277
  18 H :    0.008312
  19 C :   -0.225664
  20 H :    0.045465
  21 H :   -0.065239
  22 F :   -0.485434
  23 H :    0.106699
  24 H :   -0.165279
  25 H :   -0.269286
  26 H :   -0.005723
  27 H :    0.319575
  28 H :   -0.189470
Sum of atomic charges:    0.0000000

LOEWDIN ATOMIC CHARGES
----------------------
   0 C :    0.022472
   1 C :   -0.036727
   2 C :   -0.026116
   3 H :    0.028994
   4 H :    0.020186
   5 S :    1.168997
   6 C :   -0.255053
   7 N :    0.195748
   8 C :    0.156353
   9 H :   -0.071400
  10 H :   -0.118851
  11 H :    0.006757
  12 H :   -0.048821
  13 O :   -0.480664
  14 O :   -0.447445
  15 C :   -0.015547
  16 C :   -0.019880
  17 H :    0.029735
  18 H :    0.036268
  19 C :   -0.025432
  20 H :    0.015996
  21 H :    0.019790
  22 F :   -0.254386
  23 H :   -0.000842
  24 H :    0.027839
  25 H :   -0.009800
  26 H :    0.035307
  27 H :    0.022539
  28 H :    0.023986

  Mayer bond orders larger than 0.100000
B(  0-C ,  6-C ) :   1.3265 B(  0-C , 15-C ) :   1.1768 B(  0-C , 20-H ) :   0.1188
B(  0-C , 21-H ) :   0.1881 B(  0-C , 27-H ) :   0.7785 B(  0-C , 28-H ) :   0.6642
B(  1-C ,  2-C ) :   1.2670 B(  1-C ,  4-H ) :   0.2026 B(  1-C , 16-C ) :   1.2844
B(  1-C , 17-H ) :   0.7134 B(  1-C , 18-H ) :   0.7690 B(  2-C ,  3-H ) :   0.8589
B(  2-C ,  4-H ) :   0.9243 B(  2-C ,  5-S ) :   0.9903 B(  2-C , 17-H ) :   0.1044
B(  2-C , 18-H ) :   0.1399 B(  5-S , 13-O ) :   1.3782 B(  5-S , 14-O ) :   1.4863
B(  5-S , 22-F ) :   0.6090 B(  6-C ,  7-N ) :   0.8882 B(  6-C ,  8-C ) :   2.0813
B(  6-C ,  9-H ) :   0.1403 B(  6-C , 10-H ) :   0.4777 B(  6-C , 15-C ) :   0.1353
B(  6-C , 28-H ) :   0.3623 B(  7-N ,  8-C ) :   0.4225 B(  7-N ,  9-H ) :   0.1079
B(  7-N , 11-H ) :   0.9796 B(  7-N , 12-H ) :   0.9406 B(  8-C ,  9-H ) :   0.6142
B(  8-C , 10-H ) :   0.2410 B( 10-H , 12-H ) :   0.1476 B( 11-H , 12-H ) :  -0.1432
B( 12-H , 13-O ) :   0.1347 B( 15-C , 19-C ) :   1.2570 B( 15-C , 20-H ) :   0.7066
B( 15-C , 21-H ) :   0.8365 B( 16-C , 17-H ) :   0.2244 B( 16-C , 19-C ) :   1.2882
B( 16-C , 23-H ) :   0.1113 B( 16-C , 24-H ) :   0.1580 B( 16-C , 25-H ) :   0.9973
B( 16-C , 26-H ) :   0.7167 B( 19-C , 20-H ) :   0.2359 B( 19-C , 21-H ) :   0.1664
B( 19-C , 23-H ) :   0.8622 B( 19-C , 24-H ) :   0.9034 B( 19-C , 25-H ) :   0.1309
B( 19-C , 26-H ) :   0.1829 B( 20-H , 21-H ) :  -0.1089

Dispersion correction           -0.032271020
FINAL SINGLE POINT ENERGY     -1016.256272729340

DIPOLE MOMENT
-------------
                                X             Y             Z
Electronic contribution:     -0.44387      -5.31192     -18.63879
Nuclear contribution   :     -0.51418       6.96452      19.50670
                        -----------------------------------------
Total Dipole Moment    :     -0.95805       1.65260       0.86791
                        -----------------------------------------
Magnitude (a.u.)       :      2.09815
Magnitude (Debye)      :      5.33306

Rotational constants in cm-1:     0.036455     0.018603     0.015008
Rotational constants in MHz :  1092.895336   557.693628   449.926016

                             ****ORCA TERMINATED NORMALLY****
TOTAL RUN TIME: 0 days 0 hours 2 minutes 19 seconds 544 msec
