                         Program Version 5.0.0 -  RELEASE  -
|  1> !TPSS D3BJ RIJCOSX def2-TZVP def2/J TightSCF
|  2> *xyz -1 1
|  3> C         -0.77894        0.17197        1.80496
|  4> C         -0.60249       -0.63071        0.49224
|  5> H          0.31389       -1.24035        0.60350
|  6> H         -0.36383        0.11332       -0.30117
|  7> O         -1.71206       -1.37684        0.20253
|  8> H         -1.65864        0.77733        1.73736
|  9> H          0.07466        0.79896        1.95712
| 10> H         -0.87474       -0.50584        2.62734
| 11> *
| 12> %MaxCore 64000
| 13>
| 14> %pal nprocs 4
| 15> end
| 16>
| 17> %scf
| 18>   MaxIter 150
| 19> end
| 20>
| 21>
| 22>                          ****END OF INPUT****

CARTESIAN COORDINATES (ANGSTROEM)
---------------------------------
  C     -0.778940    0.171970    1.804960
  C     -0.602490   -0.630710    0.492240
  H      0.313890   -1.240350    0.603500
  H     -0.363830    0.113320   -0.301170
  O     -1.712060   -1.376840    0.202530
  H     -1.658640    0.777330    1.737360
  H      0.074660    0.798960    1.957120
  H     -0.874740   -0.505840    2.627340

 Total Charge           Charge          ....   -1
 Multiplicity           Mult            ....    1
 Number of Electrons    NEL             ....   26
 Basis Dimension        Dim             ....  123

ORBITAL ENERGIES
----------------

  NO   OCC          E(Eh)            E(eV)
   0   2.0000     -18.533879      -504.3325
   1   2.0000      -9.788720      -266.3646
   2   2.0000      -9.767278      -265.7812
   3   2.0000      -0.602102       -16.3840
   4   2.0000      -0.461752       -12.5649
   5   2.0000      -0.317369        -8.6361
   6   2.0000      -0.200559        -5.4575
   7   2.0000      -0.178686        -4.8623
   8   2.0000      -0.123257        -3.3540
   9   2.0000      -0.112732        -3.0676
  10   2.0000      -0.058652        -1.5960
  11   2.0000       0.083057         2.2601
  12   2.0000       0.084542         2.3005
  13   0.0000       0.209442         5.6992
  14   0.0000       0.243754         6.6329
  15   0.0000       0.267417         7.2768
  16   0.0000       0.273110         7.4317
  17   0.0000       0.303990         8.2720

MULLIKEN ATOMIC CHARGES
-----------------------
   0 C :   -0.104454
   1 C :    0.065236
   2 H :   -0.083300
   3 H :   -0.087623
   4 O :   -0.754143
   5 H :    0.012651
   6 H :   -0.060034
   7 H :    0.011666
Sum of atomic charges:   -1.0000000

LOEWDIN ATOMIC CHARGES
----------------------
   0 C :   -0.360120
   1 C :   -0.548812
   2 H :    0.046295
   3 H :    0.044831
   4 O :   -0.405510
   5 H :    0.080910
   6 H :    0.062306
   7 H :    0.080100

  Mayer bond orders larger than 0.100000
B(  0-C ,  1-C ) :   0.8971 B(  0-C ,  4-O ) :  -0.3146 B(  0-C ,  5-H ) :   0.9543
B(  0-C ,  6-H ) :   0.8950 B(  0-C ,  7-H ) :   0.9572 B(  1-C ,  2-H ) :   0.8998
B(  1-C ,  3-H ) :   0.9006 B(  1-C ,  4-O ) :   1.6302 B(  4-O ,  6-H ) :   0.1329

Dispersion correction           -0.004555562
FINAL SINGLE POINT ENERGY      -154.505005840339

DIPOLE MOMENT
-------------
                                X             Y             Z
Electronic contribution:     -1.85303      -2.04031      -1.60228
Nuclear contribution   :      2.47835       2.80827       2.30058
                        -----------------------------------------
Total Dipole Moment    :      0.62532       0.76796       0.69830
                        -----------------------------------------
Magnitude (a.u.)       :      1.21178
Magnitude (Debye)      :      3.08011

Rotational constants in cm-1:     1.255775     0.327783     0.287473
Rotational constants in MHz : 37647.186859  9826.677683  8618.224821

                             ****ORCA TERMINATED NORMALLY****
TOTAL RUN TIME: 0 days 0 hours 0 minutes 5 seconds 606 msec
