                         Program Version 5.0.0 -  RELEASE  -
|  1> !TPSS D3BJ RIJCOSX def2-TZVP def2/J TightSCF
|  2> *xyz 1 1
|  3> C         -2.12050        0.88520        1.78951
|  4> C         -0.77894        0.17197        1.80496
|  5> H         -2.32419        1.47265        2.68608
|  6> H         -2.18770        1.54127        0.91948
|  7> N         -3.17690       -0.15948        1.61070
|  8> H         -4.06474        0.23127        1.28675
|  9> H         -3.34407       -0.67151        2.48493
| 10> H         -2.71686       -0.78189        0.93588
| 11> H         -0.65708       -0.37837        0.89547
| 12> H         -0.74207       -0.50050        2.63642
| 13> H          0.00707        0.89251        1.89389
| 14> *
| 15> %MaxCore 64000
| 16>
| 17> %pal nprocs 4
| 18> end
| 19>
| 20> %scf
| 21>   MaxIter 150
| 22> end
| 23>
| 24>
| 25>                          ****END OF INPUT****

CARTESIAN COORDINATES (ANGSTROEM)
---------------------------------
  C     -2.120500    0.885200    1.789510
  C     -0.778940    0.171970    1.804960
  H     -2.324190    1.472650    2.686080
  H     -2.187700    1.541270    0.919480
  N     -3.176900   -0.159480    1.610700
  H     -4.064740    0.231270    1.286750
  H     -3.344070   -0.671510    2.484930
  H     -2.716860   -0.781890    0.935880
  H     -0.657080   -0.378370    0.895470
  H     -0.742070   -0.500500    2.636420
  H      0.007070    0.892510    1.893890

 Total Charge           Charge          ....    1
 Multiplicity           Mult            ....    1
 Number of Electrons    NEL             ....   26
 Basis Dimension        Dim             ....  141

ORBITAL ENERGIES
----------------

  NO   OCC          E(Eh)            E(eV)
   0   2.0000     -14.433230      -392.7482
   1   2.0000     -10.240490      -278.6579
   2   2.0000     -10.166459      -276.6434
   3   2.0000      -1.156088       -31.4588
   4   2.0000      -0.913805       -24.8659
   5   2.0000      -0.797332       -21.6965
   6   2.0000      -0.759221       -20.6595
   7   2.0000      -0.748788       -20.3756
   8   2.0000      -0.650196       -17.6927
   9   2.0000      -0.605305       -16.4712
  10   2.0000      -0.547197       -14.8900
  11   2.0000      -0.540916       -14.7191
  12   2.0000      -0.522175       -14.2091
  13   0.0000      -0.207167        -5.6373
  14   0.0000      -0.148665        -4.0454
  15   0.0000      -0.146721        -3.9925
  16   0.0000      -0.124644        -3.3917
  17   0.0000      -0.092735        -2.5235

MULLIKEN ATOMIC CHARGES
-----------------------
   0 C :   -0.188699
   1 C :   -0.363502
   2 H :    0.192433
   3 H :    0.182252
   4 N :   -0.278464
   5 H :    0.331093
   6 H :    0.324468
   7 H :    0.319016
   8 H :    0.146286
   9 H :    0.153214
  10 H :    0.181904
Sum of atomic charges:    1.0000000

LOEWDIN ATOMIC CHARGES
----------------------
   0 C :   -0.267902
   1 C :   -0.272455
   2 H :    0.149256
   3 H :    0.151488
   4 N :    0.174526
   5 H :    0.217103
   6 H :    0.219598
   7 H :    0.224364
   8 H :    0.127507
   9 H :    0.129785
  10 H :    0.146731

  Mayer bond orders larger than 0.100000
B(  0-C ,  1-C ) :   1.0378 B(  0-C ,  2-H ) :   0.9403 B(  0-C ,  3-H ) :   0.9397
B(  0-C ,  4-N ) :   0.8881 B(  1-C ,  8-H ) :   0.9489 B(  1-C ,  9-H ) :   0.9568
B(  1-C , 10-H ) :   0.9508 B(  4-N ,  5-H ) :   0.8713 B(  4-N ,  6-H ) :   0.8765
B(  4-N ,  7-H ) :   0.8721

Dispersion correction           -0.007538507
FINAL SINGLE POINT ENERGY      -135.610898828326

DIPOLE MOMENT
-------------
                                X             Y             Z
Electronic contribution:     -1.81642      -0.15273      -0.05624
Nuclear contribution   :      0.50278      -0.30871      -0.06979
                        -----------------------------------------
Total Dipole Moment    :     -1.31364      -0.46144      -0.12603
                        -----------------------------------------
Magnitude (a.u.)       :      1.39802
Magnitude (Debye)      :      3.55348

Rotational constants in cm-1:     0.963746     0.295157     0.256910
Rotational constants in MHz : 28892.375247  8848.576767  7701.963879

                             ****ORCA TERMINATED NORMALLY****
TOTAL RUN TIME: 0 days 0 hours 0 minutes 6 seconds 359 msec
