                         Program Version 5.0.0 -  RELEASE  -
|  1> !TPSS D3BJ RIJCOSX def2-TZVP def2/J TightSCF
|  2> *xyz 0 1
|  3> C         -0.77894        0.17197        1.80496
|  4> C         -0.60249       -0.63071        0.49224
|  5> H          0.31389       -1.24035        0.60350
|  6> H         -0.36383        0.11332       -0.30117
|  7> F         -1.71206       -1.37684        0.20253
|  8> H         -1.65864        0.77733        1.73736
|  9> H          0.07466        0.79896        1.95712
| 10> H         -0.87474       -0.50584        2.62734
| 11> *
| 12> %MaxCore 64000
| 13>
| 14> %pal nprocs 4
| 15> end
| 16>
| 17> %scf
| 18>   MaxIter 150
| 19> end
| 20>
| 21>
| 22>                          ****END OF INPUT****

CARTESIAN COORDINATES (ANGSTROEM)
---------------------------------
  C     -0.778940    0.171970    1.804960
  C     -0.602490   -0.630710    0.492240
  H      0.313890   -1.240350    0.603500
  H     -0.363830    0.113320   -0.301170
  F     -1.712060   -1.376840    0.202530
  H     -1.658640    0.777330    1.737360
  H      0.074660    0.798960    1.957120
  H     -0.874740   -0.505840    2.627340

 Total Charge           Charge          ....    0
 Multiplicity           Mult            ....    1
 Number of Electrons    NEL             ....   26
 Basis Dimension        Dim             ....  123

ORBITAL ENERGIES
----------------

  NO   OCC          E(Eh)            E(eV)
   0   2.0000     -24.394398      -663.8053
   1   2.0000     -10.061424      -273.7853
   2   2.0000      -9.979434      -271.5542
   3   2.0000      -1.121003       -30.5040
   4   2.0000      -0.706101       -19.2140
   5   2.0000      -0.581073       -15.8118
   6   2.0000      -0.458359       -12.4726
   7   2.0000      -0.445507       -12.1229
   8   2.0000      -0.404945       -11.0191
   9   2.0000      -0.361613        -9.8400
  10   2.0000      -0.359466        -9.7816
  11   2.0000      -0.289447        -7.8763
  12   2.0000      -0.287312        -7.8182
  13   0.0000       0.032509         0.8846
  14   0.0000       0.069270         1.8849
  15   0.0000       0.076772         2.0891
  16   0.0000       0.087016         2.3678
  17   0.0000       0.102373         2.7857

MULLIKEN ATOMIC CHARGES
-----------------------
   0 C :   -0.318926
   1 C :    0.028469
   2 H :    0.087109
   3 H :    0.085617
   4 F :   -0.219721
   5 H :    0.116334
   6 H :    0.106315
   7 H :    0.114804
Sum of atomic charges:    0.0000000

LOEWDIN ATOMIC CHARGES
----------------------
   0 C :   -0.303800
   1 C :   -0.370013
   2 H :    0.112396
   3 H :    0.113548
   4 F :    0.104881
   5 H :    0.113490
   6 H :    0.117183
   7 H :    0.112317

  Mayer bond orders larger than 0.100000
B(  0-C ,  1-C ) :   1.0231 B(  0-C ,  5-H ) :   0.9661 B(  0-C ,  6-H ) :   0.9527
B(  0-C ,  7-H ) :   0.9674 B(  1-C ,  2-H ) :   0.9599 B(  1-C ,  3-H ) :   0.9610
B(  1-C ,  4-F ) :   1.0210

Dispersion correction           -0.004201306
FINAL SINGLE POINT ENERGY      -179.157046781104

DIPOLE MOMENT
-------------
                                X             Y             Z
Electronic contribution:     -2.77558      -3.32285      -2.84006
Nuclear contribution   :      3.27800       3.70743       3.04146
                        -----------------------------------------
Total Dipole Moment    :      0.50243       0.38459       0.20140
                        -----------------------------------------
Magnitude (a.u.)       :      0.66400
Magnitude (Debye)      :      1.68776

Rotational constants in cm-1:     1.234437     0.305084     0.268865
Rotational constants in MHz : 37007.496448  9146.194083  8060.380630

                             ****ORCA TERMINATED NORMALLY****
TOTAL RUN TIME: 0 days 0 hours 0 minutes 4 seconds 828 msec
