                         Program Version 5.0.0 -  RELEASE  -
|  1> !TPSS D3BJ RIJCOSX def2-TZVP def2/J TightSCF
|  2> *xyz 0 1
|  3> C         -2.12050        0.88520        1.78951
|  4> C         -0.77894        0.17197        1.80496
|  5> H         -2.32419        1.47265        2.68608
|  6> H         -2.18770        1.54127        0.91948
|  7> C         -3.17690       -0.15948        1.61070
|  8> H         -4.06474        0.23127        1.28675
|  9> H         -3.34407       -0.67151        2.48493
| 10> H         -2.71686       -0.78189        0.93588
| 11> H         -0.65708       -0.37837        0.89547
| 12> H         -0.74207       -0.50050        2.63642
| 13> H          0.00707        0.89251        1.89389
| 14> *
| 15> %MaxCore 64000
| 16>
| 17> %pal nprocs 4
| 18> end
| 19>
| 20> %scf
| 21>   MaxIter 150
| 22> end
| 23>
| 24>
| 25>                          ****END OF INPUT****

CARTESIAN COORDINATES (ANGSTROEM)
---------------------------------
  C     -2.120500    0.885200    1.789510
  C     -0.778940    0.171970    1.804960
  H     -2.324190    1.472650    2.686080
  H     -2.187700    1.541270    0.919480
  C     -3.176900   -0.159480    1.610700
  H     -4.064740    0.231270    1.286750
  H     -3.344070   -0.671510    2.484930
  H     -2.716860   -0.781890    0.935880
  H     -0.657080   -0.378370    0.895470
  H     -0.742070   -0.500500    2.636420
  H      0.007070    0.892510    1.893890

 Total Charge           Charge          ....    0
 Multiplicity           Mult            ....    1
 Number of Electrons    NEL             ....   26
 Basis Dimension        Dim             ....  141

ORBITAL ENERGIES
----------------

  NO   OCC          E(Eh)            E(eV)
   0   2.0000      -9.970285      -271.3052
   1   2.0000      -9.963502      -271.1207
   2   2.0000      -9.943625      -270.5798
   3   2.0000      -0.737730       -20.0747
   4   2.0000      -0.634272       -17.2594
   5   2.0000      -0.538747       -14.6601
   6   2.0000      -0.429308       -11.6821
   7   2.0000      -0.411286       -11.1917
   8   2.0000      -0.360681        -9.8146
   9   2.0000      -0.347251        -9.4492
  10   2.0000      -0.303087        -8.2474
  11   2.0000      -0.294966        -8.0264
  12   2.0000      -0.291835        -7.9412
  13   0.0000       0.033271         0.9053
  14   0.0000       0.073306         1.9948
  15   0.0000       0.080500         2.1905
  16   0.0000       0.083520         2.2727
  17   0.0000       0.102275         2.7830

MULLIKEN ATOMIC CHARGES
-----------------------
   0 C :   -0.136075
   1 C :   -0.336377
   2 H :    0.082524
   3 H :    0.076959
   4 C :   -0.309122
   5 H :    0.109520
   6 H :    0.103518
   7 H :    0.090558
   8 H :    0.107078
   9 H :    0.104093
  10 H :    0.107323
Sum of atomic charges:    0.0000000

LOEWDIN ATOMIC CHARGES
----------------------
   0 C :   -0.314345
   1 C :   -0.301961
   2 H :    0.123683
   3 H :    0.128820
   4 C :   -0.294717
   5 H :    0.101534
   6 H :    0.104765
   7 H :    0.113730
   8 H :    0.113267
   9 H :    0.114086
  10 H :    0.111139

  Mayer bond orders larger than 0.100000
B(  0-C ,  1-C ) :   1.0244 B(  0-C ,  2-H ) :   0.9567 B(  0-C ,  3-H ) :   0.9559
B(  0-C ,  4-C ) :   1.0118 B(  1-C ,  8-H ) :   0.9701 B(  1-C ,  9-H ) :   0.9720
B(  1-C , 10-H ) :   0.9714 B(  4-C ,  5-H ) :   0.9722 B(  4-C ,  6-H ) :   0.9761
B(  4-C ,  7-H ) :   0.9749

Dispersion correction           -0.007560930
FINAL SINGLE POINT ENERGY      -119.193195841273

DIPOLE MOMENT
-------------
                                X             Y             Z
Electronic contribution:     -0.14651       0.47105       0.11319
Nuclear contribution   :      0.13334      -0.45108      -0.10852
                        -----------------------------------------
Total Dipole Moment    :     -0.01317       0.01997       0.00468
                        -----------------------------------------
Magnitude (a.u.)       :      0.02437
Magnitude (Debye)      :      0.06195

Rotational constants in cm-1:     0.972269     0.310387     0.269029
Rotational constants in MHz : 29147.878530  9305.178981  8065.286472

                             ****ORCA TERMINATED NORMALLY****
TOTAL RUN TIME: 0 days 0 hours 0 minutes 6 seconds 495 msec
