                         Program Version 5.0.0 -  RELEASE  -
|  1> !TPSS D3BJ RIJCOSX def2-TZVP def2/J TightSCF xyzfile
|  2>
|  3> *xyzfile 0 1 D.xyz
|  4>
|  5> %MaxCore 64000
|  6>
|  7> %pal nprocs 18
|  8> end
|  9>
| 10> %scf
| 11>   MaxIter 150
| 12> end
| 13>
| 14>
| 15>                          ****END OF INPUT****

CARTESIAN COORDINATES (ANGSTROEM)
---------------------------------
  C     -2.120502    0.885196    1.789506
  C     -0.778939    0.171966    1.804965
  H     -2.324193    1.472649    2.686078
  H     -2.187698    1.541272    0.919482
  C     -3.176900   -0.159484    1.610700
  H      0.015695    0.910767    1.939153
  H     -0.743553   -0.506827    2.665420
  C     -0.602493   -0.630712    0.492240
  H      0.313894   -1.240346    0.603498
  H     -0.363829    0.113322   -0.301169
  F     -1.712061   -1.376836    0.202535
  H     -4.064736    0.231272    1.286754
  H     -3.344073   -0.671511    2.484928
  H     -2.716861   -0.781886    0.935880

 Total Charge           Charge          ....    0
 Multiplicity           Mult            ....    1
 Number of Electrons    NEL             ....   42
 Basis Dimension        Dim             ....  209

ORBITAL ENERGIES
----------------

  NO   OCC          E(Eh)            E(eV)
   0   2.0000     -24.414019      -664.3392
   1   2.0000     -10.069528      -274.0058
   2   2.0000      -9.988652      -271.8050
   3   2.0000      -9.968573      -271.2587
   4   2.0000      -9.909184      -269.6426
   5   2.0000      -1.153796       -31.3964
   6   2.0000      -0.747216       -20.3328
   7   2.0000      -0.679073       -18.4785
   8   2.0000      -0.586339       -15.9551
   9   2.0000      -0.541899       -14.7458
  10   2.0000      -0.477604       -12.9963
  11   2.0000      -0.477113       -12.9829
  12   2.0000      -0.438503       -11.9323
  13   2.0000      -0.398334       -10.8392
  14   2.0000      -0.367103        -9.9894
  15   2.0000      -0.360191        -9.8013
  16   2.0000      -0.339179        -9.2295
  17   2.0000      -0.305074        -8.3015
  18   2.0000      -0.290157        -7.8956
  19   2.0000      -0.287843        -7.8326
  20   2.0000      -0.236371        -6.4320
  21   0.0000       0.026643         0.7250
  22   0.0000       0.054896         1.4938
  23   0.0000       0.059229         1.6117
  24   0.0000       0.071692         1.9508
  25   0.0000       0.085199         2.3184

MULLIKEN ATOMIC CHARGES
-----------------------
   0 C :   -0.134323
   1 C :   -0.194222
   2 H :    0.084776
   3 H :    0.065422
   4 C :   -0.384994
   5 H :    0.102186
   6 H :    0.087441
   7 C :    0.005763
   8 H :    0.100872
   9 H :    0.085978
  10 F :   -0.159281
  11 H :    0.091304
  12 H :    0.082907
  13 H :    0.166169
Sum of atomic charges:    0.0000000

LOEWDIN ATOMIC CHARGES
----------------------
   0 C :   -0.297084
   1 C :   -0.270567
   2 H :    0.124246
   3 H :    0.131629
   4 C :   -0.310215
   5 H :    0.136802
   6 H :    0.134476
   7 C :   -0.333812
   8 H :    0.119864
   9 H :    0.121857
  10 F :    0.171017
  11 H :    0.096965
  12 H :    0.099479
  13 H :    0.075343

  Mayer bond orders larger than 0.100000
B(  0-C ,  1-C ) :   1.0196 B(  0-C ,  2-H ) :   0.9503 B(  0-C ,  3-H ) :   0.9520
B(  0-C ,  4-C ) :   1.0117 B(  1-C ,  5-H ) :   0.9391 B(  1-C ,  6-H ) :   0.9481
B(  1-C ,  7-C ) :   1.0397 B(  4-C , 11-H ) :   0.9608 B(  4-C , 12-H ) :   0.9674
B(  4-C , 13-H ) :   0.9551 B(  7-C ,  8-H ) :   0.9500 B(  7-C ,  9-H ) :   0.9609
B(  7-C , 10-F ) :   0.9880

Dispersion correction           -0.012177408
FINAL SINGLE POINT ENERGY      -257.769639840337

DIPOLE MOMENT
-------------
                                X             Y             Z
Electronic contribution:      0.85693      -4.23066      -3.75200
Nuclear contribution   :     -0.20666       4.43855       3.76066
                        -----------------------------------------
Total Dipole Moment    :      0.65026       0.20789       0.00866
                        -----------------------------------------
Magnitude (a.u.)       :      0.68274
Magnitude (Debye)      :      1.73539

Rotational constants in cm-1:     0.236353     0.155239     0.105045
Rotational constants in MHz :  7085.692869  4653.957069  3149.180346

                             ****ORCA TERMINATED NORMALLY****
TOTAL RUN TIME: 0 days 0 hours 0 minutes 5 seconds 60 msec
