                         Program Version 5.0.0 -  RELEASE  -
|  1> !LC-BLYP RIJCOSX def2-TZVP def2/J TightSCF
|  2> *xyz -1 1
|  3> C         -5.57236       -5.80780       -0.81644
|  4> S         -6.90318       -4.61903       -0.52846
|  5> O         -8.11485       -5.25093       -0.95701
|  6> O         -6.53271       -3.42684       -1.31485
|  7> O         -6.86563       -4.29496        0.91412
|  8> C         -4.45780       -5.94187        0.22919
|  9> H         -5.17735       -5.54257       -1.79771
| 10> H         -6.07420       -6.76889       -0.92127
| 11> H         -3.75515       -6.68239       -0.09144
| 12> H         -4.88182       -6.23486        1.16689
| 13> H         -3.95908       -5.00189        0.34143
| 14> *
| 15> %MaxCore 64000
| 16>
| 17> %pal nprocs 4
| 18> end
| 19>
| 20> %scf
| 21>   MaxIter 150
| 22> end
| 23>
| 24>                          ****END OF INPUT****

CARTESIAN COORDINATES (ANGSTROEM)
---------------------------------
  C     -5.572360   -5.807800   -0.816440
  S     -6.903180   -4.619030   -0.528460
  O     -8.114850   -5.250930   -0.957010
  O     -6.532710   -3.426840   -1.314850
  O     -6.865630   -4.294960    0.914120
  C     -4.457800   -5.941870    0.229190
  H     -5.177350   -5.542570   -1.797710
  H     -6.074200   -6.768890   -0.921270
  H     -3.755150   -6.682390   -0.091440
  H     -4.881820   -6.234860    1.166890
  H     -3.959080   -5.001890    0.341430

 Total Charge           Charge          ....   -1
 Multiplicity           Mult            ....    1
 Number of Electrons    NEL             ....   58
 Basis Dimension        Dim             ....  222

ORBITAL ENERGIES
----------------

  NO   OCC          E(Eh)            E(eV)
   0   2.0000     -88.253122     -2401.4895
   1   2.0000     -18.714904      -509.2584
   2   2.0000     -18.700660      -508.8708
   3   2.0000     -18.699312      -508.8341
   4   2.0000      -9.929198      -270.1872
   5   2.0000      -9.925570      -270.0885
   6   2.0000      -7.794767      -212.1064
   7   2.0000      -5.823038      -158.4529
   8   2.0000      -5.821750      -158.4179
   9   2.0000      -5.821493      -158.4109
  10   2.0000      -1.012805       -27.5598
  11   2.0000      -0.877044       -23.8656
  12   2.0000      -0.853927       -23.2365
  13   2.0000      -0.740742       -20.1566
  14   2.0000      -0.616467       -16.7749
  15   2.0000      -0.482080       -13.1181
  16   2.0000      -0.423773       -11.5314
  17   2.0000      -0.414401       -11.2764
  18   2.0000      -0.376538       -10.2461
  19   2.0000      -0.357311        -9.7229
  20   2.0000      -0.354114        -9.6359
  21   2.0000      -0.323751        -8.8097
  22   2.0000      -0.316570        -8.6143
  23   2.0000      -0.246807        -6.7160
  24   2.0000      -0.245557        -6.6819
  25   2.0000      -0.210134        -5.7180
  26   2.0000      -0.198817        -5.4101
  27   2.0000      -0.193331        -5.2608
  28   2.0000      -0.154114        -4.1937
  29   0.0000       0.232936         6.3385
  30   0.0000       0.281331         7.6554
  31   0.0000       0.296446         8.0667
  32   0.0000       0.299993         8.1632
  33   0.0000       0.323803         8.8111

MULLIKEN ATOMIC CHARGES
-----------------------
   0 C :   -0.285745
   1 S :    0.688100
   2 O :   -0.489095
   3 O :   -0.542399
   4 O :   -0.545477
   5 C :   -0.371557
   6 H :    0.109440
   7 H :    0.103549
   8 H :    0.083934
   9 H :    0.126237
  10 H :    0.123014
Sum of atomic charges:   -1.0000000

LOEWDIN ATOMIC CHARGES
----------------------
   0 C :   -0.437010
   1 S :    0.393084
   2 O :   -0.357397
   3 O :   -0.416261
   4 O :   -0.412016
   5 C :   -0.354304
   6 H :    0.123065
   7 H :    0.121213
   8 H :    0.103762
   9 H :    0.117748
  10 H :    0.118116

  Mayer bond orders larger than 0.100000
B(  0-C ,  1-S ) :   0.8850 B(  0-C ,  5-C ) :   0.9208 B(  0-C ,  6-H ) :   0.9664
B(  0-C ,  7-H ) :   0.9616 B(  1-S ,  2-O ) :   1.8821 B(  1-S ,  3-O ) :   1.8188
B(  1-S ,  4-O ) :   1.8008 B(  5-C ,  8-H ) :   0.9685 B(  5-C ,  9-H ) :   0.9750
B(  5-C , 10-H ) :   0.9776

FINAL SINGLE POINT ENERGY      -702.472355288095

DIPOLE MOMENT
-------------
                                X             Y             Z
Electronic contribution:     -6.70047       4.32409      -0.92887
Nuclear contribution   :      8.13140      -5.68016       0.80206
                        -----------------------------------------
Total Dipole Moment    :      1.43093      -1.35607      -0.12681
                        -----------------------------------------
Magnitude (a.u.)       :      1.97549
Magnitude (Debye)      :      5.02130

Rotational constants in cm-1:     0.162101     0.080498     0.079099
Rotational constants in MHz :  4859.669771  2413.267251  2371.338602

                             ****ORCA TERMINATED NORMALLY****
TOTAL RUN TIME: 0 days 0 hours 0 minutes 31 seconds 173 msec
