                         Program Version 5.0.0 -  RELEASE  -
|  1> !LC-BLYP RIJCOSX def2-TZVP def2/J TightSCF
|  2> *xyz 1 1
|  3> C         -4.38262       -1.67089        1.21620
|  4> N         -5.76354       -1.91517        0.70501
|  5> C         -3.28173       -2.19127        0.29436
|  6> H         -5.84081       -2.11520       -0.30065
|  7> H         -6.40882       -1.14866        0.93612
|  8> H         -6.17478       -2.79061        1.05143
|  9> H         -4.32862       -2.13922        2.19810
| 10> H         -4.26158       -0.59740        1.35725
| 11> H         -3.36057       -1.71407       -0.66008
| 12> H         -3.38775       -3.24919        0.17403
| 13> H         -2.32559       -1.97514        0.72329
| 14> *
| 15> %MaxCore 64000
| 16>
| 17> %pal nprocs 4
| 18> end
| 19>
| 20> %scf
| 21>   MaxIter 150
| 22> end
| 23>
| 24>                          ****END OF INPUT****

CARTESIAN COORDINATES (ANGSTROEM)
---------------------------------
  C     -4.382620   -1.670890    1.216200
  N     -5.763540   -1.915170    0.705010
  C     -3.281730   -2.191270    0.294360
  H     -5.840810   -2.115200   -0.300650
  H     -6.408820   -1.148660    0.936120
  H     -6.174780   -2.790610    1.051430
  H     -4.328620   -2.139220    2.198100
  H     -4.261580   -0.597400    1.357250
  H     -3.360570   -1.714070   -0.660080
  H     -3.387750   -3.249190    0.174030
  H     -2.325590   -1.975140    0.723290

 Total Charge           Charge          ....    1
 Multiplicity           Mult            ....    1
 Number of Electrons    NEL             ....   26
 Basis Dimension        Dim             ....  141

ORBITAL ENERGIES
----------------

  NO   OCC          E(Eh)            E(eV)
   0   2.0000     -14.503677      -394.6651
   1   2.0000     -10.322473      -280.8888
   2   2.0000     -10.241100      -278.6745
   3   2.0000      -1.317195       -35.8427
   4   2.0000      -1.075972       -29.2787
   5   2.0000      -0.957777       -26.0624
   6   2.0000      -0.901631       -24.5346
   7   2.0000      -0.880730       -23.9659
   8   2.0000      -0.805775       -21.9262
   9   2.0000      -0.744031       -20.2461
  10   2.0000      -0.683652       -18.6031
  11   2.0000      -0.666096       -18.1254
  12   2.0000      -0.646007       -17.5787
  13   0.0000      -0.130525        -3.5518
  14   0.0000      -0.069580        -1.8934
  15   0.0000      -0.066245        -1.8026
  16   0.0000      -0.045805        -1.2464
  17   0.0000      -0.008302        -0.2259

MULLIKEN ATOMIC CHARGES
-----------------------
   0 C :   -0.229229
   1 N :   -0.304631
   2 C :   -0.429165
   3 H :    0.327779
   4 H :    0.341523
   5 H :    0.332637
   6 H :    0.210505
   7 H :    0.209030
   8 H :    0.174623
   9 H :    0.169996
  10 H :    0.196933
Sum of atomic charges:    1.0000000

LOEWDIN ATOMIC CHARGES
----------------------
   0 C :   -0.284669
   1 N :    0.161984
   2 C :   -0.291368
   3 H :    0.223621
   4 H :    0.227662
   5 H :    0.225651
   6 H :    0.157094
   7 H :    0.157938
   8 H :    0.135163
   9 H :    0.134536
  10 H :    0.152387

  Mayer bond orders larger than 0.100000
B(  0-C ,  1-N ) :   0.8133 B(  0-C ,  2-C ) :   0.9434 B(  0-C ,  6-H ) :   0.9595
B(  0-C ,  7-H ) :   0.9599 B(  1-N ,  3-H ) :   0.8759 B(  1-N ,  4-H ) :   0.8767
B(  1-N ,  5-H ) :   0.8807 B(  2-C ,  8-H ) :   0.9550 B(  2-C ,  9-H ) :   0.9582
B(  2-C , 10-H ) :   0.9556

FINAL SINGLE POINT ENERGY      -135.186565539486

DIPOLE MOMENT
-------------
                                X             Y             Z
Electronic contribution:     -1.82707       0.24044       0.30840
Nuclear contribution   :      0.19437      -0.25358      -0.32106
                        -----------------------------------------
Total Dipole Moment    :     -1.63271      -0.01314      -0.01266
                        -----------------------------------------
Magnitude (a.u.)       :      1.63281
Magnitude (Debye)      :      4.15027

Rotational constants in cm-1:     1.030014     0.272489     0.242697
Rotational constants in MHz : 30879.030706  8169.007780  7275.865152

                             ****ORCA TERMINATED NORMALLY****
TOTAL RUN TIME: 0 days 0 hours 0 minutes 14 seconds 416 msec
