                         Program Version 5.0.0 -  RELEASE  -
|  1> !LC-BLYP RIJCOSX def2-TZVP def2/J TightSCF
|  2> *xyz 0 1
|  3> C         -5.57236       -5.80780       -0.81644
|  4> S         -6.90318       -4.61903       -0.52846
|  5> F         -8.11485       -5.25093       -0.95701
|  6> O         -6.53271       -3.42684       -1.31485
|  7> O         -6.86563       -4.29496        0.91412
|  8> C         -4.45780       -5.94187        0.22919
|  9> H         -5.17735       -5.54257       -1.79771
| 10> H         -6.07420       -6.76889       -0.92127
| 11> H         -3.75515       -6.68239       -0.09144
| 12> H         -4.88182       -6.23486        1.16689
| 13> H         -3.95908       -5.00189        0.34143
| 14> *
| 15> %MaxCore 64000
| 16>
| 17> %pal nprocs 4
| 18> end
| 19>
| 20> %scf
| 21>   MaxIter 150
| 22> end
| 23>
| 24>                          ****END OF INPUT****

CARTESIAN COORDINATES (ANGSTROEM)
---------------------------------
  C     -5.572360   -5.807800   -0.816440
  S     -6.903180   -4.619030   -0.528460
  F     -8.114850   -5.250930   -0.957010
  O     -6.532710   -3.426840   -1.314850
  O     -6.865630   -4.294960    0.914120
  C     -4.457800   -5.941870    0.229190
  H     -5.177350   -5.542570   -1.797710
  H     -6.074200   -6.768890   -0.921270
  H     -3.755150   -6.682390   -0.091440
  H     -4.881820   -6.234860    1.166890
  H     -3.959080   -5.001890    0.341430

 Total Charge           Charge          ....    0
 Multiplicity           Mult            ....    1
 Number of Electrons    NEL             ....   58
 Basis Dimension        Dim             ....  222

ORBITAL ENERGIES
----------------

  NO   OCC          E(Eh)            E(eV)
   0   2.0000     -88.519904     -2408.7491
   1   2.0000     -24.581005      -668.8831
   2   2.0000     -18.940718      -515.4031
   3   2.0000     -18.940383      -515.3940
   4   2.0000     -10.133906      -275.7576
   5   2.0000     -10.088556      -274.5236
   6   2.0000      -8.062182      -219.3831
   7   2.0000      -6.093883      -165.8230
   8   2.0000      -6.087097      -165.6383
   9   2.0000      -6.086730      -165.6284
  10   2.0000      -1.474420       -40.1210
  11   2.0000      -1.188945       -32.3528
  12   2.0000      -1.089120       -29.6365
  13   2.0000      -0.932626       -25.3780
  14   2.0000      -0.846228       -23.0270
  15   2.0000      -0.787649       -21.4330
  16   2.0000      -0.699119       -19.0240
  17   2.0000      -0.696595       -18.9553
  18   2.0000      -0.658982       -17.9318
  19   2.0000      -0.600581       -16.3426
  20   2.0000      -0.583449       -15.8765
  21   2.0000      -0.544809       -14.8250
  22   2.0000      -0.529873       -14.4186
  23   2.0000      -0.507642       -13.8136
  24   2.0000      -0.491022       -13.3614
  25   2.0000      -0.482806       -13.1378
  26   2.0000      -0.424452       -11.5499
  27   2.0000      -0.421970       -11.4824
  28   2.0000      -0.399580       -10.8731
  29   0.0000       0.084276         2.2933
  30   0.0000       0.100641         2.7386
  31   0.0000       0.124636         3.3915
  32   0.0000       0.140804         3.8315
  33   0.0000       0.147732         4.0200

MULLIKEN ATOMIC CHARGES
-----------------------
   0 C :   -0.296502
   1 S :    0.757166
   2 F :   -0.062692
   3 O :   -0.398733
   4 O :   -0.403825
   5 C :   -0.386509
   6 H :    0.178606
   7 H :    0.148223
   8 H :    0.146694
   9 H :    0.155884
  10 H :    0.161687
Sum of atomic charges:   -0.0000000

LOEWDIN ATOMIC CHARGES
----------------------
   0 C :   -0.403816
   1 S :    0.509966
   2 F :    0.122448
   3 O :   -0.295012
   4 O :   -0.293904
   5 C :   -0.314827
   6 H :    0.147311
   7 H :    0.137089
   8 H :    0.129249
   9 H :    0.129675
  10 H :    0.131821

  Mayer bond orders larger than 0.100000
B(  0-C ,  1-S ) :   0.9108 B(  0-C ,  5-C ) :   0.9344 B(  0-C ,  6-H ) :   0.9393
B(  0-C ,  7-H ) :   0.9411 B(  1-S ,  2-F ) :   1.1935 B(  1-S ,  3-O ) :   1.9429
B(  1-S ,  4-O ) :   1.9297 B(  5-C ,  8-H ) :   0.9589 B(  5-C ,  9-H ) :   0.9653
B(  5-C , 10-H ) :   0.9675

FINAL SINGLE POINT ENERGY      -726.973416208325

DIPOLE MOMENT
-------------
                                X             Y             Z
Electronic contribution:     -9.41735       3.56258      -1.87655
Nuclear contribution   :      9.80704      -5.24335       1.35017
                        -----------------------------------------
Total Dipole Moment    :      0.38969      -1.68077      -0.52637
                        -----------------------------------------
Magnitude (a.u.)       :      1.80386
Magnitude (Debye)      :      4.58504

Rotational constants in cm-1:     0.156316     0.078308     0.076228
Rotational constants in MHz :  4686.224999  2347.601204  2285.245115

                             ****ORCA TERMINATED NORMALLY****
TOTAL RUN TIME: 0 days 0 hours 0 minutes 33 seconds 99 msec
