                         Program Version 5.0.0 -  RELEASE  -
|  1> !LC-BLYP RIJCOSX def2-TZVP def2/J TightSCF
|  2> *xyz 0 1
|  3> C         -4.38262       -1.67089        1.21620
|  4> C         -5.76354       -1.91517        0.70501
|  5> C         -3.28173       -2.19127        0.29436
|  6> H         -5.84081       -2.11520       -0.30065
|  7> H         -6.40882       -1.14866        0.93612
|  8> H         -6.17478       -2.79061        1.05143
|  9> H         -4.32862       -2.13922        2.19810
| 10> H         -4.26158       -0.59740        1.35725
| 11> H         -3.36057       -1.71407       -0.66008
| 12> H         -3.38775       -3.24919        0.17403
| 13> H         -2.32559       -1.97514        0.72329
| 14> *
| 15> %MaxCore 64000
| 16>
| 17> %pal nprocs 4
| 18> end
| 19>
| 20> %scf
| 21>   MaxIter 150
| 22> end
| 23>
| 24>                          ****END OF INPUT****

CARTESIAN COORDINATES (ANGSTROEM)
---------------------------------
  C     -4.382620   -1.670890    1.216200
  C     -5.763540   -1.915170    0.705010
  C     -3.281730   -2.191270    0.294360
  H     -5.840810   -2.115200   -0.300650
  H     -6.408820   -1.148660    0.936120
  H     -6.174780   -2.790610    1.051430
  H     -4.328620   -2.139220    2.198100
  H     -4.261580   -0.597400    1.357250
  H     -3.360570   -1.714070   -0.660080
  H     -3.387750   -3.249190    0.174030
  H     -2.325590   -1.975140    0.723290

 Total Charge           Charge          ....    0
 Multiplicity           Mult            ....    1
 Number of Electrons    NEL             ....   26
 Basis Dimension        Dim             ....  141

ORBITAL ENERGIES
----------------

  NO   OCC          E(Eh)            E(eV)
   0   2.0000     -10.055307      -273.6188
   1   2.0000     -10.045462      -273.3509
   2   2.0000     -10.027262      -272.8557
   3   2.0000      -0.898249       -24.4426
   4   2.0000      -0.800739       -21.7892
   5   2.0000      -0.697931       -18.9917
   6   2.0000      -0.570095       -15.5131
   7   2.0000      -0.547908       -14.9093
   8   2.0000      -0.512462       -13.9448
   9   2.0000      -0.486497       -13.2383
  10   2.0000      -0.439076       -11.9479
  11   2.0000      -0.432252       -11.7622
  12   2.0000      -0.417923       -11.3723
  13   0.0000       0.103576         2.8184
  14   0.0000       0.145928         3.9709
  15   0.0000       0.149576         4.0702
  16   0.0000       0.160409         4.3650
  17   0.0000       0.185356         5.0438

MULLIKEN ATOMIC CHARGES
-----------------------
   0 C :   -0.178871
   1 C :   -0.416763
   2 C :   -0.398374
   3 H :    0.131815
   4 H :    0.129043
   5 H :    0.136197
   6 H :    0.109003
   7 H :    0.109058
   8 H :    0.128316
   9 H :    0.123732
  10 H :    0.126843
Sum of atomic charges:    0.0000000

LOEWDIN ATOMIC CHARGES
----------------------
   0 C :   -0.326595
   1 C :   -0.324435
   2 C :   -0.320388
   3 H :    0.114302
   4 H :    0.113497
   5 H :    0.114516
   6 H :    0.136357
   7 H :    0.135612
   8 H :    0.119259
   9 H :    0.119122
  10 H :    0.118752

  Mayer bond orders larger than 0.100000
B(  0-C ,  1-C ) :   0.9030 B(  0-C ,  2-C ) :   0.9419 B(  0-C ,  6-H ) :   0.9803
B(  0-C ,  7-H ) :   0.9840 B(  1-C ,  3-H ) :   0.9820 B(  1-C ,  4-H ) :   0.9838
B(  1-C ,  5-H ) :   0.9791 B(  2-C ,  8-H ) :   0.9767 B(  2-C ,  9-H ) :   0.9771
B(  2-C , 10-H ) :   0.9839

FINAL SINGLE POINT ENERGY      -118.780376539039

DIPOLE MOMENT
-------------
                                X             Y             Z
Electronic contribution:      0.18319       0.23875       0.34142
Nuclear contribution   :     -0.21528      -0.24783      -0.32864
                        -----------------------------------------
Total Dipole Moment    :     -0.03208      -0.00908       0.01277
                        -----------------------------------------
Magnitude (a.u.)       :      0.03571
Magnitude (Debye)      :      0.09076

Rotational constants in cm-1:     1.037566     0.286459     0.254172
Rotational constants in MHz : 31105.431429  8587.814531  7619.871198

                             ****ORCA TERMINATED NORMALLY****
TOTAL RUN TIME: 0 days 0 hours 0 minutes 20 seconds 691 msec
