                         Program Version 5.0.0 -  RELEASE  -
|  1> !LC-BLYP RIJCOSX def2-TZVP def2/J TightSCF
|  2> *xyz 0 1
|  3> C         -5.57236       -5.80780       -0.81644
|  4> S         -6.90318       -4.61903       -0.52846
|  5> O         -8.11485       -5.25093       -0.95701
|  6> F         -6.53271       -3.42684       -1.31485
|  7> O         -6.86563       -4.29496        0.91412
|  8> C         -4.45780       -5.94187        0.22919
|  9> H         -5.17735       -5.54257       -1.79771
| 10> H         -6.07420       -6.76889       -0.92127
| 11> H         -3.75515       -6.68239       -0.09144
| 12> H         -4.88182       -6.23486        1.16689
| 13> H         -3.95908       -5.00189        0.34143
| 14> *
| 15> %MaxCore 64000
| 16>
| 17> %pal nprocs 4
| 18> end
| 19>
| 20> %scf
| 21>   MaxIter 150
| 22> end
| 23>
| 24>                          ****END OF INPUT****

CARTESIAN COORDINATES (ANGSTROEM)
---------------------------------
  C     -5.572360   -5.807800   -0.816440
  S     -6.903180   -4.619030   -0.528460
  O     -8.114850   -5.250930   -0.957010
  F     -6.532710   -3.426840   -1.314850
  O     -6.865630   -4.294960    0.914120
  C     -4.457800   -5.941870    0.229190
  H     -5.177350   -5.542570   -1.797710
  H     -6.074200   -6.768890   -0.921270
  H     -3.755150   -6.682390   -0.091440
  H     -4.881820   -6.234860    1.166890
  H     -3.959080   -5.001890    0.341430

 Total Charge           Charge          ....    0
 Multiplicity           Mult            ....    1
 Number of Electrons    NEL             ....   58
 Basis Dimension        Dim             ....  222

ORBITAL ENERGIES
----------------

  NO   OCC          E(Eh)            E(eV)
   0   2.0000     -88.517707     -2408.6893
   1   2.0000     -24.558622      -668.2741
   2   2.0000     -18.955254      -515.7987
   3   2.0000     -18.940524      -515.3979
   4   2.0000     -10.133319      -275.7416
   5   2.0000     -10.088319      -274.5171
   6   2.0000      -8.060016      -219.3242
   7   2.0000      -6.091857      -165.7678
   8   2.0000      -6.085060      -165.5829
   9   2.0000      -6.084449      -165.5663
  10   2.0000      -1.438425       -39.1415
  11   2.0000      -1.205238       -32.7962
  12   2.0000      -1.104586       -30.0573
  13   2.0000      -0.932547       -25.3759
  14   2.0000      -0.833438       -22.6790
  15   2.0000      -0.779487       -21.2109
  16   2.0000      -0.684683       -18.6312
  17   2.0000      -0.670878       -18.2555
  18   2.0000      -0.654024       -17.7969
  19   2.0000      -0.598901       -16.2969
  20   2.0000      -0.584314       -15.9000
  21   2.0000      -0.556112       -15.1326
  22   2.0000      -0.533519       -14.5178
  23   2.0000      -0.504719       -13.7341
  24   2.0000      -0.503059       -13.6889
  25   2.0000      -0.483849       -13.1662
  26   2.0000      -0.437259       -11.8984
  27   2.0000      -0.426206       -11.5977
  28   2.0000      -0.412567       -11.2265
  29   0.0000       0.082158         2.2356
  30   0.0000       0.105697         2.8762
  31   0.0000       0.121930         3.3179
  32   0.0000       0.144397         3.9292
  33   0.0000       0.149636         4.0718

MULLIKEN ATOMIC CHARGES
-----------------------
   0 C :   -0.304626
   1 S :    0.756477
   2 O :   -0.355809
   3 F :   -0.097296
   4 O :   -0.410398
   5 C :   -0.381945
   6 H :    0.156936
   7 H :    0.180875
   8 H :    0.146077
   9 H :    0.164818
  10 H :    0.144891
Sum of atomic charges:    0.0000000

LOEWDIN ATOMIC CHARGES
----------------------
   0 C :   -0.401909
   1 S :    0.517522
   2 O :   -0.243776
   3 F :    0.068211
   4 O :   -0.296901
   5 C :   -0.320607
   6 H :    0.139101
   7 H :    0.151711
   8 H :    0.128557
   9 H :    0.131393
  10 H :    0.126698

  Mayer bond orders larger than 0.100000
B(  0-C ,  1-S ) :   0.9077 B(  0-C ,  5-C ) :   0.9289 B(  0-C ,  6-H ) :   0.9454
B(  0-C ,  7-H ) :   0.9409 B(  1-S ,  2-O ) :   1.9995 B(  1-S ,  3-F ) :   1.1474
B(  1-S ,  4-O ) :   1.9296 B(  5-C ,  8-H ) :   0.9594 B(  5-C ,  9-H ) :   0.9651
B(  5-C , 10-H ) :   0.9692

FINAL SINGLE POINT ENERGY      -726.992056207689

DIPOLE MOMENT
-------------
                                X             Y             Z
Electronic contribution:     -6.71859       6.68396      -2.50480
Nuclear contribution   :      8.15840      -7.14411       1.72305
                        -----------------------------------------
Total Dipole Moment    :      1.43981      -0.46015      -0.78174
                        -----------------------------------------
Magnitude (a.u.)       :      1.70174
Magnitude (Debye)      :      4.32547

Rotational constants in cm-1:     0.153926     0.078297     0.077402
Rotational constants in MHz :  4614.585804  2347.272644  2320.438903

                             ****ORCA TERMINATED NORMALLY****
TOTAL RUN TIME: 0 days 0 hours 0 minutes 30 seconds 208 msec
