                         Program Version 5.0.0 -  RELEASE  -
|  1> !LC-BLYP RIJCOSX def2-TZVP def2/J TightSCF
|  2> *xyz 0 1
|  3> C         -5.57236       -5.80780       -0.81644
|  4> S         -6.90318       -4.61903       -0.52846
|  5> O         -8.11485       -5.25093       -0.95701
|  6> O         -6.53271       -3.42684       -1.31485
|  7> F         -6.86563       -4.29496        0.91412
|  8> C         -4.45780       -5.94187        0.22919
|  9> H         -5.17735       -5.54257       -1.79771
| 10> H         -6.07420       -6.76889       -0.92127
| 11> H         -3.75515       -6.68239       -0.09144
| 12> H         -4.88182       -6.23486        1.16689
| 13> H         -3.95908       -5.00189        0.34143
| 14> *
| 15> %MaxCore 64000
| 16>
| 17> %pal nprocs 4
| 18> end
| 19>
| 20> %scf
| 21>   MaxIter 150
| 22> end
| 23>
| 24>                          ****END OF INPUT****

CARTESIAN COORDINATES (ANGSTROEM)
---------------------------------
  C     -5.572360   -5.807800   -0.816440
  S     -6.903180   -4.619030   -0.528460
  O     -8.114850   -5.250930   -0.957010
  O     -6.532710   -3.426840   -1.314850
  F     -6.865630   -4.294960    0.914120
  C     -4.457800   -5.941870    0.229190
  H     -5.177350   -5.542570   -1.797710
  H     -6.074200   -6.768890   -0.921270
  H     -3.755150   -6.682390   -0.091440
  H     -4.881820   -6.234860    1.166890
  H     -3.959080   -5.001890    0.341430

 Total Charge           Charge          ....    0
 Multiplicity           Mult            ....    1
 Number of Electrons    NEL             ....   58
 Basis Dimension        Dim             ....  222

ORBITAL ENERGIES
----------------

  NO   OCC          E(Eh)            E(eV)
   0   2.0000     -88.517068     -2408.6719
   1   2.0000     -24.557490      -668.2433
   2   2.0000     -18.954864      -515.7881
   3   2.0000     -18.939482      -515.3695
   4   2.0000     -10.132500      -275.7193
   5   2.0000     -10.095748      -274.7193
   6   2.0000      -8.059416      -219.3079
   7   2.0000      -6.091348      -165.7540
   8   2.0000      -6.084260      -165.5611
   9   2.0000      -6.083972      -165.5533
  10   2.0000      -1.435682       -39.0669
  11   2.0000      -1.205662       -32.8077
  12   2.0000      -1.105006       -30.0687
  13   2.0000      -0.935531       -25.4571
  14   2.0000      -0.830360       -22.5953
  15   2.0000      -0.784145       -21.3377
  16   2.0000      -0.690638       -18.7932
  17   2.0000      -0.670186       -18.2367
  18   2.0000      -0.645158       -17.5556
  19   2.0000      -0.603717       -16.4280
  20   2.0000      -0.576643       -15.6913
  21   2.0000      -0.555500       -15.1159
  22   2.0000      -0.545306       -14.8385
  23   2.0000      -0.515641       -14.0313
  24   2.0000      -0.498521       -13.5655
  25   2.0000      -0.488863       -13.3026
  26   2.0000      -0.437710       -11.9107
  27   2.0000      -0.424174       -11.5424
  28   2.0000      -0.411858       -11.2072
  29   0.0000       0.073111         1.9895
  30   0.0000       0.118955         3.2369
  31   0.0000       0.130733         3.5574
  32   0.0000       0.138857         3.7785
  33   0.0000       0.145516         3.9597

MULLIKEN ATOMIC CHARGES
-----------------------
   0 C :   -0.296720
   1 S :    0.756002
   2 O :   -0.355483
   3 O :   -0.407303
   4 F :   -0.101261
   5 C :   -0.409622
   6 H :    0.183311
   7 H :    0.172562
   8 H :    0.152013
   9 H :    0.148262
  10 H :    0.158240
Sum of atomic charges:   -0.0000000

LOEWDIN ATOMIC CHARGES
----------------------
   0 C :   -0.396324
   1 S :    0.517817
   2 O :   -0.243861
   3 O :   -0.299930
   4 F :    0.068071
   5 C :   -0.327497
   6 H :    0.152276
   7 H :    0.145660
   8 H :    0.131169
   9 H :    0.124568
  10 H :    0.128051

  Mayer bond orders larger than 0.100000
B(  0-C ,  1-S ) :   0.9111 B(  0-C ,  5-C ) :   0.9251 B(  0-C ,  6-H ) :   0.9400
B(  0-C ,  7-H ) :   0.9421 B(  1-S ,  2-O ) :   1.9981 B(  1-S ,  3-O ) :   1.9409
B(  1-S ,  4-F ) :   1.1408 B(  5-C ,  8-H ) :   0.9634 B(  5-C ,  9-H ) :   0.9665
B(  5-C , 10-H ) :   0.9656

FINAL SINGLE POINT ENERGY      -726.992160979878

DIPOLE MOMENT
-------------
                                X             Y             Z
Electronic contribution:     -7.26214       5.16763       1.30572
Nuclear contribution   :      8.50531      -6.23950      -0.59960
                        -----------------------------------------
Total Dipole Moment    :      1.24317      -1.07187       0.70612
                        -----------------------------------------
Magnitude (a.u.)       :      1.78689
Magnitude (Debye)      :      4.54191

Rotational constants in cm-1:     0.152799     0.080212     0.076962
Rotational constants in MHz :  4580.804531  2404.707790  2307.252710

                             ****ORCA TERMINATED NORMALLY****
TOTAL RUN TIME: 0 days 0 hours 0 minutes 31 seconds 794 msec
