                         Program Version 5.0.0 -  RELEASE  -
|  1> !LC-BLYP RIJCOSX def2-TZVP def2/J TightSCF xyzfile
|  2>
|  3> *xyzfile 0 1 D1.xyz
|  4>
|  5> %MaxCore 64000
|  6>
|  7> %pal nprocs 18
|  8> end
|  9>
| 10> %scf
| 11>   MaxIter 150
| 12> end
| 13>
| 14>
| 15>                          ****END OF INPUT****

CARTESIAN COORDINATES (ANGSTROEM)
---------------------------------
  C     -4.382623   -1.670889    1.216201
  C     -5.763539   -1.915170    0.705012
  C     -3.281728   -2.191272    0.294361
  C     -5.572364   -5.807798   -0.816445
  S     -6.903179   -4.619033   -0.528458
  H     -5.840812   -2.115205   -0.300646
  H     -6.408823   -1.148656    0.936124
  H     -6.174781   -2.790606    1.051433
  F     -8.114853   -5.250932   -0.957007
  O     -6.532715   -3.426838   -1.314848
  H     -4.328618   -2.139223    2.198103
  H     -4.261583   -0.597399    1.357248
  O     -6.865632   -4.294957    0.914118
  C     -3.474641   -3.605898   -0.259608
  H     -2.354548   -2.127602    0.871433
  H     -3.166611   -1.499693   -0.545037
  C     -3.827078   -4.661097    0.786174
  H     -2.560559   -3.889391   -0.788050
  H     -4.255932   -3.570040   -1.019300
  C     -4.457800   -5.941875    0.229195
  H     -5.177347   -5.542575   -1.797714
  H     -6.074202   -6.768894   -0.921272
  H     -4.530506   -4.253640    1.511979
  H     -2.933400   -4.932302    1.356825
  H     -3.681064   -6.562236   -0.229885
  H     -4.843942   -6.512728    1.075805

 Total Charge           Charge          ....    0
 Multiplicity           Mult            ....    1
 Number of Electrons    NEL             ....   98
 Basis Dimension        Dim             ....  437

ORBITAL ENERGIES
----------------

  NO   OCC          E(Eh)            E(eV)
   0   2.0000     -88.528345     -2408.9787
   1   2.0000     -24.586754      -669.0396
   2   2.0000     -18.950525      -515.6700
   3   2.0000     -18.949365      -515.6384
   4   2.0000     -10.135301      -275.7956
   5   2.0000     -10.096951      -274.7520
   6   2.0000     -10.063809      -273.8502
   7   2.0000     -10.053115      -273.5592
   8   2.0000     -10.044675      -273.3295
   9   2.0000     -10.030428      -272.9418
  10   2.0000      -9.973108      -271.3821
  11   2.0000      -8.070884      -219.6199
  12   2.0000      -6.102471      -166.0567
  13   2.0000      -6.095841      -165.8763
  14   2.0000      -6.095468      -165.8661
  15   2.0000      -1.480337       -40.2820
  16   2.0000      -1.203735       -32.7553
  17   2.0000      -1.103976       -30.0407
  18   2.0000      -0.947302       -25.7774
  19   2.0000      -0.906064       -24.6553
  20   2.0000      -0.862957       -23.4823
  21   2.0000      -0.835687       -22.7402
  22   2.0000      -0.800325       -21.7780
  23   2.0000      -0.755261       -20.5517
  24   2.0000      -0.721801       -19.6412
  25   2.0000      -0.706419       -19.2226
  26   2.0000      -0.691552       -18.8181
  27   2.0000      -0.660389       -17.9701
  28   2.0000      -0.647135       -17.6094
  29   2.0000      -0.604127       -16.4391
  30   2.0000      -0.601291       -16.3620
  31   2.0000      -0.577360       -15.7108
  32   2.0000      -0.571211       -15.5435
  33   2.0000      -0.546455       -14.8698
  34   2.0000      -0.537892       -14.6368
  35   2.0000      -0.520805       -14.1718
  36   2.0000      -0.512054       -13.9337
  37   2.0000      -0.488481       -13.2922
  38   2.0000      -0.480540       -13.0761
  39   2.0000      -0.476037       -12.9536
  40   2.0000      -0.445804       -12.1309
  41   2.0000      -0.440834       -11.9957
  42   2.0000      -0.435718       -11.8565
  43   2.0000      -0.431242       -11.7347
  44   2.0000      -0.421020       -11.4565
  45   2.0000      -0.407493       -11.0885
  46   2.0000      -0.389912       -10.6100
  47   2.0000      -0.383792       -10.4435
  48   2.0000      -0.361877        -9.8472
  49   0.0000       0.079778         2.1709
  50   0.0000       0.091466         2.4889
  51   0.0000       0.115534         3.1438
  52   0.0000       0.119555         3.2533
  53   0.0000       0.122334         3.3289

MULLIKEN ATOMIC CHARGES
-----------------------
   0 C :   -0.249596
   1 C :   -0.487612
   2 C :   -0.220431
   3 C :   -0.385468
   4 S :    0.812603
   5 H :    0.170487
   6 H :    0.119467
   7 H :    0.169415
   8 F :   -0.059185
   9 O :   -0.405608
  10 H :    0.123679
  11 H :    0.112204
  12 O :   -0.402467
  13 C :   -0.284069
  14 H :    0.113007
  15 H :    0.124844
  16 C :   -0.307485
  17 H :    0.119971
  18 H :    0.157486
  19 C :   -0.214026
  20 H :    0.204315
  21 H :    0.177173
  22 H :    0.180435
  23 H :    0.132833
  24 H :    0.146485
  25 H :    0.151541
Sum of atomic charges:   -0.0000000

LOEWDIN ATOMIC CHARGES
----------------------
   0 C :   -0.315767
   1 C :   -0.348460
   2 C :   -0.278470
   3 C :   -0.379991
   4 S :    0.533408
   5 H :    0.109927
   6 H :    0.106544
   7 H :    0.099145
   8 F :    0.125865
   9 O :   -0.267194
  10 H :    0.133533
  11 H :    0.136729
  12 O :   -0.259982
  13 C :   -0.280574
  14 H :    0.136931
  15 H :    0.141118
  16 C :   -0.276078
  17 H :    0.137548
  18 H :    0.141424
  19 C :   -0.283663
  20 H :    0.151010
  21 H :    0.142292
  22 H :    0.150250
  23 H :    0.142882
  24 H :    0.152173
  25 H :    0.149400

  Mayer bond orders larger than 0.100000
B(  0-C ,  1-C ) :   0.8449 B(  0-C ,  2-C ) :   0.9227 B(  0-C , 10-H ) :   0.9935
B(  0-C , 11-H ) :   0.9881 B(  1-C ,  5-H ) :   0.9779 B(  1-C ,  6-H ) :   0.9904
B(  1-C ,  7-H ) :   0.9644 B(  2-C , 13-C ) :   0.9370 B(  2-C , 14-H ) :   0.9921
B(  2-C , 15-H ) :   0.9843 B(  3-C ,  4-S ) :   0.9216 B(  3-C , 19-C ) :   0.9011
B(  3-C , 20-H ) :   0.9357 B(  3-C , 21-H ) :   0.9507 B(  4-S ,  8-F ) :   1.2083
B(  4-S ,  9-O ) :   1.8685 B(  4-S , 12-O ) :   1.8499 B( 13-C , 16-C ) :   0.8714
B( 13-C , 17-H ) :   0.9820 B( 13-C , 18-H ) :   0.9794 B( 16-C , 19-C ) :   0.9267
B( 16-C , 22-H ) :   0.9823 B( 16-C , 23-H ) :   0.9768 B( 19-C , 24-H ) :   0.9629
B( 19-C , 25-H ) :   0.9843

FINAL SINGLE POINT ENERGY      -922.963035975288

DIPOLE MOMENT
-------------
                                X             Y             Z
Electronic contribution:    -18.98303      -8.70281      -6.74894
Nuclear contribution   :     19.08524       6.89775       6.14221
                        -----------------------------------------
Total Dipole Moment    :      0.10221      -1.80506      -0.60672
                        -----------------------------------------
Magnitude (a.u.)       :      1.90704
Magnitude (Debye)      :      4.84731

Rotational constants in cm-1:     0.049343     0.024787     0.019726
Rotational constants in MHz :  1479.262779   743.087234   591.370705

                             ****ORCA TERMINATED NORMALLY****
TOTAL RUN TIME: 0 days 0 hours 0 minutes 46 seconds 261 msec
