                         Program Version 5.0.0 -  RELEASE  -
|  1> !LC-BLYP RIJCOSX def2-TZVP def2/J TightSCF xyzfile
|  2>
|  3> *xyzfile 0 1 D2.xyz
|  4>
|  5> %MaxCore 64000
|  6>
|  7> %pal nprocs 18
|  8> end
|  9>
| 10> %scf
| 11>   MaxIter 150
| 12> end
| 13>
| 14>
| 15>                          ****END OF INPUT****

CARTESIAN COORDINATES (ANGSTROEM)
---------------------------------
  C     -4.382623   -1.670889    1.216201
  C     -5.763539   -1.915170    0.705012
  C     -3.281728   -2.191272    0.294361
  C     -5.572364   -5.807798   -0.816445
  S     -6.903179   -4.619033   -0.528458
  H     -5.840812   -2.115205   -0.300646
  H     -6.408823   -1.148656    0.936124
  H     -6.174781   -2.790606    1.051433
  O     -8.114853   -5.250932   -0.957007
  F     -6.532715   -3.426838   -1.314848
  H     -4.328618   -2.139223    2.198103
  H     -4.261583   -0.597399    1.357248
  O     -6.865632   -4.294957    0.914118
  C     -3.474641   -3.605898   -0.259608
  H     -2.354548   -2.127602    0.871433
  H     -3.166611   -1.499693   -0.545037
  C     -3.827078   -4.661097    0.786174
  H     -2.560559   -3.889391   -0.788050
  H     -4.255932   -3.570040   -1.019300
  C     -4.457800   -5.941875    0.229195
  H     -5.177347   -5.542575   -1.797714
  H     -6.074202   -6.768894   -0.921272
  H     -4.530506   -4.253640    1.511979
  H     -2.933400   -4.932302    1.356825
  H     -3.681064   -6.562236   -0.229885
  H     -4.843942   -6.512728    1.075805

 Total Charge           Charge          ....    0
 Multiplicity           Mult            ....    1
 Number of Electrons    NEL             ....   98
 Basis Dimension        Dim             ....  437

ORBITAL ENERGIES
----------------

  NO   OCC          E(Eh)            E(eV)
   0   2.0000     -88.523222     -2408.8393
   1   2.0000     -24.563473      -668.4061
   2   2.0000     -18.959982      -515.9273
   3   2.0000     -18.946217      -515.5528
   4   2.0000     -10.133458      -275.7454
   5   2.0000     -10.096794      -274.7477
   6   2.0000     -10.071156      -274.0501
   7   2.0000     -10.069776      -274.0125
   8   2.0000     -10.058892      -273.7164
   9   2.0000     -10.045950      -273.3642
  10   2.0000      -9.996490      -272.0183
  11   2.0000      -8.065841      -219.4827
  12   2.0000      -6.097629      -165.9249
  13   2.0000      -6.090879      -165.7413
  14   2.0000      -6.090215      -165.7232
  15   2.0000      -1.447267       -39.3821
  16   2.0000      -1.212224       -32.9863
  17   2.0000      -1.115721       -30.3603
  18   2.0000      -0.950168       -25.8554
  19   2.0000      -0.915394       -24.9091
  20   2.0000      -0.865690       -23.5566
  21   2.0000      -0.838633       -22.8204
  22   2.0000      -0.801764       -21.8171
  23   2.0000      -0.766842       -20.8668
  24   2.0000      -0.726798       -19.7772
  25   2.0000      -0.689828       -18.7712
  26   2.0000      -0.676957       -18.4209
  27   2.0000      -0.662349       -18.0234
  28   2.0000      -0.660362       -17.9694
  29   2.0000      -0.606880       -16.5140
  30   2.0000      -0.598510       -16.2863
  31   2.0000      -0.576730       -15.6936
  32   2.0000      -0.566946       -15.4274
  33   2.0000      -0.562572       -15.3084
  34   2.0000      -0.541930       -14.7467
  35   2.0000      -0.528318       -14.3763
  36   2.0000      -0.508050       -13.8248
  37   2.0000      -0.499389       -13.5891
  38   2.0000      -0.493403       -13.4262
  39   2.0000      -0.488730       -13.2990
  40   2.0000      -0.459748       -12.5104
  41   2.0000      -0.454905       -12.3786
  42   2.0000      -0.452289       -12.3074
  43   2.0000      -0.436025       -11.8648
  44   2.0000      -0.425713       -11.5843
  45   2.0000      -0.419273       -11.4090
  46   2.0000      -0.408373       -11.1124
  47   2.0000      -0.406749       -11.0682
  48   2.0000      -0.372620       -10.1395
  49   0.0000       0.080439         2.1888
  50   0.0000       0.096166         2.6168
  51   0.0000       0.105597         2.8734
  52   0.0000       0.109461         2.9786
  53   0.0000       0.123162         3.3514

MULLIKEN ATOMIC CHARGES
-----------------------
   0 C :   -0.253018
   1 C :   -0.505715
   2 C :   -0.224103
   3 C :   -0.402008
   4 S :    0.813671
   5 H :    0.121071
   6 H :    0.133957
   7 H :    0.203742
   8 O :   -0.355199
   9 F :   -0.097260
  10 H :    0.134344
  11 H :    0.119311
  12 O :   -0.408359
  13 C :   -0.280583
  14 H :    0.121612
  15 H :    0.128891
  16 C :   -0.320917
  17 H :    0.131770
  18 H :    0.119936
  19 C :   -0.199687
  20 H :    0.192857
  21 H :    0.201996
  22 H :    0.185873
  23 H :    0.136869
  24 H :    0.143294
  25 H :    0.157653
Sum of atomic charges:   -0.0000000

LOEWDIN ATOMIC CHARGES
----------------------
   0 C :   -0.312148
   1 C :   -0.350269
   2 C :   -0.278048
   3 C :   -0.376875
   4 S :    0.540332
   5 H :    0.099483
   6 H :    0.110525
   7 H :    0.100024
   8 O :   -0.237815
   9 F :    0.084034
  10 H :    0.137245
  11 H :    0.138740
  12 O :   -0.259672
  13 C :   -0.280707
  14 H :    0.140188
  15 H :    0.141171
  16 C :   -0.277875
  17 H :    0.141164
  18 H :    0.130782
  19 C :   -0.285893
  20 H :    0.143297
  21 H :    0.155710
  22 H :    0.150510
  23 H :    0.144083
  24 H :    0.150615
  25 H :    0.151400

  Mayer bond orders larger than 0.100000
B(  0-C ,  1-C ) :   0.8439 B(  0-C ,  2-C ) :   0.9164 B(  0-C , 10-H ) :   0.9934
B(  0-C , 11-H ) :   0.9884 B(  1-C ,  5-H ) :   0.9883 B(  1-C ,  6-H ) :   0.9876
B(  1-C ,  7-H ) :   0.9514 B(  2-C , 13-C ) :   0.9302 B(  2-C , 14-H ) :   0.9904
B(  2-C , 15-H ) :   0.9862 B(  3-C ,  4-S ) :   0.9214 B(  3-C , 19-C ) :   0.8867
B(  3-C , 20-H ) :   0.9421 B(  3-C , 21-H ) :   0.9501 B(  4-S ,  8-O ) :   2.0550
B(  4-S ,  9-F ) :   1.1166 B(  4-S , 12-O ) :   1.8198 B( 13-C , 16-C ) :   0.8724
B( 13-C , 17-H ) :   0.9827 B( 13-C , 18-H ) :   0.9921 B( 16-C , 19-C ) :   0.9187
B( 16-C , 22-H ) :   0.9820 B( 16-C , 23-H ) :   0.9749 B( 19-C , 24-H ) :   0.9612
B( 19-C , 25-H ) :   0.9806

FINAL SINGLE POINT ENERGY      -922.980964819114

DIPOLE MOMENT
-------------
                                X             Y             Z
Electronic contribution:    -15.98002      -5.38280      -7.23265
Nuclear contribution   :     17.25367       4.78608       6.55647
                        -----------------------------------------
Total Dipole Moment    :      1.27365      -0.59672      -0.67618
                        -----------------------------------------
Magnitude (a.u.)       :      1.56060
Magnitude (Debye)      :      3.96674

Rotational constants in cm-1:     0.048508     0.025517     0.020225
Rotational constants in MHz :  1454.219007   764.979652   606.316599

                             ****ORCA TERMINATED NORMALLY****
TOTAL RUN TIME: 0 days 0 hours 0 minutes 44 seconds 53 msec
