                         Program Version 5.0.0 -  RELEASE  -
|  1> !LC-BLYP RIJCOSX def2-TZVP def2/J TightSCF xyzfile
|  2>
|  3> *xyzfile 0 1 D3.xyz
|  4>
|  5> %MaxCore 64000
|  6>
|  7> %pal nprocs 18
|  8> end
|  9>
| 10> %scf
| 11>   MaxIter 150
| 12> end
| 13>
| 14>
| 15>                          ****END OF INPUT****

CARTESIAN COORDINATES (ANGSTROEM)
---------------------------------
  C     -4.382623   -1.670889    1.216201
  C     -5.763539   -1.915170    0.705012
  C     -3.281728   -2.191272    0.294361
  C     -5.572364   -5.807798   -0.816445
  S     -6.903179   -4.619033   -0.528458
  H     -5.840812   -2.115205   -0.300646
  H     -6.408823   -1.148656    0.936124
  H     -6.174781   -2.790606    1.051433
  O     -8.114853   -5.250932   -0.957007
  O     -6.532715   -3.426838   -1.314848
  H     -4.328618   -2.139223    2.198103
  H     -4.261583   -0.597399    1.357248
  F     -6.865632   -4.294957    0.914118
  C     -3.474641   -3.605898   -0.259608
  H     -2.354548   -2.127602    0.871433
  H     -3.166611   -1.499693   -0.545037
  C     -3.827078   -4.661097    0.786174
  H     -2.560559   -3.889391   -0.788050
  H     -4.255932   -3.570040   -1.019300
  C     -4.457800   -5.941875    0.229195
  H     -5.177347   -5.542575   -1.797714
  H     -6.074202   -6.768894   -0.921272
  H     -4.530506   -4.253640    1.511979
  H     -2.933400   -4.932302    1.356825
  H     -3.681064   -6.562236   -0.229885
  H     -4.843942   -6.512728    1.075805

 Total Charge           Charge          ....    0
 Multiplicity           Mult            ....    1
 Number of Electrons    NEL             ....   98
 Basis Dimension        Dim             ....  437

ORBITAL ENERGIES
----------------

  NO   OCC          E(Eh)            E(eV)
   0   2.0000     -88.522302     -2408.8143
   1   2.0000     -24.563421      -668.4047
   2   2.0000     -18.959516      -515.9147
   3   2.0000     -18.944277      -515.5000
   4   2.0000     -10.132564      -275.7211
   5   2.0000     -10.101733      -274.8821
   6   2.0000     -10.078090      -274.2388
   7   2.0000     -10.062967      -273.8273
   8   2.0000     -10.056075      -273.6397
   9   2.0000     -10.046423      -273.3771
  10   2.0000      -9.998390      -272.0700
  11   2.0000      -8.064999      -219.4598
  12   2.0000      -6.096946      -165.9063
  13   2.0000      -6.089782      -165.7114
  14   2.0000      -6.089458      -165.7026
  15   2.0000      -1.446717       -39.3672
  16   2.0000      -1.212256       -32.9872
  17   2.0000      -1.114388       -30.3240
  18   2.0000      -0.953081       -25.9347
  19   2.0000      -0.914306       -24.8795
  20   2.0000      -0.865527       -23.5522
  21   2.0000      -0.838000       -22.8031
  22   2.0000      -0.802700       -21.8426
  23   2.0000      -0.766524       -20.8582
  24   2.0000      -0.731215       -19.8974
  25   2.0000      -0.692461       -18.8428
  26   2.0000      -0.686596       -18.6832
  27   2.0000      -0.659288       -17.9401
  28   2.0000      -0.648915       -17.6579
  29   2.0000      -0.604544       -16.4505
  30   2.0000      -0.599137       -16.3033
  31   2.0000      -0.579828       -15.7779
  32   2.0000      -0.562537       -15.3074
  33   2.0000      -0.557763       -15.1775
  34   2.0000      -0.552068       -15.0225
  35   2.0000      -0.530792       -14.4436
  36   2.0000      -0.509074       -13.8526
  37   2.0000      -0.496545       -13.5117
  38   2.0000      -0.492260       -13.3951
  39   2.0000      -0.491877       -13.3846
  40   2.0000      -0.461268       -12.5517
  41   2.0000      -0.454818       -12.3762
  42   2.0000      -0.447373       -12.1736
  43   2.0000      -0.431875       -11.7519
  44   2.0000      -0.430162       -11.7053
  45   2.0000      -0.421410       -11.4672
  46   2.0000      -0.403342       -10.9755
  47   2.0000      -0.399979       -10.8840
  48   2.0000      -0.384231       -10.4555
  49   0.0000       0.071106         1.9349
  50   0.0000       0.102402         2.7865
  51   0.0000       0.109193         2.9713
  52   0.0000       0.112326         3.0566
  53   0.0000       0.125807         3.4234

MULLIKEN ATOMIC CHARGES
-----------------------
   0 C :   -0.252047
   1 C :   -0.492647
   2 C :   -0.224966
   3 C :   -0.373500
   4 S :    0.809001
   5 H :    0.203222
   6 H :    0.135490
   7 H :    0.109533
   8 O :   -0.353789
   9 O :   -0.414351
  10 H :    0.126517
  11 H :    0.121980
  12 F :   -0.097701
  13 C :   -0.283474
  14 H :    0.118247
  15 H :    0.131406
  16 C :   -0.322518
  17 H :    0.127040
  18 H :    0.169675
  19 C :   -0.246319
  20 H :    0.206239
  21 H :    0.195285
  22 H :    0.158194
  23 H :    0.142115
  24 H :    0.148175
  25 H :    0.159193
Sum of atomic charges:    0.0000000

LOEWDIN ATOMIC CHARGES
----------------------
   0 C :   -0.313705
   1 C :   -0.350378
   2 C :   -0.277247
   3 C :   -0.370660
   4 S :    0.539867
   5 H :    0.114036
   6 H :    0.110892
   7 H :    0.091907
   8 O :   -0.238008
   9 O :   -0.269421
  10 H :    0.133580
  11 H :    0.139855
  12 F :    0.086662
  13 C :   -0.280794
  14 H :    0.138499
  15 H :    0.143269
  16 C :   -0.280111
  17 H :    0.140161
  18 H :    0.143438
  19 C :   -0.294468
  20 H :    0.155427
  21 H :    0.150508
  22 H :    0.141871
  23 H :    0.145533
  24 H :    0.152386
  25 H :    0.146903

  Mayer bond orders larger than 0.100000
B(  0-C ,  1-C ) :   0.8409 B(  0-C ,  2-C ) :   0.9198 B(  0-C , 10-H ) :   0.9927
B(  0-C , 11-H ) :   0.9884 B(  1-C ,  5-H ) :   0.9681 B(  1-C ,  6-H ) :   0.9875
B(  1-C ,  7-H ) :   0.9853 B(  2-C , 13-C ) :   0.9331 B(  2-C , 14-H ) :   0.9922
B(  2-C , 15-H ) :   0.9839 B(  3-C ,  4-S ) :   0.9195 B(  3-C , 19-C ) :   0.8981
B(  3-C , 20-H ) :   0.9371 B(  3-C , 21-H ) :   0.9523 B(  4-S ,  8-O ) :   2.0548
B(  4-S ,  9-O ) :   1.8412 B(  4-S , 12-F ) :   1.1053 B( 13-C , 16-C ) :   0.8517
B( 13-C , 17-H ) :   0.9797 B( 13-C , 18-H ) :   0.9788 B( 16-C , 19-C ) :   0.9061
B( 16-C , 22-H ) :   0.9985 B( 16-C , 23-H ) :   0.9769 B( 19-C , 24-H ) :   0.9619
B( 19-C , 25-H ) :   0.9898

FINAL SINGLE POINT ENERGY      -922.980349811829

DIPOLE MOMENT
-------------
                                X             Y             Z
Electronic contribution:    -16.53710      -6.87112      -3.44911
Nuclear contribution   :     17.63907       5.79106       3.97609
                        -----------------------------------------
Total Dipole Moment    :      1.10198      -1.08006       0.52698
                        -----------------------------------------
Magnitude (a.u.)       :      1.63052
Magnitude (Debye)      :      4.14445

Rotational constants in cm-1:     0.048663     0.025472     0.020259
Rotational constants in MHz :  1458.892793   763.621130   607.350055

                             ****ORCA TERMINATED NORMALLY****
TOTAL RUN TIME: 0 days 0 hours 0 minutes 45 seconds 773 msec
