                         Program Version 5.0.0 -  RELEASE  -
|  1> !B3LYP D3BJ RIJCOSX def2-SVP def2/J TightSCF
|  2> *xyz -1 1
|  3> C         -7.33044       -2.67899       -3.20681
|  4> S         -6.01966       -2.92697       -4.41913
|  5> O         -5.64583       -1.58838       -4.91931
|  6> O         -4.88196       -3.50370       -3.66724
|  7> O         -6.54927       -3.80515       -5.42507
|  8> C         -7.46900       -1.24615       -2.71383
|  9> H         -7.11825       -3.37982       -2.39805
| 10> H         -8.24184       -3.00474       -3.70651
| 11> H         -7.67580       -0.60214       -3.54292
| 12> H         -6.55749       -0.94096       -2.24382
| 13> H         -8.27114       -1.18777       -2.00810
| 14> *
| 15> %MaxCore 64000
| 16>
| 17> %pal nprocs 4
| 18> end
| 19>
| 20> %scf
| 21>   MaxIter 150
| 22> end
| 23>
| 24>
| 25>                          ****END OF INPUT****

CARTESIAN COORDINATES (ANGSTROEM)
---------------------------------
  C     -7.330440   -2.678990   -3.206810
  S     -6.019660   -2.926970   -4.419130
  O     -5.645830   -1.588380   -4.919310
  O     -4.881960   -3.503700   -3.667240
  O     -6.549270   -3.805150   -5.425070
  C     -7.469000   -1.246150   -2.713830
  H     -7.118250   -3.379820   -2.398050
  H     -8.241840   -3.004740   -3.706510
  H     -7.675800   -0.602140   -3.542920
  H     -6.557490   -0.940960   -2.243820
  H     -8.271140   -1.187770   -2.008100

 Total Charge           Charge          ....   -1
 Multiplicity           Mult            ....    1
 Number of Electrons    NEL             ....   58
 Basis Dimension        Dim             ....  113

ORBITAL ENERGIES
----------------

  NO   OCC          E(Eh)            E(eV)
   0   2.0000     -88.836778     -2417.3716
   1   2.0000     -18.880576      -513.7666
   2   2.0000     -18.870373      -513.4890
   3   2.0000     -18.863885      -513.3124
   4   2.0000     -10.034102      -273.0418
   5   2.0000     -10.028846      -272.8988
   6   2.0000      -7.897594      -214.9045
   7   2.0000      -5.865900      -159.6193
   8   2.0000      -5.865837      -159.6175
   9   2.0000      -5.865591      -159.6109
  10   2.0000      -0.892863       -24.2960
  11   2.0000      -0.751708       -20.4550
  12   2.0000      -0.727776       -19.8038
  13   2.0000      -0.616603       -16.7786
  14   2.0000      -0.490834       -13.3563
  15   2.0000      -0.359167        -9.7734
  16   2.0000      -0.308955        -8.4071
  17   2.0000      -0.291614        -7.9352
  18   2.0000      -0.257037        -6.9943
  19   2.0000      -0.234985        -6.3943
  20   2.0000      -0.229543        -6.2462
  21   2.0000      -0.211533        -5.7561
  22   2.0000      -0.205357        -5.5880
  23   2.0000      -0.112631        -3.0648
  24   2.0000      -0.111706        -3.0397
  25   2.0000      -0.082024        -2.2320
  26   2.0000      -0.075076        -2.0429
  27   2.0000      -0.063303        -1.7226
  28   2.0000      -0.027513        -0.7487
  29   0.0000       0.201861         5.4929
  30   0.0000       0.255247         6.9456
  31   0.0000       0.258368         7.0305
  32   0.0000       0.266019         7.2387
  33   0.0000       0.289252         7.8710

MULLIKEN ATOMIC CHARGES
-----------------------
   0 C :   -0.076325
   1 S :    0.880133
   2 O :   -0.601795
   3 O :   -0.619668
   4 O :   -0.569753
   5 C :    0.070756
   6 H :   -0.008675
   7 H :   -0.016901
   8 H :   -0.003570
   9 H :   -0.003261
  10 H :   -0.050942
Sum of atomic charges:   -1.0000000

LOEWDIN ATOMIC CHARGES
----------------------
   0 C :   -0.182013
   1 S :    1.111200
   2 O :   -0.638549
   3 O :   -0.654032
   4 O :   -0.604631
   5 C :   -0.063470
   6 H :    0.005987
   7 H :    0.001767
   8 H :    0.013182
   9 H :    0.014769
  10 H :   -0.004211

  Mayer bond orders larger than 0.100000
B(  0-C ,  1-S ) :   0.8769 B(  0-C ,  5-C ) :   1.0912 B(  0-C ,  6-H ) :   0.9397
B(  0-C ,  7-H ) :   0.9389 B(  1-S ,  2-O ) :   1.5978 B(  1-S ,  3-O ) :   1.5864
B(  1-S ,  4-O ) :   1.6414 B(  5-C ,  8-H ) :   0.9612 B(  5-C ,  9-H ) :   0.9654
B(  5-C , 10-H ) :   0.9500

Dispersion correction           -0.016663319
FINAL SINGLE POINT ENERGY      -702.522349958775

DIPOLE MOMENT
-------------
                                X             Y             Z
Electronic contribution:      4.80042      -3.56266      -5.21432
Nuclear contribution   :     -6.18165       4.01759       6.33106
                        -----------------------------------------
Total Dipole Moment    :     -1.38123       0.45493       1.11674
                        -----------------------------------------
Magnitude (a.u.)       :      1.83354
Magnitude (Debye)      :      4.66049

Rotational constants in cm-1:     0.161711     0.082788     0.081165
Rotational constants in MHz :  4847.971521  2481.906910  2433.276832

                             ****ORCA TERMINATED NORMALLY****
TOTAL RUN TIME: 0 days 0 hours 0 minutes 12 seconds 827 msec
