                         Program Version 5.0.0 -  RELEASE  -
|  1> !B3LYP D3BJ RIJCOSX def2-SVP def2/J TightSCF
|  2> *xyz 1 1
|  3> C         -2.16038       -1.36949       -3.46710
|  4> N         -3.03011       -1.91086       -4.54107
|  5> C         -2.04772        0.14658       -3.51177
|  6> H         -3.47744       -2.79151       -4.25710
|  7> H         -2.53801       -2.01786       -5.43808
|  8> H         -3.89159       -1.37604       -4.71437
|  9> H         -1.18444       -1.84400       -3.56639
| 10> H         -2.59819       -1.70838       -2.52848
| 11> H         -1.61525        0.44478       -4.44395
| 12> H         -1.42718        0.48198       -2.70720
| 13> H         -3.02145        0.57958       -3.41560
| 14> *
| 15> %MaxCore 64000
| 16>
| 17> %pal nprocs 4
| 18> end
| 19>
| 20> %scf
| 21>   MaxIter 150
| 22> end
| 23>
| 24>
| 25>                          ****END OF INPUT****

CARTESIAN COORDINATES (ANGSTROEM)
---------------------------------
  C     -2.160380   -1.369490   -3.467100
  N     -3.030110   -1.910860   -4.541070
  C     -2.047720    0.146580   -3.511770
  H     -3.477440   -2.791510   -4.257100
  H     -2.538010   -2.017860   -5.438080
  H     -3.891590   -1.376040   -4.714370
  H     -1.184440   -1.844000   -3.566390
  H     -2.598190   -1.708380   -2.528480
  H     -1.615250    0.444780   -4.443950
  H     -1.427180    0.481980   -2.707200
  H     -3.021450    0.579580   -3.415600

 Total Charge           Charge          ....    1
 Multiplicity           Mult            ....    1
 Number of Electrons    NEL             ....   26
 Basis Dimension        Dim             ....   82

ORBITAL ENERGIES
----------------

  NO   OCC          E(Eh)            E(eV)
   0   2.0000     -14.668143      -399.1405
   1   2.0000     -10.437465      -284.0179
   2   2.0000     -10.358431      -281.8672
   3   2.0000      -1.210369       -32.9358
   4   2.0000      -0.961019       -26.1506
   5   2.0000      -0.842800       -22.9337
   6   2.0000      -0.811981       -22.0951
   7   2.0000      -0.771682       -20.9985
   8   2.0000      -0.701014       -19.0756
   9   2.0000      -0.642450       -17.4820
  10   2.0000      -0.581994       -15.8369
  11   2.0000      -0.567449       -15.4411
  12   2.0000      -0.549866       -14.9626
  13   0.0000      -0.187166        -5.0930
  14   0.0000      -0.128382        -3.4934
  15   0.0000      -0.126836        -3.4514
  16   0.0000      -0.091042        -2.4774
  17   0.0000      -0.050379        -1.3709

MULLIKEN ATOMIC CHARGES
-----------------------
   0 C :   -0.013195
   1 N :    0.027748
   2 C :    0.006906
   3 H :    0.204549
   4 H :    0.215179
   5 H :    0.194797
   6 H :    0.092930
   7 H :    0.085403
   8 H :    0.051044
   9 H :    0.085365
  10 H :    0.049274
Sum of atomic charges:    1.0000000

LOEWDIN ATOMIC CHARGES
----------------------
   0 C :    0.056124
   1 N :    0.294565
   2 C :   -0.031402
   3 H :    0.148161
   4 H :    0.146924
   5 H :    0.142477
   6 H :    0.054565
   7 H :    0.051282
   8 H :    0.038355
   9 H :    0.061847
  10 H :    0.037101

  Mayer bond orders larger than 0.100000
B(  0-C ,  1-N ) :   0.9249 B(  0-C ,  2-C ) :   1.1096 B(  0-C ,  6-H ) :   0.9499
B(  0-C ,  7-H ) :   0.9528 B(  1-N ,  3-H ) :   0.9357 B(  1-N ,  4-H ) :   0.9350
B(  1-N ,  5-H ) :   0.9340 B(  2-C ,  8-H ) :   0.9699 B(  2-C ,  9-H ) :   0.9563
B(  2-C , 10-H ) :   0.9665

Dispersion correction           -0.009980011
FINAL SINGLE POINT ENERGY      -135.346929511733

DIPOLE MOMENT
-------------
                                X             Y             Z
Electronic contribution:     -0.67672      -1.52338      -0.80848
Nuclear contribution   :     -0.15215       0.37393      -0.04773
                        -----------------------------------------
Total Dipole Moment    :     -0.82887      -1.14945      -0.85622
                        -----------------------------------------
Magnitude (a.u.)       :      1.65570
Magnitude (Debye)      :      4.20846

Rotational constants in cm-1:     1.020762     0.277172     0.247319
Rotational constants in MHz : 30601.664035  8309.399682  7414.438136

                             ****ORCA TERMINATED NORMALLY****
TOTAL RUN TIME: 0 days 0 hours 0 minutes 9 seconds 83 msec
