                         Program Version 5.0.0 -  RELEASE  -
|  1> !B3LYP D3BJ RIJCOSX def2-SVP def2/J TightSCF
|  2> *xyz 0 1
|  3> C         -7.33044       -2.67899       -3.20681
|  4> S         -6.01966       -2.92697       -4.41913
|  5> F         -5.64583       -1.58838       -4.91931
|  6> O         -4.88196       -3.50370       -3.66724
|  7> O         -6.54927       -3.80515       -5.42507
|  8> C         -7.46900       -1.24615       -2.71383
|  9> H         -7.11825       -3.37982       -2.39805
| 10> H         -8.24184       -3.00474       -3.70651
| 11> H         -7.67580       -0.60214       -3.54292
| 12> H         -6.55749       -0.94096       -2.24382
| 13> H         -8.27114       -1.18777       -2.00810
| 14> *
| 15> %MaxCore 64000
| 16>
| 17> %pal nprocs 4
| 18> end
| 19>
| 20> %scf
| 21>   MaxIter 150
| 22> end
| 23>
| 24>
| 25>                          ****END OF INPUT****

CARTESIAN COORDINATES (ANGSTROEM)
---------------------------------
  C     -7.330440   -2.678990   -3.206810
  S     -6.019660   -2.926970   -4.419130
  F     -5.645830   -1.588380   -4.919310
  O     -4.881960   -3.503700   -3.667240
  O     -6.549270   -3.805150   -5.425070
  C     -7.469000   -1.246150   -2.713830
  H     -7.118250   -3.379820   -2.398050
  H     -8.241840   -3.004740   -3.706510
  H     -7.675800   -0.602140   -3.542920
  H     -6.557490   -0.940960   -2.243820
  H     -8.271140   -1.187770   -2.008100

 Total Charge           Charge          ....    0
 Multiplicity           Mult            ....    1
 Number of Electrons    NEL             ....   58
 Basis Dimension        Dim             ....  113

ORBITAL ENERGIES
----------------

  NO   OCC          E(Eh)            E(eV)
   0   2.0000     -89.109139     -2424.7829
   1   2.0000     -24.781004      -674.3254
   2   2.0000     -19.133785      -520.6568
   3   2.0000     -19.117581      -520.2158
   4   2.0000     -10.241122      -278.6751
   5   2.0000     -10.211733      -277.8754
   6   2.0000      -8.172314      -222.3800
   7   2.0000      -6.144635      -167.2040
   8   2.0000      -6.138290      -167.0314
   9   2.0000      -6.137103      -166.9991
  10   2.0000      -1.336894       -36.3787
  11   2.0000      -1.096156       -29.8279
  12   2.0000      -0.991041       -26.9676
  13   2.0000      -0.821298       -22.3487
  14   2.0000      -0.714721       -19.4485
  15   2.0000      -0.669525       -18.2187
  16   2.0000      -0.580776       -15.8037
  17   2.0000      -0.558115       -15.1871
  18   2.0000      -0.530565       -14.4374
  19   2.0000      -0.496861       -13.5203
  20   2.0000      -0.467521       -12.7219
  21   2.0000      -0.445566       -12.1245
  22   2.0000      -0.431261       -11.7352
  23   2.0000      -0.413866       -11.2619
  24   2.0000      -0.396433       -10.7875
  25   2.0000      -0.372774       -10.1437
  26   2.0000      -0.323414        -8.8005
  27   2.0000      -0.308140        -8.3849
  28   2.0000      -0.294346        -8.0096
  29   0.0000       0.017517         0.4767
  30   0.0000       0.061439         1.6718
  31   0.0000       0.079089         2.1521
  32   0.0000       0.086952         2.3661
  33   0.0000       0.098483         2.6799

MULLIKEN ATOMIC CHARGES
-----------------------
   0 C :   -0.108443
   1 S :    0.960596
   2 F :   -0.204892
   3 O :   -0.480956
   4 O :   -0.430404
   5 C :    0.019445
   6 H :    0.082631
   7 H :    0.064706
   8 H :    0.027239
   9 H :    0.036260
  10 H :    0.033819
Sum of atomic charges:   -0.0000000

LOEWDIN ATOMIC CHARGES
----------------------
   0 C :   -0.138630
   1 S :    1.173345
   2 F :   -0.152316
   3 O :   -0.525882
   4 O :   -0.475965
   5 C :   -0.054405
   6 H :    0.048243
   7 H :    0.036890
   8 H :    0.024580
   9 H :    0.028581
  10 H :    0.035558

  Mayer bond orders larger than 0.100000
B(  0-C ,  1-S ) :   0.9189 B(  0-C ,  5-C ) :   1.0742 B(  0-C ,  6-H ) :   0.9356
B(  0-C ,  7-H ) :   0.9368 B(  1-S ,  2-F ) :   0.9807 B(  1-S ,  3-O ) :   1.7417
B(  1-S ,  4-O ) :   1.7915 B(  5-C ,  8-H ) :   0.9714 B(  5-C ,  9-H ) :   0.9710
B(  5-C , 10-H ) :   0.9593

Dispersion correction           -0.015809017
FINAL SINGLE POINT ENERGY      -727.039881897209

DIPOLE MOMENT
-------------
                                X             Y             Z
Electronic contribution:      5.68694      -1.73695      -6.42101
Nuclear contribution   :     -6.81251       2.87933       7.15058
                        -----------------------------------------
Total Dipole Moment    :     -1.12557       1.14238       0.72956
                        -----------------------------------------
Magnitude (a.u.)       :      1.76188
Magnitude (Debye)      :      4.47833

Rotational constants in cm-1:     0.152543     0.082494     0.078987
Rotational constants in MHz :  4573.135887  2473.116216  2367.980829

                             ****ORCA TERMINATED NORMALLY****
TOTAL RUN TIME: 0 days 0 hours 0 minutes 13 seconds 523 msec
