                         Program Version 5.0.0 -  RELEASE  -
|  1> !B3LYP D3BJ RIJCOSX def2-SVP def2/J TightSCF
|  2> *xyz 0 1
|  3> C         -2.16038       -1.36949       -3.46710
|  4> C         -3.03011       -1.91086       -4.54107
|  5> C         -2.04772        0.14658       -3.51177
|  6> H         -3.47744       -2.79151       -4.25710
|  7> H         -2.53801       -2.01786       -5.43808
|  8> H         -3.89159       -1.37604       -4.71437
|  9> H         -1.18444       -1.84400       -3.56639
| 10> H         -2.59819       -1.70838       -2.52848
| 11> H         -1.61525        0.44478       -4.44395
| 12> H         -1.42718        0.48198       -2.70720
| 13> H         -3.02145        0.57958       -3.41560
| 14> *
| 15> %MaxCore 64000
| 16>
| 17> %pal nprocs 4
| 18> end
| 19>
| 20> %scf
| 21>   MaxIter 150
| 22> end
| 23>
| 24>
| 25>                          ****END OF INPUT****

CARTESIAN COORDINATES (ANGSTROEM)
---------------------------------
  C     -2.160380   -1.369490   -3.467100
  C     -3.030110   -1.910860   -4.541070
  C     -2.047720    0.146580   -3.511770
  H     -3.477440   -2.791510   -4.257100
  H     -2.538010   -2.017860   -5.438080
  H     -3.891590   -1.376040   -4.714370
  H     -1.184440   -1.844000   -3.566390
  H     -2.598190   -1.708380   -2.528480
  H     -1.615250    0.444780   -4.443950
  H     -1.427180    0.481980   -2.707200
  H     -3.021450    0.579580   -3.415600

 Total Charge           Charge          ....    0
 Multiplicity           Mult            ....    1
 Number of Electrons    NEL             ....   26
 Basis Dimension        Dim             ....   82

ORBITAL ENERGIES
----------------

  NO   OCC          E(Eh)            E(eV)
   0   2.0000     -10.168122      -276.6887
   1   2.0000     -10.161350      -276.5044
   2   2.0000     -10.144424      -276.0438
   3   2.0000      -0.780415       -21.2362
   4   2.0000      -0.682186       -18.5632
   5   2.0000      -0.580157       -15.7869
   6   2.0000      -0.465802       -12.6751
   7   2.0000      -0.435974       -11.8635
   8   2.0000      -0.399146       -10.8613
   9   2.0000      -0.391008       -10.6399
  10   2.0000      -0.338112        -9.2005
  11   2.0000      -0.325989        -8.8706
  12   2.0000      -0.325321        -8.8524
  13   0.0000       0.064222         1.7476
  14   0.0000       0.110550         3.0082
  15   0.0000       0.114118         3.1053
  16   0.0000       0.115741         3.1495
  17   0.0000       0.147400         4.0110

MULLIKEN ATOMIC CHARGES
-----------------------
   0 C :   -0.040535
   1 C :    0.092355
   2 C :    0.041486
   3 H :   -0.029752
   4 H :   -0.012820
   5 H :   -0.034391
   6 H :   -0.004188
   7 H :   -0.008488
   8 H :   -0.000973
   9 H :   -0.001613
  10 H :   -0.001081
Sum of atomic charges:    0.0000000

LOEWDIN ATOMIC CHARGES
----------------------
   0 C :   -0.033963
   1 C :   -0.044712
   2 C :   -0.044301
   3 H :    0.015193
   4 H :    0.011571
   5 H :    0.011612
   6 H :    0.017646
   7 H :    0.016335
   8 H :    0.016868
   9 H :    0.017100
  10 H :    0.016652

  Mayer bond orders larger than 0.100000
B(  0-C ,  1-C ) :   1.1183 B(  0-C ,  2-C ) :   1.1114 B(  0-C ,  6-H ) :   0.9519
B(  0-C ,  7-H ) :   0.9531 B(  1-C ,  3-H ) :   0.9542 B(  1-C ,  4-H ) :   0.9692
B(  1-C ,  5-H ) :   0.9564 B(  2-C ,  8-H ) :   0.9739 B(  2-C ,  9-H ) :   0.9670
B(  2-C , 10-H ) :   0.9712

Dispersion correction           -0.010057642
FINAL SINGLE POINT ENERGY      -118.951277062741

DIPOLE MOMENT
-------------
                                X             Y             Z
Electronic contribution:      0.31703      -0.12101       0.26983
Nuclear contribution   :     -0.34625       0.09603      -0.26933
                        -----------------------------------------
Total Dipole Moment    :     -0.02922      -0.02497       0.00049
                        -----------------------------------------
Magnitude (a.u.)       :      0.03844
Magnitude (Debye)      :      0.09770

Rotational constants in cm-1:     1.028617     0.291238     0.258956
Rotational constants in MHz : 30837.159054  8731.095379  7763.318586

                             ****ORCA TERMINATED NORMALLY****
TOTAL RUN TIME: 0 days 0 hours 0 minutes 8 seconds 957 msec
