                         Program Version 5.0.0 -  RELEASE  -
|  1> !B3LYP D3BJ RIJCOSX def2-SVP def2/J TightSCF
|  2> *xyz 0 1
|  3> C         -7.33044       -2.67899       -3.20681
|  4> S         -6.01966       -2.92697       -4.41913
|  5> O         -5.64583       -1.58838       -4.91931
|  6> F         -4.88196       -3.50370       -3.66724
|  7> O         -6.54927       -3.80515       -5.42507
|  8> C         -7.46900       -1.24615       -2.71383
|  9> H         -7.11825       -3.37982       -2.39805
| 10> H         -8.24184       -3.00474       -3.70651
| 11> H         -7.67580       -0.60214       -3.54292
| 12> H         -6.55749       -0.94096       -2.24382
| 13> H         -8.27114       -1.18777       -2.00810
| 14> *
| 15> %MaxCore 64000
| 16>
| 17> %pal nprocs 4
| 18> end
| 19>
| 20> %scf
| 21>   MaxIter 150
| 22> end
| 23>
| 24>
| 25>                          ****END OF INPUT****

CARTESIAN COORDINATES (ANGSTROEM)
---------------------------------
  C     -7.330440   -2.678990   -3.206810
  S     -6.019660   -2.926970   -4.419130
  O     -5.645830   -1.588380   -4.919310
  F     -4.881960   -3.503700   -3.667240
  O     -6.549270   -3.805150   -5.425070
  C     -7.469000   -1.246150   -2.713830
  H     -7.118250   -3.379820   -2.398050
  H     -8.241840   -3.004740   -3.706510
  H     -7.675800   -0.602140   -3.542920
  H     -6.557490   -0.940960   -2.243820
  H     -8.271140   -1.187770   -2.008100

 Total Charge           Charge          ....    0
 Multiplicity           Mult            ....    1
 Number of Electrons    NEL             ....   58
 Basis Dimension        Dim             ....  113

ORBITAL ENERGIES
----------------

  NO   OCC          E(Eh)            E(eV)
   0   2.0000     -89.110006     -2424.8065
   1   2.0000     -24.777072      -674.2184
   2   2.0000     -19.134242      -520.6692
   3   2.0000     -19.123163      -520.3677
   4   2.0000     -10.241622      -278.6887
   5   2.0000     -10.202623      -277.6275
   6   2.0000      -8.173112      -222.4017
   7   2.0000      -6.145314      -167.2225
   8   2.0000      -6.139138      -167.0545
   9   2.0000      -6.138017      -167.0239
  10   2.0000      -1.332461       -36.2581
  11   2.0000      -1.097884       -29.8749
  12   2.0000      -0.995824       -27.0977
  13   2.0000      -0.816784       -22.2258
  14   2.0000      -0.715540       -19.4708
  15   2.0000      -0.662213       -18.0197
  16   2.0000      -0.571070       -15.5396
  17   2.0000      -0.553698       -15.0669
  18   2.0000      -0.539734       -14.6869
  19   2.0000      -0.490300       -13.3417
  20   2.0000      -0.474052       -12.8996
  21   2.0000      -0.445014       -12.1094
  22   2.0000      -0.422673       -11.5015
  23   2.0000      -0.402356       -10.9487
  24   2.0000      -0.394297       -10.7294
  25   2.0000      -0.373346       -10.1593
  26   2.0000      -0.323570        -8.8048
  27   2.0000      -0.315478        -8.5846
  28   2.0000      -0.298596        -8.1252
  29   0.0000       0.032647         0.8884
  30   0.0000       0.042979         1.1695
  31   0.0000       0.076211         2.0738
  32   0.0000       0.087951         2.3933
  33   0.0000       0.100364         2.7311

MULLIKEN ATOMIC CHARGES
-----------------------
   0 C :   -0.126790
   1 S :    0.964515
   2 O :   -0.470010
   3 F :   -0.212037
   4 O :   -0.432551
   5 C :    0.053993
   6 H :    0.053005
   7 H :    0.075998
   8 H :    0.044805
   9 H :    0.025708
  10 H :    0.023362
Sum of atomic charges:   -0.0000000

LOEWDIN ATOMIC CHARGES
----------------------
   0 C :   -0.145292
   1 S :    1.173839
   2 O :   -0.514001
   3 F :   -0.160232
   4 O :   -0.476870
   5 C :   -0.045698
   6 H :    0.030526
   7 H :    0.045031
   8 H :    0.033574
   9 H :    0.027618
  10 H :    0.031505

  Mayer bond orders larger than 0.100000
B(  0-C ,  1-S ) :   0.9033 B(  0-C ,  5-C ) :   1.0835 B(  0-C ,  6-H ) :   0.9334
B(  0-C ,  7-H ) :   0.9371 B(  1-S ,  2-O ) :   1.7535 B(  1-S ,  3-F ) :   0.9744
B(  1-S ,  4-O ) :   1.7927 B(  5-C ,  8-H ) :   0.9660 B(  5-C ,  9-H ) :   0.9700
B(  5-C , 10-H ) :   0.9554

Dispersion correction           -0.015892975
FINAL SINGLE POINT ENERGY      -727.043906552067

DIPOLE MOMENT
-------------
                                X             Y             Z
Electronic contribution:      7.02029      -5.00129      -4.32506
Nuclear contribution   :     -7.60849       4.87515       5.84588
                        -----------------------------------------
Total Dipole Moment    :     -0.58819      -0.12613       1.52082
                        -----------------------------------------
Magnitude (a.u.)       :      1.63547
Magnitude (Debye)      :      4.15704

Rotational constants in cm-1:     0.153704     0.080342     0.079431
Rotational constants in MHz :  4607.928650  2408.599360  2381.267225

                             ****ORCA TERMINATED NORMALLY****
TOTAL RUN TIME: 0 days 0 hours 0 minutes 12 seconds 348 msec
