                         Program Version 5.0.0 -  RELEASE  -
|  1> !B3LYP D3BJ RIJCOSX def2-SVP def2/J TightSCF
|  2> *xyz 0 1
|  3> C         -7.33044       -2.67899       -3.20681
|  4> S         -6.01966       -2.92697       -4.41913
|  5> O         -5.64583       -1.58838       -4.91931
|  6> O         -4.88196       -3.50370       -3.66724
|  7> F         -6.54927       -3.80515       -5.42507
|  8> C         -7.46900       -1.24615       -2.71383
|  9> H         -7.11825       -3.37982       -2.39805
| 10> H         -8.24184       -3.00474       -3.70651
| 11> H         -7.67580       -0.60214       -3.54292
| 12> H         -6.55749       -0.94096       -2.24382
| 13> H         -8.27114       -1.18777       -2.00810
| 14> *
| 15> %MaxCore 64000
| 16>
| 17> %pal nprocs 4
| 18> end
| 19>
| 20> %scf
| 21>   MaxIter 150
| 22> end
| 23>
| 24>
| 25>                          ****END OF INPUT****

CARTESIAN COORDINATES (ANGSTROEM)
---------------------------------
  C     -7.330440   -2.678990   -3.206810
  S     -6.019660   -2.926970   -4.419130
  O     -5.645830   -1.588380   -4.919310
  O     -4.881960   -3.503700   -3.667240
  F     -6.549270   -3.805150   -5.425070
  C     -7.469000   -1.246150   -2.713830
  H     -7.118250   -3.379820   -2.398050
  H     -8.241840   -3.004740   -3.706510
  H     -7.675800   -0.602140   -3.542920
  H     -6.557490   -0.940960   -2.243820
  H     -8.271140   -1.187770   -2.008100

 Total Charge           Charge          ....    0
 Multiplicity           Mult            ....    1
 Number of Electrons    NEL             ....   58
 Basis Dimension        Dim             ....  113

ORBITAL ENERGIES
----------------

  NO   OCC          E(Eh)            E(eV)
   0   2.0000     -89.111199     -2424.8390
   1   2.0000     -24.799469      -674.8278
   2   2.0000     -19.122702      -520.3552
   3   2.0000     -19.118199      -520.2326
   4   2.0000     -10.242232      -278.7053
   5   2.0000     -10.202623      -277.6275
   6   2.0000      -8.174479      -222.4389
   7   2.0000      -6.146911      -167.2660
   8   2.0000      -6.140251      -167.0847
   9   2.0000      -6.139131      -167.0543
  10   2.0000      -1.370660       -37.2976
  11   2.0000      -1.081171       -29.4201
  12   2.0000      -0.977123       -26.5889
  13   2.0000      -0.816872       -22.2282
  14   2.0000      -0.729557       -19.8523
  15   2.0000      -0.670614       -18.2483
  16   2.0000      -0.584653       -15.9092
  17   2.0000      -0.580944       -15.8083
  18   2.0000      -0.545692       -14.8490
  19   2.0000      -0.492644       -13.4055
  20   2.0000      -0.471288       -12.8244
  21   2.0000      -0.435877       -11.8608
  22   2.0000      -0.418610       -11.3910
  23   2.0000      -0.404321       -11.0021
  24   2.0000      -0.388464       -10.5706
  25   2.0000      -0.365202        -9.9376
  26   2.0000      -0.314259        -8.5514
  27   2.0000      -0.305758        -8.3201
  28   2.0000      -0.283800        -7.7226
  29   0.0000       0.035530         0.9668
  30   0.0000       0.040709         1.1078
  31   0.0000       0.072442         1.9713
  32   0.0000       0.089813         2.4439
  33   0.0000       0.096239         2.6188

MULLIKEN ATOMIC CHARGES
-----------------------
   0 C :   -0.120310
   1 S :    0.954743
   2 O :   -0.464922
   3 O :   -0.476306
   4 F :   -0.167129
   5 C :    0.056748
   6 H :    0.071520
   7 H :    0.043091
   8 H :    0.034944
   9 H :    0.042584
  10 H :    0.025037
Sum of atomic charges:    0.0000000

LOEWDIN ATOMIC CHARGES
----------------------
   0 C :   -0.144406
   1 S :    1.166849
   2 O :   -0.510554
   3 O :   -0.520919
   4 F :   -0.115039
   5 C :   -0.040245
   6 H :    0.041059
   7 H :    0.025714
   8 H :    0.030569
   9 H :    0.034457
  10 H :    0.032515

  Mayer bond orders larger than 0.100000
B(  0-C ,  1-S ) :   0.9047 B(  0-C ,  5-C ) :   1.0930 B(  0-C ,  6-H ) :   0.9331
B(  0-C ,  7-H ) :   0.9315 B(  1-S ,  2-O ) :   1.7482 B(  1-S ,  3-O ) :   1.7364
B(  1-S ,  4-F ) :   1.0263 B(  5-C ,  8-H ) :   0.9641 B(  5-C ,  9-H ) :   0.9699
B(  5-C , 10-H ) :   0.9562

Dispersion correction           -0.015916971
FINAL SINGLE POINT ENERGY      -727.024096042464

DIPOLE MOMENT
-------------
                                X             Y             Z
Electronic contribution:      4.18711      -5.49580      -7.31643
Nuclear contribution   :     -5.87110       5.18927       7.67759
                        -----------------------------------------
Total Dipole Moment    :     -1.68399      -0.30653       0.36116
                        -----------------------------------------
Magnitude (a.u.)       :      1.74935
Magnitude (Debye)      :      4.44650

Rotational constants in cm-1:     0.155988     0.080452     0.078187
Rotational constants in MHz :  4676.405251  2411.902056  2343.983816

                             ****ORCA TERMINATED NORMALLY****
TOTAL RUN TIME: 0 days 0 hours 0 minutes 12 seconds 574 msec
