                         Program Version 5.0.0 -  RELEASE  -
|  1> !B3LYP D3BJ RIJCOSX def2-TZVP def2/J TightSCF xyzfile
|  2>
|  3> *xyzfile 0 1 D1.xyz
|  4>
|  5> %MaxCore 64000
|  6>
|  7> %pal nprocs 18
|  8> end
|  9>
| 10> %scf
| 11>   MaxIter 150
| 12> end
| 13>
| 14>
| 15>                          ****END OF INPUT****

CARTESIAN COORDINATES (ANGSTROEM)
---------------------------------
  C     -2.160376   -1.369486   -3.467104
  C     -3.030108   -1.910857   -4.541074
  C     -2.047717    0.146583   -3.511774
  C     -7.330440   -2.678991   -3.206811
  S     -6.019659   -2.926965   -4.419128
  H     -3.477443   -2.791513   -4.257096
  H     -2.538013   -2.017860   -5.438075
  H     -3.891589   -1.376039   -4.714365
  F     -5.645830   -1.588384   -4.919307
  O     -4.881961   -3.503697   -3.667235
  H     -1.184438   -1.843997   -3.566393
  H     -2.598195   -1.708376   -2.528477
  O     -6.549267   -3.805150   -5.425071
  C     -3.328755    0.875037   -3.103669
  H     -1.740034    0.452343   -4.517126
  H     -1.232611    0.434938   -2.842208
  C     -3.628487    0.771601   -1.609363
  H     -4.175106    0.490791   -3.682203
  H     -3.237812    1.928663   -3.381480
  C     -4.975718    1.361432   -1.190644
  H     -2.830700    1.276234   -1.054766
  H     -3.594312   -0.275838   -1.294603
  C     -6.184720    0.784347   -1.926464
  H     -4.956292    2.445725   -1.342200
  H     -5.097256    1.205252   -0.114136
  C     -6.286921   -0.735882   -1.893531
  H     -6.163994    1.100199   -2.974250
  H     -7.094530    1.223459   -1.504509
  C     -7.468999   -1.246153   -2.713833
  H     -6.360641   -1.090347   -0.859176
  H     -5.369848   -1.171853   -2.295982
  H     -7.601914   -0.601349   -3.585329
  H     -8.389791   -1.173436   -2.126922
  H     -7.118254   -3.379818   -2.398055
  H     -8.241838   -3.004745   -3.706513

 Total Charge           Charge          ....    0
 Multiplicity           Mult            ....    1
 Number of Electrons    NEL             ....  122
 Basis Dimension        Dim             ....  566

ORBITAL ENERGIES
----------------

  NO   OCC          E(Eh)            E(eV)
   0   2.0000     -89.100845     -2424.5572
   1   2.0000     -24.789718      -674.5625
   2   2.0000     -19.143710      -520.9268
   3   2.0000     -19.128840      -520.5222
   4   2.0000     -10.231447      -278.4118
   5   2.0000     -10.201002      -277.5834
   6   2.0000     -10.179780      -277.0059
   7   2.0000     -10.172150      -276.7983
   8   2.0000     -10.165328      -276.6126
   9   2.0000     -10.158401      -276.4241
  10   2.0000     -10.155954      -276.3576
  11   2.0000     -10.148536      -276.1557
  12   2.0000     -10.138356      -275.8787
  13   2.0000     -10.090802      -274.5847
  14   2.0000      -8.144980      -221.6362
  15   2.0000      -6.111863      -166.3122
  16   2.0000      -6.105217      -166.1314
  17   2.0000      -6.105086      -166.1278
  18   2.0000      -1.364411       -37.1275
  19   2.0000      -1.113063       -30.2880
  20   2.0000      -1.017764       -27.6948
  21   2.0000      -0.845967       -23.0199
  22   2.0000      -0.814585       -22.1660
  23   2.0000      -0.786507       -21.4019
  24   2.0000      -0.759627       -20.6705
  25   2.0000      -0.721474       -19.6323
  26   2.0000      -0.706298       -19.2193
  27   2.0000      -0.670503       -18.2453
  28   2.0000      -0.636563       -17.3218
  29   2.0000      -0.619971       -16.8703
  30   2.0000      -0.590920       -16.0797
  31   2.0000      -0.582091       -15.8395
  32   2.0000      -0.567145       -15.4328
  33   2.0000      -0.551703       -15.0126
  34   2.0000      -0.545203       -14.8357
  35   2.0000      -0.497054       -13.5255
  36   2.0000      -0.490303       -13.3418
  37   2.0000      -0.476381       -12.9630
  38   2.0000      -0.467755       -12.7283
  39   2.0000      -0.462253       -12.5786
  40   2.0000      -0.449934       -12.2433
  41   2.0000      -0.437540       -11.9061
  42   2.0000      -0.432684       -11.7739
  43   2.0000      -0.426641       -11.6095
  44   2.0000      -0.410535       -11.1712
  45   2.0000      -0.396248       -10.7825
  46   2.0000      -0.391130       -10.6432
  47   2.0000      -0.387618       -10.5476
  48   2.0000      -0.376360       -10.2413
  49   2.0000      -0.366860        -9.9828
  50   2.0000      -0.356842        -9.7102
  51   2.0000      -0.353116        -9.6088
  52   2.0000      -0.340404        -9.2629
  53   2.0000      -0.336064        -9.1448
  54   2.0000      -0.330613        -8.9965
  55   2.0000      -0.324237        -8.8229
  56   2.0000      -0.316411        -8.6100
  57   2.0000      -0.314882        -8.5684
  58   2.0000      -0.304852        -8.2954
  59   2.0000      -0.302438        -8.2298
  60   2.0000      -0.277553        -7.5526
  61   0.0000      -0.001310        -0.0356
  62   0.0000       0.031524         0.8578
  63   0.0000       0.041229         1.1219
  64   0.0000       0.043331         1.1791
  65   0.0000       0.050873         1.3843

MULLIKEN ATOMIC CHARGES
-----------------------
   0 C :   -0.151844
   1 C :   -0.410804
   2 C :   -0.084715
   3 C :   -0.218909
   4 S :    0.913438
   5 H :    0.174318
   6 H :    0.096315
   7 H :    0.081886
   8 F :   -0.134074
   9 O :   -0.454927
  10 H :    0.079035
  11 H :    0.082166
  12 O :   -0.417386
  13 C :   -0.213506
  14 H :    0.077030
  15 H :    0.070638
  16 C :   -0.208756
  17 H :    0.081166
  18 H :    0.084688
  19 C :   -0.124558
  20 H :    0.090336
  21 H :    0.101771
  22 C :   -0.183350
  23 H :    0.086196
  24 H :    0.086832
  25 C :   -0.273449
  26 H :    0.100649
  27 H :    0.091660
  28 C :   -0.183497
  29 H :    0.095824
  30 H :    0.134135
  31 H :    0.113126
  32 H :    0.112729
  33 H :    0.146265
  34 H :    0.159573
Sum of atomic charges:    0.0000000

LOEWDIN ATOMIC CHARGES
----------------------
   0 C :   -0.294242
   1 C :   -0.335260
   2 C :   -0.261942
   3 C :   -0.350460
   4 S :    0.580137
   5 H :    0.102013
   6 H :    0.100830
   7 H :    0.090737
   8 F :    0.072928
   9 O :   -0.279437
  10 H :    0.132056
  11 H :    0.130041
  12 O :   -0.254096
  13 C :   -0.261992
  14 H :    0.132690
  15 H :    0.131362
  16 C :   -0.265217
  17 H :    0.127540
  18 H :    0.132306
  19 C :   -0.262677
  20 H :    0.134515
  21 H :    0.131985
  22 C :   -0.267354
  23 H :    0.134620
  24 H :    0.133721
  25 C :   -0.266128
  26 H :    0.133071
  27 H :    0.134416
  28 C :   -0.284315
  29 H :    0.136752
  30 H :    0.137182
  31 H :    0.138962
  32 H :    0.143348
  33 H :    0.149136
  34 H :    0.142772

  Mayer bond orders larger than 0.100000
B(  0-C ,  1-C ) :   0.9358 B(  0-C ,  2-C ) :   0.9550 B(  0-C , 10-H ) :   0.9707
B(  0-C , 11-H ) :   0.9954 B(  1-C ,  5-H ) :   0.9623 B(  1-C ,  6-H ) :   0.9640
B(  1-C ,  7-H ) :   0.9936 B(  2-C , 13-C ) :   0.9802 B(  2-C , 14-H ) :   0.9642
B(  2-C , 15-H ) :   0.9668 B(  3-C ,  4-S ) :   0.9062 B(  3-C , 28-C ) :   0.9612
B(  3-C , 33-H ) :   0.9432 B(  3-C , 34-H ) :   0.9517 B(  4-S ,  8-F ) :   1.0688
B(  4-S ,  9-O ) :   1.7891 B(  4-S , 12-O ) :   1.9671 B( 13-C , 16-C ) :   0.9620
B( 13-C , 17-H ) :   0.9807 B( 13-C , 18-H ) :   0.9648 B( 16-C , 19-C ) :   0.9603
B( 16-C , 20-H ) :   0.9646 B( 16-C , 21-H ) :   0.9802 B( 19-C , 22-C ) :   0.9735
B( 19-C , 23-H ) :   0.9711 B( 19-C , 24-H ) :   0.9732 B( 22-C , 25-C ) :   0.9411
B( 22-C , 26-H ) :   0.9762 B( 22-C , 27-H ) :   0.9682 B( 25-C , 28-C ) :   0.9260
B( 25-C , 29-H ) :   0.9586 B( 25-C , 30-H ) :   0.9954 B( 28-C , 31-H ) :   0.9788
B( 28-C , 32-H ) :   0.9529

Dispersion correction           -0.067108340
FINAL SINGLE POINT ENERGY     -1042.027412869399

DIPOLE MOMENT
-------------
                                X             Y             Z
Electronic contribution:    -10.86355     -16.21381     -13.19176
Nuclear contribution   :      9.63012      17.20461      14.03552
                        -----------------------------------------
Total Dipole Moment    :     -1.23343       0.99079       0.84376
                        -----------------------------------------
Magnitude (a.u.)       :      1.79303
Magnitude (Debye)      :      4.55752

Rotational constants in cm-1:     0.025899     0.015189     0.010690
Rotational constants in MHz :   776.424978   455.369614   320.488876

                             ****ORCA TERMINATED NORMALLY****
TOTAL RUN TIME: 0 days 0 hours 1 minutes 19 seconds 588 msec
