                         Program Version 5.0.0 -  RELEASE  -
|  1> !B3LYP D3BJ RIJCOSX def2-TZVP def2/J TightSCF xyzfile
|  2>
|  3> *xyzfile 0 1 D3.xyz
|  4>
|  5> %MaxCore 64000
|  6>
|  7> %pal nprocs 18
|  8> end
|  9>
| 10> %scf
| 11>   MaxIter 150
| 12> end
| 13>
| 14>
| 15>                          ****END OF INPUT****

CARTESIAN COORDINATES (ANGSTROEM)
---------------------------------
  C     -2.160376   -1.369486   -3.467104
  C     -3.030108   -1.910857   -4.541074
  C     -2.047717    0.146583   -3.511774
  C     -7.330440   -2.678991   -3.206811
  S     -6.019659   -2.926965   -4.419128
  H     -3.477443   -2.791513   -4.257096
  H     -2.538013   -2.017860   -5.438075
  H     -3.891589   -1.376039   -4.714365
  O     -5.645830   -1.588384   -4.919307
  O     -4.881961   -3.503697   -3.667235
  H     -1.184438   -1.843997   -3.566393
  H     -2.598195   -1.708376   -2.528477
  F     -6.549267   -3.805150   -5.425071
  C     -3.328755    0.875037   -3.103669
  H     -1.740034    0.452343   -4.517126
  H     -1.232611    0.434938   -2.842208
  C     -3.628487    0.771601   -1.609363
  H     -4.175106    0.490791   -3.682203
  H     -3.237812    1.928663   -3.381480
  C     -4.975718    1.361432   -1.190644
  H     -2.830700    1.276234   -1.054766
  H     -3.594312   -0.275838   -1.294603
  C     -6.184720    0.784347   -1.926464
  H     -4.956292    2.445725   -1.342200
  H     -5.097256    1.205252   -0.114136
  C     -6.286921   -0.735882   -1.893531
  H     -6.163994    1.100199   -2.974250
  H     -7.094530    1.223459   -1.504509
  C     -7.468999   -1.246153   -2.713833
  H     -6.360641   -1.090347   -0.859176
  H     -5.369848   -1.171853   -2.295982
  H     -7.601914   -0.601349   -3.585329
  H     -8.389791   -1.173436   -2.126922
  H     -7.118254   -3.379818   -2.398055
  H     -8.241838   -3.004745   -3.706513

 Total Charge           Charge          ....    0
 Multiplicity           Mult            ....    1
 Number of Electrons    NEL             ....  122
 Basis Dimension        Dim             ....  566

ORBITAL ENERGIES
----------------

  NO   OCC          E(Eh)            E(eV)
   0   2.0000     -89.107075     -2424.7268
   1   2.0000     -24.811576      -675.1573
   2   2.0000     -19.136806      -520.7390
   3   2.0000     -19.133756      -520.6560
   4   2.0000     -10.233975      -278.4806
   5   2.0000     -10.194628      -277.4099
   6   2.0000     -10.168816      -276.7076
   7   2.0000     -10.161238      -276.5014
   8   2.0000     -10.155591      -276.3477
   9   2.0000     -10.147520      -276.1281
  10   2.0000     -10.141659      -275.9686
  11   2.0000     -10.135995      -275.8145
  12   2.0000     -10.124551      -275.5030
  13   2.0000     -10.069289      -273.9993
  14   2.0000      -8.151076      -221.8021
  15   2.0000      -6.117924      -166.4772
  16   2.0000      -6.111377      -166.2990
  17   2.0000      -6.111105      -166.2916
  18   2.0000      -1.396105       -37.9899
  19   2.0000      -1.105795       -30.0902
  20   2.0000      -1.008962       -27.4553
  21   2.0000      -0.839978       -22.8570
  22   2.0000      -0.805506       -21.9189
  23   2.0000      -0.776897       -21.1404
  24   2.0000      -0.757241       -20.6056
  25   2.0000      -0.724471       -19.7139
  26   2.0000      -0.698260       -19.0006
  27   2.0000      -0.662682       -18.0325
  28   2.0000      -0.627917       -17.0865
  29   2.0000      -0.608032       -16.5454
  30   2.0000      -0.599016       -16.3001
  31   2.0000      -0.590944       -16.0804
  32   2.0000      -0.565069       -15.3763
  33   2.0000      -0.559122       -15.2145
  34   2.0000      -0.532310       -14.4849
  35   2.0000      -0.498464       -13.5639
  36   2.0000      -0.488113       -13.2822
  37   2.0000      -0.470619       -12.8062
  38   2.0000      -0.467461       -12.7203
  39   2.0000      -0.457760       -12.4563
  40   2.0000      -0.444415       -12.0932
  41   2.0000      -0.431123       -11.7315
  42   2.0000      -0.420258       -11.4358
  43   2.0000      -0.415602       -11.3091
  44   2.0000      -0.402851       -10.9621
  45   2.0000      -0.386678       -10.5220
  46   2.0000      -0.381834       -10.3902
  47   2.0000      -0.376984       -10.2583
  48   2.0000      -0.365229        -9.9384
  49   2.0000      -0.353120        -9.6089
  50   2.0000      -0.347904        -9.4670
  51   2.0000      -0.338458        -9.2099
  52   2.0000      -0.333352        -9.0710
  53   2.0000      -0.330763        -9.0005
  54   2.0000      -0.322858        -8.7854
  55   2.0000      -0.313060        -8.5188
  56   2.0000      -0.308173        -8.3858
  57   2.0000      -0.304115        -8.2754
  58   2.0000      -0.289701        -7.8832
  59   2.0000      -0.280380        -7.6295
  60   2.0000      -0.265678        -7.2295
  61   0.0000       0.011737         0.3194
  62   0.0000       0.017449         0.4748
  63   0.0000       0.043321         1.1788
  64   0.0000       0.044272         1.2047
  65   0.0000       0.052136         1.4187

MULLIKEN ATOMIC CHARGES
-----------------------
   0 C :   -0.151741
   1 C :   -0.398870
   2 C :   -0.079590
   3 C :   -0.245449
   4 S :    0.910006
   5 H :    0.140055
   6 H :    0.080355
   7 H :    0.138191
   8 O :   -0.451024
   9 O :   -0.446014
  10 H :    0.069426
  11 H :    0.074160
  12 F :   -0.104352
  13 C :   -0.223260
  14 H :    0.072465
  15 H :    0.063762
  16 C :   -0.211136
  17 H :    0.116727
  18 H :    0.076701
  19 C :   -0.119677
  20 H :    0.085010
  21 H :    0.098090
  22 C :   -0.195840
  23 H :    0.082436
  24 H :    0.081795
  25 C :   -0.257190
  26 H :    0.110102
  27 H :    0.083906
  28 C :   -0.130358
  29 H :    0.087506
  30 H :    0.139290
  31 H :    0.112360
  32 H :    0.108593
  33 H :    0.144150
  34 H :    0.139415
Sum of atomic charges:    0.0000000

LOEWDIN ATOMIC CHARGES
----------------------
   0 C :   -0.298220
   1 C :   -0.335281
   2 C :   -0.262633
   3 C :   -0.360994
   4 S :    0.575827
   5 H :    0.098522
   6 H :    0.096507
   7 H :    0.100543
   8 O :   -0.270461
   9 O :   -0.277122
  10 H :    0.128437
  11 H :    0.127823
  12 F :    0.104757
  13 C :   -0.261573
  14 H :    0.131918
  15 H :    0.128863
  16 C :   -0.265969
  17 H :    0.135654
  18 H :    0.130387
  19 C :   -0.263548
  20 H :    0.132699
  21 H :    0.131072
  22 C :   -0.266235
  23 H :    0.133668
  24 H :    0.131963
  25 C :   -0.262897
  26 H :    0.136772
  27 H :    0.132123
  28 C :   -0.274299
  29 H :    0.133198
  30 H :    0.141606
  31 H :    0.145160
  32 H :    0.142692
  33 H :    0.145206
  34 H :    0.133834

  Mayer bond orders larger than 0.100000
B(  0-C ,  1-C ) :   0.9373 B(  0-C ,  2-C ) :   0.9612 B(  0-C , 10-H ) :   0.9697
B(  0-C , 11-H ) :   0.9941 B(  1-C ,  5-H ) :   0.9660 B(  1-C ,  6-H ) :   0.9682
B(  1-C ,  7-H ) :   0.9838 B(  2-C , 13-C ) :   0.9811 B(  2-C , 14-H ) :   0.9628
B(  2-C , 15-H ) :   0.9672 B(  3-C ,  4-S ) :   0.9039 B(  3-C , 28-C ) :   0.9559
B(  3-C , 33-H ) :   0.9406 B(  3-C , 34-H ) :   0.9481 B(  4-S ,  8-O ) :   1.8207
B(  4-S ,  9-O ) :   1.8175 B(  4-S , 12-F ) :   1.1403 B( 13-C , 16-C ) :   0.9652
B( 13-C , 17-H ) :   0.9778 B( 13-C , 18-H ) :   0.9634 B( 16-C , 19-C ) :   0.9618
B( 16-C , 20-H ) :   0.9648 B( 16-C , 21-H ) :   0.9797 B( 19-C , 22-C ) :   0.9743
B( 19-C , 23-H ) :   0.9704 B( 19-C , 24-H ) :   0.9732 B( 22-C , 25-C ) :   0.9572
B( 22-C , 26-H ) :   0.9766 B( 22-C , 27-H ) :   0.9671 B( 25-C , 28-C ) :   0.9578
B( 25-C , 29-H ) :   0.9597 B( 25-C , 30-H ) :   0.9829 B( 28-C , 31-H ) :   0.9639
B( 28-C , 32-H ) :   0.9499

Dispersion correction           -0.067753719
FINAL SINGLE POINT ENERGY     -1042.012935774473

DIPOLE MOMENT
-------------
                                X             Y             Z
Electronic contribution:    -12.64958     -20.29083     -14.32352
Nuclear contribution   :     10.70731      19.84772      14.63855
                        -----------------------------------------
Total Dipole Moment    :     -1.94227      -0.44311       0.31503
                        -----------------------------------------
Magnitude (a.u.)       :      2.01693
Magnitude (Debye)      :      5.12663

Rotational constants in cm-1:     0.026014     0.014812     0.010477
Rotational constants in MHz :   779.874765   444.063394   314.081855

                             ****ORCA TERMINATED NORMALLY****
TOTAL RUN TIME: 0 days 0 hours 1 minutes 2 seconds 644 msec
