                         Program Version 5.0.0 -  RELEASE  -
|  1> !BLYP D3BJ RIJCOSX def2-SVPD def2/J TightSCF
|  2> *xyz -1 1
|  3> C         -0.05517        1.61942       -3.78858
|  4> C          1.22302        2.46987       -3.75691
|  5> H          1.11470        3.25807       -4.53300
|  6> H          1.23773        3.01124       -2.79216
|  7> O          2.35381        1.71203       -3.93448
|  8> H         -0.10198        1.08015       -4.71156
|  9> H         -0.91014        2.25726       -3.70441
| 10> H         -0.04403        0.92826       -2.97183
| 11> *
| 12>
| 13> %MaxCore 64000
| 14>
| 15> %pal nprocs 4
| 16> end
| 17>
| 18> %scf
| 19>   MaxIter 150
| 20> end
| 21>
| 22>
| 23>                          ****END OF INPUT****

CARTESIAN COORDINATES (ANGSTROEM)
---------------------------------
  C     -0.055170    1.619420   -3.788580
  C      1.223020    2.469870   -3.756910
  H      1.114700    3.258070   -4.533000
  H      1.237730    3.011240   -2.792160
  O      2.353810    1.712030   -3.934480
  H     -0.101980    1.080150   -4.711560
  H     -0.910140    2.257260   -3.704410
  H     -0.044030    0.928260   -2.971830

 Total Charge           Charge          ....   -1
 Multiplicity           Mult            ....    1
 Number of Electrons    NEL             ....   26
 Basis Dimension        Dim             ....  103

ORBITAL ENERGIES
----------------

  NO   OCC          E(Eh)            E(eV)
   0   2.0000     -18.470166      -502.5988
   1   2.0000      -9.739443      -265.0237
   2   2.0000      -9.716140      -264.3896
   3   2.0000      -0.586436       -15.9577
   4   2.0000      -0.445719       -12.1286
   5   2.0000      -0.305589        -8.3155
   6   2.0000      -0.200480        -5.4553
   7   2.0000      -0.178200        -4.8491
   8   2.0000      -0.129583        -3.5261
   9   2.0000      -0.113160        -3.0792
  10   2.0000      -0.068421        -1.8618
  11   2.0000       0.068114         1.8535
  12   2.0000       0.071266         1.9393
  13   0.0000       0.162764         4.4290
  14   0.0000       0.192009         5.2248
  15   0.0000       0.222646         6.0585
  16   0.0000       0.235487         6.4079
  17   0.0000       0.254928         6.9370

MULLIKEN ATOMIC CHARGES
-----------------------
   0 C :    0.595609
   1 C :    0.338197
   2 H :   -0.272932
   3 H :   -0.291828
   4 O :   -0.821397
   5 H :   -0.195574
   6 H :   -0.161149
   7 H :   -0.190926
Sum of atomic charges:   -1.0000000

LOEWDIN ATOMIC CHARGES
----------------------
   0 C :    0.072151
   1 C :   -0.259825
   2 H :   -0.044214
   3 H :   -0.045536
   4 O :   -0.545862
   5 H :   -0.050708
   6 H :   -0.074129
   7 H :   -0.051877

  Mayer bond orders larger than 0.100000
B(  0-C ,  1-C ) :   1.1589 B(  0-C ,  2-H ) :   0.1875 B(  0-C ,  3-H ) :   0.1861
B(  0-C ,  4-O ) :   0.3085 B(  0-C ,  5-H ) :   0.8461 B(  0-C ,  6-H ) :   0.8824
B(  0-C ,  7-H ) :   0.8468 B(  1-C ,  2-H ) :   0.9151 B(  1-C ,  3-H ) :   0.9201
B(  1-C ,  4-O ) :   1.1515 B(  1-C ,  5-H ) :   0.2334 B(  1-C ,  6-H ) :   0.1772
B(  1-C ,  7-H ) :   0.2229 B(  2-H ,  3-H ) :   0.1038

Dispersion correction           -0.007748558
FINAL SINGLE POINT ENERGY      -154.268023851816

DIPOLE MOMENT
-------------
                                X             Y             Z
Electronic contribution:      2.89885      -0.53646      -0.26033
Nuclear contribution   :     -4.28298       0.81046       0.39340
                        -----------------------------------------
Total Dipole Moment    :     -1.38412       0.27401       0.13307
                        -----------------------------------------
Magnitude (a.u.)       :      1.41725
Magnitude (Debye)      :      3.60236

Rotational constants in cm-1:     1.266793     0.328147     0.288309
Rotational constants in MHz : 37977.512300  9837.594308  8643.275638

                             ****ORCA TERMINATED NORMALLY****
TOTAL RUN TIME: 0 days 0 hours 0 minutes 9 seconds 828 msec
