                         Program Version 5.0.0 -  RELEASE  -
|  1> !BLYP D3BJ RIJCOSX def2-SVPD def2/J TightSCF
|  2> *xyz 1 1
|  3> C          1.63556       -1.67040       -5.29211
|  4> C          0.33848       -1.50091       -4.50540
|  5> N          2.48451       -0.50741       -5.14039
|  6> H          1.39834       -1.82924       -6.35259
|  7> H          2.15586       -2.56540       -4.93209
|  8> C          3.45115       -0.14953       -5.95259
|  9> N          3.92267        1.08956       -5.85071
| 10> N          3.96616       -1.00618       -6.86788
| 11> H          3.52139       -1.90647       -6.99527
| 12> H          4.44482       -0.62347       -7.67035
| 13> H          2.25200        0.24080       -4.49879
| 14> H          3.46428        1.64078       -5.13639
| 15> H          4.83447        1.31375       -6.22465
| 16> H         -0.17658       -0.62881       -4.85045
| 17> H          0.56384       -1.39374       -3.46490
| 18> H         -0.28102       -2.36136       -4.64938
| 19> *
| 20>
| 21> %MaxCore 64000
| 22>
| 23> %pal nprocs 4
| 24> end
| 25>
| 26> %scf
| 27>   MaxIter 150
| 28> end
| 29>
| 30>
| 31>                          ****END OF INPUT****

CARTESIAN COORDINATES (ANGSTROEM)
---------------------------------
  C      1.635560   -1.670400   -5.292110
  C      0.338480   -1.500910   -4.505400
  N      2.484510   -0.507410   -5.140390
  H      1.398340   -1.829240   -6.352590
  H      2.155860   -2.565400   -4.932090
  C      3.451150   -0.149530   -5.952590
  N      3.922670    1.089560   -5.850710
  N      3.966160   -1.006180   -6.867880
  H      3.521390   -1.906470   -6.995270
  H      4.444820   -0.623470   -7.670350
  H      2.252000    0.240800   -4.498790
  H      3.464280    1.640780   -5.136390
  H      4.834470    1.313750   -6.224650
  H     -0.176580   -0.628810   -4.850450
  H      0.563840   -1.393740   -3.464900
  H     -0.281020   -2.361360   -4.649380

 Total Charge           Charge          ....    1
 Multiplicity           Mult            ....    1
 Number of Electrons    NEL             ....   48
 Basis Dimension        Dim             ....  200

ORBITAL ENERGIES
----------------

  NO   OCC          E(Eh)            E(eV)
   0   2.0000     -14.249642      -387.7525
   1   2.0000     -14.246656      -387.6712
   2   2.0000     -14.245166      -387.6307
   3   2.0000     -10.245837      -278.8034
   4   2.0000     -10.131984      -275.7053
   5   2.0000     -10.063818      -273.8504
   6   2.0000      -1.119168       -30.4541
   7   2.0000      -1.014203       -27.5979
   8   2.0000      -1.001790       -27.2601
   9   2.0000      -0.855902       -23.2903
  10   2.0000      -0.763890       -20.7865
  11   2.0000      -0.747323       -20.3357
  12   2.0000      -0.718341       -19.5470
  13   2.0000      -0.686795       -18.6887
  14   2.0000      -0.639537       -17.4027
  15   2.0000      -0.633251       -17.2316
  16   2.0000      -0.607611       -16.5339
  17   2.0000      -0.592039       -16.1102
  18   2.0000      -0.551360       -15.0033
  19   2.0000      -0.501040       -13.6340
  20   2.0000      -0.486434       -13.2365
  21   2.0000      -0.475901       -12.9499
  22   2.0000      -0.433878       -11.8064
  23   2.0000      -0.413257       -11.2453
  24   0.0000      -0.202302        -5.5049
  25   0.0000      -0.180497        -4.9116
  26   0.0000      -0.149309        -4.0629
  27   0.0000      -0.131901        -3.5892
  28   0.0000      -0.115624        -3.1463

MULLIKEN ATOMIC CHARGES
-----------------------
   0 C :    0.251633
   1 C :    1.239760
   2 N :   -0.259834
   3 H :   -0.186466
   4 H :   -0.201252
   5 C :    0.882167
   6 N :    0.287998
   7 N :    0.195071
   8 H :   -0.088371
   9 H :   -0.155953
  10 H :   -0.164351
  11 H :   -0.042164
  12 H :   -0.183816
  13 H :   -0.169470
  14 H :   -0.161410
  15 H :   -0.243543
Sum of atomic charges:    1.0000000

LOEWDIN ATOMIC CHARGES
----------------------
   0 C :    0.026789
   1 C :    0.175580
   2 N :    0.058190
   3 H :    0.033814
   4 H :    0.039015
   5 C :   -0.063507
   6 N :    0.284111
   7 N :    0.302867
   8 H :    0.009885
   9 H :    0.030134
  10 H :    0.049648
  11 H :    0.027621
  12 H :    0.038555
  13 H :   -0.007580
  14 H :   -0.006174
  15 H :    0.001053

  Mayer bond orders larger than 0.100000
B(  0-C ,  1-C ) :   1.3121 B(  0-C ,  2-N ) :   1.0588 B(  0-C ,  3-H ) :   0.7655
B(  0-C ,  4-H ) :   0.7895 B(  0-C , 10-H ) :  -0.1290 B(  0-C , 13-H ) :   0.2905
B(  0-C , 14-H ) :   0.3252 B(  0-C , 15-H ) :   0.3795 B(  1-C ,  2-N ) :   0.1002
B(  1-C , 13-H ) :   0.6643 B(  1-C , 14-H ) :   0.6004 B(  1-C , 15-H ) :   0.6005
B(  2-N ,  3-H ) :   0.2039 B(  2-N ,  4-H ) :   0.1921 B(  2-N ,  5-C ) :   1.1340
B(  2-N ,  6-N ) :   0.2871 B(  2-N ,  7-N ) :   0.2270 B(  2-N , 10-H ) :   1.1513
B(  5-C ,  6-N ) :   1.0445 B(  5-C ,  7-N ) :   1.0267 B(  5-C ,  8-H ) :  -0.1325
B(  5-C ,  9-H ) :  -0.1342 B(  5-C , 10-H ) :  -0.2427 B(  5-C , 12-H ) :  -0.1229
B(  6-N ,  7-N ) :   0.1697 B(  6-N , 11-H ) :   1.0699 B(  6-N , 12-H ) :   1.2171
B(  7-N ,  8-H ) :   1.0549 B(  7-N ,  9-H ) :   1.2213 B(  8-H ,  9-H ) :  -0.1672
B( 11-H , 12-H ) :  -0.1559

Dispersion correction           -0.024363920
FINAL SINGLE POINT ENERGY      -284.103967264946

DIPOLE MOMENT
-------------
                                X             Y             Z
Electronic contribution:      4.69734       2.46386      -1.69710
Nuclear contribution   :     -3.96322      -1.85512       1.24891
                        -----------------------------------------
Total Dipole Moment    :      0.73413       0.60874      -0.44819
                        -----------------------------------------
Magnitude (a.u.)       :      1.05375
Magnitude (Debye)      :      2.67841

Rotational constants in cm-1:     0.261404     0.067000     0.054949
Rotational constants in MHz :  7836.702504  2008.609425  1647.329138

                             ****ORCA TERMINATED NORMALLY****
TOTAL RUN TIME: 0 days 0 hours 0 minutes 13 seconds 684 msec
