                         Program Version 5.0.0 -  RELEASE  -
|  1> !BLYP D3BJ RIJCOSX def2-SVPD def2/J TightSCF
|  2> *xyz 0 1
|  3> C         -0.05517        1.61942       -3.78858
|  4> C          1.22302        2.46987       -3.75691
|  5> H          1.11470        3.25807       -4.53300
|  6> H          1.23773        3.01124       -2.79216
|  7> F          2.35381        1.71203       -3.93448
|  8> H         -0.10198        1.08015       -4.71156
|  9> H         -0.91014        2.25726       -3.70441
| 10> H         -0.04403        0.92826       -2.97183
| 11> *
| 12>
| 13> %MaxCore 64000
| 14>
| 15> %pal nprocs 4
| 16> end
| 17>
| 18> %scf
| 19>   MaxIter 150
| 20> end
| 21>
| 22>
| 23>                          ****END OF INPUT****

CARTESIAN COORDINATES (ANGSTROEM)
---------------------------------
  C     -0.055170    1.619420   -3.788580
  C      1.223020    2.469870   -3.756910
  H      1.114700    3.258070   -4.533000
  H      1.237730    3.011240   -2.792160
  F      2.353810    1.712030   -3.934480
  H     -0.101980    1.080150   -4.711560
  H     -0.910140    2.257260   -3.704410
  H     -0.044030    0.928260   -2.971830

 Total Charge           Charge          ....    0
 Multiplicity           Mult            ....    1
 Number of Electrons    NEL             ....   26
 Basis Dimension        Dim             ....  103

ORBITAL ENERGIES
----------------

  NO   OCC          E(Eh)            E(eV)
   0   2.0000     -24.294197      -661.0787
   1   2.0000     -10.002140      -272.1721
   2   2.0000      -9.920910      -269.9617
   3   2.0000      -1.077228       -29.3129
   4   2.0000      -0.682445       -18.5703
   5   2.0000      -0.559782       -15.2324
   6   2.0000      -0.453305       -12.3351
   7   2.0000      -0.438475       -11.9315
   8   2.0000      -0.401125       -10.9152
   9   2.0000      -0.354045        -9.6341
  10   2.0000      -0.352485        -9.5916
  11   2.0000      -0.288020        -7.8374
  12   2.0000      -0.284116        -7.7312
  13   0.0000       0.003585         0.0976
  14   0.0000       0.034931         0.9505
  15   0.0000       0.048967         1.3325
  16   0.0000       0.058548         1.5932
  17   0.0000       0.082517         2.2454

MULLIKEN ATOMIC CHARGES
-----------------------
   0 C :    0.739284
   1 C :    0.621935
   2 H :   -0.192625
   3 H :   -0.212182
   4 F :   -0.392971
   5 H :   -0.197540
   6 H :   -0.174561
   7 H :   -0.191340
Sum of atomic charges:   -0.0000000

LOEWDIN ATOMIC CHARGES
----------------------
   0 C :    0.150703
   1 C :    0.055864
   2 H :    0.025449
   3 H :    0.023081
   4 F :   -0.196006
   5 H :   -0.019689
   6 H :   -0.018895
   7 H :   -0.020508

  Mayer bond orders larger than 0.100000
B(  0-C ,  1-C ) :   1.3311 B(  0-C ,  2-H ) :   0.1197 B(  0-C ,  3-H ) :   0.1179
B(  0-C ,  5-H ) :   0.8061 B(  0-C ,  6-H ) :   0.7807 B(  0-C ,  7-H ) :   0.8094
B(  1-C ,  2-H ) :   0.8689 B(  1-C ,  3-H ) :   0.8716 B(  1-C ,  4-F ) :   0.8197
B(  1-C ,  5-H ) :   0.1920 B(  1-C ,  6-H ) :   0.1629 B(  1-C ,  7-H ) :   0.1842

Dispersion correction           -0.007138537
FINAL SINGLE POINT ENERGY      -178.880874166287

DIPOLE MOMENT
-------------
                                X             Y             Z
Electronic contribution:      5.03230      -0.74616      -0.43405
Nuclear contribution   :     -5.66833       1.07099       0.52006
                        -----------------------------------------
Total Dipole Moment    :     -0.63603       0.32483       0.08602
                        -----------------------------------------
Magnitude (a.u.)       :      0.71934
Magnitude (Debye)      :      1.82842

Rotational constants in cm-1:     1.245689     0.305293     0.269541
Rotational constants in MHz : 37344.801915  9152.442838  8080.640229

                             ****ORCA TERMINATED NORMALLY****
TOTAL RUN TIME: 0 days 0 hours 0 minutes 7 seconds 47 msec
