                         Program Version 5.0.0 -  RELEASE  -
|  1> !BLYP D3BJ RIJCOSX def2-SVPD def2/J TightSCF
|  2> *xyz 0 1
|  3> C          1.63556       -1.67040       -5.29211
|  4> C          0.33848       -1.50091       -4.50540
|  5> C          2.48451       -0.50741       -5.14039
|  6> H          1.39834       -1.82924       -6.35259
|  7> H          2.15586       -2.56540       -4.93209
|  8> C          3.45115       -0.14953       -5.95259
|  9> N          3.92267        1.08956       -5.85071
| 10> N          3.96616       -1.00618       -6.86788
| 11> H          3.52139       -1.90647       -6.99527
| 12> H          4.44482       -0.62347       -7.67035
| 13> H          2.25200        0.24080       -4.49879
| 14> H          3.46428        1.64078       -5.13639
| 15> H          4.83447        1.31375       -6.22465
| 16> H         -0.17658       -0.62881       -4.85045
| 17> H          0.56384       -1.39374       -3.46490
| 18> H         -0.28102       -2.36136       -4.64938
| 19> *
| 20>
| 21> %MaxCore 64000
| 22>
| 23> %pal nprocs 4
| 24> end
| 25>
| 26> %scf
| 27>   MaxIter 150
| 28> end
| 29>
| 30>
| 31>                          ****END OF INPUT****

CARTESIAN COORDINATES (ANGSTROEM)
---------------------------------
  C      1.635560   -1.670400   -5.292110
  C      0.338480   -1.500910   -4.505400
  C      2.484510   -0.507410   -5.140390
  H      1.398340   -1.829240   -6.352590
  H      2.155860   -2.565400   -4.932090
  C      3.451150   -0.149530   -5.952590
  N      3.922670    1.089560   -5.850710
  N      3.966160   -1.006180   -6.867880
  H      3.521390   -1.906470   -6.995270
  H      4.444820   -0.623470   -7.670350
  H      2.252000    0.240800   -4.498790
  H      3.464280    1.640780   -5.136390
  H      4.834470    1.313750   -6.224650
  H     -0.176580   -0.628810   -4.850450
  H      0.563840   -1.393740   -3.464900
  H     -0.281020   -2.361360   -4.649380

 Total Charge           Charge          ....    0
 Multiplicity           Mult            ....    1
 Number of Electrons    NEL             ....   48
 Basis Dimension        Dim             ....  200

ORBITAL ENERGIES
----------------

  NO   OCC          E(Eh)            E(eV)
   0   2.0000     -14.025923      -381.6648
   1   2.0000     -14.020900      -381.5281
   2   2.0000      -9.956235      -270.9229
   3   2.0000      -9.900144      -269.3966
   4   2.0000      -9.892130      -269.1785
   5   2.0000      -9.846483      -267.9364
   6   2.0000      -0.860475       -23.4147
   7   2.0000      -0.779707       -21.2169
   8   2.0000      -0.690436       -18.7877
   9   2.0000      -0.618799       -16.8384
  10   2.0000      -0.541973       -14.7478
  11   2.0000      -0.518279       -14.1031
  12   2.0000      -0.478097       -13.0097
  13   2.0000      -0.454951       -12.3798
  14   2.0000      -0.417430       -11.3588
  15   2.0000      -0.387923       -10.5559
  16   2.0000      -0.377325       -10.2675
  17   2.0000      -0.344736        -9.3808
  18   2.0000      -0.328369        -8.9354
  19   2.0000      -0.296227        -8.0608
  20   2.0000      -0.287248        -7.8164
  21   2.0000      -0.285567        -7.7707
  22   2.0000      -0.218499        -5.9457
  23   2.0000      -0.129931        -3.5356
  24   0.0000      -0.004633        -0.1261
  25   0.0000       0.020040         0.5453
  26   0.0000       0.026744         0.7277
  27   0.0000       0.042380         1.1532
  28   0.0000       0.047679         1.2974

MULLIKEN ATOMIC CHARGES
-----------------------
   0 C :    0.041187
   1 C :    1.412695
   2 C :   -0.044951
   3 H :   -0.298008
   4 H :   -0.200147
   5 C :    0.255289
   6 N :    0.328460
   7 N :    0.190638
   8 H :   -0.084541
   9 H :   -0.255123
  10 H :   -0.474614
  11 H :    0.003077
  12 H :   -0.302043
  13 H :   -0.139834
  14 H :   -0.139017
  15 H :   -0.293067
Sum of atomic charges:   -0.0000000

LOEWDIN ATOMIC CHARGES
----------------------
   0 C :   -0.107954
   1 C :    0.124898
   2 C :   -0.029168
   3 H :    0.010625
   4 H :    0.012853
   5 C :   -0.240006
   6 N :    0.196916
   7 N :    0.225642
   8 H :   -0.022362
   9 H :   -0.021970
  10 H :   -0.055032
  11 H :   -0.005369
  12 H :   -0.016879
  13 H :   -0.021194
  14 H :   -0.020889
  15 H :   -0.030110

  Mayer bond orders larger than 0.100000
B(  0-C ,  1-C ) :   1.1694 B(  0-C ,  2-C ) :   1.0083 B(  0-C ,  3-H ) :   0.7385
B(  0-C ,  4-H ) :   0.6109 B(  0-C , 10-H ) :   0.2673 B(  0-C , 13-H ) :   0.3079
B(  0-C , 14-H ) :   0.3187 B(  0-C , 15-H ) :   0.4324 B(  1-C ,  2-C ) :   0.1382
B(  1-C , 10-H ) :  -0.1396 B(  1-C , 13-H ) :   0.6452 B(  1-C , 14-H ) :   0.6045
B(  1-C , 15-H ) :   0.5014 B(  2-C ,  3-H ) :   0.1867 B(  2-C ,  4-H ) :   0.3297
B(  2-C ,  5-C ) :   1.4708 B(  2-C ,  6-N ) :   0.3657 B(  2-C ,  7-N ) :   0.2571
B(  2-C ,  8-H ) :  -0.1459 B(  2-C , 10-H ) :   0.6912 B(  2-C , 11-H ) :  -0.1062
B(  3-H , 10-H ) :   0.1623 B(  5-C ,  6-N ) :   1.0365 B(  5-C ,  7-N ) :   1.0859
B(  5-C , 10-H ) :   0.1415 B(  6-N ,  7-N ) :   0.1237 B(  6-N , 11-H ) :   1.0450
B(  6-N , 12-H ) :   1.1895 B(  7-N ,  8-H ) :   1.0587 B(  7-N ,  9-H ) :   1.2010
B(  8-H ,  9-H ) :  -0.1405 B( 11-H , 12-H ) :  -0.1558

Dispersion correction           -0.025483976
FINAL SINGLE POINT ENERGY      -267.624931265725

DIPOLE MOMENT
-------------
                                X             Y             Z
Electronic contribution:      4.52619       2.16326      -1.88893
Nuclear contribution   :     -3.99655      -1.83277       1.34879
                        -----------------------------------------
Total Dipole Moment    :      0.52964       0.33049      -0.54014
                        -----------------------------------------
Magnitude (a.u.)       :      0.82553
Magnitude (Debye)      :      2.09833

Rotational constants in cm-1:     0.262971     0.067064     0.055026
Rotational constants in MHz :  7883.664566  2010.513309  1649.636654

                             ****ORCA TERMINATED NORMALLY****
TOTAL RUN TIME: 0 days 0 hours 0 minutes 12 seconds 972 msec
