                         Program Version 5.0.0 -  RELEASE  -
|  1> !BLYP D3BJ RIJCOSX def2-SVPD def2/J TightSCF
|  2> *xyz 0 1
|  3> C          1.63556       -1.67040       -5.29211
|  4> C          0.33848       -1.50091       -4.50540
|  5> N          2.48451       -0.50741       -5.14039
|  6> H          1.39834       -1.82924       -6.35259
|  7> H          2.15586       -2.56540       -4.93209
|  8> C          3.45115       -0.14953       -5.95259
|  9> C          3.92267        1.08956       -5.85071
| 10> N          3.96616       -1.00618       -6.86788
| 11> H          3.52139       -1.90647       -6.99527
| 12> H          4.44482       -0.62347       -7.67035
| 13> H          2.25200        0.24080       -4.49879
| 14> H          3.46428        1.64078       -5.13639
| 15> H          4.83447        1.31375       -6.22465
| 16> H         -0.17658       -0.62881       -4.85045
| 17> H          0.56384       -1.39374       -3.46490
| 18> H         -0.28102       -2.36136       -4.64938
| 19> *
| 20>
| 21> %MaxCore 64000
| 22>
| 23> %pal nprocs 4
| 24> end
| 25>
| 26> %scf
| 27>   MaxIter 150
| 28> end
| 29>
| 30>
| 31>                          ****END OF INPUT****

CARTESIAN COORDINATES (ANGSTROEM)
---------------------------------
  C      1.635560   -1.670400   -5.292110
  C      0.338480   -1.500910   -4.505400
  N      2.484510   -0.507410   -5.140390
  H      1.398340   -1.829240   -6.352590
  H      2.155860   -2.565400   -4.932090
  C      3.451150   -0.149530   -5.952590
  C      3.922670    1.089560   -5.850710
  N      3.966160   -1.006180   -6.867880
  H      3.521390   -1.906470   -6.995270
  H      4.444820   -0.623470   -7.670350
  H      2.252000    0.240800   -4.498790
  H      3.464280    1.640780   -5.136390
  H      4.834470    1.313750   -6.224650
  H     -0.176580   -0.628810   -4.850450
  H      0.563840   -1.393740   -3.464900
  H     -0.281020   -2.361360   -4.649380

 Total Charge           Charge          ....    0
 Multiplicity           Mult            ....    1
 Number of Electrons    NEL             ....   48
 Basis Dimension        Dim             ....  200

ORBITAL ENERGIES
----------------

  NO   OCC          E(Eh)            E(eV)
   0   2.0000     -14.023582      -381.6011
   1   2.0000     -14.023515      -381.5992
   2   2.0000      -9.963847      -271.1301
   3   2.0000      -9.959063      -270.9999
   4   2.0000      -9.924094      -270.0483
   5   2.0000      -9.833621      -267.5864
   6   2.0000      -0.871971       -23.7275
   7   2.0000      -0.791422       -21.5357
   8   2.0000      -0.695581       -18.9277
   9   2.0000      -0.623016       -16.9531
  10   2.0000      -0.558023       -15.1846
  11   2.0000      -0.533289       -14.5115
  12   2.0000      -0.478490       -13.0204
  13   2.0000      -0.442599       -12.0437
  14   2.0000      -0.426803       -11.6139
  15   2.0000      -0.413193       -11.2435
  16   2.0000      -0.368433       -10.0256
  17   2.0000      -0.346795        -9.4368
  18   2.0000      -0.332964        -9.0604
  19   2.0000      -0.331219        -9.0129
  20   2.0000      -0.328655        -8.9431
  21   2.0000      -0.301931        -8.2160
  22   2.0000      -0.213629        -5.8132
  23   2.0000      -0.126285        -3.4364
  24   0.0000      -0.005790        -0.1576
  25   0.0000       0.012818         0.3488
  26   0.0000       0.020985         0.5710
  27   0.0000       0.040099         1.0911
  28   0.0000       0.052617         1.4318

MULLIKEN ATOMIC CHARGES
-----------------------
   0 C :    0.259997
   1 C :    1.250138
   2 N :   -0.149706
   3 H :   -0.240712
   4 H :   -0.273766
   5 C :    0.370507
   6 C :    0.730332
   7 N :    0.268637
   8 H :   -0.224266
   9 H :   -0.145185
  10 H :   -0.182996
  11 H :   -0.377072
  12 H :   -0.630481
  13 H :   -0.196506
  14 H :   -0.185455
  15 H :   -0.273465
Sum of atomic charges:    0.0000000

LOEWDIN ATOMIC CHARGES
----------------------
   0 C :   -0.005267
   1 C :    0.144758
   2 N :   -0.001038
   3 H :    0.014304
   4 H :    0.014503
   5 C :   -0.246632
   6 C :    0.152497
   7 N :    0.221903
   8 H :   -0.035980
   9 H :   -0.003643
  10 H :    0.023891
  11 H :   -0.112254
  12 H :   -0.107204
  13 H :   -0.018564
  14 H :   -0.019897
  15 H :   -0.021378

  Mayer bond orders larger than 0.100000
B(  0-C ,  1-C ) :   1.2616 B(  0-C ,  2-N ) :   1.0162 B(  0-C ,  3-H ) :   0.7830
B(  0-C ,  4-H ) :   0.7874 B(  0-C , 10-H ) :  -0.1379 B(  0-C , 13-H ) :   0.3135
B(  0-C , 14-H ) :   0.3352 B(  0-C , 15-H ) :   0.3895 B(  1-C , 13-H ) :   0.6521
B(  1-C , 14-H ) :   0.5977 B(  1-C , 15-H ) :   0.5915 B(  2-N ,  3-H ) :   0.1959
B(  2-N ,  4-H ) :   0.2323 B(  2-N ,  5-C ) :   1.1906 B(  2-N ,  6-C ) :   0.2778
B(  2-N ,  7-N ) :   0.1342 B(  2-N , 10-H ) :   1.1056 B(  5-C ,  6-C ) :   1.4801
B(  5-C ,  7-N ) :   0.9965 B(  5-C ,  9-H ) :  -0.1110 B(  5-C , 10-H ) :  -0.1750
B(  5-C , 11-H ) :   0.3075 B(  5-C , 12-H ) :   0.3311 B(  6-C ,  7-N ) :   0.2746
B(  6-C , 11-H ) :   0.7096 B(  6-C , 12-H ) :   0.4608 B(  7-N ,  8-H ) :   1.0351
B(  7-N ,  9-H ) :   1.1825 B(  8-H ,  9-H ) :  -0.1554

Dispersion correction           -0.025175891
FINAL SINGLE POINT ENERGY      -267.614403017532

DIPOLE MOMENT
-------------
                                X             Y             Z
Electronic contribution:      2.98373       0.57779      -1.28331
Nuclear contribution   :     -3.69145      -1.49398       1.19810
                        -----------------------------------------
Total Dipole Moment    :     -0.70772      -0.91619      -0.08521
                        -----------------------------------------
Magnitude (a.u.)       :      1.16084
Magnitude (Debye)      :      2.95062

Rotational constants in cm-1:     0.270790     0.068966     0.056679
Rotational constants in MHz :  8118.084803  2067.559423  1699.196934

                             ****ORCA TERMINATED NORMALLY****
TOTAL RUN TIME: 0 days 0 hours 0 minutes 12 seconds 878 msec
