                         Program Version 5.0.0 -  RELEASE  -
|  1> !BLYP D3BJ RIJCOSX def2-SVPD def2/J TightSCF
|  2> *xyz 0 1
|  3> C          1.63556       -1.67040       -5.29211
|  4> C          0.33848       -1.50091       -4.50540
|  5> N          2.48451       -0.50741       -5.14039
|  6> H          1.39834       -1.82924       -6.35259
|  7> H          2.15586       -2.56540       -4.93209
|  8> C          3.45115       -0.14953       -5.95259
|  9> N          3.92267        1.08956       -5.85071
| 10> C          3.96616       -1.00618       -6.86788
| 11> H          3.52139       -1.90647       -6.99527
| 12> H          4.44482       -0.62347       -7.67035
| 13> H          2.25200        0.24080       -4.49879
| 14> H          3.46428        1.64078       -5.13639
| 15> H          4.83447        1.31375       -6.22465
| 16> H         -0.17658       -0.62881       -4.85045
| 17> H          0.56384       -1.39374       -3.46490
| 18> H         -0.28102       -2.36136       -4.64938
| 19> *
| 20>
| 21> %MaxCore 64000
| 22>
| 23> %pal nprocs 4
| 24> end
| 25>
| 26> %scf
| 27>   MaxIter 150
| 28> end
| 29>
| 30>
| 31>                          ****END OF INPUT****

CARTESIAN COORDINATES (ANGSTROEM)
---------------------------------
  C      1.635560   -1.670400   -5.292110
  C      0.338480   -1.500910   -4.505400
  N      2.484510   -0.507410   -5.140390
  H      1.398340   -1.829240   -6.352590
  H      2.155860   -2.565400   -4.932090
  C      3.451150   -0.149530   -5.952590
  N      3.922670    1.089560   -5.850710
  C      3.966160   -1.006180   -6.867880
  H      3.521390   -1.906470   -6.995270
  H      4.444820   -0.623470   -7.670350
  H      2.252000    0.240800   -4.498790
  H      3.464280    1.640780   -5.136390
  H      4.834470    1.313750   -6.224650
  H     -0.176580   -0.628810   -4.850450
  H      0.563840   -1.393740   -3.464900
  H     -0.281020   -2.361360   -4.649380

 Total Charge           Charge          ....    0
 Multiplicity           Mult            ....    1
 Number of Electrons    NEL             ....   48
 Basis Dimension        Dim             ....  200

ORBITAL ENERGIES
----------------

  NO   OCC          E(Eh)            E(eV)
   0   2.0000     -14.029874      -381.7723
   1   2.0000     -14.025643      -381.6571
   2   2.0000      -9.960706      -271.0446
   3   2.0000      -9.957203      -270.9493
   4   2.0000      -9.920371      -269.9470
   5   2.0000      -9.836041      -267.6523
   6   2.0000      -0.880272       -23.9534
   7   2.0000      -0.796242       -21.6668
   8   2.0000      -0.682697       -18.5771
   9   2.0000      -0.623794       -16.9743
  10   2.0000      -0.574974       -15.6458
  11   2.0000      -0.506172       -13.7736
  12   2.0000      -0.479587       -13.0502
  13   2.0000      -0.468133       -12.7386
  14   2.0000      -0.421715       -11.4755
  15   2.0000      -0.416156       -11.3242
  16   2.0000      -0.352020        -9.5790
  17   2.0000      -0.347972        -9.4688
  18   2.0000      -0.344014        -9.3611
  19   2.0000      -0.324433        -8.8283
  20   2.0000      -0.316364        -8.6087
  21   2.0000      -0.303405        -8.2561
  22   2.0000      -0.208475        -5.6729
  23   2.0000      -0.131400        -3.5756
  24   0.0000      -0.009586        -0.2609
  25   0.0000       0.008971         0.2441
  26   0.0000       0.026954         0.7334
  27   0.0000       0.041962         1.1419
  28   0.0000       0.049586         1.3493

MULLIKEN ATOMIC CHARGES
-----------------------
   0 C :    0.278280
   1 C :    1.252711
   2 N :   -0.187968
   3 H :   -0.188230
   4 H :   -0.227107
   5 C :    0.247112
   6 N :    0.386211
   7 C :    0.689433
   8 H :   -0.271137
   9 H :   -0.608239
  10 H :   -0.311563
  11 H :   -0.206664
  12 H :   -0.190861
  13 H :   -0.194699
  14 H :   -0.192845
  15 H :   -0.274433
Sum of atomic charges:   -0.0000000

LOEWDIN ATOMIC CHARGES
----------------------
   0 C :    0.007393
   1 C :    0.142266
   2 N :   -0.002027
   3 H :    0.021901
   4 H :    0.022986
   5 C :   -0.256393
   6 N :    0.207210
   7 C :    0.174744
   8 H :   -0.130338
   9 H :   -0.115494
  10 H :    0.011213
  11 H :   -0.022314
  12 H :    0.004554
  13 H :   -0.021842
  14 H :   -0.023225
  15 H :   -0.020635

  Mayer bond orders larger than 0.100000
B(  0-C ,  1-C ) :   1.2652 B(  0-C ,  2-N ) :   1.0616 B(  0-C ,  3-H ) :   0.7630
B(  0-C ,  4-H ) :   0.7784 B(  0-C , 10-H ) :  -0.1281 B(  0-C , 13-H ) :   0.2939
B(  0-C , 14-H ) :   0.3391 B(  0-C , 15-H ) :   0.3831 B(  1-C , 13-H ) :   0.6638
B(  1-C , 14-H ) :   0.5840 B(  1-C , 15-H ) :   0.5878 B(  2-N ,  3-H ) :   0.2271
B(  2-N ,  4-H ) :   0.1948 B(  2-N ,  5-C ) :   1.2078 B(  2-N ,  6-N ) :   0.1953
B(  2-N ,  7-C ) :   0.3588 B(  2-N , 10-H ) :   1.1498 B(  5-C ,  6-N ) :   1.0168
B(  5-C ,  7-C ) :   1.6526 B(  5-C ,  8-H ) :   0.3573 B(  5-C ,  9-H ) :   0.2717
B(  5-C , 10-H ) :  -0.2292 B(  6-N ,  7-C ) :   0.2986 B(  6-N , 11-H ) :   1.0524
B(  6-N , 12-H ) :   1.2049 B(  7-C ,  8-H ) :   0.5691 B(  7-C ,  9-H ) :   0.5625
B(  8-H ,  9-H ) :   0.2301 B( 11-H , 12-H ) :  -0.1402

Dispersion correction           -0.025289959
FINAL SINGLE POINT ENERGY      -267.615371275412

DIPOLE MOMENT
-------------
                                X             Y             Z
Electronic contribution:      3.05244       2.60340      -0.22809
Nuclear contribution   :     -3.68222      -1.93858       0.98231
                        -----------------------------------------
Total Dipole Moment    :     -0.62978       0.66482       0.75422
                        -----------------------------------------
Magnitude (a.u.)       :      1.18636
Magnitude (Debye)      :      3.01550

Rotational constants in cm-1:     0.275407     0.068040     0.056255
Rotational constants in MHz :  8256.498401  2039.796466  1686.484500

                             ****ORCA TERMINATED NORMALLY****
TOTAL RUN TIME: 0 days 0 hours 0 minutes 12 seconds 918 msec
