                         Program Version 5.0.0 -  RELEASE  -
|  1> !LC-PBE RIJCOSX def2-TZVPD def2/J TightSCF
|  2> *xyz -1 1
|  3> C         -0.77455        2.78833       -0.54394
|  4> C          0.69721        3.22791       -0.52513
|  5> O          1.48929        2.37470        0.19919
|  6> H          0.71600        4.26403       -0.13077
|  7> H          1.03615        3.33092       -1.58367
|  8> H         -1.34746        3.48478       -1.11982
|  9> H         -1.15078        2.75876        0.45729
| 10> H         -0.85058        1.81526       -0.98241
| 11> *
| 12>
| 13> %MaxCore 64000
| 14> %pal nprocs 4
| 15> end
| 16>
| 17> %scf
| 18>   MaxIter 150
| 19> end
| 20>
| 21>
| 22>                          ****END OF INPUT****

CARTESIAN COORDINATES (ANGSTROEM)
---------------------------------
  C     -0.774550    2.788330   -0.543940
  C      0.697210    3.227910   -0.525130
  O      1.489290    2.374700    0.199190
  H      0.716000    4.264030   -0.130770
  H      1.036150    3.330920   -1.583670
  H     -1.347460    3.484780   -1.119820
  H     -1.150780    2.758760    0.457290
  H     -0.850580    1.815260   -0.982410

 Total Charge           Charge          ....   -1
 Multiplicity           Mult            ....    1
 Number of Electrons    NEL             ....   26
 Basis Dimension        Dim             ....  159

ORBITAL ENERGIES
----------------

  NO   OCC          E(Eh)            E(eV)
   0   2.0000     -18.631918      -507.0003
   1   2.0000      -9.926220      -270.1062
   2   2.0000      -9.902066      -269.4489
   3   2.0000      -0.841574       -22.9004
   4   2.0000      -0.694697       -18.9037
   5   2.0000      -0.528428       -14.3793
   6   2.0000      -0.394132       -10.7249
   7   2.0000      -0.367286        -9.9944
   8   2.0000      -0.308432        -8.3929
   9   2.0000      -0.286711        -7.8018
  10   2.0000      -0.241279        -6.5655
  11   2.0000      -0.092228        -2.5097
  12   2.0000      -0.089835        -2.4445
  13   0.0000       0.209728         5.7070
  14   0.0000       0.230219         6.2646
  15   0.0000       0.261621         7.1191
  16   0.0000       0.262405         7.1404
  17   0.0000       0.285807         7.7772

MULLIKEN ATOMIC CHARGES
-----------------------
   0 C :   -0.997291
   1 C :   -0.393346
   2 O :   -0.920328
   3 H :    0.210439
   4 H :    0.213909
   5 H :    0.348401
   6 H :    0.269470
   7 H :    0.268746
Sum of atomic charges:   -1.0000000

LOEWDIN ATOMIC CHARGES
----------------------
   0 C :   -0.191887
   1 C :   -0.643066
   2 O :   -0.437742
   3 H :    0.066044
   4 H :    0.069464
   5 H :    0.038691
   6 H :    0.049414
   7 H :    0.049082

  Mayer bond orders larger than 0.100000
B(  0-C ,  1-C ) :   0.7532 B(  0-C ,  2-O ) :   0.1951 B(  0-C ,  5-H ) :   0.9274
B(  0-C ,  6-H ) :   0.9733 B(  0-C ,  7-H ) :   0.9729 B(  1-C ,  2-O ) :   0.9957
B(  1-C ,  3-H ) :   1.0424 B(  1-C ,  4-H ) :   1.0364

FINAL SINGLE POINT ENERGY      -154.010600942354

DIPOLE MOMENT
-------------
                                X             Y             Z
Electronic contribution:      2.27026      -0.94524       1.09245
Nuclear contribution   :     -3.69910       1.55962      -1.78699
                        -----------------------------------------
Total Dipole Moment    :     -1.42884       0.61438      -0.69454
                        -----------------------------------------
Magnitude (a.u.)       :      1.70336
Magnitude (Debye)      :      4.32960

Rotational constants in cm-1:     1.268893     0.327436     0.287754
Rotational constants in MHz : 38040.440181  9816.269339  8626.646564

                             ****ORCA TERMINATED NORMALLY****
TOTAL RUN TIME: 0 days 0 hours 0 minutes 15 seconds 382 msec
