                         Program Version 5.0.0 -  RELEASE  -
|  1> !LC-PBE RIJCOSX def2-TZVPD def2/J TightSCF
|  2> *xyz 1 1
|  3> C          3.95643        0.50147       -0.37910
|  4> H          3.16840        0.02920        0.20738
|  5> N          3.80389        1.96157       -0.15675
|  6> C          3.84232        0.14849       -1.85406
|  7> H          4.92323        0.17798        0.00937
|  8> H          4.20643        2.24441        0.74536
|  9> H          2.80827        2.21132       -0.09610
| 10> H          4.28076        2.50155       -0.89104
| 11> H          4.62951        0.62800       -2.39748
| 12> H          2.89665        0.48102       -2.22825
| 13> H          3.92053       -0.91187       -1.97413
| 14> *
| 15>
| 16> %MaxCore 64000
| 17> %pal nprocs 4
| 18> end
| 19>
| 20> %scf
| 21>   MaxIter 150
| 22> end
| 23>
| 24>
| 25>                          ****END OF INPUT****

CARTESIAN COORDINATES (ANGSTROEM)
---------------------------------
  C      3.956430    0.501470   -0.379100
  H      3.168400    0.029200    0.207380
  N      3.803890    1.961570   -0.156750
  C      3.842320    0.148490   -1.854060
  H      4.923230    0.177980    0.009370
  H      4.206430    2.244410    0.745360
  H      2.808270    2.211320   -0.096100
  H      4.280760    2.501550   -0.891040
  H      4.629510    0.628000   -2.397480
  H      2.896650    0.481020   -2.228250
  H      3.920530   -0.911870   -1.974130

 Total Charge           Charge          ....    1
 Multiplicity           Mult            ....    1
 Number of Electrons    NEL             ....   26
 Basis Dimension        Dim             ....  183

ORBITAL ENERGIES
----------------

  NO   OCC          E(Eh)            E(eV)
   0   2.0000     -14.549895      -395.9228
   1   2.0000     -10.369320      -282.1635
   2   2.0000     -10.286742      -279.9165
   3   2.0000      -1.391538       -37.8657
   4   2.0000      -1.140861       -31.0444
   5   2.0000      -1.007433       -27.4137
   6   2.0000      -0.952239       -25.9117
   7   2.0000      -0.932892       -25.3853
   8   2.0000      -0.840027       -22.8583
   9   2.0000      -0.784904       -21.3583
  10   2.0000      -0.717586       -19.5265
  11   2.0000      -0.701286       -19.0830
  12   2.0000      -0.680911       -18.5285
  13   0.0000      -0.121104        -3.2954
  14   0.0000      -0.067861        -1.8466
  15   0.0000      -0.064932        -1.7669
  16   0.0000      -0.060420        -1.6441
  17   0.0000      -0.027628        -0.7518

MULLIKEN ATOMIC CHARGES
-----------------------
   0 C :   -0.409210
   1 H :    0.368224
   2 N :   -0.431865
   3 C :   -1.320811
   4 H :    0.367270
   5 H :    0.397814
   6 H :    0.400872
   7 H :    0.391869
   8 H :    0.439662
   9 H :    0.420668
  10 H :    0.375507
Sum of atomic charges:    1.0000000

LOEWDIN ATOMIC CHARGES
----------------------
   0 C :   -0.222502
   1 H :    0.143317
   2 N :    0.172369
   3 C :   -0.081785
   4 H :    0.143970
   5 H :    0.186411
   6 H :    0.189224
   7 H :    0.186403
   8 H :    0.091088
   9 H :    0.091437
  10 H :    0.100066

  Mayer bond orders larger than 0.100000
B(  0-C ,  1-H ) :   0.8931 B(  0-C ,  2-N ) :   0.8816 B(  0-C ,  3-C ) :   0.6079
B(  0-C ,  4-H ) :   0.8930 B(  2-N ,  5-H ) :   0.8429 B(  2-N ,  6-H ) :   0.8329
B(  2-N ,  7-H ) :   0.8355 B(  3-C ,  8-H ) :   0.8382 B(  3-C ,  9-H ) :   0.8817
B(  3-C , 10-H ) :   0.9411

FINAL SINGLE POINT ENERGY      -135.130743574889

DIPOLE MOMENT
-------------
                                X             Y             Z
Electronic contribution:     -0.01302       1.34612       1.25806
Nuclear contribution   :     -0.06214      -0.04120      -0.39947
                        -----------------------------------------
Total Dipole Moment    :     -0.07516       1.30492       0.85859
                        -----------------------------------------
Magnitude (a.u.)       :      1.56386
Magnitude (Debye)      :      3.97501

Rotational constants in cm-1:     1.011771     0.281435     0.249812
Rotational constants in MHz : 30332.138762  8437.210602  7489.166323

                             ****ORCA TERMINATED NORMALLY****
TOTAL RUN TIME: 0 days 0 hours 0 minutes 20 seconds 297 msec
