                         Program Version 5.0.0 -  RELEASE  -
|  1> !LC-PBE RIJCOSX def2-TZVPD def2/J TightSCF xyzfile
|  2>
|  3> *xyzfile 0 1 B.xyz
|  4>
|  5> %MaxCore 64000
|  6>
|  7> %pal nprocs 4
|  8> end
|  9>
| 10> %scf
| 11>   MaxIter 150
| 12> end
| 13>
| 14>
| 15>                          ****END OF INPUT****

CARTESIAN COORDINATES (ANGSTROEM)
---------------------------------
  C      3.956426    0.501466   -0.379100
  H      3.168398    0.029201    0.207383
  N      3.803893    1.961572   -0.156747
  C      3.842322    0.148490   -1.854058
  H      4.923231    0.177982    0.009371
  H      4.620021    0.694502   -2.402150
  H      4.096015   -0.910930   -1.955103
  C      2.475619    0.412708   -2.485377
  H      2.174689    1.445076   -2.287971
  C      1.383931   -0.532740   -1.995203
  H      2.575613    0.318574   -3.571460
  H      1.264698   -0.412309   -0.915491
  H      1.705223   -1.566885   -2.164984
  C      0.031398   -0.317260   -2.677791
  C     -0.587292    1.060853   -2.436460
  H     -0.662815   -1.089530   -2.329985
  H      0.149465   -0.478040   -3.755648
  H      0.104376    1.828590   -2.793130
  C     -0.951213    1.334978   -0.972500
  H     -1.478832    1.161355   -3.062484
  H     -0.317007    0.741648   -0.311389
  H     -1.980916    1.012842   -0.788958
  C     -0.774550    2.788332   -0.543943
  H     -1.352609    3.459372   -1.192585
  H     -1.171014    2.902331    0.469968
  C      0.697208    3.227911   -0.525126
  O      1.489294    2.374703    0.199189
  H      0.715998    4.264030   -0.130774
  H      1.036148    3.330920   -1.583669
  H      4.206425    2.244406    0.745359
  H      2.808269    2.211323   -0.096097
  H      4.280757    2.501552   -0.891037

 Total Charge           Charge          ....    0
 Multiplicity           Mult            ....    1
 Number of Electrons    NEL             ....   90
 Basis Dimension        Dim             ....  599

ORBITAL ENERGIES
----------------

  NO   OCC          E(Eh)            E(eV)
   0   2.0000     -18.842567      -512.7323
   1   2.0000     -14.293913      -388.9572
   2   2.0000     -10.182476      -277.0793
   3   2.0000     -10.138225      -275.8751
   4   2.0000     -10.111818      -275.1566
   5   2.0000     -10.099325      -274.8166
   6   2.0000     -10.096567      -274.7416
   7   2.0000     -10.094018      -274.6722
   8   2.0000     -10.081561      -274.3332
   9   2.0000     -10.068105      -273.9671
  10   2.0000     -10.061303      -273.7820
  11   2.0000      -1.163994       -31.6739
  12   2.0000      -1.056063       -28.7369
  13   2.0000      -0.998774       -27.1780
  14   2.0000      -0.957234       -26.0477
  15   2.0000      -0.916100       -24.9283
  16   2.0000      -0.867941       -23.6179
  17   2.0000      -0.827780       -22.5250
  18   2.0000      -0.784810       -21.3558
  19   2.0000      -0.755977       -20.5712
  20   2.0000      -0.722969       -19.6730
  21   2.0000      -0.716966       -19.5096
  22   2.0000      -0.702984       -19.1292
  23   2.0000      -0.662922       -18.0390
  24   2.0000      -0.634626       -17.2690
  25   2.0000      -0.614952       -16.7337
  26   2.0000      -0.612229       -16.6596
  27   2.0000      -0.581662       -15.8278
  28   2.0000      -0.564663       -15.3653
  29   2.0000      -0.560509       -15.2522
  30   2.0000      -0.537153       -14.6167
  31   2.0000      -0.527572       -14.3560
  32   2.0000      -0.516616       -14.0578
  33   2.0000      -0.496911       -13.5216
  34   2.0000      -0.487930       -13.2773
  35   2.0000      -0.475677       -12.9438
  36   2.0000      -0.467727       -12.7275
  37   2.0000      -0.452108       -12.3025
  38   2.0000      -0.442543       -12.0422
  39   2.0000      -0.436725       -11.8839
  40   2.0000      -0.413734       -11.2583
  41   2.0000      -0.409382       -11.1399
  42   2.0000      -0.403460       -10.9787
  43   2.0000      -0.308232        -8.3874
  44   2.0000      -0.302360        -8.2276
  45   0.0000       0.041876         1.1395
  46   0.0000       0.065251         1.7756
  47   0.0000       0.069997         1.9047
  48   0.0000       0.082084         2.2336
  49   0.0000       0.094553         2.5729

MULLIKEN ATOMIC CHARGES
-----------------------
   0 C :   -0.559980
   1 H :    0.369595
   2 N :   -0.190412
   3 C :   -0.884076
   4 H :    0.380913
   5 H :    0.334981
   6 H :    0.379917
   7 C :   -0.211643
   8 H :    0.078318
   9 C :   -0.652233
  10 H :    0.364889
  11 H :    0.298968
  12 H :    0.367298
  13 C :   -0.888295
  14 C :   -0.670375
  15 H :    0.339982
  16 H :    0.382060
  17 H :    0.331347
  18 C :   -0.509689
  19 H :    0.394203
  20 H :    0.230112
  21 H :    0.386939
  22 C :   -0.932686
  23 H :    0.324054
  24 H :    0.423158
  25 C :   -0.442035
  26 O :   -0.912725
  27 H :    0.334474
  28 H :    0.254046
  29 H :    0.406812
  30 H :    0.074815
  31 H :    0.397270
Sum of atomic charges:    0.0000000

LOEWDIN ATOMIC CHARGES
----------------------
   0 C :   -0.190050
   1 H :    0.135465
   2 N :    0.132367
   3 C :   -0.213127
   4 H :    0.126872
   5 H :    0.120547
   6 H :    0.125629
   7 C :   -0.222990
   8 H :    0.100205
   9 C :   -0.230881
  10 H :    0.128211
  11 H :    0.106346
  12 H :    0.122449
  13 C :   -0.229576
  14 C :   -0.227986
  15 H :    0.120381
  16 H :    0.116362
  17 H :    0.100011
  18 C :   -0.234639
  19 H :    0.117298
  20 H :    0.099222
  21 H :    0.115679
  22 C :   -0.225501
  23 H :    0.116831
  24 H :    0.113901
  25 C :   -0.435732
  26 O :   -0.282835
  27 H :    0.105386
  28 H :    0.097126
  29 H :    0.168817
  30 H :   -0.044861
  31 H :    0.169071

  Mayer bond orders larger than 0.100000
B(  0-C ,  1-H ) :   0.9143 B(  0-C ,  2-N ) :   0.8499 B(  0-C ,  3-C ) :   0.7368
B(  0-C ,  4-H ) :   0.9017 B(  2-N , 26-O ) :  -0.2068 B(  2-N , 29-H ) :   0.8352
B(  2-N , 30-H ) :   0.8498 B(  2-N , 31-H ) :   0.8044 B(  3-C ,  5-H ) :   0.9863
B(  3-C ,  6-H ) :   0.9085 B(  3-C ,  7-C ) :   0.7167 B(  7-C ,  8-H ) :   1.0563
B(  7-C ,  9-C ) :   0.5350 B(  7-C , 10-H ) :   0.8922 B(  8-H , 10-H ) :   0.1066
B(  9-C , 11-H ) :   0.9739 B(  9-C , 12-H ) :   0.8994 B(  9-C , 13-C ) :   0.7881
B( 13-C , 14-C ) :   0.8226 B( 13-C , 15-H ) :   0.9632 B( 13-C , 16-H ) :   0.9091
B( 14-C , 17-H ) :   0.9663 B( 14-C , 18-C ) :   0.5118 B( 14-C , 19-H ) :   0.9066
B( 18-C , 20-H ) :   0.9999 B( 18-C , 21-H ) :   0.8916 B( 18-C , 22-C ) :   0.8812
B( 22-C , 23-H ) :   0.9976 B( 22-C , 24-H ) :   0.8510 B( 22-C , 25-C ) :   0.8703
B( 25-C , 26-O ) :   0.7586 B( 25-C , 27-H ) :   0.9639 B( 25-C , 28-H ) :   0.9852
B( 26-O , 30-H ) :   0.3626

FINAL SINGLE POINT ENERGY      -484.115081687914

DIPOLE MOMENT
-------------
                                X             Y             Z
Electronic contribution:      2.12596       0.92976       2.52506
Nuclear contribution   :      0.61785      -1.47632      -2.91844
                        -----------------------------------------
Total Dipole Moment    :      2.74381      -0.54657      -0.39338
                        -----------------------------------------
Magnitude (a.u.)       :      2.82524
Magnitude (Debye)      :      7.18118

Rotational constants in cm-1:     0.040993     0.027400     0.018162
Rotational constants in MHz :  1228.944366   821.418004   544.476857

                             ****ORCA TERMINATED NORMALLY****
TOTAL RUN TIME: 0 days 0 hours 5 minutes 15 seconds 648 msec
