                         Program Version 5.0.0 -  RELEASE  -
|  1> !LC-PBE RIJCOSX def2-TZVPD def2/J TightSCF
|  2> *xyz 0 1
|  3> C         -0.77455        2.78833       -0.54394
|  4> C          0.69721        3.22791       -0.52513
|  5> F          1.48929        2.37470        0.19919
|  6> H          0.71600        4.26403       -0.13077
|  7> H          1.03615        3.33092       -1.58367
|  8> H         -1.34746        3.48478       -1.11982
|  9> H         -1.15078        2.75876        0.45729
| 10> H         -0.85058        1.81526       -0.98241
| 11> *
| 12>
| 13> %MaxCore 64000
| 14> %pal nprocs 4
| 15> end
| 16>
| 17> %scf
| 18>   MaxIter 150
| 19> end
| 20>
| 21>
| 22>                          ****END OF INPUT****

CARTESIAN COORDINATES (ANGSTROEM)
---------------------------------
  C     -0.774550    2.788330   -0.543940
  C      0.697210    3.227910   -0.525130
  F      1.489290    2.374700    0.199190
  H      0.716000    4.264030   -0.130770
  H      1.036150    3.330920   -1.583670
  H     -1.347460    3.484780   -1.119820
  H     -1.150780    2.758760    0.457290
  H     -0.850580    1.815260   -0.982410

 Total Charge           Charge          ....    0
 Multiplicity           Mult            ....    1
 Number of Electrons    NEL             ....   26
 Basis Dimension        Dim             ....  159

ORBITAL ENERGIES
----------------

  NO   OCC          E(Eh)            E(eV)
   0   2.0000     -24.476066      -666.0276
   1   2.0000     -10.195908      -277.4448
   2   2.0000     -10.108418      -275.0640
   3   2.0000      -1.354188       -36.8493
   4   2.0000      -0.941429       -25.6176
   5   2.0000      -0.794525       -21.6201
   6   2.0000      -0.657602       -17.8943
   7   2.0000      -0.648045       -17.6342
   8   2.0000      -0.606411       -16.5013
   9   2.0000      -0.546174       -14.8621
  10   2.0000      -0.537081       -14.6147
  11   2.0000      -0.471022       -12.8172
  12   2.0000      -0.461689       -12.5632
  13   0.0000       0.068986         1.8772
  14   0.0000       0.091030         2.4770
  15   0.0000       0.114435         3.1139
  16   0.0000       0.116748         3.1769
  17   0.0000       0.145544         3.9605

MULLIKEN ATOMIC CHARGES
-----------------------
   0 C :   -1.089195
   1 C :   -0.208172
   2 F :   -0.269112
   3 H :    0.271051
   4 H :    0.275319
   5 H :    0.368307
   6 H :    0.326834
   7 H :    0.324968
Sum of atomic charges:    0.0000000

LOEWDIN ATOMIC CHARGES
----------------------
   0 C :   -0.110339
   1 C :   -0.313084
   2 F :   -0.041290
   3 H :    0.119143
   4 H :    0.123278
   5 H :    0.075378
   6 H :    0.073615
   7 H :    0.073297

  Mayer bond orders larger than 0.100000
B(  0-C ,  1-C ) :   0.7641 B(  0-C ,  5-H ) :   0.9045 B(  0-C ,  6-H ) :   0.9280
B(  0-C ,  7-H ) :   0.9278 B(  1-C ,  2-F ) :   0.7959 B(  1-C ,  3-H ) :   0.9662
B(  1-C ,  4-H ) :   0.9600

FINAL SINGLE POINT ENERGY      -178.633045103834

DIPOLE MOMENT
-------------
                                X             Y             Z
Electronic contribution:      4.38642      -1.62236       1.97448
Nuclear contribution   :     -4.89513       2.05627      -2.36166
                        -----------------------------------------
Total Dipole Moment    :     -0.50872       0.43391      -0.38718
                        -----------------------------------------
Magnitude (a.u.)       :      0.77265
Magnitude (Debye)      :      1.96391

Rotational constants in cm-1:     1.247826     0.304622     0.269019
Rotational constants in MHz : 37408.889506  9132.346906  8064.979146

                             ****ORCA TERMINATED NORMALLY****
TOTAL RUN TIME: 0 days 0 hours 0 minutes 15 seconds 76 msec
