                         Program Version 5.0.0 -  RELEASE  -
|  1> !LC-PBE RIJCOSX def2-TZVPD def2/J TightSCF
|  2> *xyz 0 1
|  3> C          3.95643        0.50147       -0.37910
|  4> H          3.16840        0.02920        0.20738
|  5> C          3.80389        1.96157       -0.15675
|  6> C          3.84232        0.14849       -1.85406
|  7> H          4.92323        0.17798        0.00937
|  8> H          4.20643        2.24441        0.74536
|  9> H          2.80827        2.21132       -0.09610
| 10> H          4.28076        2.50155       -0.89104
| 11> H          4.62951        0.62800       -2.39748
| 12> H          2.89665        0.48102       -2.22825
| 13> H          3.92053       -0.91187       -1.97413
| 14> *
| 15>
| 16> %MaxCore 64000
| 17> %pal nprocs 4
| 18> end
| 19>
| 20> %scf
| 21>   MaxIter 150
| 22> end
| 23>
| 24>
| 25>                          ****END OF INPUT****

CARTESIAN COORDINATES (ANGSTROEM)
---------------------------------
  C      3.956430    0.501470   -0.379100
  H      3.168400    0.029200    0.207380
  C      3.803890    1.961570   -0.156750
  C      3.842320    0.148490   -1.854060
  H      4.923230    0.177980    0.009370
  H      4.206430    2.244410    0.745360
  H      2.808270    2.211320   -0.096100
  H      4.280760    2.501550   -0.891040
  H      4.629510    0.628000   -2.397480
  H      2.896650    0.481020   -2.228250
  H      3.920530   -0.911870   -1.974130

 Total Charge           Charge          ....    0
 Multiplicity           Mult            ....    1
 Number of Electrons    NEL             ....   26
 Basis Dimension        Dim             ....  183

ORBITAL ENERGIES
----------------

  NO   OCC          E(Eh)            E(eV)
   0   2.0000     -10.099719      -274.8273
   1   2.0000     -10.089015      -274.5361
   2   2.0000     -10.070480      -274.0317
   3   2.0000      -0.972236       -26.4559
   4   2.0000      -0.859836       -23.3973
   5   2.0000      -0.744789       -20.2667
   6   2.0000      -0.617125       -16.7928
   7   2.0000      -0.590618       -16.0715
   8   2.0000      -0.539993       -14.6940
   9   2.0000      -0.526197       -14.3185
  10   2.0000      -0.466363       -12.6904
  11   2.0000      -0.463062       -12.6006
  12   2.0000      -0.451610       -12.2889
  13   0.0000       0.074571         2.0292
  14   0.0000       0.092167         2.5080
  15   0.0000       0.094595         2.5741
  16   0.0000       0.124977         3.4008
  17   0.0000       0.147312         4.0085

MULLIKEN ATOMIC CHARGES
-----------------------
   0 C :   -0.323634
   1 H :    0.302909
   2 C :   -1.276820
   3 C :   -1.212506
   4 H :    0.330366
   5 H :    0.372464
   6 H :    0.374237
   7 H :    0.365730
   8 H :    0.370464
   9 H :    0.354955
  10 H :    0.341835
Sum of atomic charges:   -0.0000000

LOEWDIN ATOMIC CHARGES
----------------------
   0 C :   -0.339293
   1 H :    0.112077
   2 C :   -0.152335
   3 C :   -0.141942
   4 H :    0.111843
   5 H :    0.059671
   6 H :    0.064920
   7 H :    0.063684
   8 H :    0.075123
   9 H :    0.076821
  10 H :    0.069431

  Mayer bond orders larger than 0.100000
B(  0-C ,  1-H ) :   0.9376 B(  0-C ,  2-C ) :   0.5952 B(  0-C ,  3-C ) :   0.6000
B(  0-C ,  4-H ) :   0.9250 B(  2-C ,  5-H ) :   0.9534 B(  2-C ,  6-H ) :   0.9400
B(  2-C ,  7-H ) :   0.8960 B(  3-C ,  8-H ) :   0.9212 B(  3-C ,  9-H ) :   0.9355
B(  3-C , 10-H ) :   0.9694

FINAL SINGLE POINT ENERGY      -118.736840791724

DIPOLE MOMENT
-------------
                                X             Y             Z
Electronic contribution:      0.08005      -0.29608       0.23492
Nuclear contribution   :     -0.08172       0.30475      -0.19303
                        -----------------------------------------
Total Dipole Moment    :     -0.00166       0.00868       0.04189
                        -----------------------------------------
Magnitude (a.u.)       :      0.04281
Magnitude (Debye)      :      0.10883

Rotational constants in cm-1:     1.020248     0.295755     0.261591
Rotational constants in MHz : 30586.266829  8866.511639  7842.297953

                             ****ORCA TERMINATED NORMALLY****
TOTAL RUN TIME: 0 days 0 hours 0 minutes 17 seconds 293 msec
