                         Program Version 5.0.0 -  RELEASE  -
|  1> !LC-PBE RIJCOSX def2-TZVPD def2/J TightSCF xyzfile
|  2>
|  3> *xyzfile 0 1 D.xyz
|  4>
|  5> %MaxCore 64000
|  6>
|  7> %pal nprocs 4
|  8> end
|  9>
| 10> %scf
| 11>   MaxIter 150
| 12> end
| 13>
| 14>
| 15>                          ****END OF INPUT****

CARTESIAN COORDINATES (ANGSTROEM)
---------------------------------
  C      3.956426    0.501466   -0.379100
  H      3.168398    0.029201    0.207383
  C      3.803893    1.961572   -0.156747
  C      3.842322    0.148490   -1.854058
  H      4.923231    0.177982    0.009371
  H      4.620021    0.694502   -2.402150
  H      4.096015   -0.910930   -1.955103
  C      2.475619    0.412708   -2.485377
  H      2.174689    1.445076   -2.287971
  C      1.383931   -0.532740   -1.995203
  H      2.575613    0.318574   -3.571460
  H      1.264698   -0.412309   -0.915491
  H      1.705223   -1.566885   -2.164984
  C      0.031398   -0.317260   -2.677791
  C     -0.587292    1.060853   -2.436460
  H     -0.662815   -1.089530   -2.329985
  H      0.149465   -0.478040   -3.755648
  H      0.104376    1.828590   -2.793130
  C     -0.951213    1.334978   -0.972500
  H     -1.478832    1.161355   -3.062484
  H     -0.317007    0.741648   -0.311389
  H     -1.980916    1.012842   -0.788958
  C     -0.774550    2.788332   -0.543943
  H     -1.352609    3.459372   -1.192585
  H     -1.171014    2.902331    0.469968
  C      0.697208    3.227911   -0.525126
  F      1.489294    2.374703    0.199189
  H      0.715998    4.264030   -0.130774
  H      1.036148    3.330920   -1.583669
  H      4.206425    2.244406    0.745359
  H      2.808269    2.211323   -0.096097
  H      4.280757    2.501552   -0.891037

 Total Charge           Charge          ....    0
 Multiplicity           Mult            ....    1
 Number of Electrons    NEL             ....   90
 Basis Dimension        Dim             ....  599

ORBITAL ENERGIES
----------------

  NO   OCC          E(Eh)            E(eV)
   0   2.0000     -24.496914      -666.5949
   1   2.0000     -10.204354      -277.6746
   2   2.0000     -10.126587      -275.5584
   3   2.0000     -10.112477      -275.1745
   4   2.0000     -10.109134      -275.0835
   5   2.0000     -10.105796      -274.9927
   6   2.0000     -10.099569      -274.8232
   7   2.0000     -10.097476      -274.7663
   8   2.0000     -10.091532      -274.6046
   9   2.0000     -10.080276      -274.2982
  10   2.0000     -10.024517      -272.7810
  11   2.0000      -1.388025       -37.7701
  12   2.0000      -1.004156       -27.3245
  13   2.0000      -0.982804       -26.7435
  14   2.0000      -0.946521       -25.7561
  15   2.0000      -0.911675       -24.8079
  16   2.0000      -0.859927       -23.3998
  17   2.0000      -0.832117       -22.6430
  18   2.0000      -0.788295       -21.4506
  19   2.0000      -0.760826       -20.7031
  20   2.0000      -0.723026       -19.6745
  21   2.0000      -0.707427       -19.2501
  22   2.0000      -0.682588       -18.5742
  23   2.0000      -0.668759       -18.1979
  24   2.0000      -0.644263       -17.5313
  25   2.0000      -0.618063       -16.8184
  26   2.0000      -0.606140       -16.4939
  27   2.0000      -0.594103       -16.1664
  28   2.0000      -0.572422       -15.5764
  29   2.0000      -0.569176       -15.4881
  30   2.0000      -0.549945       -14.9648
  31   2.0000      -0.530796       -14.4437
  32   2.0000      -0.523423       -14.2431
  33   2.0000      -0.508826       -13.8458
  34   2.0000      -0.498614       -13.5680
  35   2.0000      -0.486668       -13.2429
  36   2.0000      -0.479189       -13.0394
  37   2.0000      -0.471496       -12.8301
  38   2.0000      -0.451086       -12.2747
  39   2.0000      -0.445699       -12.1281
  40   2.0000      -0.439239       -11.9523
  41   2.0000      -0.437843       -11.9143
  42   2.0000      -0.421152       -11.4601
  43   2.0000      -0.419536       -11.4162
  44   2.0000      -0.398309       -10.8385
  45   0.0000       0.064699         1.7605
  46   0.0000       0.071787         1.9534
  47   0.0000       0.076508         2.0819
  48   0.0000       0.081572         2.2197
  49   0.0000       0.091336         2.4854

MULLIKEN ATOMIC CHARGES
-----------------------
   0 C :   -0.413993
   1 H :    0.353221
   2 C :   -0.975777
   3 C :   -0.926180
   4 H :    0.334022
   5 H :    0.385422
   6 H :    0.351831
   7 C :   -0.303800
   8 H :    0.052198
   9 C :   -0.569960
  10 H :    0.354616
  11 H :    0.258363
  12 H :    0.373967
  13 C :   -0.909447
  14 C :   -0.694813
  15 H :    0.341464
  16 H :    0.395307
  17 H :    0.368979
  18 C :   -0.549834
  19 H :    0.390268
  20 H :    0.287007
  21 H :    0.395813
  22 C :   -0.918344
  23 H :    0.342358
  24 H :    0.425689
  25 C :   -0.358928
  26 F :   -0.381235
  27 H :    0.364021
  28 H :    0.337010
  29 H :    0.466898
  30 H :    0.040707
  31 H :    0.383149
Sum of atomic charges:   -0.0000000

LOEWDIN ATOMIC CHARGES
----------------------
   0 C :   -0.271495
   1 H :    0.113451
   2 C :   -0.133398
   3 C :   -0.236333
   4 H :    0.114449
   5 H :    0.120531
   6 H :    0.115502
   7 C :   -0.224810
   8 H :    0.096730
   9 C :   -0.230255
  10 H :    0.125870
  11 H :    0.104434
  12 H :    0.125754
  13 C :   -0.229023
  14 C :   -0.226595
  15 H :    0.120654
  16 H :    0.119420
  17 H :    0.101114
  18 C :   -0.225004
  19 H :    0.120039
  20 H :    0.106726
  21 H :    0.123192
  22 C :   -0.199273
  23 H :    0.130642
  24 H :    0.120227
  25 C :   -0.222581
  26 F :   -0.029809
  27 H :    0.135009
  28 H :    0.129383
  29 H :    0.068694
  30 H :   -0.036401
  31 H :    0.073157

  Mayer bond orders larger than 0.100000
B(  0-C ,  1-H ) :   0.8957 B(  0-C ,  2-C ) :   0.4281 B(  0-C ,  3-C ) :   0.7429
B(  0-C ,  4-H ) :   0.9490 B(  1-H , 30-H ) :   0.1028 B(  2-C ,  3-C ) :   0.1011
B(  2-C , 26-F ) :   0.2666 B(  2-C , 29-H ) :   0.8980 B(  2-C , 30-H ) :   0.8354
B(  2-C , 31-H ) :   1.0938 B(  3-C ,  5-H ) :   0.9249 B(  3-C ,  6-H ) :   0.9097
B(  3-C ,  7-C ) :   0.8695 B(  7-C ,  8-H ) :   1.1150 B(  7-C ,  9-C ) :   0.4833
B(  7-C , 10-H ) :   0.8883 B(  8-H , 10-H ) :   0.1128 B(  9-C , 11-H ) :   1.0177
B(  9-C , 12-H ) :   0.8906 B(  9-C , 13-C ) :   0.7775 B( 13-C , 14-C ) :   0.8556
B( 13-C , 15-H ) :   0.9675 B( 13-C , 16-H ) :   0.9071 B( 14-C , 17-H ) :   0.9461
B( 14-C , 18-C ) :   0.5092 B( 14-C , 19-H ) :   0.9112 B( 18-C , 20-H ) :   0.9736
B( 18-C , 21-H ) :   0.8945 B( 18-C , 22-C ) :   0.8297 B( 22-C , 23-H ) :   0.9523
B( 22-C , 24-H ) :   0.8720 B( 22-C , 25-C ) :   0.8190 B( 22-C , 26-F ) :   0.1223
B( 25-C , 26-F ) :   0.6481 B( 25-C , 27-H ) :   0.8924 B( 25-C , 28-H ) :   0.9579
B( 26-F , 30-H ) :  -0.2035

FINAL SINGLE POINT ENERGY      -492.073504314820

DIPOLE MOMENT
-------------
                                X             Y             Z
Electronic contribution:     -1.98294       3.30568       4.25881
Nuclear contribution   :      1.09293      -2.80761      -4.51228
                        -----------------------------------------
Total Dipole Moment    :     -0.89001       0.49807      -0.25347
                        -----------------------------------------
Magnitude (a.u.)       :      1.05092
Magnitude (Debye)      :      2.67123

Rotational constants in cm-1:     0.040502     0.027818     0.018259
Rotational constants in MHz :  1214.218058   833.972871   547.398614

                             ****ORCA TERMINATED NORMALLY****
TOTAL RUN TIME: 0 days 0 hours 5 minutes 27 seconds 446 msec
