                         Program Version 5.0.0 -  RELEASE  -
|  1> !DLPNO-CCSD(T) aug-cc-pVTZ aug-cc-pVTZ/C TightSCF TightPNO RIJCOSX def2/J
|  2> *xyz -1 1
|  3> C          1.72854        1.42432       -5.63944
|  4> S          2.25263       -0.18811       -6.27184
|  5> O          3.56261       -0.44446       -5.63155
|  6> O          2.34494       -0.03374       -7.69650
|  7> O          1.26606       -1.15918       -5.80536
|  8> H          0.77944        1.68154       -6.06127
|  9> H          2.45151        2.16548       -5.90944
| 10> H          1.64478        1.37937       -4.57367
| 11> *
| 12>
| 13> %MaxCore 64000
| 14>
| 15> %pal nprocs 2
| 16> end
| 17>
| 18> %scf
| 19>   MaxIter 150
| 20> end
| 21>
| 22>
| 23>                          ****END OF INPUT****

CARTESIAN COORDINATES (ANGSTROEM)
---------------------------------
  C      1.728540    1.424320   -5.639440
  S      2.252630   -0.188110   -6.271840
  O      3.562610   -0.444460   -5.631550
  O      2.344940   -0.033740   -7.696500
  O      1.266060   -1.159180   -5.805360
  H      0.779440    1.681540   -6.061270
  H      2.451510    2.165480   -5.909440
  H      1.644780    1.379370   -4.573670

 Total Charge           Charge          ....   -1
 Multiplicity           Mult            ....    1
 Number of Electrons    NEL             ....   50
 Basis Dimension        Dim             ....  303

ORBITAL ENERGIES
----------------

  NO   OCC          E(Eh)            E(eV)
   0   2.0000     -91.984538     -2503.0265
   1   2.0000     -20.333913      -553.3139
   2   2.0000     -20.327373      -553.1359
   3   2.0000     -20.318875      -552.9047
   4   2.0000     -11.084573      -301.6266
   5   2.0000      -8.947228      -243.4665
   6   2.0000      -6.633465      -180.5058
   7   2.0000      -6.632121      -180.4692
   8   2.0000      -6.632029      -180.4667
   9   2.0000      -1.270509       -34.5723
  10   2.0000      -1.127865       -30.6908
  11   2.0000      -1.102647       -30.0045
  12   2.0000      -0.844343       -22.9757
  13   2.0000      -0.604853       -16.4589
  14   2.0000      -0.484985       -13.1971
  15   2.0000      -0.467742       -12.7279
  16   2.0000      -0.466852       -12.7037
  17   2.0000      -0.421942       -11.4816
  18   2.0000      -0.418940       -11.3999
  19   2.0000      -0.322129        -8.7656
  20   2.0000      -0.318536        -8.6678
  21   2.0000      -0.277433        -7.5493
  22   2.0000      -0.264603        -7.2002
  23   2.0000      -0.253457        -6.8969
  24   2.0000      -0.227281        -6.1846
  25   0.0000       0.127074         3.4579
  26   0.0000       0.140009         3.8099
  27   0.0000       0.141029         3.8376
  28   0.0000       0.189358         5.1527
  29   0.0000       0.212852         5.7920

MULLIKEN ATOMIC CHARGES
-----------------------
   0 C :   -1.076715
   1 S :    2.191455
   2 O :   -1.017483
   3 O :   -0.994978
   4 O :   -1.000684
   5 H :    0.296685
   6 H :    0.303913
   7 H :    0.297806
Sum of atomic charges:   -1.0000000

LOEWDIN ATOMIC CHARGES
----------------------
   0 C :    0.439602
   1 S :   -0.435377
   2 O :   -0.099015
   3 O :   -0.066380
   4 O :   -0.084052
   5 H :   -0.252681
   6 H :   -0.250980
   7 H :   -0.251117

  Mayer bond orders larger than 0.100000
B(  0-C ,  1-S ) :   0.7688 B(  0-C ,  5-H ) :   0.9107 B(  0-C ,  6-H ) :   0.9018
B(  0-C ,  7-H ) :   0.9094 B(  1-S ,  2-O ) :   1.3052 B(  1-S ,  3-O ) :   1.3964
B(  1-S ,  4-O ) :   1.3493

E(0)                                       ...   -661.877557468
E(0)                                       ...   -661.877557468
E(CORR)(strong-pairs)                      ...     -1.114444073
E(CORR)(weak-pairs)                        ...     -0.000978006
E(CORR)(corrected)                         ...     -1.115422080
E(TOT)                                     ...   -662.992979547
E(CCSD(T))                                 ...   -663.040838657
FINAL SINGLE POINT ENERGY      -663.040838657110

DIPOLE MOMENT
-------------
                                X             Y             Z
Electronic contribution:      1.12921      -3.66836      -1.56041
Nuclear contribution   :     -1.71379       5.17769       1.98321
                        -----------------------------------------
Total Dipole Moment    :     -0.58458       1.50933       0.42280
                        -----------------------------------------
Magnitude (a.u.)       :      1.67290
Magnitude (Debye)      :      4.25216

Rotational constants in cm-1:     0.172739     0.155771     0.153412
Rotational constants in MHz :  5178.588083  4669.889924  4599.189984

                             ****ORCA TERMINATED NORMALLY****
TOTAL RUN TIME: 0 days 1 hours 3 minutes 32 seconds 673 msec
