                         Program Version 5.0.0 -  RELEASE  -
|  1> !DLPNO-CCSD(T) aug-cc-pVTZ aug-cc-pVTZ/C TightSCF TightPNO RIJCOSX def2/J
|  2> *xyz 1 1
|  3> C          2.91632       -1.24259       -1.54313
|  4> C          3.46659       -1.59097       -2.88908
|  5> N          4.65227       -1.14316       -3.25969
|  6> N          2.75226       -2.29204       -3.72803
|  7> H          1.77836       -2.48960       -3.51274
|  8> H          2.94861       -2.20854       -4.71681
|  9> H          5.14672       -0.51251       -2.63385
| 10> H          4.78303       -1.00720       -4.25350
| 11> H          1.95294       -1.69278       -1.42424
| 12> H          2.82618       -0.17973       -1.45886
| 13> H          3.57606       -1.60596       -0.78312
| 14> *
| 15>
| 16> %MaxCore 64000
| 17>
| 18> %pal nprocs 8
| 19> end
| 20>
| 21> %scf
| 22>   MaxIter 150
| 23> end
| 24>
| 25>
| 26>                          ****END OF INPUT****

CARTESIAN COORDINATES (ANGSTROEM)
---------------------------------
  C      2.916320   -1.242590   -1.543130
  C      3.466590   -1.590970   -2.889080
  N      4.652270   -1.143160   -3.259690
  N      2.752260   -2.292040   -3.728030
  H      1.778360   -2.489600   -3.512740
  H      2.948610   -2.208540   -4.716810
  H      5.146720   -0.512510   -2.633850
  H      4.783030   -1.007200   -4.253500
  H      1.952940   -1.692780   -1.424240
  H      2.826180   -0.179730   -1.458860
  H      3.576060   -1.605960   -0.783120

 Total Charge           Charge          ....    1
 Multiplicity           Mult            ....    1
 Number of Electrons    NEL             ....   32
 Basis Dimension        Dim             ....  345

ORBITAL ENERGIES
----------------

  NO   OCC          E(Eh)            E(eV)
   0   2.0000     -15.816127      -430.3787
   1   2.0000     -15.809745      -430.2050
   2   2.0000     -11.581945      -315.1608
   3   2.0000     -11.428737      -310.9917
   4   2.0000      -1.536911       -41.8215
   5   2.0000      -1.413565       -38.4650
   6   2.0000      -1.220764       -33.2187
   7   2.0000      -1.056059       -28.7368
   8   2.0000      -0.960675       -26.1413
   9   2.0000      -0.956989       -26.0410
  10   2.0000      -0.872519       -23.7424
  11   2.0000      -0.831414       -22.6239
  12   2.0000      -0.779102       -21.2004
  13   2.0000      -0.766184       -20.8489
  14   2.0000      -0.730242       -19.8709
  15   2.0000      -0.642057       -17.4713
  16   0.0000      -0.105301        -2.8654
  17   0.0000      -0.077348        -2.1048
  18   0.0000      -0.076556        -2.0832
  19   0.0000      -0.072846        -1.9822
  20   0.0000      -0.053198        -1.4476

MULLIKEN ATOMIC CHARGES
-----------------------
   0 C :   -0.656201
   1 C :    0.646174
   2 N :   -0.349957
   3 N :   -0.306022
   4 H :    0.138658
   5 H :    0.172357
   6 H :    0.151762
   7 H :    0.187066
   8 H :    0.335932
   9 H :    0.332252
  10 H :    0.347979
Sum of atomic charges:    1.0000000

LOEWDIN ATOMIC CHARGES
----------------------
   0 C :    0.706592
   1 C :   -0.220641
   2 N :    0.945132
   3 N :    0.948239
   4 H :   -0.225481
   5 H :   -0.229979
   6 H :   -0.224998
   7 H :   -0.239775
   8 H :   -0.163738
   9 H :   -0.146492
  10 H :   -0.148860

  Mayer bond orders larger than 0.100000
B(  0-C ,  1-C ) :   0.5933 B(  0-C ,  8-H ) :   0.9240 B(  0-C ,  9-H ) :   0.8973
B(  0-C , 10-H ) :   0.9163 B(  1-C ,  2-N ) :   1.0104 B(  1-C ,  3-N ) :   0.9781
B(  2-N ,  6-H ) :   1.0483 B(  2-N ,  7-H ) :   1.0301 B(  3-N ,  4-H ) :   1.0651
B(  3-N ,  5-H ) :   1.0516

E(0)                                       ...   -188.588249411
E(0)                                       ...   -188.588249411
E(CORR)(strong-pairs)                      ...     -0.782303736
E(CORR)(weak-pairs)                        ...     -0.000667570
E(CORR)(corrected)                         ...     -0.782971306
E(TOT)                                     ...   -189.371220717
E(CCSD(T))                                 ...   -189.402050303
FINAL SINGLE POINT ENERGY      -189.402050302519

DIPOLE MOMENT
-------------
                                X             Y             Z
Electronic contribution:      0.84987      -0.69542      -1.73731
Nuclear contribution   :     -1.03256       1.11747       1.26949
                        -----------------------------------------
Total Dipole Moment    :     -0.18269       0.42205      -0.46782
                        -----------------------------------------
Magnitude (a.u.)       :      0.65602
Magnitude (Debye)      :      1.66747

Rotational constants in cm-1:     0.336859     0.298586     0.163958
Rotational constants in MHz : 10098.776812  8951.369850  4915.333652

                             ****ORCA TERMINATED NORMALLY****
TOTAL RUN TIME: 0 days 0 hours 4 minutes 45 seconds 19 msec
