                         Program Version 5.0.0 -  RELEASE  -
|  1> !DLPNO-CCSD(T) aug-cc-pVTZ aug-cc-pVTZ/C TightSCF TightPNO RIJCOSX def2/J
|  2>
|  3> *xyzfile 0 1 B.xyz
|  4>
|  5> %MaxCore 64000
|  6>
|  7> %pal nprocs 18
|  8> end
|  9>
| 10> %scf
| 11>   MaxIter 150
| 12> end
| 13>
| 14>
| 15>                          ****END OF INPUT****

CARTESIAN COORDINATES (ANGSTROEM)
---------------------------------
  C      2.916324   -1.242589   -1.543125
  C      0.704661    1.443129   -4.503630
  C      1.728539    1.424320   -5.639443
  H      2.646718    1.953794   -5.381054
  H      1.299916    1.930613   -6.503614
  S      2.252625   -0.188115   -6.271840
  C      3.466585   -1.590971   -2.889082
  N      4.652275   -1.143164   -3.259692
  N      2.752264   -2.292043   -3.728029
  H      1.778364   -2.489604   -3.512738
  H      2.948612   -2.208544   -4.716813
  H      5.146723   -0.512508   -2.633852
  H      4.783030   -1.007203   -4.253498
  O      3.562607   -0.444464   -5.631552
  O      2.344944   -0.033742   -7.696501
  C      2.804084    0.290698   -1.359243
  C      1.052550    0.695659   -3.214915
  H     -0.232483    1.032925   -4.884449
  H      0.511700    2.495794   -4.267966
  C      2.388380    1.093669   -2.597108
  H      3.763425    0.674718   -0.999889
  H      2.094788    0.461222   -0.545756
  O      1.266058   -1.159177   -5.805365
  H      3.167316    1.013242   -3.359430
  H      2.357690    2.149375   -2.310997
  H      1.039284   -0.368429   -3.449329
  H      0.250787    0.865605   -2.488283
  H      1.940472   -1.716529   -1.441161
  H      3.558569   -1.663433   -0.766371

 Total Charge           Charge          ....    0
 Multiplicity           Mult            ....    1
 Number of Electrons    NEL             ....  112
 Basis Dimension        Dim             ....  970

ORBITAL ENERGIES
----------------

  NO   OCC          E(Eh)            E(eV)
   0   2.0000     -92.135349     -2507.1303
   1   2.0000     -20.489202      -557.5395
   2   2.0000     -20.482061      -557.3452
   3   2.0000     -20.473057      -557.1002
   4   2.0000     -15.633002      -425.3956
   5   2.0000     -15.632855      -425.3916
   6   2.0000     -11.408691      -310.4463
   7   2.0000     -11.294913      -307.3502
   8   2.0000     -11.272148      -306.7308
   9   2.0000     -11.241747      -305.9035
  10   2.0000     -11.228414      -305.5407
  11   2.0000     -11.226905      -305.4996
  12   2.0000     -11.225644      -305.4653
  13   2.0000      -9.098784      -247.5905
  14   2.0000      -6.784558      -184.6172
  15   2.0000      -6.784300      -184.6102
  16   2.0000      -6.783134      -184.5785
  17   2.0000      -1.428064       -38.8596
  18   2.0000      -1.362313       -37.0704
  19   2.0000      -1.277531       -34.7634
  20   2.0000      -1.274640       -34.6847
  21   2.0000      -1.238152       -33.6918
  22   2.0000      -1.129170       -30.7263
  23   2.0000      -1.076730       -29.2993
  24   2.0000      -1.016095       -27.6493
  25   2.0000      -0.947557       -25.7843
  26   2.0000      -0.894363       -24.3369
  27   2.0000      -0.854598       -23.2548
  28   2.0000      -0.805610       -21.9218
  29   2.0000      -0.790757       -21.5176
  30   2.0000      -0.776720       -21.1356
  31   2.0000      -0.736984       -20.0544
  32   2.0000      -0.700479       -19.0610
  33   2.0000      -0.693020       -18.8580
  34   2.0000      -0.668758       -18.1978
  35   2.0000      -0.644099       -17.5268
  36   2.0000      -0.640768       -17.4362
  37   2.0000      -0.617013       -16.7898
  38   2.0000      -0.611335       -16.6353
  39   2.0000      -0.604517       -16.4497
  40   2.0000      -0.586546       -15.9607
  41   2.0000      -0.580918       -15.8076
  42   2.0000      -0.570163       -15.5149
  43   2.0000      -0.536487       -14.5986
  44   2.0000      -0.530190       -14.4272
  45   2.0000      -0.524039       -14.2598
  46   2.0000      -0.494113       -13.4455
  47   2.0000      -0.483092       -13.1456
  48   2.0000      -0.475692       -12.9442
  49   2.0000      -0.473872       -12.8947
  50   2.0000      -0.464895       -12.6504
  51   2.0000      -0.455191       -12.3864
  52   2.0000      -0.429759       -11.6944
  53   2.0000      -0.421736       -11.4760
  54   2.0000      -0.395153       -10.7527
  55   2.0000      -0.388814       -10.5802
  56   0.0000       0.008077         0.2198
  57   0.0000       0.020785         0.5656
  58   0.0000       0.024371         0.6632
  59   0.0000       0.031899         0.8680
  60   0.0000       0.040626         1.1055

MULLIKEN ATOMIC CHARGES
-----------------------
   0 C :   -0.248595
   1 C :   -0.550202
   2 C :   -0.608665
   3 H :    0.132017
   4 H :    0.239170
   5 S :    2.631847
   6 C :    1.365401
   7 N :   -0.699699
   8 N :   -0.601227
   9 H :    0.056560
  10 H :    0.147178
  11 H :    0.056488
  12 H :    0.226822
  13 O :   -1.108603
  14 O :   -1.126635
  15 C :   -0.683173
  16 C :   -0.454460
  17 H :    0.213972
  18 H :    0.218892
  19 C :   -0.431342
  20 H :    0.097867
  21 H :    0.315042
  22 O :   -1.131429
  23 H :    0.204575
  24 H :    0.460493
  25 H :    0.348287
  26 H :    0.328444
  27 H :    0.136212
  28 H :    0.464763
Sum of atomic charges:    0.0000000

LOEWDIN ATOMIC CHARGES
----------------------
   0 C :    0.358663
   1 C :    0.260741
   2 C :    0.185421
   3 H :   -0.204311
   4 H :   -0.202504
   5 S :   -0.233536
   6 C :   -0.259868
   7 N :    0.927130
   8 N :    0.923096
   9 H :   -0.244008
  10 H :   -0.405411
  11 H :   -0.237762
  12 H :   -0.415585
  13 O :    0.118045
  14 O :    0.004325
  15 C :    0.321748
  16 C :    0.280123
  17 H :   -0.151820
  18 H :   -0.145083
  19 C :    0.287626
  20 H :   -0.143924
  21 H :   -0.134114
  22 O :    0.038284
  23 H :   -0.187590
  24 H :   -0.126222
  25 H :   -0.214351
  26 H :   -0.130151
  27 H :   -0.143465
  28 H :   -0.125493

  Mayer bond orders larger than 0.100000
B(  0-C ,  6-C ) :   0.7055 B(  0-C ,  7-N ) :  -0.1068 B(  0-C ,  8-N ) :  -0.1425
B(  0-C , 15-C ) :   0.9869 B(  0-C , 27-H ) :   1.1208 B(  0-C , 28-H ) :   0.8114
B(  1-C ,  2-C ) :   0.8906 B(  1-C , 16-C ) :   0.9251 B(  1-C , 17-H ) :   1.0434
B(  1-C , 18-H ) :   1.0015 B(  2-C ,  3-H ) :   1.0919 B(  2-C ,  4-H ) :   0.8948
B(  2-C ,  5-S ) :   0.8396 B(  2-C , 14-O ) :   0.1429 B(  4-H , 14-O ) :   0.1396
B(  5-S , 13-O ) :   1.3081 B(  5-S , 14-O ) :   0.8323 B(  5-S , 22-O ) :   1.2234
B(  6-C ,  7-N ) :   0.7577 B(  6-C ,  8-N ) :   0.7857 B(  6-C ,  9-H ) :  -0.1116
B(  6-C , 13-O ) :  -0.1546 B(  6-C , 15-C ) :   0.1138 B(  6-C , 28-H ) :  -0.1537
B(  7-N , 11-H ) :   1.1760 B(  7-N , 12-H ) :   0.9370 B(  8-N ,  9-H ) :   1.1707
B(  8-N , 10-H ) :   1.0053 B( 13-O , 22-O ) :   0.1196 B( 15-C , 19-C ) :   0.8336
B( 15-C , 20-H ) :   1.1071 B( 15-C , 21-H ) :   0.9260 B( 16-C , 19-C ) :   0.8249
B( 16-C , 25-H ) :   0.9258 B( 16-C , 26-H ) :   0.9265 B( 17-H , 18-H ) :   0.1053
B( 19-C , 23-H ) :   1.0928 B( 19-C , 24-H ) :   0.7709

E(0)                                       ...  -1005.633921509
E(0)                                       ...  -1005.633921509
E(CORR)(strong-pairs)                      ...     -2.632070857
E(CORR)(weak-pairs)                        ...     -0.004282901
E(CORR)(corrected)                         ...     -2.636353758
E(TOT)                                     ...  -1008.270275267
E(CCSD(T))                                 ...  -1008.384176218
FINAL SINGLE POINT ENERGY     -1008.384176217607

DIPOLE MOMENT
-------------
                                X             Y             Z
Electronic contribution:      2.72113      -6.16854     -13.04470
Nuclear contribution   :     -1.90023       6.18953      17.82209
                        -----------------------------------------
Total Dipole Moment    :      0.82090       0.02099       4.77739
                        -----------------------------------------
Magnitude (a.u.)       :      4.84745
Magnitude (Debye)      :     12.32123

Rotational constants in cm-1:     0.036337     0.018755     0.015005
Rotational constants in MHz :  1089.341704   562.266628   449.834770

                             ****ORCA TERMINATED NORMALLY****
TOTAL RUN TIME: 0 days 6 hours 9 minutes 25 seconds 480 msec
