                         Program Version 5.0.0 -  RELEASE  -
|  1> !DLPNO-CCSD(T) aug-cc-pVTZ aug-cc-pVTZ/C TightSCF TightPNO RIJCOSX def2/J
|  2> *xyz 0 1
|  3> C          1.72854        1.42432       -5.63944
|  4> S          2.25263       -0.18811       -6.27184
|  5> F          3.56261       -0.44446       -5.63155
|  6> O          2.34494       -0.03374       -7.69650
|  7> O          1.26606       -1.15918       -5.80536
|  8> H          0.77944        1.68154       -6.06127
|  9> H          2.45151        2.16548       -5.90944
| 10> H          1.64478        1.37937       -4.57367
| 11> *
| 12>
| 13> %MaxCore 64000
| 14>
| 15> %pal nprocs 2
| 16> end
| 17>
| 18> %scf
| 19>   MaxIter 150
| 20> end
| 21>
| 22>
| 23>                          ****END OF INPUT****

CARTESIAN COORDINATES (ANGSTROEM)
---------------------------------
  C      1.728540    1.424320   -5.639440
  S      2.252630   -0.188110   -6.271840
  F      3.562610   -0.444460   -5.631550
  O      2.344940   -0.033740   -7.696500
  O      1.266060   -1.159180   -5.805360
  H      0.779440    1.681540   -6.061270
  H      2.451510    2.165480   -5.909440
  H      1.644780    1.379370   -4.573670

 Total Charge           Charge          ....    0
 Multiplicity           Mult            ....    1
 Number of Electrons    NEL             ....   50
 Basis Dimension        Dim             ....  303

ORBITAL ENERGIES
----------------

  NO   OCC          E(Eh)            E(eV)
   0   2.0000     -92.258175     -2510.4726
   1   2.0000     -26.418084      -718.8726
   2   2.0000     -20.574962      -559.8732
   3   2.0000     -20.568131      -559.6873
   4   2.0000     -11.295381      -307.3629
   5   2.0000      -9.220540      -250.9036
   6   2.0000      -6.908227      -187.9824
   7   2.0000      -6.904459      -187.8799
   8   2.0000      -6.903295      -187.8482
   9   2.0000      -1.771711       -48.2107
  10   2.0000      -1.465216       -39.8706
  11   2.0000      -1.360610       -37.0241
  12   2.0000      -1.068713       -29.0811
  13   2.0000      -0.949430       -25.8353
  14   2.0000      -0.818575       -22.2746
  15   2.0000      -0.809959       -22.0401
  16   2.0000      -0.769011       -20.9258
  17   2.0000      -0.667376       -18.1602
  18   2.0000      -0.661365       -17.9967
  19   2.0000      -0.638294       -17.3689
  20   2.0000      -0.620315       -16.8796
  21   2.0000      -0.564758       -15.3679
  22   2.0000      -0.512082       -13.9345
  23   2.0000      -0.494552       -13.4575
  24   2.0000      -0.489443       -13.3184
  25   0.0000       0.021793         0.5930
  26   0.0000       0.041285         1.1234
  27   0.0000       0.043634         1.1873
  28   0.0000       0.064987         1.7684
  29   0.0000       0.091235         2.4826

MULLIKEN ATOMIC CHARGES
-----------------------
   0 C :   -0.996984
   1 S :    2.163229
   2 F :   -0.496624
   3 O :   -0.843827
   4 O :   -0.850054
   5 H :    0.349291
   6 H :    0.340767
   7 H :    0.334203
Sum of atomic charges:   -0.0000000

LOEWDIN ATOMIC CHARGES
----------------------
   0 C :    0.524399
   1 S :   -0.132709
   2 F :    0.247327
   3 O :    0.020392
   4 O :    0.004803
   5 H :   -0.210481
   6 H :   -0.226841
   7 H :   -0.226891

  Mayer bond orders larger than 0.100000
B(  0-C ,  1-S ) :   0.8849 B(  0-C ,  5-H ) :   0.8729 B(  0-C ,  6-H ) :   0.8706
B(  0-C ,  7-H ) :   0.8793 B(  1-S ,  2-F ) :   0.5630 B(  1-S ,  3-O ) :   1.5913
B(  1-S ,  4-O ) :   1.5419

E(0)                                       ...   -686.389678371
E(0)                                       ...   -686.389678371
E(CORR)(strong-pairs)                      ...     -1.119177280
E(CORR)(weak-pairs)                        ...     -0.000958168
E(CORR)(corrected)                         ...     -1.120135448
E(TOT)                                     ...   -687.509813819
E(CCSD(T))                                 ...   -687.555160268
FINAL SINGLE POINT ENERGY      -687.555160268108

DIPOLE MOMENT
-------------
                                X             Y             Z
Electronic contribution:      3.39806      -4.05137      -0.43443
Nuclear contribution   :     -3.03874       5.51823       1.39394
                        -----------------------------------------
Total Dipole Moment    :      0.35933       1.46686       0.95950
                        -----------------------------------------
Magnitude (a.u.)       :      1.78925
Magnitude (Debye)      :      4.54792

Rotational constants in cm-1:     0.164301     0.151617     0.146802
Rotational constants in MHz :  4925.615104  4545.361281  4401.017554

                             ****ORCA TERMINATED NORMALLY****
TOTAL RUN TIME: 0 days 0 hours 56 minutes 34 seconds 115 msec
