                         Program Version 5.0.0 -  RELEASE  -
|  1> !DLPNO-CCSD(T) aug-cc-pVTZ aug-cc-pVTZ/C TightSCF TightPNO RIJCOSX def2/J
|  2> *xyz 0 1
|  3> C          2.91632       -1.24259       -1.54313
|  4> C          3.46659       -1.59097       -2.88908
|  5> C          4.65227       -1.14316       -3.25969
|  6> N          2.75226       -2.29204       -3.72803
|  7> H          1.77836       -2.48960       -3.51274
|  8> H          2.94861       -2.20854       -4.71681
|  9> H          5.14672       -0.51251       -2.63385
| 10> H          4.78303       -1.00720       -4.25350
| 11> H          1.95294       -1.69278       -1.42424
| 12> H          2.82618       -0.17973       -1.45886
| 13> H          3.57606       -1.60596       -0.78312
| 14> *
| 15>
| 16> %MaxCore 64000
| 17>
| 18> %pal nprocs 8
| 19> end
| 20>
| 21> %scf
| 22>   MaxIter 150
| 23> end
| 24>
| 25>
| 26>                          ****END OF INPUT****

CARTESIAN COORDINATES (ANGSTROEM)
---------------------------------
  C      2.916320   -1.242590   -1.543130
  C      3.466590   -1.590970   -2.889080
  C      4.652270   -1.143160   -3.259690
  N      2.752260   -2.292040   -3.728030
  H      1.778360   -2.489600   -3.512740
  H      2.948610   -2.208540   -4.716810
  H      5.146720   -0.512510   -2.633850
  H      4.783030   -1.007200   -4.253500
  H      1.952940   -1.692780   -1.424240
  H      2.826180   -0.179730   -1.458860
  H      3.576060   -1.605960   -0.783120

 Total Charge           Charge          ....    0
 Multiplicity           Mult            ....    1
 Number of Electrons    NEL             ....   32
 Basis Dimension        Dim             ....  345

ORBITAL ENERGIES
----------------

  NO   OCC          E(Eh)            E(eV)
   0   2.0000     -15.564854      -423.5412
   1   2.0000     -11.259346      -306.3824
   2   2.0000     -11.218589      -305.2733
   3   2.0000     -11.145811      -303.2929
   4   2.0000      -1.249267       -33.9943
   5   2.0000      -1.029359       -28.0103
   6   2.0000      -0.944868       -25.7112
   7   2.0000      -0.776460       -21.1285
   8   2.0000      -0.703242       -19.1362
   9   2.0000      -0.646751       -17.5990
  10   2.0000      -0.596999       -16.2452
  11   2.0000      -0.556487       -15.1428
  12   2.0000      -0.550281       -14.9739
  13   2.0000      -0.515765       -14.0347
  14   2.0000      -0.482108       -13.1188
  15   2.0000      -0.291374        -7.9287
  16   0.0000       0.025932         0.7057
  17   0.0000       0.037680         1.0253
  18   0.0000       0.041658         1.1336
  19   0.0000       0.049865         1.3569
  20   0.0000       0.058313         1.5868

MULLIKEN ATOMIC CHARGES
-----------------------
   0 C :   -0.748727
   1 C :    0.757939
   2 C :   -1.294002
   3 N :   -0.478196
   4 H :    0.084173
   5 H :    0.064021
   6 H :    0.318310
   7 H :    0.432919
   8 H :    0.311395
   9 H :    0.282828
  10 H :    0.269340
Sum of atomic charges:    0.0000000

LOEWDIN ATOMIC CHARGES
----------------------
   0 C :    0.617843
   1 C :   -0.325709
   2 C :    0.552282
   3 N :    0.834339
   4 H :   -0.274901
   5 H :   -0.270573
   6 H :   -0.294097
   7 H :   -0.304198
   8 H :   -0.192349
   9 H :   -0.170488
  10 H :   -0.172149

  Mayer bond orders larger than 0.100000
B(  0-C ,  1-C ) :   0.7440 B(  0-C ,  8-H ) :   0.9473 B(  0-C ,  9-H ) :   0.9186
B(  0-C , 10-H ) :   1.0141 B(  1-C ,  2-C ) :   1.1717 B(  1-C ,  3-N ) :   0.7350
B(  2-C ,  3-N ) :  -0.1757 B(  2-C ,  6-H ) :   1.0414 B(  2-C ,  7-H ) :   0.8286
B(  3-N ,  4-H ) :   1.0794 B(  3-N ,  5-H ) :   1.1686

E(0)                                       ...   -172.148432164
E(0)                                       ...   -172.148432164
E(CORR)(strong-pairs)                      ...     -0.763727696
E(CORR)(weak-pairs)                        ...     -0.000653576
E(CORR)(corrected)                         ...     -0.764381272
E(TOT)                                     ...   -172.912813436
E(CCSD(T))                                 ...   -172.943925163
FINAL SINGLE POINT ENERGY      -172.943925163005

DIPOLE MOMENT
-------------
                                X             Y             Z
Electronic contribution:     -0.22432      -1.13953      -1.26595
Nuclear contribution   :     -0.76183       1.20997       1.18381
                        -----------------------------------------
Total Dipole Moment    :     -0.98615       0.07045      -0.08214
                        -----------------------------------------
Magnitude (a.u.)       :      0.99207
Magnitude (Debye)      :      2.52164

Rotational constants in cm-1:     0.357745     0.302571     0.170012
Rotational constants in MHz : 10724.926457  9070.849165  5096.845195

                             ****ORCA TERMINATED NORMALLY****
TOTAL RUN TIME: 0 days 0 hours 5 minutes 39 seconds 215 msec
