                         Program Version 5.0.0 -  RELEASE  -
|  1> !DLPNO-CCSD(T) aug-cc-pVTZ aug-cc-pVTZ/C TightSCF TightPNO RIJCOSX def2/J
|  2> *xyz 0 1
|  3> C          1.72854        1.42432       -5.63944
|  4> S          2.25263       -0.18811       -6.27184
|  5> O          3.56261       -0.44446       -5.63155
|  6> F          2.34494       -0.03374       -7.69650
|  7> O          1.26606       -1.15918       -5.80536
|  8> H          0.77944        1.68154       -6.06127
|  9> H          2.45151        2.16548       -5.90944
| 10> H          1.64478        1.37937       -4.57367
| 11> *
| 12>
| 13> %MaxCore 64000
| 14>
| 15> %pal nprocs 2
| 16> end
| 17>
| 18> %scf
| 19>   MaxIter 150
| 20> end
| 21>
| 22>
| 23>                          ****END OF INPUT****

CARTESIAN COORDINATES (ANGSTROEM)
---------------------------------
  C      1.728540    1.424320   -5.639440
  S      2.252630   -0.188110   -6.271840
  O      3.562610   -0.444460   -5.631550
  F      2.344940   -0.033740   -7.696500
  O      1.266060   -1.159180   -5.805360
  H      0.779440    1.681540   -6.061270
  H      2.451510    2.165480   -5.909440
  H      1.644780    1.379370   -4.573670

 Total Charge           Charge          ....    0
 Multiplicity           Mult            ....    1
 Number of Electrons    NEL             ....   50
 Basis Dimension        Dim             ....  303

ORBITAL ENERGIES
----------------

  NO   OCC          E(Eh)            E(eV)
   0   2.0000     -92.259531     -2510.5095
   1   2.0000     -26.441760      -719.5169
   2   2.0000     -20.568722      -559.7034
   3   2.0000     -20.559872      -559.4626
   4   2.0000     -11.296401      -307.3907
   5   2.0000      -9.222170      -250.9480
   6   2.0000      -6.909849      -188.0265
   7   2.0000      -6.905827      -187.9171
   8   2.0000      -6.904920      -187.8924
   9   2.0000      -1.812562       -49.3223
  10   2.0000      -1.448271       -39.4095
  11   2.0000      -1.338591       -36.4249
  12   2.0000      -1.072700       -29.1897
  13   2.0000      -0.972683       -26.4681
  14   2.0000      -0.844541       -22.9811
  15   2.0000      -0.838692       -22.8220
  16   2.0000      -0.769653       -20.9433
  17   2.0000      -0.660324       -17.9683
  18   2.0000      -0.656881       -17.8746
  19   2.0000      -0.639199       -17.3935
  20   2.0000      -0.611304       -16.6344
  21   2.0000      -0.556706       -15.1488
  22   2.0000      -0.499653       -13.5962
  23   2.0000      -0.487984       -13.2787
  24   2.0000      -0.474252       -12.9051
  25   0.0000       0.020926         0.5694
  26   0.0000       0.040446         1.1006
  27   0.0000       0.044344         1.2067
  28   0.0000       0.062951         1.7130
  29   0.0000       0.090683         2.4676

MULLIKEN ATOMIC CHARGES
-----------------------
   0 C :   -0.989544
   1 S :    2.146944
   2 O :   -0.856935
   3 F :   -0.484878
   4 O :   -0.841541
   5 H :    0.335870
   6 H :    0.341631
   7 H :    0.348453
Sum of atomic charges:    0.0000000

LOEWDIN ATOMIC CHARGES
----------------------
   0 C :    0.523518
   1 S :   -0.137607
   2 O :   -0.008758
   3 F :    0.282315
   4 O :    0.004840
   5 H :   -0.228426
   6 H :   -0.226688
   7 H :   -0.209193

  Mayer bond orders larger than 0.100000
B(  0-C ,  1-S ) :   0.8958 B(  0-C ,  5-H ) :   0.8772 B(  0-C ,  6-H ) :   0.8695
B(  0-C ,  7-H ) :   0.8733 B(  1-S ,  2-O ) :   1.5035 B(  1-S ,  3-F ) :   0.5857
B(  1-S ,  4-O ) :   1.5444

E(0)                                       ...   -686.370743392
E(0)                                       ...   -686.370743392
E(CORR)(strong-pairs)                      ...     -1.120145627
E(CORR)(weak-pairs)                        ...     -0.000963308
E(CORR)(corrected)                         ...     -1.121108935
E(TOT)                                     ...   -687.491852327
E(CCSD(T))                                 ...   -687.537479539
FINAL SINGLE POINT ENERGY      -687.537479539471

DIPOLE MOMENT
-------------
                                X             Y             Z
Electronic contribution:      1.24871      -3.33767      -4.04637
Nuclear contribution   :     -1.82220       5.10789       3.45696
                        -----------------------------------------
Total Dipole Moment    :     -0.57350       1.77022      -0.58941
                        -----------------------------------------
Magnitude (a.u.)       :      1.95192
Magnitude (Debye)      :      4.96139

Rotational constants in cm-1:     0.163267     0.154654     0.145086
Rotational constants in MHz :  4894.631475  4636.404456  4349.567403

                             ****ORCA TERMINATED NORMALLY****
TOTAL RUN TIME: 0 days 0 hours 55 minutes 17 seconds 958 msec
