                         Program Version 5.0.0 -  RELEASE  -
|  1> !DLPNO-CCSD(T) aug-cc-pVTZ aug-cc-pVTZ/C TightSCF TightPNO RIJCOSX def2/J
|  2> *xyz 0 1
|  3> C          2.91632       -1.24259       -1.54313
|  4> C          3.46659       -1.59097       -2.88908
|  5> N          4.65227       -1.14316       -3.25969
|  6> C          2.75226       -2.29204       -3.72803
|  7> H          1.77836       -2.48960       -3.51274
|  8> H          2.94861       -2.20854       -4.71681
|  9> H          5.14672       -0.51251       -2.63385
| 10> H          4.78303       -1.00720       -4.25350
| 11> H          1.95294       -1.69278       -1.42424
| 12> H          2.82618       -0.17973       -1.45886
| 13> H          3.57606       -1.60596       -0.78312
| 14> *
| 15>
| 16> %MaxCore 64000
| 17>
| 18> %pal nprocs 2
| 19> end
| 20>
| 21> %scf
| 22>   MaxIter 150
| 23> end
| 24>
| 25>
| 26>                          ****END OF INPUT****

CARTESIAN COORDINATES (ANGSTROEM)
---------------------------------
  C      2.916320   -1.242590   -1.543130
  C      3.466590   -1.590970   -2.889080
  N      4.652270   -1.143160   -3.259690
  C      2.752260   -2.292040   -3.728030
  H      1.778360   -2.489600   -3.512740
  H      2.948610   -2.208540   -4.716810
  H      5.146720   -0.512510   -2.633850
  H      4.783030   -1.007200   -4.253500
  H      1.952940   -1.692780   -1.424240
  H      2.826180   -0.179730   -1.458860
  H      3.576060   -1.605960   -0.783120

 Total Charge           Charge          ....    0
 Multiplicity           Mult            ....    1
 Number of Electrons    NEL             ....   32
 Basis Dimension        Dim             ....  345

ORBITAL ENERGIES
----------------

  NO   OCC          E(Eh)            E(eV)
   0   2.0000     -15.560430      -423.4208
   1   2.0000     -11.256451      -306.3036
   2   2.0000     -11.217206      -305.2357
   3   2.0000     -11.151421      -303.4456
   4   2.0000      -1.242197       -33.8019
   5   2.0000      -1.030739       -28.0478
   6   2.0000      -0.946211       -25.7477
   7   2.0000      -0.769378       -20.9359
   8   2.0000      -0.703315       -19.1382
   9   2.0000      -0.649914       -17.6851
  10   2.0000      -0.597591       -16.2613
  11   2.0000      -0.555640       -15.1197
  12   2.0000      -0.554073       -15.0771
  13   2.0000      -0.511071       -13.9069
  14   2.0000      -0.476463       -12.9652
  15   2.0000      -0.300664        -8.1815
  16   0.0000       0.026501         0.7211
  17   0.0000       0.037838         1.0296
  18   0.0000       0.041485         1.1289
  19   0.0000       0.047326         1.2878
  20   0.0000       0.058328         1.5872

MULLIKEN ATOMIC CHARGES
-----------------------
   0 C :   -0.690114
   1 C :    0.893950
   2 N :   -0.546531
   3 C :   -1.422394
   4 H :    0.244295
   5 H :    0.450793
   6 H :    0.109826
   7 H :    0.078446
   8 H :    0.306622
   9 H :    0.284647
  10 H :    0.290459
Sum of atomic charges:    0.0000000

LOEWDIN ATOMIC CHARGES
----------------------
   0 C :    0.612666
   1 C :   -0.322492
   2 N :    0.834306
   3 C :    0.552794
   4 H :   -0.293477
   5 H :   -0.292170
   6 H :   -0.272768
   7 H :   -0.279316
   8 H :   -0.186840
   9 H :   -0.174374
  10 H :   -0.178329

  Mayer bond orders larger than 0.100000
B(  0-C ,  1-C ) :   0.5635 B(  0-C ,  8-H ) :   0.9448 B(  0-C ,  9-H ) :   0.9583
B(  0-C , 10-H ) :   1.0034 B(  1-C ,  2-N ) :   0.7338 B(  1-C ,  3-C ) :   1.1157
B(  2-N ,  3-C ) :  -0.1215 B(  2-N ,  6-H ) :   1.0437 B(  2-N ,  7-H ) :   1.1412
B(  3-C ,  4-H ) :   1.1927 B(  3-C ,  5-H ) :   0.7414

E(0)                                       ...   -172.153665553
E(0)                                       ...   -172.153665553
E(CORR)(strong-pairs)                      ...     -0.762994742
E(CORR)(weak-pairs)                        ...     -0.000655858
E(CORR)(corrected)                         ...     -0.763650600
E(TOT)                                     ...   -172.917316154
E(CCSD(T))                                 ...   -172.948231599
FINAL SINGLE POINT ENERGY      -172.948231599235

DIPOLE MOMENT
-------------
                                X             Y             Z
Electronic contribution:      1.48784      -0.12979      -0.88005
Nuclear contribution   :     -1.18794       0.95232       1.07877
                        -----------------------------------------
Total Dipole Moment    :      0.29990       0.82253       0.19873
                        -----------------------------------------
Magnitude (a.u.)       :      0.89777
Magnitude (Debye)      :      2.28194

Rotational constants in cm-1:     0.358436     0.301769     0.169913
Rotational constants in MHz : 10745.629007  9046.806054  5093.859032

                             ****ORCA TERMINATED NORMALLY****
TOTAL RUN TIME: 0 days 0 hours 58 minutes 22 seconds 681 msec
