                         Program Version 5.0.0 -  RELEASE  -
|  1> !DLPNO-CCSD(T) aug-cc-pVTZ aug-cc-pVTZ/C TightSCF TightPNO RIJCOSX def2/J
|  2> *xyz 0 1
|  3> C          1.72854        1.42432       -5.63944
|  4> S          2.25263       -0.18811       -6.27184
|  5> O          3.56261       -0.44446       -5.63155
|  6> O          2.34494       -0.03374       -7.69650
|  7> F          1.26606       -1.15918       -5.80536
|  8> H          0.77944        1.68154       -6.06127
|  9> H          2.45151        2.16548       -5.90944
| 10> H          1.64478        1.37937       -4.57367
| 11> *
| 12>
| 13> %MaxCore 64000
| 14>
| 15> %pal nprocs 2
| 16> end
| 17>
| 18> %scf
| 19>   MaxIter 150
| 20> end
| 21>
| 22>
| 23>                          ****END OF INPUT****

CARTESIAN COORDINATES (ANGSTROEM)
---------------------------------
  C      1.728540    1.424320   -5.639440
  S      2.252630   -0.188110   -6.271840
  O      3.562610   -0.444460   -5.631550
  O      2.344940   -0.033740   -7.696500
  F      1.266060   -1.159180   -5.805360
  H      0.779440    1.681540   -6.061270
  H      2.451510    2.165480   -5.909440
  H      1.644780    1.379370   -4.573670

 Total Charge           Charge          ....    0
 Multiplicity           Mult            ....    1
 Number of Electrons    NEL             ....   50
 Basis Dimension        Dim             ....  303

ORBITAL ENERGIES
----------------

  NO   OCC          E(Eh)            E(eV)
   0   2.0000     -92.258582     -2510.4836
   1   2.0000     -26.429870      -719.1933
   2   2.0000     -20.575334      -559.8833
   3   2.0000     -20.559656      -559.4567
   4   2.0000     -11.295894      -307.3769
   5   2.0000      -9.221139      -250.9199
   6   2.0000      -6.908730      -187.9961
   7   2.0000      -6.904989      -187.8943
   8   2.0000      -6.903884      -187.8642
   9   2.0000      -1.790267       -48.7156
  10   2.0000      -1.460261       -39.7357
  11   2.0000      -1.347814       -36.6759
  12   2.0000      -1.069549       -29.1039
  13   2.0000      -0.960543       -26.1377
  14   2.0000      -0.830414       -22.5967
  15   2.0000      -0.823113       -22.3980
  16   2.0000      -0.769572       -20.9411
  17   2.0000      -0.664798       -18.0901
  18   2.0000      -0.659301       -17.9405
  19   2.0000      -0.639346       -17.3975
  20   2.0000      -0.616151       -16.7663
  21   2.0000      -0.561495       -15.2791
  22   2.0000      -0.507175       -13.8009
  23   2.0000      -0.488474       -13.2920
  24   2.0000      -0.480910       -13.0862
  25   0.0000       0.021409         0.5826
  26   0.0000       0.040932         1.1138
  27   0.0000       0.044101         1.2001
  28   0.0000       0.063855         1.7376
  29   0.0000       0.090917         2.4740

MULLIKEN ATOMIC CHARGES
-----------------------
   0 C :   -0.993858
   1 S :    2.159386
   2 O :   -0.860382
   3 O :   -0.840537
   4 F :   -0.492113
   5 H :    0.337279
   6 H :    0.355382
   7 H :    0.334844
Sum of atomic charges:    0.0000000

LOEWDIN ATOMIC CHARGES
----------------------
   0 C :    0.522961
   1 S :   -0.133167
   2 O :   -0.008787
   3 O :    0.020388
   4 F :    0.262811
   5 H :   -0.228241
   6 H :   -0.209063
   7 H :   -0.226903

  Mayer bond orders larger than 0.100000
B(  0-C ,  1-S ) :   0.8903 B(  0-C ,  5-H ) :   0.8777 B(  0-C ,  6-H ) :   0.8648
B(  0-C ,  7-H ) :   0.8777 B(  1-S ,  2-O ) :   1.5026 B(  1-S ,  3-O ) :   1.5901
B(  1-S ,  4-F ) :   0.5661

E(0)                                       ...   -686.379630808
E(0)                                       ...   -686.379630808
E(CORR)(strong-pairs)                      ...     -1.119698653
E(CORR)(weak-pairs)                        ...     -0.000962945
E(CORR)(corrected)                         ...     -1.120661598
E(TOT)                                     ...   -687.500292405
E(CCSD(T))                                 ...   -687.545773751
FINAL SINGLE POINT ENERGY      -687.545773751341

DIPOLE MOMENT
-------------
                                X             Y             Z
Electronic contribution:     -0.64329      -5.30139      -0.74715
Nuclear contribution   :     -0.74433       6.23228       1.56758
                        -----------------------------------------
Total Dipole Moment    :     -1.38762       0.93090       0.82043
                        -----------------------------------------
Magnitude (a.u.)       :      1.86150
Magnitude (Debye)      :      4.73155

Rotational constants in cm-1:     0.164764     0.152261     0.145794
Rotational constants in MHz :  4939.488001  4564.674339  4370.797804

                             ****ORCA TERMINATED NORMALLY****
TOTAL RUN TIME: 0 days 0 hours 55 minutes 35 seconds 28 msec
