                         Program Version 5.0.0 -  RELEASE  -
|  1> !DLPNO-CCSD(T) aug-cc-pVTZ aug-cc-pVTZ/C TightSCF TightPNO RIJCOSX def2/J
|  2>
|  3> *xyzfile 0 1 D1.xyz
|  4>
|  5> %MaxCore 64000
|  6>
|  7> %pal nprocs 18
|  8> end
|  9>
| 10> %scf
| 11>   MaxIter 150
| 12> end
| 13>
| 14>
| 15>                          ****END OF INPUT****

CARTESIAN COORDINATES (ANGSTROEM)
---------------------------------
  C      2.916324   -1.242589   -1.543125
  C      0.704661    1.443129   -4.503630
  C      1.728539    1.424320   -5.639443
  H      2.646718    1.953794   -5.381054
  H      1.299916    1.930613   -6.503614
  S      2.252625   -0.188115   -6.271840
  C      3.466585   -1.590971   -2.889082
  C      4.652275   -1.143164   -3.259692
  N      2.752264   -2.292043   -3.728029
  H      1.778364   -2.489604   -3.512738
  H      2.948612   -2.208544   -4.716813
  H      5.146723   -0.512508   -2.633852
  H      4.783030   -1.007203   -4.253498
  F      3.562607   -0.444464   -5.631552
  O      2.344944   -0.033742   -7.696501
  C      2.804084    0.290698   -1.359243
  C      1.052550    0.695659   -3.214915
  H     -0.232483    1.032925   -4.884449
  H      0.511700    2.495794   -4.267966
  C      2.388380    1.093669   -2.597108
  H      3.763425    0.674718   -0.999889
  H      2.094788    0.461222   -0.545756
  O      1.266058   -1.159177   -5.805365
  H      3.167316    1.013242   -3.359430
  H      2.357690    2.149375   -2.310997
  H      1.039284   -0.368429   -3.449329
  H      0.250787    0.865605   -2.488283
  H      1.940472   -1.716529   -1.441161
  H      3.558569   -1.663433   -0.766371

 Total Charge           Charge          ....    0
 Multiplicity           Mult            ....    1
 Number of Electrons    NEL             ....  112
 Basis Dimension        Dim             ....  970

ORBITAL ENERGIES
----------------

  NO   OCC          E(Eh)            E(eV)
   0   2.0000     -92.257916     -2510.4655
   1   2.0000     -26.420737      -718.9448
   2   2.0000     -20.578360      -559.9656
   3   2.0000     -20.572677      -559.8110
   4   2.0000     -15.552942      -423.2171
   5   2.0000     -11.298387      -307.4447
   6   2.0000     -11.258008      -306.3460
   7   2.0000     -11.253967      -306.2360
   8   2.0000     -11.233169      -305.6701
   9   2.0000     -11.231731      -305.6309
  10   2.0000     -11.230144      -305.5877
  11   2.0000     -11.228573      -305.5450
  12   2.0000     -11.141497      -303.1755
  13   2.0000      -9.221267      -250.9234
  14   2.0000      -6.908939      -188.0018
  15   2.0000      -6.904874      -187.8912
  16   2.0000      -6.903904      -187.8648
  17   2.0000      -1.779836       -48.4318
  18   2.0000      -1.471217       -40.0338
  19   2.0000      -1.368309       -37.2336
  20   2.0000      -1.244935       -33.8764
  21   2.0000      -1.124533       -30.6001
  22   2.0000      -1.081323       -29.4243
  23   2.0000      -1.030185       -28.0328
  24   2.0000      -0.993397       -27.0317
  25   2.0000      -0.951315       -25.8866
  26   2.0000      -0.931343       -25.3431
  27   2.0000      -0.863728       -23.5032
  28   2.0000      -0.824117       -22.4254
  29   2.0000      -0.815484       -22.1904
  30   2.0000      -0.798097       -21.7173
  31   2.0000      -0.769940       -20.9511
  32   2.0000      -0.750825       -20.4310
  33   2.0000      -0.695971       -18.9383
  34   2.0000      -0.684155       -18.6168
  35   2.0000      -0.668818       -18.1995
  36   2.0000      -0.658201       -17.9106
  37   2.0000      -0.648660       -17.6509
  38   2.0000      -0.645893       -17.5756
  39   2.0000      -0.612274       -16.6608
  40   2.0000      -0.597040       -16.2463
  41   2.0000      -0.585342       -15.9280
  42   2.0000      -0.569617       -15.5001
  43   2.0000      -0.553047       -15.0492
  44   2.0000      -0.541507       -14.7351
  45   2.0000      -0.538014       -14.6401
  46   2.0000      -0.528158       -14.3719
  47   2.0000      -0.515847       -14.0369
  48   2.0000      -0.506823       -13.7913
  49   2.0000      -0.496660       -13.5148
  50   2.0000      -0.490073       -13.3356
  51   2.0000      -0.483145       -13.1471
  52   2.0000      -0.468719       -12.7545
  53   2.0000      -0.462559       -12.5869
  54   2.0000      -0.456606       -12.4249
  55   2.0000      -0.287417        -7.8210
  56   0.0000       0.021138         0.5752
  57   0.0000       0.028671         0.7802
  58   0.0000       0.030993         0.8434
  59   0.0000       0.038918         1.0590
  60   0.0000       0.044201         1.2028

MULLIKEN ATOMIC CHARGES
-----------------------
   0 C :   -0.232102
   1 C :   -0.556850
   2 C :   -0.577138
   3 H :    0.165925
   4 H :    0.256695
   5 S :    2.726892
   6 C :    1.403127
   7 C :   -1.586719
   8 N :   -0.850123
   9 H :   -0.060098
  10 H :   -0.009229
  11 H :    0.146947
  12 H :    0.621700
  13 F :   -0.615119
  14 O :   -1.053536
  15 C :   -0.640201
  16 C :   -0.456147
  17 H :    0.226912
  18 H :    0.245688
  19 C :   -0.497081
  20 H :    0.094057
  21 H :    0.319837
  22 O :   -1.002165
  23 H :    0.247548
  24 H :    0.428298
  25 H :    0.343965
  26 H :    0.312731
  27 H :    0.098234
  28 H :    0.497956
Sum of atomic charges:   -0.0000000

LOEWDIN ATOMIC CHARGES
----------------------
   0 C :    0.320436
   1 C :    0.271712
   2 C :    0.219300
   3 H :   -0.193100
   4 H :   -0.188912
   5 S :   -0.007296
   6 C :   -0.329842
   7 C :    0.539397
   8 N :    0.830440
   9 H :   -0.273457
  10 H :   -0.404081
  11 H :   -0.281072
  12 H :   -0.404013
  13 F :    0.382458
  14 O :    0.051192
  15 C :    0.317242
  16 C :    0.284577
  17 H :   -0.149968
  18 H :   -0.136370
  19 C :    0.282772
  20 H :   -0.142494
  21 H :   -0.143278
  22 O :    0.097441
  23 H :   -0.190357
  24 H :   -0.131777
  25 H :   -0.211171
  26 H :   -0.125062
  27 H :   -0.154910
  28 H :   -0.129806

  Mayer bond orders larger than 0.100000
B(  0-C ,  6-C ) :   0.6047 B(  0-C ,  7-C ) :  -0.1087 B(  0-C ,  8-N ) :  -0.1524
B(  0-C , 15-C ) :   0.9263 B(  0-C , 27-H ) :   1.1327 B(  0-C , 28-H ) :   0.8853
B(  1-C ,  2-C ) :   0.9213 B(  1-C , 16-C ) :   0.9197 B(  1-C , 17-H ) :   1.0395
B(  1-C , 18-H ) :   0.9723 B(  2-C ,  3-H ) :   1.0581 B(  2-C ,  4-H ) :   0.8841
B(  2-C ,  5-S ) :   0.9026 B(  2-C , 14-O ) :   0.1152 B(  2-C , 22-O ) :   0.1120
B(  4-H , 14-O ) :   0.1456 B(  5-S , 13-F ) :   0.5834 B(  5-S , 14-O ) :   0.8452
B(  5-S , 22-O ) :   1.3911 B(  6-C ,  7-C ) :   1.1680 B(  6-C ,  8-N ) :   0.1663
B(  6-C ,  9-H ) :  -0.2589 B(  6-C , 10-H ) :  -0.1135 B(  6-C , 11-H ) :  -0.1741
B(  6-C , 12-H ) :  -0.1058 B(  6-C , 15-C ) :   0.1630 B(  6-C , 28-H ) :  -0.2436
B(  7-C ,  8-N ) :  -0.1589 B(  7-C , 11-H ) :   1.4695 B(  7-C , 12-H ) :   0.5564
B(  7-C , 19-C ) :   0.1066 B(  8-N ,  9-H ) :   1.3281 B(  8-N , 10-H ) :   1.2489
B( 13-F , 14-O ) :   0.1182 B( 15-C , 19-C ) :   0.8596 B( 15-C , 20-H ) :   1.1185
B( 15-C , 21-H ) :   0.8997 B( 15-C , 27-H ) :   0.1044 B( 16-C , 19-C ) :   0.8354
B( 16-C , 25-H ) :   0.9382 B( 16-C , 26-H ) :   0.9324 B( 17-H , 18-H ) :   0.1061
B( 19-C , 23-H ) :   1.0301 B( 19-C , 24-H ) :   0.8320

E(0)                                       ...  -1013.529640236
E(0)                                       ...  -1013.529640236
E(CORR)(strong-pairs)                      ...     -2.617686588
E(CORR)(weak-pairs)                        ...     -0.004173085
E(CORR)(corrected)                         ...     -2.621859672
E(TOT)                                     ...  -1016.151499908
E(CCSD(T))                                 ...  -1016.262943768
FINAL SINGLE POINT ENERGY     -1016.262943767556

DIPOLE MOMENT
-------------
                                X             Y             Z
Electronic contribution:      2.10798      -4.75808     -18.43228
Nuclear contribution   :     -2.89481       6.29550      19.36835
                        -----------------------------------------
Total Dipole Moment    :     -0.78684       1.53742       0.93607
                        -----------------------------------------
Magnitude (a.u.)       :      1.96443
Magnitude (Debye)      :      4.99319

Rotational constants in cm-1:     0.036515     0.018832     0.015081
Rotational constants in MHz :  1094.679513   564.567051   452.109105

                             ****ORCA TERMINATED NORMALLY****
TOTAL RUN TIME: 0 days 3 hours 48 minutes 44 seconds 73 msec
