                         Program Version 5.0.0 -  RELEASE  -
|  1> !DLPNO-CCSD(T) aug-cc-pVTZ aug-cc-pVTZ/C TightSCF TightPNO RIJCOSX def2/J
|  2>
|  3> *xyzfile 0 1 D3.xyz
|  4>
|  5> %MaxCore 64000
|  6>
|  7> %pal nprocs 18
|  8> end
|  9>
| 10> %scf
| 11>   MaxIter 150
| 12> end
| 13>
| 14>
| 15>                          ****END OF INPUT****

CARTESIAN COORDINATES (ANGSTROEM)
---------------------------------
  C      2.916324   -1.242589   -1.543125
  C      0.704661    1.443129   -4.503630
  C      1.728539    1.424320   -5.639443
  H      2.646718    1.953794   -5.381054
  H      1.299916    1.930613   -6.503614
  S      2.252625   -0.188115   -6.271840
  C      3.466585   -1.590971   -2.889082
  C      4.652275   -1.143164   -3.259692
  N      2.752264   -2.292043   -3.728029
  H      1.778364   -2.489604   -3.512738
  H      2.948612   -2.208544   -4.716813
  H      5.146723   -0.512508   -2.633852
  H      4.783030   -1.007203   -4.253498
  O      3.562607   -0.444464   -5.631552
  F      2.344944   -0.033742   -7.696501
  C      2.804084    0.290698   -1.359243
  C      1.052550    0.695659   -3.214915
  H     -0.232483    1.032925   -4.884449
  H      0.511700    2.495794   -4.267966
  C      2.388380    1.093669   -2.597108
  H      3.763425    0.674718   -0.999889
  H      2.094788    0.461222   -0.545756
  O      1.266058   -1.159177   -5.805365
  H      3.167316    1.013242   -3.359430
  H      2.357690    2.149375   -2.310997
  H      1.039284   -0.368429   -3.449329
  H      0.250787    0.865605   -2.488283
  H      1.940472   -1.716529   -1.441161
  H      3.558569   -1.663433   -0.766371

 Total Charge           Charge          ....    0
 Multiplicity           Mult            ....    1
 Number of Electrons    NEL             ....  112
 Basis Dimension        Dim             ....  970

ORBITAL ENERGIES
----------------

  NO   OCC          E(Eh)            E(eV)
   0   2.0000     -92.263440     -2510.6159
   1   2.0000     -26.447193      -719.6647
   2   2.0000     -20.577452      -559.9409
   3   2.0000     -20.567225      -559.6627
   4   2.0000     -15.526000      -422.4839
   5   2.0000     -11.302319      -307.5517
   6   2.0000     -11.259379      -306.3833
   7   2.0000     -11.227659      -305.5201
   8   2.0000     -11.225894      -305.4721
   9   2.0000     -11.217754      -305.2506
  10   2.0000     -11.214982      -305.1752
  11   2.0000     -11.212931      -305.1194
  12   2.0000     -11.113016      -302.4005
  13   2.0000      -9.227095      -251.0820
  14   2.0000      -6.914447      -188.1517
  15   2.0000      -6.910523      -188.0449
  16   2.0000      -6.909928      -188.0287
  17   2.0000      -1.818506       -49.4841
  18   2.0000      -1.462238       -39.7895
  19   2.0000      -1.352992       -36.8168
  20   2.0000      -1.218324       -33.1523
  21   2.0000      -1.122521       -30.5454
  22   2.0000      -1.071395       -29.1541
  23   2.0000      -1.028377       -27.9836
  24   2.0000      -0.985644       -26.8207
  25   2.0000      -0.951158       -25.8823
  26   2.0000      -0.918048       -24.9814
  27   2.0000      -0.864719       -23.5302
  28   2.0000      -0.845494       -23.0071
  29   2.0000      -0.830789       -22.6069
  30   2.0000      -0.788714       -21.4620
  31   2.0000      -0.771016       -20.9804
  32   2.0000      -0.731957       -19.9176
  33   2.0000      -0.688216       -18.7273
  34   2.0000      -0.675696       -18.3866
  35   2.0000      -0.670432       -18.2434
  36   2.0000      -0.653597       -17.7853
  37   2.0000      -0.644866       -17.5477
  38   2.0000      -0.622405       -16.9365
  39   2.0000      -0.598834       -16.2951
  40   2.0000      -0.588222       -16.0063
  41   2.0000      -0.578269       -15.7355
  42   2.0000      -0.564131       -15.3508
  43   2.0000      -0.536396       -14.5961
  44   2.0000      -0.534958       -14.5570
  45   2.0000      -0.518849       -14.1186
  46   2.0000      -0.510440       -13.8898
  47   2.0000      -0.504161       -13.7189
  48   2.0000      -0.494799       -13.4642
  49   2.0000      -0.487911       -13.2767
  50   2.0000      -0.481866       -13.1122
  51   2.0000      -0.472337       -12.8529
  52   2.0000      -0.452922       -12.3246
  53   2.0000      -0.447786       -12.1849
  54   2.0000      -0.438555       -11.9337
  55   2.0000      -0.260153        -7.0791
  56   0.0000       0.017747         0.4829
  57   0.0000       0.029661         0.8071
  58   0.0000       0.032509         0.8846
  59   0.0000       0.039139         1.0650
  60   0.0000       0.046479         1.2647

MULLIKEN ATOMIC CHARGES
-----------------------
   0 C :   -0.236006
   1 C :   -0.514128
   2 C :   -0.601006
   3 H :    0.188215
   4 H :    0.311798
   5 S :    2.388498
   6 C :    1.444531
   7 C :   -1.516711
   8 N :   -0.866297
   9 H :   -0.067330
  10 H :   -0.026533
  11 H :    0.199986
  12 H :    0.518044
  13 O :   -0.940221
  14 F :   -0.500922
  15 C :   -0.651537
  16 C :   -0.462897
  17 H :    0.214522
  18 H :    0.235384
  19 C :   -0.513472
  20 H :    0.089876
  21 H :    0.319086
  22 O :   -0.986013
  23 H :    0.255893
  24 H :    0.427540
  25 H :    0.379865
  26 H :    0.320270
  27 H :    0.099310
  28 H :    0.490255
Sum of atomic charges:    0.0000000

LOEWDIN ATOMIC CHARGES
----------------------
   0 C :    0.314905
   1 C :    0.275064
   2 C :    0.219963
   3 H :   -0.190146
   4 H :   -0.199445
   5 S :    0.028567
   6 C :   -0.331773
   7 C :    0.533732
   8 N :    0.825604
   9 H :   -0.278873
  10 H :   -0.425506
  11 H :   -0.282481
  12 H :   -0.436453
  13 O :    0.183097
  14 F :    0.305185
  15 C :    0.315134
  16 C :    0.286909
  17 H :   -0.152129
  18 H :   -0.135153
  19 C :    0.285101
  20 H :   -0.143203
  21 H :   -0.146185
  22 O :    0.096432
  23 H :   -0.190140
  24 H :   -0.134284
  25 H :   -0.208261
  26 H :   -0.125962
  27 H :   -0.157571
  28 H :   -0.132127

  Mayer bond orders larger than 0.100000
B(  0-C ,  6-C ) :   0.5981 B(  0-C ,  7-C ) :  -0.1001 B(  0-C ,  8-N ) :  -0.1488
B(  0-C , 15-C ) :   0.9271 B(  0-C , 27-H ) :   1.1371 B(  0-C , 28-H ) :   0.8912
B(  1-C ,  2-C ) :   0.9046 B(  1-C , 16-C ) :   0.9145 B(  1-C , 17-H ) :   1.0332
B(  1-C , 18-H ) :   0.9736 B(  2-C ,  3-H ) :   1.0724 B(  2-C ,  4-H ) :   0.8259
B(  2-C ,  5-S ) :   0.8916 B(  2-C , 22-O ) :   0.1088 B(  4-H , 14-F ) :   0.1507
B(  5-S , 13-O ) :   1.5506 B(  5-S , 14-F ) :   0.1381 B(  5-S , 22-O ) :   1.4630
B(  6-C ,  7-C ) :   1.1750 B(  6-C ,  8-N ) :   0.1773 B(  6-C ,  9-H ) :  -0.2585
B(  6-C , 10-H ) :  -0.1268 B(  6-C , 11-H ) :  -0.1573 B(  6-C , 12-H ) :  -0.1026
B(  6-C , 15-C ) :   0.1590 B(  6-C , 28-H ) :  -0.2373 B(  7-C ,  8-N ) :  -0.1547
B(  7-C , 11-H ) :   1.3443 B(  7-C , 12-H ) :   0.6843 B(  7-C , 13-O ) :  -0.1162
B(  7-C , 19-C ) :   0.1037 B(  7-C , 28-H ) :  -0.1000 B(  8-N ,  9-H ) :   1.3427
B(  8-N , 10-H ) :   1.2187 B( 13-O , 22-O ) :   0.1032 B( 15-C , 19-C ) :   0.8552
B( 15-C , 20-H ) :   1.1202 B( 15-C , 21-H ) :   0.9014 B( 15-C , 27-H ) :   0.1044
B( 16-C , 19-C ) :   0.8418 B( 16-C , 25-H ) :   0.9209 B( 16-C , 26-H ) :   0.9222
B( 17-H , 18-H ) :   0.1060 B( 19-C , 23-H ) :   1.0097 B( 19-C , 24-H ) :   0.8300

E(0)                                       ...  -1013.510534609
E(0)                                       ...  -1013.510534609
E(CORR)(strong-pairs)                      ...     -2.620289904
E(CORR)(weak-pairs)                        ...     -0.004292044
E(CORR)(corrected)                         ...     -2.624581949
E(TOT)                                     ...  -1016.135116558
E(CCSD(T))                                 ...  -1016.247183881
FINAL SINGLE POINT ENERGY     -1016.247183880768

DIPOLE MOMENT
-------------
                                X             Y             Z
Electronic contribution:     -0.08514      -3.92627     -22.57279
Nuclear contribution   :     -1.50273       5.82595      21.72909
                        -----------------------------------------
Total Dipole Moment    :     -1.58787       1.89967      -0.84371
                        -----------------------------------------
Magnitude (a.u.)       :      2.61571
Magnitude (Debye)      :      6.64861

Rotational constants in cm-1:     0.036883     0.018294     0.014745
Rotational constants in MHz :  1105.724679   548.429785   442.050481

                             ****ORCA TERMINATED NORMALLY****
TOTAL RUN TIME: 0 days 5 hours 2 minutes 16 seconds 874 msec
