                         Program Version 5.0.0 -  RELEASE  -
|  1> !DLPNO-CCSD(T) aug-cc-pVTZ aug-cc-pVTZ/C TightSCF TightPNO RIJCOSX def2/J
|  2>
|  3> *xyzfile 0 1 D4.xyz
|  4>
|  5> %MaxCore 64000
|  6>
|  7> %pal nprocs 18
|  8> end
|  9>
| 10> %scf
| 11>   MaxIter 150
| 12> end
| 13>
| 14>
| 15>                          ****END OF INPUT****

CARTESIAN COORDINATES (ANGSTROEM)
---------------------------------
  C      2.916324   -1.242589   -1.543125
  C      0.704661    1.443129   -4.503630
  C      1.728539    1.424320   -5.639443
  H      2.646718    1.953794   -5.381054
  H      1.299916    1.930613   -6.503614
  S      2.252625   -0.188115   -6.271840
  C      3.466585   -1.590971   -2.889082
  N      4.652275   -1.143164   -3.259692
  C      2.752264   -2.292043   -3.728029
  H      1.778364   -2.489604   -3.512738
  H      2.948612   -2.208544   -4.716813
  H      5.146723   -0.512508   -2.633852
  H      4.783030   -1.007203   -4.253498
  O      3.562607   -0.444464   -5.631552
  F      2.344944   -0.033742   -7.696501
  C      2.804084    0.290698   -1.359243
  C      1.052550    0.695659   -3.214915
  H     -0.232483    1.032925   -4.884449
  H      0.511700    2.495794   -4.267966
  C      2.388380    1.093669   -2.597108
  H      3.763425    0.674718   -0.999889
  H      2.094788    0.461222   -0.545756
  O      1.266058   -1.159177   -5.805365
  H      3.167316    1.013242   -3.359430
  H      2.357690    2.149375   -2.310997
  H      1.039284   -0.368429   -3.449329
  H      0.250787    0.865605   -2.488283
  H      1.940472   -1.716529   -1.441161
  H      3.558569   -1.663433   -0.766371

 Total Charge           Charge          ....    0
 Multiplicity           Mult            ....    1
 Number of Electrons    NEL             ....  112
 Basis Dimension        Dim             ....  970

ORBITAL ENERGIES
----------------

  NO   OCC          E(Eh)            E(eV)
   0   2.0000     -92.259573     -2510.5106
   1   2.0000     -26.443473      -719.5635
   2   2.0000     -20.567978      -559.6831
   3   2.0000     -20.563860      -559.5711
   4   2.0000     -15.524391      -422.4402
   5   2.0000     -11.299249      -307.4682
   6   2.0000     -11.255348      -306.2736
   7   2.0000     -11.222420      -305.3776
   8   2.0000     -11.220316      -305.3203
   9   2.0000     -11.219508      -305.2983
  10   2.0000     -11.218117      -305.2605
  11   2.0000     -11.210561      -305.0549
  12   2.0000     -11.119244      -302.5700
  13   2.0000      -9.222846      -250.9664
  14   2.0000      -6.910251      -188.0375
  15   2.0000      -6.906282      -187.9295
  16   2.0000      -6.905749      -187.9150
  17   2.0000      -1.814710       -49.3808
  18   2.0000      -1.455048       -39.5939
  19   2.0000      -1.347063       -36.6555
  20   2.0000      -1.213111       -33.0104
  21   2.0000      -1.118901       -30.4468
  22   2.0000      -1.069463       -29.1016
  23   2.0000      -1.022926       -27.8352
  24   2.0000      -0.988594       -26.9010
  25   2.0000      -0.958001       -26.0685
  26   2.0000      -0.914077       -24.8733
  27   2.0000      -0.857600       -23.3365
  28   2.0000      -0.842005       -22.9121
  29   2.0000      -0.825867       -22.4730
  30   2.0000      -0.786334       -21.3972
  31   2.0000      -0.768898       -20.9228
  32   2.0000      -0.730349       -19.8738
  33   2.0000      -0.688875       -18.7453
  34   2.0000      -0.677491       -18.4355
  35   2.0000      -0.667438       -18.1619
  36   2.0000      -0.648659       -17.6509
  37   2.0000      -0.627731       -17.0814
  38   2.0000      -0.625620       -17.0240
  39   2.0000      -0.601619       -16.3709
  40   2.0000      -0.589996       -16.0546
  41   2.0000      -0.569908       -15.5080
  42   2.0000      -0.560877       -15.2623
  43   2.0000      -0.538435       -14.6516
  44   2.0000      -0.531970       -14.4757
  45   2.0000      -0.525863       -14.3095
  46   2.0000      -0.508870       -13.8470
  47   2.0000      -0.502197       -13.6655
  48   2.0000      -0.491544       -13.3756
  49   2.0000      -0.481620       -13.1055
  50   2.0000      -0.474892       -12.9225
  51   2.0000      -0.467163       -12.7121
  52   2.0000      -0.454402       -12.3649
  53   2.0000      -0.445355       -12.1187
  54   2.0000      -0.435441       -11.8490
  55   2.0000      -0.269349        -7.3294
  56   0.0000       0.018429         0.5015
  57   0.0000       0.029235         0.7955
  58   0.0000       0.031929         0.8688
  59   0.0000       0.038918         1.0590
  60   0.0000       0.045936         1.2500

MULLIKEN ATOMIC CHARGES
-----------------------
   0 C :   -0.330111
   1 C :   -0.534030
   2 C :   -0.589689
   3 H :    0.193485
   4 H :    0.301901
   5 S :    2.382011
   6 C :    1.413750
   7 N :   -1.004958
   8 C :   -1.243325
   9 H :    0.200724
  10 H :    0.398294
  11 H :    0.030011
  12 H :    0.082210
  13 O :   -0.963462
  14 F :   -0.498471
  15 C :   -0.705361
  16 C :   -0.436266
  17 H :    0.223134
  18 H :    0.228639
  19 C :   -0.488513
  20 H :    0.093227
  21 H :    0.318862
  22 O :   -0.976284
  23 H :    0.188717
  24 H :    0.429095
  25 H :    0.373362
  26 H :    0.333804
  27 H :    0.152062
  28 H :    0.427184
Sum of atomic charges:    0.0000000

LOEWDIN ATOMIC CHARGES
----------------------
   0 C :    0.310580
   1 C :    0.275480
   2 C :    0.218270
   3 H :   -0.192932
   4 H :   -0.199786
   5 S :    0.034450
   6 C :   -0.327467
   7 N :    0.839377
   8 C :    0.507489
   9 H :   -0.283382
  10 H :   -0.427054
  11 H :   -0.269568
  12 H :   -0.429568
  13 O :    0.175782
  14 F :    0.305372
  15 C :    0.312225
  16 C :    0.289548
  17 H :   -0.150995
  18 H :   -0.136621
  19 C :    0.283256
  20 H :   -0.148633
  21 H :   -0.144211
  22 O :    0.109082
  23 H :   -0.187901
  24 H :   -0.135206
  25 H :   -0.211462
  26 H :   -0.125640
  27 H :   -0.153999
  28 H :   -0.136483

  Mayer bond orders larger than 0.100000
B(  0-C ,  6-C ) :   0.5364 B(  0-C ,  8-C ) :  -0.1537 B(  0-C , 15-C ) :   1.0094
B(  0-C , 27-H ) :   1.1268 B(  0-C , 28-H ) :   0.8592 B(  1-C ,  2-C ) :   0.8964
B(  1-C ,  5-S ) :   0.1016 B(  1-C , 16-C ) :   0.9199 B(  1-C , 17-H ) :   1.0268
B(  1-C , 18-H ) :   0.9763 B(  2-C ,  3-H ) :   1.0730 B(  2-C ,  4-H ) :   0.8355
B(  2-C ,  5-S ) :   0.8715 B(  2-C , 22-O ) :   0.1172 B(  4-H , 14-F ) :   0.1549
B(  5-S , 13-O ) :   1.5819 B(  5-S , 14-F ) :   0.1464 B(  5-S , 22-O ) :   1.4822
B(  6-C ,  7-N ) :   0.1021 B(  6-C ,  8-C ) :   1.2476 B(  6-C ,  9-H ) :  -0.1539
B(  6-C , 10-H ) :  -0.1125 B(  6-C , 11-H ) :  -0.1330 B(  6-C , 12-H ) :  -0.1258
B(  6-C , 13-O ) :  -0.1602 B(  6-C , 28-H ) :  -0.1976 B(  7-N ,  8-C ) :  -0.1003
B(  7-N , 11-H ) :   1.1476 B(  7-N , 12-H ) :   1.1901 B(  8-C ,  9-H ) :   1.2523
B(  8-C , 10-H ) :   0.8040 B(  9-H , 10-H ) :   0.1130 B( 13-O , 22-O ) :   0.1017
B( 15-C , 19-C ) :   0.8430 B( 15-C , 20-H ) :   1.1217 B( 15-C , 21-H ) :   0.9276
B( 16-C , 19-C ) :   0.8169 B( 16-C , 25-H ) :   0.9139 B( 16-C , 26-H ) :   0.9177
B( 17-H , 18-H ) :   0.1058 B( 19-C , 23-H ) :   1.0690 B( 19-C , 24-H ) :   0.8059

E(0)                                       ...  -1013.515029105
E(0)                                       ...  -1013.515029105
E(CORR)(strong-pairs)                      ...     -2.619624487
E(CORR)(weak-pairs)                        ...     -0.004350098
E(CORR)(corrected)                         ...     -2.623974585
E(TOT)                                     ...  -1016.139003691
E(CCSD(T))                                 ...  -1016.250797129
FINAL SINGLE POINT ENERGY     -1016.250797129178

DIPOLE MOMENT
-------------
                                X             Y             Z
Electronic contribution:      1.23105      -3.22849     -22.25959
Nuclear contribution   :     -1.74760       5.67788      21.66873
                        -----------------------------------------
Total Dipole Moment    :     -0.51655       2.44939      -0.59087
                        -----------------------------------------
Magnitude (a.u.)       :      2.57206
Magnitude (Debye)      :      6.53764

Rotational constants in cm-1:     0.036818     0.018222     0.014682
Rotational constants in MHz :  1103.783048   546.296792   440.157914

                             ****ORCA TERMINATED NORMALLY****
TOTAL RUN TIME: 0 days 4 hours 14 minutes 52 seconds 514 msec
