                         Program Version 5.0.0 -  RELEASE  -
|  1> !DLPNO-CCSD(T) aug-cc-pVTZ aug-cc-pVTZ/C TightSCF TightPNO RIJCOSX def2/J
|  2>
|  3> *xyzfile 0 1 D6.xyz
|  4>
|  5> %MaxCore 64000
|  6>
|  7> %pal nprocs 18
|  8> end
|  9>
| 10> %scf
| 11>   MaxIter 150
| 12> end
| 13>
| 14>
| 15>                          ****END OF INPUT****

CARTESIAN COORDINATES (ANGSTROEM)
---------------------------------
  C      2.916324   -1.242589   -1.543125
  C      0.704661    1.443129   -4.503630
  C      1.728539    1.424320   -5.639443
  H      2.646718    1.953794   -5.381054
  H      1.299916    1.930613   -6.503614
  S      2.252625   -0.188115   -6.271840
  C      3.466585   -1.590971   -2.889082
  N      4.652275   -1.143164   -3.259692
  C      2.752264   -2.292043   -3.728029
  H      1.778364   -2.489604   -3.512738
  H      2.948612   -2.208544   -4.716813
  H      5.146723   -0.512508   -2.633852
  H      4.783030   -1.007203   -4.253498
  O      3.562607   -0.444464   -5.631552
  O      2.344944   -0.033742   -7.696501
  C      2.804084    0.290698   -1.359243
  C      1.052550    0.695659   -3.214915
  H     -0.232483    1.032925   -4.884449
  H      0.511700    2.495794   -4.267966
  C      2.388380    1.093669   -2.597108
  H      3.763425    0.674718   -0.999889
  H      2.094788    0.461222   -0.545756
  F      1.266058   -1.159177   -5.805365
  H      3.167316    1.013242   -3.359430
  H      2.357690    2.149375   -2.310997
  H      1.039284   -0.368429   -3.449329
  H      0.250787    0.865605   -2.488283
  H      1.940472   -1.716529   -1.441161
  H      3.558569   -1.663433   -0.766371

 Total Charge           Charge          ....    0
 Multiplicity           Mult            ....    1
 Number of Electrons    NEL             ....  112
 Basis Dimension        Dim             ....  970

ORBITAL ENERGIES
----------------

  NO   OCC          E(Eh)            E(eV)
   0   2.0000     -92.256279     -2510.4210
   1   2.0000     -26.424356      -719.0433
   2   2.0000     -20.575940      -559.8998
   3   2.0000     -20.558793      -559.4332
   4   2.0000     -15.535398      -422.7397
   5   2.0000     -11.296584      -307.3957
   6   2.0000     -11.261206      -306.4330
   7   2.0000     -11.240601      -305.8723
   8   2.0000     -11.233680      -305.6840
   9   2.0000     -11.230461      -305.5964
  10   2.0000     -11.227915      -305.5271
  11   2.0000     -11.222743      -305.3864
  12   2.0000     -11.136777      -303.0471
  13   2.0000      -9.219386      -250.8722
  14   2.0000      -6.907010      -187.9493
  15   2.0000      -6.902784      -187.8343
  16   2.0000      -6.902263      -187.8201
  17   2.0000      -1.787344       -48.6361
  18   2.0000      -1.462849       -39.8061
  19   2.0000      -1.354555       -36.8593
  20   2.0000      -1.225360       -33.3437
  21   2.0000      -1.125748       -30.6332
  22   2.0000      -1.076136       -29.2832
  23   2.0000      -1.024335       -27.8736
  24   2.0000      -0.992845       -27.0167
  25   2.0000      -0.958759       -26.0892
  26   2.0000      -0.920848       -25.0576
  27   2.0000      -0.860234       -23.4082
  28   2.0000      -0.826906       -22.5012
  29   2.0000      -0.822640       -22.3852
  30   2.0000      -0.794954       -21.6318
  31   2.0000      -0.766533       -20.8584
  32   2.0000      -0.739937       -20.1347
  33   2.0000      -0.690072       -18.7778
  34   2.0000      -0.674700       -18.3595
  35   2.0000      -0.670493       -18.2451
  36   2.0000      -0.654659       -17.8142
  37   2.0000      -0.645104       -17.5542
  38   2.0000      -0.631927       -17.1956
  39   2.0000      -0.608440       -16.5565
  40   2.0000      -0.604818       -16.4579
  41   2.0000      -0.577099       -15.7037
  42   2.0000      -0.569458       -15.4957
  43   2.0000      -0.554591       -15.0912
  44   2.0000      -0.543106       -14.7787
  45   2.0000      -0.536125       -14.5887
  46   2.0000      -0.519295       -14.1307
  47   2.0000      -0.511814       -13.9272
  48   2.0000      -0.502309       -13.6685
  49   2.0000      -0.486386       -13.2352
  50   2.0000      -0.483239       -13.1496
  51   2.0000      -0.470747       -12.8097
  52   2.0000      -0.464242       -12.6327
  53   2.0000      -0.456119       -12.4116
  54   2.0000      -0.448036       -12.1917
  55   2.0000      -0.286235        -7.7889
  56   0.0000       0.019876         0.5408
  57   0.0000       0.027807         0.7567
  58   0.0000       0.029857         0.8124
  59   0.0000       0.038146         1.0380
  60   0.0000       0.043739         1.1902

MULLIKEN ATOMIC CHARGES
-----------------------
   0 C :   -0.320179
   1 C :   -0.547054
   2 C :   -0.581325
   3 H :    0.192206
   4 H :    0.261068
   5 S :    2.604201
   6 C :    1.411632
   7 N :   -0.994092
   8 C :   -1.268251
   9 H :    0.199343
  10 H :    0.384086
  11 H :    0.036702
  12 H :    0.081927
  13 O :   -0.959412
  14 O :   -1.032010
  15 C :   -0.694920
  16 C :   -0.424467
  17 H :    0.209336
  18 H :    0.210300
  19 C :   -0.474108
  20 H :    0.099487
  21 H :    0.320588
  22 F :   -0.557273
  23 H :    0.193357
  24 H :    0.436237
  25 H :    0.322981
  26 H :    0.314368
  27 H :    0.147561
  28 H :    0.427713
Sum of atomic charges:    0.0000000

LOEWDIN ATOMIC CHARGES
----------------------
   0 C :    0.313932
   1 C :    0.268576
   2 C :    0.219024
   3 H :   -0.182139
   4 H :   -0.195548
   5 S :    0.015033
   6 C :   -0.325000
   7 N :    0.846754
   8 C :    0.510044
   9 H :   -0.288553
  10 H :   -0.419108
  11 H :   -0.266318
  12 H :   -0.427593
  13 O :    0.178780
  14 O :    0.052123
  15 C :    0.314392
  16 C :    0.286324
  17 H :   -0.152204
  18 H :   -0.136050
  19 C :    0.285883
  20 H :   -0.146945
  21 H :   -0.143115
  22 F :    0.332376
  23 H :   -0.187144
  24 H :   -0.132620
  25 H :   -0.207423
  26 H :   -0.125145
  27 H :   -0.154025
  28 H :   -0.134311

  Mayer bond orders larger than 0.100000
B(  0-C ,  6-C ) :   0.5427 B(  0-C ,  8-C ) :  -0.1511 B(  0-C , 15-C ) :   1.0028
B(  0-C , 27-H ) :   1.1292 B(  0-C , 28-H ) :   0.8591 B(  1-C ,  2-C ) :   0.8833
B(  1-C , 16-C ) :   0.9067 B(  1-C , 17-H ) :   1.0435 B(  1-C , 18-H ) :   1.0035
B(  2-C ,  3-H ) :   1.0608 B(  2-C ,  4-H ) :   0.8914 B(  2-C ,  5-S ) :   0.8768
B(  2-C , 14-O ) :   0.1272 B(  2-C , 22-F ) :   0.1125 B(  4-H , 14-O ) :   0.1383
B(  5-S , 13-O ) :   1.5115 B(  5-S , 14-O ) :   0.9903 B(  5-S , 22-F ) :   0.4999
B(  6-C ,  7-N ) :   0.1327 B(  6-C ,  8-C ) :   1.2321 B(  6-C ,  9-H ) :  -0.1662
B(  6-C , 10-H ) :  -0.1120 B(  6-C , 11-H ) :  -0.1301 B(  6-C , 12-H ) :  -0.1273
B(  6-C , 13-O ) :  -0.1584 B(  6-C , 28-H ) :  -0.1956 B(  7-N , 11-H ) :   1.1416
B(  7-N , 12-H ) :   1.1801 B(  8-C ,  9-H ) :   1.2664 B(  8-C , 10-H ) :   0.7972
B( 15-C , 19-C ) :   0.8403 B( 15-C , 20-H ) :   1.1173 B( 15-C , 21-H ) :   0.9260
B( 16-C , 19-C ) :   0.8226 B( 16-C , 25-H ) :   0.9173 B( 16-C , 26-H ) :   0.9588
B( 19-C , 23-H ) :   1.0657 B( 19-C , 24-H ) :   0.8053

E(0)                                       ...  -1013.528352638
E(0)                                       ...  -1013.528352638
E(CORR)(strong-pairs)                      ...     -2.617360078
E(CORR)(weak-pairs)                        ...     -0.004265169
E(CORR)(corrected)                         ...     -2.621625247
E(TOT)                                     ...  -1016.149977885
E(CCSD(T))                                 ...  -1016.261283306
FINAL SINGLE POINT ENERGY     -1016.261283305599

DIPOLE MOMENT
-------------
                                X             Y             Z
Electronic contribution:     -0.61251      -5.19343     -18.53965
Nuclear contribution   :     -0.51418       6.96452      19.50670
                        -----------------------------------------
Total Dipole Moment    :     -1.12669       1.77109       0.96706
                        -----------------------------------------
Magnitude (a.u.)       :      2.31114
Magnitude (Debye)      :      5.87446

Rotational constants in cm-1:     0.036455     0.018603     0.015008
Rotational constants in MHz :  1092.895336   557.693628   449.926016

                             ****ORCA TERMINATED NORMALLY****
TOTAL RUN TIME: 0 days 3 hours 30 minutes 17 seconds 625 msec
