                         Program Version 5.0.0 -  RELEASE  -
|  1> !BLYP D3BJ RIJCOSX def2-SVPD def2/J TightSCF
|  2> *xyz -1 1
|  3> C          0.69721        3.22791       -0.52513
|  4> O          1.48929        2.37470        0.19919
|  5> H          0.26505        2.70007       -1.34946
|  6> H          1.28994        4.03943       -0.89255
|  7> H         -0.08148        3.61005        0.10138
|  8> *
|  9>
| 10> %MaxCore 64000
| 11> %pal nprocs 8
| 12> end
| 13>
| 14> %scf
| 15>   MaxIter 150
| 16> end
| 17>
| 18>
| 19>                          ****END OF INPUT****

CARTESIAN COORDINATES (ANGSTROEM)
---------------------------------
  C      0.697210    3.227910   -0.525130
  O      1.489290    2.374700    0.199190
  H      0.265050    2.700070   -1.349460
  H      1.289940    4.039430   -0.892550
  H     -0.081480    3.610050    0.101380

 Total Charge           Charge          ....   -1
 Multiplicity           Mult            ....    1
 Number of Electrons    NEL             ....   18
 Basis Dimension        Dim             ....   67

ORBITAL ENERGIES
----------------

  NO   OCC          E(Eh)            E(eV)
   0   2.0000     -18.444344      -501.8961
   1   2.0000      -9.711326      -264.2586
   2   2.0000      -0.562827       -15.3153
   3   2.0000      -0.323575        -8.8049
   4   2.0000      -0.146274        -3.9803
   5   2.0000      -0.146273        -3.9803
   6   2.0000      -0.051946        -1.4135
   7   2.0000       0.093595         2.5469
   8   2.0000       0.093597         2.5469
   9   0.0000       0.181233         4.9316
  10   0.0000       0.249972         6.8021
  11   0.0000       0.249974         6.8021
  12   0.0000       0.257634         7.0106
  13   0.0000       0.295460         8.0399

MULLIKEN ATOMIC CHARGES
-----------------------
   0 C :    1.159333
   1 O :   -0.988481
   2 H :   -0.390285
   3 H :   -0.390288
   4 H :   -0.390279
Sum of atomic charges:   -1.0000000

LOEWDIN ATOMIC CHARGES
----------------------
   0 C :   -0.113519
   1 O :   -0.618224
   2 H :   -0.089419
   3 H :   -0.089420
   4 H :   -0.089417

  Mayer bond orders larger than 0.100000
B(  0-C ,  1-O ) :   1.1669 B(  0-C ,  2-H ) :   0.8324 B(  0-C ,  3-H ) :   0.8324
B(  0-C ,  4-H ) :   0.8324

Dispersion correction           -0.003031564
FINAL SINGLE POINT ENERGY      -114.985566498666

DIPOLE MOMENT
-------------
                                X             Y             Z
Electronic contribution:      1.10169      -1.18671       1.00745
Nuclear contribution   :     -1.66672       1.79535      -1.52413
                        -----------------------------------------
Total Dipole Moment    :     -0.56502       0.60864      -0.51668
                        -----------------------------------------
Magnitude (a.u.)       :      0.97808
Magnitude (Debye)      :      2.48609

Rotational constants in cm-1:     5.477728     0.937442     0.937441
Rotational constants in MHz : 164218.159175 28103.818547 28103.787504

                             ****ORCA TERMINATED NORMALLY****
TOTAL RUN TIME: 0 days 0 hours 0 minutes 1 seconds 978 msec
