                         Program Version 5.0.0 -  RELEASE  -
|  1> !BLYP D3BJ RIJCOSX def2-SVPD def2/J TightSCF
|  2> *xyz 1 1
|  3> C          3.95643        0.50147       -0.37910
|  4> N          3.80389        1.96157       -0.15675
|  5> H          4.20643        2.24441        0.74536
|  6> H          2.80827        2.21132       -0.09610
|  7> H          4.28076        2.50155       -0.89104
|  8> H          3.52890        0.23799       -1.32393
|  9> H          3.45469       -0.03240        0.40073
| 10> H          4.99562        0.24661       -0.37434
| 11> *
| 12>
| 13> %MaxCore 64000
| 14> %pal nprocs 8
| 15> end
| 16>
| 17> %scf
| 18>   MaxIter 150
| 19> end
| 20>
| 21>
| 22>                          ****END OF INPUT****

CARTESIAN COORDINATES (ANGSTROEM)
---------------------------------
  C      3.956430    0.501470   -0.379100
  N      3.803890    1.961570   -0.156750
  H      4.206430    2.244410    0.745360
  H      2.808270    2.211320   -0.096100
  H      4.280760    2.501550   -0.891040
  H      3.528900    0.237990   -1.323930
  H      3.454690   -0.032400    0.400730
  H      4.995620    0.246610   -0.374340

 Total Charge           Charge          ....    1
 Multiplicity           Mult            ....    1
 Number of Electrons    NEL             ....   18
 Basis Dimension        Dim             ....   88

ORBITAL ENERGIES
----------------

  NO   OCC          E(Eh)            E(eV)
   0   2.0000     -14.373016      -391.1096
   1   2.0000     -10.182122      -277.0696
   2   2.0000      -1.133405       -30.8415
   3   2.0000      -0.864780       -23.5319
   4   2.0000      -0.760902       -20.7052
   5   2.0000      -0.749710       -20.4007
   6   2.0000      -0.666551       -18.1378
   7   2.0000      -0.580366       -15.7926
   8   2.0000      -0.578826       -15.7507
   9   0.0000      -0.232043        -6.3142
  10   0.0000      -0.167003        -4.5444
  11   0.0000      -0.164660        -4.4806
  12   0.0000      -0.155206        -4.2234
  13   0.0000      -0.110745        -3.0135

MULLIKEN ATOMIC CHARGES
-----------------------
   0 C :    1.341448
   1 N :   -0.685152
   2 H :    0.311718
   3 H :    0.320361
   4 H :    0.318166
   5 H :   -0.201785
   6 H :   -0.200959
   7 H :   -0.203797
Sum of atomic charges:    1.0000000

LOEWDIN ATOMIC CHARGES
----------------------
   0 C :    0.290109
   1 N :    0.325829
   2 H :    0.104319
   3 H :    0.106253
   4 H :    0.108256
   5 H :    0.021817
   6 H :    0.021881
   7 H :    0.021534

  Mayer bond orders larger than 0.100000
B(  0-C ,  1-N ) :   0.8400 B(  0-C ,  5-H ) :   0.8102 B(  0-C ,  6-H ) :   0.8094
B(  0-C ,  7-H ) :   0.8128 B(  1-N ,  2-H ) :   0.8134 B(  1-N ,  3-H ) :   0.7969
B(  1-N ,  4-H ) :   0.7963 B(  1-N ,  5-H ) :   0.1187 B(  1-N ,  6-H ) :   0.1177
B(  1-N ,  7-H ) :   0.1154

Dispersion correction           -0.006803664
FINAL SINGLE POINT ENERGY       -96.099085967280

DIPOLE MOMENT
-------------
                                X             Y             Z
Electronic contribution:     -0.10980       1.06951       0.13908
Nuclear contribution   :      0.02154      -0.23654       0.01355
                        -----------------------------------------
Total Dipole Moment    :     -0.08825       0.83298       0.15263
                        -----------------------------------------
Magnitude (a.u.)       :      0.85143
Magnitude (Debye)      :      2.16416

Rotational constants in cm-1:     2.873586     0.687737     0.684128
Rotational constants in MHz : 86147.950763 20617.847271 20509.632222

                             ****ORCA TERMINATED NORMALLY****
TOTAL RUN TIME: 0 days 0 hours 0 minutes 2 seconds 225 msec
