                         Program Version 5.0.0 -  RELEASE  -
|  1> !BLYP D3BJ RIJCOSX def2-SVPD def2/J TightSCF
|  2> *xyz 0 1
|  3> C          0.69721        3.22791       -0.52513
|  4> F          1.48929        2.37470        0.19919
|  5> H          0.26505        2.70007       -1.34946
|  6> H          1.28994        4.03943       -0.89255
|  7> H         -0.08148        3.61005        0.10138
|  8> *
|  9>
| 10> %MaxCore 64000
| 11> %pal nprocs 8
| 12> end
| 13>
| 14> %scf
| 15>   MaxIter 150
| 16> end
| 17>
| 18>
| 19>                          ****END OF INPUT****

CARTESIAN COORDINATES (ANGSTROEM)
---------------------------------
  C      0.697210    3.227910   -0.525130
  F      1.489290    2.374700    0.199190
  H      0.265050    2.700070   -1.349460
  H      1.289940    4.039430   -0.892550
  H     -0.081480    3.610050    0.101380

 Total Charge           Charge          ....    0
 Multiplicity           Mult            ....    1
 Number of Electrons    NEL             ....   18
 Basis Dimension        Dim             ....   67

ORBITAL ENERGIES
----------------

  NO   OCC          E(Eh)            E(eV)
   0   2.0000     -24.290551      -660.9795
   1   2.0000      -9.994073      -271.9525
   2   2.0000      -1.076132       -29.2830
   3   2.0000      -0.628880       -17.1127
   4   2.0000      -0.443282       -12.0623
   5   2.0000      -0.431422       -11.7396
   6   2.0000      -0.431422       -11.7396
   7   2.0000      -0.296616        -8.0713
   8   2.0000      -0.296614        -8.0713
   9   0.0000       0.006510         0.1771
  10   0.0000       0.032742         0.8909
  11   0.0000       0.078578         2.1382
  12   0.0000       0.078580         2.1383
  13   0.0000       0.125291         3.4093

MULLIKEN ATOMIC CHARGES
-----------------------
   0 C :    1.213287
   1 F :   -0.442459
   2 H :   -0.256919
   3 H :   -0.256949
   4 H :   -0.256960
Sum of atomic charges:   -0.0000000

LOEWDIN ATOMIC CHARGES
----------------------
   0 C :    0.264924
   1 F :   -0.228887
   2 H :   -0.012012
   3 H :   -0.012014
   4 H :   -0.012011

  Mayer bond orders larger than 0.100000
B(  0-C ,  1-F ) :   0.9052 B(  0-C ,  2-H ) :   0.8702 B(  0-C ,  3-H ) :   0.8702
B(  0-C ,  4-H ) :   0.8702

Dispersion correction           -0.002647144
FINAL SINGLE POINT ENERGY      -139.611045072708

DIPOLE MOMENT
-------------
                                X             Y             Z
Electronic contribution:      1.70928      -1.84118       1.56305
Nuclear contribution   :     -2.11402       2.27717      -1.93317
                        -----------------------------------------
Total Dipole Moment    :     -0.40474       0.43599      -0.37012
                        -----------------------------------------
Magnitude (a.u.)       :      0.70063
Magnitude (Debye)      :      1.78087

Rotational constants in cm-1:     5.477728     0.872600     0.872599
Rotational constants in MHz : 164218.159175 26159.886777 26159.859881

                             ****ORCA TERMINATED NORMALLY****
TOTAL RUN TIME: 0 days 0 hours 0 minutes 1 seconds 914 msec
