                         Program Version 5.0.0 -  RELEASE  -
|  1> !BLYP D3BJ RIJCOSX def2-SVPD def2/J TightSCF
|  2> *xyz 0 1
|  3> C          3.95643        0.50147       -0.37910
|  4> C          3.80389        1.96157       -0.15675
|  5> H          4.20643        2.24441        0.74536
|  6> H          2.80827        2.21132       -0.09610
|  7> H          4.28076        2.50155       -0.89104
|  8> H          3.52890        0.23799       -1.32393
|  9> H          3.45469       -0.03240        0.40073
| 10> H          4.99562        0.24661       -0.37434
| 11> *
| 12>
| 13> %MaxCore 64000
| 14> %pal nprocs 8
| 15> end
| 16>
| 17> %scf
| 18>   MaxIter 150
| 19> end
| 20>
| 21>
| 22>                          ****END OF INPUT****

CARTESIAN COORDINATES (ANGSTROEM)
---------------------------------
  C      3.956430    0.501470   -0.379100
  C      3.803890    1.961570   -0.156750
  H      4.206430    2.244410    0.745360
  H      2.808270    2.211320   -0.096100
  H      4.280760    2.501550   -0.891040
  H      3.528900    0.237990   -1.323930
  H      3.454690   -0.032400    0.400730
  H      4.995620    0.246610   -0.374340

 Total Charge           Charge          ....    0
 Multiplicity           Mult            ....    1
 Number of Electrons    NEL             ....   18
 Basis Dimension        Dim             ....   88

ORBITAL ENERGIES
----------------

  NO   OCC          E(Eh)            E(eV)
   0   2.0000      -9.901440      -269.4319
   1   2.0000      -9.889108      -269.0963
   2   2.0000      -0.685346       -18.6492
   3   2.0000      -0.548777       -14.9330
   4   2.0000      -0.399222       -10.8634
   5   2.0000      -0.392931       -10.6922
   6   2.0000      -0.322782        -8.7833
   7   2.0000      -0.303253        -8.2519
   8   2.0000      -0.297160        -8.0861
   9   0.0000       0.009943         0.2706
  10   0.0000       0.042308         1.1512
  11   0.0000       0.079545         2.1645
  12   0.0000       0.081213         2.2099
  13   0.0000       0.101865         2.7719

MULLIKEN ATOMIC CHARGES
-----------------------
   0 C :    0.626930
   1 C :    0.944356
   2 H :   -0.324934
   3 H :   -0.320688
   4 H :   -0.326333
   5 H :   -0.202612
   6 H :   -0.196087
   7 H :   -0.200632
Sum of atomic charges:    0.0000000

LOEWDIN ATOMIC CHARGES
----------------------
   0 C :    0.090732
   1 C :    0.091934
   2 H :   -0.040900
   3 H :   -0.038601
   4 H :   -0.036784
   5 H :   -0.022239
   6 H :   -0.021742
   7 H :   -0.022401

  Mayer bond orders larger than 0.100000
B(  0-C ,  1-C ) :   1.4371 B(  0-C ,  2-H ) :   0.2232 B(  0-C ,  3-H ) :   0.2319
B(  0-C ,  4-H ) :   0.2267 B(  0-C ,  5-H ) :   0.7643 B(  0-C ,  6-H ) :   0.7674
B(  0-C ,  7-H ) :   0.7707 B(  1-C ,  2-H ) :   0.6206 B(  1-C ,  3-H ) :   0.6311
B(  1-C ,  4-H ) :   0.6432 B(  1-C ,  5-H ) :   0.2069 B(  1-C ,  6-H ) :   0.2122
B(  1-C ,  7-H ) :   0.2079 B(  2-H ,  3-H ) :   0.1275

Dispersion correction           -0.006848681
FINAL SINGLE POINT ENERGY       -79.699509175254

DIPOLE MOMENT
-------------
                                X             Y             Z
Electronic contribution:      0.00215       0.01049      -0.03726
Nuclear contribution   :     -0.00471       0.01526       0.05114
                        -----------------------------------------
Total Dipole Moment    :     -0.00257       0.02575       0.01388
                        -----------------------------------------
Magnitude (a.u.)       :      0.02937
Magnitude (Debye)      :      0.07465

Rotational constants in cm-1:     2.873610     0.717865     0.713933
Rotational constants in MHz : 86148.646881 21521.066032 21403.176468

                             ****ORCA TERMINATED NORMALLY****
TOTAL RUN TIME: 0 days 0 hours 0 minutes 2 seconds 626 msec
