                         Program Version 5.0.0 -  RELEASE  -
|  1> !BLYP D3BJ RIJCOSX def2-SVPD def2/J TightSCF
|  2> *xyz -1 1
|  3> C          3.80351        1.37472       -3.26081
|  4> C          3.93993        0.32036       -4.36773
|  5> H          4.10504       -0.65508       -3.90773
|  6> H          3.02280        0.28052       -4.95712
|  7> C          5.10585        0.66802       -5.30546
|  8> O          4.80913        1.15019       -6.41436
|  9> O          6.26737        0.56500       -4.81948
| 10> H          3.64113        2.33595       -3.70189
| 11> H          4.69995        1.39701       -2.67703
| 12> H          2.97435        1.12625       -2.63180
| 13> *
| 14>
| 15> %MaxCore 64000
| 16>
| 17> %pal nprocs 4
| 18> end
| 19>
| 20> %scf
| 21>   MaxIter 150
| 22> end
| 23>
| 24>
| 25>                          ****END OF INPUT****

CARTESIAN COORDINATES (ANGSTROEM)
---------------------------------
  C      3.803510    1.374720   -3.260810
  C      3.939930    0.320360   -4.367730
  H      4.105040   -0.655080   -3.907730
  H      3.022800    0.280520   -4.957120
  C      5.105850    0.668020   -5.305460
  O      4.809130    1.150190   -6.414360
  O      6.267370    0.565000   -4.819480
  H      3.641130    2.335950   -3.701890
  H      4.699950    1.397010   -2.677030
  H      2.974350    1.126250   -2.631800

 Total Charge           Charge          ....   -1
 Multiplicity           Mult            ....    1
 Number of Electrons    NEL             ....   40
 Basis Dimension        Dim             ....  146

ORBITAL ENERGIES
----------------

  NO   OCC          E(Eh)            E(eV)
   0   2.0000     -18.534123      -504.3391
   1   2.0000     -18.531014      -504.2545
   2   2.0000      -9.802494      -266.7394
   3   2.0000      -9.761282      -265.6180
   4   2.0000      -9.746631      -265.2193
   5   2.0000      -0.719249       -19.5718
   6   2.0000      -0.632340       -17.2069
   7   2.0000      -0.520548       -14.1648
   8   2.0000      -0.397609       -10.8195
   9   2.0000      -0.260995        -7.1020
  10   2.0000      -0.238388        -6.4869
  11   2.0000      -0.203161        -5.5283
  12   2.0000      -0.179070        -4.8727
  13   2.0000      -0.162681        -4.4268
  14   2.0000      -0.157393        -4.2829
  15   2.0000      -0.128937        -3.5086
  16   2.0000      -0.119346        -3.2476
  17   2.0000      -0.011415        -0.3106
  18   2.0000       0.004231         0.1151
  19   2.0000       0.018146         0.4938
  20   0.0000       0.139375         3.7926
  21   0.0000       0.171746         4.6735
  22   0.0000       0.187027         5.0893
  23   0.0000       0.201990         5.4964
  24   0.0000       0.215170         5.8551

MULLIKEN ATOMIC CHARGES
-----------------------
   0 C :    0.875723
   1 C :    0.025280
   2 H :   -0.159749
   3 H :   -0.171125
   4 C :    0.225657
   5 O :   -0.569988
   6 O :   -0.628357
   7 H :   -0.204628
   8 H :   -0.167828
   9 H :   -0.224985
Sum of atomic charges:   -1.0000000

LOEWDIN ATOMIC CHARGES
----------------------
   0 C :    0.114569
   1 C :   -0.032257
   2 H :   -0.005859
   3 H :   -0.010549
   4 C :   -0.333065
   5 O :   -0.304410
   6 O :   -0.315130
   7 H :   -0.028492
   8 H :   -0.033163
   9 H :   -0.051644

  Mayer bond orders larger than 0.100000
B(  0-C ,  1-C ) :   1.3039 B(  0-C ,  2-H ) :   0.1331 B(  0-C ,  3-H ) :   0.1309
B(  0-C ,  7-H ) :   0.7575 B(  0-C ,  8-H ) :   0.7559 B(  0-C ,  9-H ) :   0.7733
B(  1-C ,  2-H ) :   0.8429 B(  1-C ,  3-H ) :   0.8904 B(  1-C ,  4-C ) :   1.0524
B(  1-C ,  7-H ) :   0.2292 B(  1-C ,  8-H ) :   0.2347 B(  1-C ,  9-H ) :   0.2036
B(  3-H ,  4-C ) :   0.1831 B(  4-C ,  5-O ) :   1.5587 B(  4-C ,  6-O ) :   1.5496

Dispersion correction           -0.013615532
FINAL SINGLE POINT ENERGY      -267.590739379844

DIPOLE MOMENT
-------------
                                X             Y             Z
Electronic contribution:      3.75611      -0.48327      -4.52337
Nuclear contribution   :     -5.15232       0.33441       5.87398
                        -----------------------------------------
Total Dipole Moment    :     -1.39621      -0.14886       1.35061
                        -----------------------------------------
Magnitude (a.u.)       :      1.94826
Magnitude (Debye)      :      4.95208

Rotational constants in cm-1:     0.295355     0.137164     0.110193
Rotational constants in MHz :  8854.523706  4112.077980  3303.490503

                             ****ORCA TERMINATED NORMALLY****
TOTAL RUN TIME: 0 days 0 hours 0 minutes 9 seconds 846 msec
