                         Program Version 5.0.0 -  RELEASE  -
|  1> !BLYP D3BJ RIJCOSX def2-SVPD def2/J TightSCF
|  2> *xyz 1 1
|  3> C          3.90595        2.81985       -3.75292
|  4> N          5.29562        3.13151       -4.10533
|  5> C          3.80351        1.37472       -3.26081
|  6> C          5.70862        3.46889       -5.32419
|  7> N          6.90470        3.03895       -5.71708
|  8> N          4.98188        4.29357       -6.09746
|  9> H          5.00055        4.10131       -7.08776
| 10> H          4.08469        4.59690       -5.73965
| 11> H          5.96336        2.52611       -3.64239
| 12> H          7.04716        2.06686       -5.47360
| 13> H          7.19815        3.30799       -6.64523
| 14> H          3.28202        2.94919       -4.64026
| 15> H          3.56525        3.51457       -2.98252
| 16> H          4.14157        0.71142       -4.02935
| 17> H          2.78528        1.15146       -3.01944
| 18> H          4.41205        1.25066       -2.38949
| 19> *
| 20>
| 21> %MaxCore 64000
| 22>
| 23> %pal nprocs 4
| 24> end
| 25>
| 26> %scf
| 27>   MaxIter 150
| 28> end
| 29>
| 30>
| 31>                          ****END OF INPUT****

CARTESIAN COORDINATES (ANGSTROEM)
---------------------------------
  C      3.905950    2.819850   -3.752920
  N      5.295620    3.131510   -4.105330
  C      3.803510    1.374720   -3.260810
  C      5.708620    3.468890   -5.324190
  N      6.904700    3.038950   -5.717080
  N      4.981880    4.293570   -6.097460
  H      5.000550    4.101310   -7.087760
  H      4.084690    4.596900   -5.739650
  H      5.963360    2.526110   -3.642390
  H      7.047160    2.066860   -5.473600
  H      7.198150    3.307990   -6.645230
  H      3.282020    2.949190   -4.640260
  H      3.565250    3.514570   -2.982520
  H      4.141570    0.711420   -4.029350
  H      2.785280    1.151460   -3.019440
  H      4.412050    1.250660   -2.389490

 Total Charge           Charge          ....    1
 Multiplicity           Mult            ....    1
 Number of Electrons    NEL             ....   48
 Basis Dimension        Dim             ....  200

ORBITAL ENERGIES
----------------

  NO   OCC          E(Eh)            E(eV)
   0   2.0000     -14.251258      -387.7964
   1   2.0000     -14.249883      -387.7590
   2   2.0000     -14.249365      -387.7449
   3   2.0000     -10.249399      -278.9003
   4   2.0000     -10.132641      -275.7232
   5   2.0000     -10.068991      -273.9912
   6   2.0000      -1.121555       -30.5191
   7   2.0000      -1.016897       -27.6712
   8   2.0000      -1.009425       -27.4678
   9   2.0000      -0.854594       -23.2547
  10   2.0000      -0.766373       -20.8541
  11   2.0000      -0.742730       -20.2107
  12   2.0000      -0.719038       -19.5660
  13   2.0000      -0.687517       -18.7083
  14   2.0000      -0.648492       -17.6464
  15   2.0000      -0.637667       -17.3518
  16   2.0000      -0.599505       -16.3134
  17   2.0000      -0.578534       -15.7427
  18   2.0000      -0.545479       -14.8432
  19   2.0000      -0.513480       -13.9725
  20   2.0000      -0.492164       -13.3925
  21   2.0000      -0.477658       -12.9977
  22   2.0000      -0.445984       -12.1358
  23   2.0000      -0.419852       -11.4248
  24   0.0000      -0.223639        -6.0855
  25   0.0000      -0.179788        -4.8923
  26   0.0000      -0.146674        -3.9912
  27   0.0000      -0.133782        -3.6404
  28   0.0000      -0.116265        -3.1637

MULLIKEN ATOMIC CHARGES
-----------------------
   0 C :    0.573271
   1 N :   -0.195176
   2 C :    1.107542
   3 C :    0.557368
   4 N :    0.274525
   5 N :    0.268668
   6 H :   -0.091661
   7 H :   -0.065785
   8 H :   -0.137029
   9 H :   -0.057168
  10 H :   -0.064597
  11 H :   -0.224299
  12 H :   -0.389377
  13 H :   -0.185269
  14 H :   -0.221196
  15 H :   -0.149818
Sum of atomic charges:    1.0000000

LOEWDIN ATOMIC CHARGES
----------------------
   0 C :    0.043900
   1 N :    0.073414
   2 C :    0.176421
   3 C :   -0.079793
   4 N :    0.291568
   5 N :    0.303685
   6 H :    0.031880
   7 H :    0.018985
   8 H :    0.041112
   9 H :    0.031460
  10 H :    0.031359
  11 H :    0.019160
  12 H :    0.034107
  13 H :   -0.011612
  14 H :    0.001544
  15 H :   -0.007189

  Mayer bond orders larger than 0.100000
B(  0-C ,  1-N ) :   0.9578 B(  0-C ,  2-C ) :   1.3024 B(  0-C , 11-H ) :   0.7249
B(  0-C , 12-H ) :   0.7571 B(  0-C , 13-H ) :   0.2886 B(  0-C , 14-H ) :   0.3038
B(  0-C , 15-H ) :   0.2054 B(  1-N ,  2-C ) :   0.1071 B(  1-N ,  3-C ) :   1.2150
B(  1-N ,  4-N ) :   0.2162 B(  1-N ,  5-N ) :   0.1151 B(  1-N ,  8-H ) :   1.1101
B(  1-N , 11-H ) :   0.1367 B(  1-N , 12-H ) :   0.1962 B(  2-C , 13-H ) :   0.6939
B(  2-C , 14-H ) :   0.6901 B(  2-C , 15-H ) :   0.7340 B(  3-C ,  4-N ) :   1.0862
B(  3-C ,  5-N ) :   1.0623 B(  3-C ,  8-H ) :  -0.1894 B(  4-N ,  5-N ) :   0.1301
B(  4-N ,  9-H ) :   1.0360 B(  4-N , 10-H ) :   0.9866 B(  5-N ,  6-H ) :   1.1400
B(  5-N ,  7-H ) :   0.9672 B(  6-H ,  7-H ) :  -0.1265

Dispersion correction           -0.024721872
FINAL SINGLE POINT ENERGY      -284.096566862922

DIPOLE MOMENT
-------------
                                X             Y             Z
Electronic contribution:      3.51376       3.42450      -2.62376
Nuclear contribution   :     -3.31456      -3.64300       1.57303
                        -----------------------------------------
Total Dipole Moment    :      0.19920      -0.21850      -1.05073
                        -----------------------------------------
Magnitude (a.u.)       :      1.09153
Magnitude (Debye)      :      2.77446

Rotational constants in cm-1:     0.229487     0.071000     0.059428
Rotational constants in MHz :  6879.840828  2128.520047  1781.605314

                             ****ORCA TERMINATED NORMALLY****
TOTAL RUN TIME: 0 days 0 hours 0 minutes 14 seconds 30 msec
