                         Program Version 5.0.0 -  RELEASE  -
|  1> !BLYP D3BJ RIJCOSX def2-SVPD def2/J TightSCF
|  2> *xyz 0 1
|  3> C          3.80351        1.37472       -3.26081
|  4> C          3.93993        0.32036       -4.36773
|  5> H          4.10504       -0.65508       -3.90773
|  6> H          3.02280        0.28052       -4.95712
|  7> C          5.10585        0.66802       -5.30546
|  8> F          4.80913        1.15019       -6.41436
|  9> O          6.26737        0.56500       -4.81948
| 10> H          3.64113        2.33595       -3.70189
| 11> H          4.69995        1.39701       -2.67703
| 12> H          2.97435        1.12625       -2.63180
| 13> *
| 14>
| 15> %MaxCore 64000
| 16>
| 17> %pal nprocs 4
| 18> end
| 19>
| 20> %scf
| 21>   MaxIter 150
| 22> end
| 23>
| 24>
| 25>                          ****END OF INPUT****

CARTESIAN COORDINATES (ANGSTROEM)
---------------------------------
  C      3.803510    1.374720   -3.260810
  C      3.939930    0.320360   -4.367730
  H      4.105040   -0.655080   -3.907730
  H      3.022800    0.280520   -4.957120
  C      5.105850    0.668020   -5.305460
  F      4.809130    1.150190   -6.414360
  O      6.267370    0.565000   -4.819480
  H      3.641130    2.335950   -3.701890
  H      4.699950    1.397010   -2.677030
  H      2.974350    1.126250   -2.631800

 Total Charge           Charge          ....    0
 Multiplicity           Mult            ....    1
 Number of Electrons    NEL             ....   40
 Basis Dimension        Dim             ....  146

ORBITAL ENERGIES
----------------

  NO   OCC          E(Eh)            E(eV)
   0   2.0000     -24.380526      -663.4279
   1   2.0000     -18.798678      -511.5380
   2   2.0000     -10.097711      -274.7727
   3   2.0000      -9.954163      -270.8665
   4   2.0000      -9.931899      -270.2607
   5   2.0000      -1.206172       -32.8216
   6   2.0000      -0.928332       -25.2612
   7   2.0000      -0.716713       -19.5028
   8   2.0000      -0.615552       -16.7500
   9   2.0000      -0.574248       -15.6261
  10   2.0000      -0.493545       -13.4300
  11   2.0000      -0.476646       -12.9702
  12   2.0000      -0.445843       -12.1320
  13   2.0000      -0.413315       -11.2469
  14   2.0000      -0.383475       -10.4349
  15   2.0000      -0.353655        -9.6234
  16   2.0000      -0.332502        -9.0478
  17   2.0000      -0.328814        -8.9475
  18   2.0000      -0.305745        -8.3197
  19   2.0000      -0.242258        -6.5922
  20   0.0000      -0.070265        -1.9120
  21   0.0000      -0.005415        -0.1473
  22   0.0000       0.027564         0.7501
  23   0.0000       0.039239         1.0677
  24   0.0000       0.052556         1.4301

MULLIKEN ATOMIC CHARGES
-----------------------
   0 C :    0.920266
   1 C :    0.012351
   2 H :   -0.116605
   3 H :   -0.154260
   4 C :    0.562463
   5 F :   -0.286436
   6 O :   -0.408195
   7 H :   -0.188197
   8 H :   -0.153846
   9 H :   -0.187541
Sum of atomic charges:    0.0000000

LOEWDIN ATOMIC CHARGES
----------------------
   0 C :    0.155911
   1 C :    0.014188
   2 H :    0.030511
   3 H :    0.014492
   4 C :   -0.045249
   5 F :   -0.005945
   6 O :   -0.119124
   7 H :   -0.014721
   8 H :   -0.012489
   9 H :   -0.017573

  Mayer bond orders larger than 0.100000
B(  0-C ,  1-C ) :   1.3267 B(  0-C ,  2-H ) :   0.1239 B(  0-C ,  3-H ) :   0.1236
B(  0-C ,  7-H ) :   0.7545 B(  0-C ,  8-H ) :   0.7558 B(  0-C ,  9-H ) :   0.7740
B(  1-C ,  2-H ) :   0.8303 B(  1-C ,  3-H ) :   0.8843 B(  1-C ,  4-C ) :   1.0745
B(  1-C ,  7-H ) :   0.2074 B(  1-C ,  8-H ) :   0.2112 B(  1-C ,  9-H ) :   0.1914
B(  3-H ,  4-C ) :   0.1067 B(  4-C ,  5-F ) :   0.8340 B(  4-C ,  6-O ) :   1.8629
B(  5-F ,  6-O ) :   0.1316

Dispersion correction           -0.012893687
FINAL SINGLE POINT ENERGY      -292.123230113931

DIPOLE MOMENT
-------------
                                X             Y             Z
Electronic contribution:      4.01946      -0.00797      -7.43790
Nuclear contribution   :     -5.17129      -0.01923       7.59895
                        -----------------------------------------
Total Dipole Moment    :     -1.15184      -0.02720       0.16105
                        -----------------------------------------
Magnitude (a.u.)       :      1.16336
Magnitude (Debye)      :      2.95702

Rotational constants in cm-1:     0.282073     0.131822     0.105134
Rotational constants in MHz :  8456.328792  3951.925810  3151.840112

                             ****ORCA TERMINATED NORMALLY****
TOTAL RUN TIME: 0 days 0 hours 0 minutes 8 seconds 708 msec
