                         Program Version 5.0.0 -  RELEASE  -
|  1> !BLYP D3BJ RIJCOSX def2-SVPD def2/J TightSCF
|  2> *xyz 0 1
|  3> C          3.90595        2.81985       -3.75292
|  4> C          5.29562        3.13151       -4.10533
|  5> C          3.80351        1.37472       -3.26081
|  6> C          5.70862        3.46889       -5.32419
|  7> N          6.90470        3.03895       -5.71708
|  8> N          4.98188        4.29357       -6.09746
|  9> H          5.00055        4.10131       -7.08776
| 10> H          4.08469        4.59690       -5.73965
| 11> H          5.96336        2.52611       -3.64239
| 12> H          7.04716        2.06686       -5.47360
| 13> H          7.19815        3.30799       -6.64523
| 14> H          3.28202        2.94919       -4.64026
| 15> H          3.56525        3.51457       -2.98252
| 16> H          4.14157        0.71142       -4.02935
| 17> H          2.78528        1.15146       -3.01944
| 18> H          4.41205        1.25066       -2.38949
| 19> *
| 20>
| 21> %MaxCore 64000
| 22>
| 23> %pal nprocs 4
| 24> end
| 25>
| 26> %scf
| 27>   MaxIter 150
| 28> end
| 29>
| 30>
| 31>                          ****END OF INPUT****

CARTESIAN COORDINATES (ANGSTROEM)
---------------------------------
  C      3.905950    2.819850   -3.752920
  C      5.295620    3.131510   -4.105330
  C      3.803510    1.374720   -3.260810
  C      5.708620    3.468890   -5.324190
  N      6.904700    3.038950   -5.717080
  N      4.981880    4.293570   -6.097460
  H      5.000550    4.101310   -7.087760
  H      4.084690    4.596900   -5.739650
  H      5.963360    2.526110   -3.642390
  H      7.047160    2.066860   -5.473600
  H      7.198150    3.307990   -6.645230
  H      3.282020    2.949190   -4.640260
  H      3.565250    3.514570   -2.982520
  H      4.141570    0.711420   -4.029350
  H      2.785280    1.151460   -3.019440
  H      4.412050    1.250660   -2.389490

 Total Charge           Charge          ....    0
 Multiplicity           Mult            ....    1
 Number of Electrons    NEL             ....   48
 Basis Dimension        Dim             ....  200

ORBITAL ENERGIES
----------------

  NO   OCC          E(Eh)            E(eV)
   0   2.0000     -14.029654      -381.7663
   1   2.0000     -14.026561      -381.6821
   2   2.0000      -9.960312      -271.0339
   3   2.0000      -9.901019      -269.4204
   4   2.0000      -9.895185      -269.2617
   5   2.0000      -9.850752      -268.0526
   6   2.0000      -0.869327       -23.6556
   7   2.0000      -0.787370       -21.4254
   8   2.0000      -0.692067       -18.8321
   9   2.0000      -0.617638       -16.8068
  10   2.0000      -0.544651       -14.8207
  11   2.0000      -0.515358       -14.0236
  12   2.0000      -0.480286       -13.0693
  13   2.0000      -0.453888       -12.3509
  14   2.0000      -0.427337       -11.6284
  15   2.0000      -0.394552       -10.7363
  16   2.0000      -0.371583       -10.1113
  17   2.0000      -0.340092        -9.2544
  18   2.0000      -0.321529        -8.7493
  19   2.0000      -0.306233        -8.3330
  20   2.0000      -0.283653        -7.7186
  21   2.0000      -0.280359        -7.6289
  22   2.0000      -0.229638        -6.2488
  23   2.0000      -0.137883        -3.7520
  24   0.0000      -0.010778        -0.2933
  25   0.0000       0.017394         0.4733
  26   0.0000       0.023411         0.6370
  27   0.0000       0.029892         0.8134
  28   0.0000       0.047466         1.2916

MULLIKEN ATOMIC CHARGES
-----------------------
   0 C :    0.236047
   1 C :    0.041672
   2 C :    1.168912
   3 C :    0.058890
   4 N :    0.320283
   5 N :    0.275061
   6 H :   -0.172013
   7 H :   -0.066931
   8 H :   -0.384967
   9 H :   -0.054985
  10 H :   -0.191165
  11 H :   -0.320691
  12 H :   -0.302095
  13 H :   -0.164221
  14 H :   -0.285125
  15 H :   -0.158673
Sum of atomic charges:    0.0000000

LOEWDIN ATOMIC CHARGES
----------------------
   0 C :   -0.094785
   1 C :   -0.011421
   2 C :    0.127781
   3 C :   -0.254816
   4 N :    0.209748
   5 N :    0.220159
   6 H :   -0.021312
   7 H :   -0.013464
   8 H :   -0.060875
   9 H :   -0.003518
  10 H :   -0.020536
  11 H :   -0.004035
  12 H :    0.003058
  13 H :   -0.022924
  14 H :   -0.030726
  15 H :   -0.022333

  Mayer bond orders larger than 0.100000
B(  0-C ,  1-C ) :   0.9788 B(  0-C ,  2-C ) :   1.2705 B(  0-C ,  3-C ) :   0.1289
B(  0-C ,  8-H ) :   0.2430 B(  0-C , 11-H ) :   0.7336 B(  0-C , 12-H ) :   0.6954
B(  0-C , 13-H ) :   0.3006 B(  0-C , 14-H ) :   0.3503 B(  0-C , 15-H ) :   0.2540
B(  1-C ,  3-C ) :   1.7634 B(  1-C ,  4-N ) :   0.3417 B(  1-C ,  5-N ) :   0.2040
B(  1-C ,  8-H ) :   0.4189 B(  1-C , 11-H ) :   0.1463 B(  1-C , 12-H ) :   0.2182
B(  2-C , 13-H ) :   0.6828 B(  2-C , 14-H ) :   0.6529 B(  2-C , 15-H ) :   0.7061
B(  3-C ,  4-N ) :   1.0407 B(  3-C ,  5-N ) :   1.0783 B(  3-C ,  8-H ) :   0.3972
B(  4-N ,  5-N ) :   0.1119 B(  4-N ,  9-H ) :   1.0254 B(  4-N , 10-H ) :   0.9122
B(  5-N ,  6-H ) :   1.0803 B(  5-N ,  7-H ) :   0.9727

Dispersion correction           -0.025850729
FINAL SINGLE POINT ENERGY      -267.619197754461

DIPOLE MOMENT
-------------
                                X             Y             Z
Electronic contribution:      3.19540       3.28397      -2.79894
Nuclear contribution   :     -3.27358      -3.61654       1.70633
                        -----------------------------------------
Total Dipole Moment    :     -0.07818      -0.33257      -1.09261
                        -----------------------------------------
Magnitude (a.u.)       :      1.14478
Magnitude (Debye)      :      2.90980

Rotational constants in cm-1:     0.231961     0.071249     0.059473
Rotational constants in MHz :  6954.024434  2135.976855  1782.962814

                             ****ORCA TERMINATED NORMALLY****
TOTAL RUN TIME: 0 days 0 hours 0 minutes 12 seconds 13 msec
