                         Program Version 5.0.0 -  RELEASE  -
|  1> !BLYP D3BJ RIJCOSX def2-SVPD def2/J TightSCF
|  2> *xyz 0 1
|  3> C          3.80351        1.37472       -3.26081
|  4> C          3.93993        0.32036       -4.36773
|  5> H          4.10504       -0.65508       -3.90773
|  6> H          3.02280        0.28052       -4.95712
|  7> C          5.10585        0.66802       -5.30546
|  8> O          4.80913        1.15019       -6.41436
|  9> F          6.26737        0.56500       -4.81948
| 10> H          3.64113        2.33595       -3.70189
| 11> H          4.69995        1.39701       -2.67703
| 12> H          2.97435        1.12625       -2.63180
| 13> *
| 14>
| 15> %MaxCore 64000
| 16>
| 17> %pal nprocs 4
| 18> end
| 19>
| 20> %scf
| 21>   MaxIter 150
| 22> end
| 23>
| 24>
| 25>                          ****END OF INPUT****

CARTESIAN COORDINATES (ANGSTROEM)
---------------------------------
  C      3.803510    1.374720   -3.260810
  C      3.939930    0.320360   -4.367730
  H      4.105040   -0.655080   -3.907730
  H      3.022800    0.280520   -4.957120
  C      5.105850    0.668020   -5.305460
  O      4.809130    1.150190   -6.414360
  F      6.267370    0.565000   -4.819480
  H      3.641130    2.335950   -3.701890
  H      4.699950    1.397010   -2.677030
  H      2.974350    1.126250   -2.631800

 Total Charge           Charge          ....    0
 Multiplicity           Mult            ....    1
 Number of Electrons    NEL             ....   40
 Basis Dimension        Dim             ....  146

ORBITAL ENERGIES
----------------

  NO   OCC          E(Eh)            E(eV)
   0   2.0000     -24.374048      -663.2516
   1   2.0000     -18.801169      -511.6058
   2   2.0000     -10.095969      -274.7253
   3   2.0000      -9.953732      -270.8548
   4   2.0000      -9.934594      -270.3340
   5   2.0000      -1.192852       -32.4592
   6   2.0000      -0.938728       -25.5441
   7   2.0000      -0.718549       -19.5527
   8   2.0000      -0.610227       -16.6051
   9   2.0000      -0.572601       -15.5813
  10   2.0000      -0.487958       -13.2780
  11   2.0000      -0.472936       -12.8692
  12   2.0000      -0.443001       -12.0547
  13   2.0000      -0.412641       -11.2285
  14   2.0000      -0.384512       -10.4631
  15   2.0000      -0.356129        -9.6908
  16   2.0000      -0.337255        -9.1772
  17   2.0000      -0.329503        -8.9662
  18   2.0000      -0.314298        -8.5525
  19   2.0000      -0.243239        -6.6189
  20   0.0000      -0.066640        -1.8134
  21   0.0000      -0.006452        -0.1756
  22   0.0000       0.027940         0.7603
  23   0.0000       0.039302         1.0695
  24   0.0000       0.053426         1.4538

MULLIKEN ATOMIC CHARGES
-----------------------
   0 C :    0.904743
   1 C :    0.033633
   2 H :   -0.129642
   3 H :   -0.152872
   4 C :    0.565995
   5 O :   -0.365175
   6 F :   -0.325713
   7 H :   -0.181898
   8 H :   -0.166723
   9 H :   -0.182349
Sum of atomic charges:    0.0000000

LOEWDIN ATOMIC CHARGES
----------------------
   0 C :    0.153237
   1 C :    0.016646
   2 H :    0.022231
   3 H :    0.026776
   4 C :   -0.046547
   5 O :   -0.108177
   6 F :   -0.017599
   7 H :   -0.011335
   8 H :   -0.018069
   9 H :   -0.017164

  Mayer bond orders larger than 0.100000
B(  0-C ,  1-C ) :   1.3153 B(  0-C ,  2-H ) :   0.1249 B(  0-C ,  3-H ) :   0.1143
B(  0-C ,  7-H ) :   0.7683 B(  0-C ,  8-H ) :   0.7475 B(  0-C ,  9-H ) :   0.7818
B(  1-C ,  2-H ) :   0.8323 B(  1-C ,  3-H ) :   0.8907 B(  1-C ,  4-C ) :   1.0501
B(  1-C ,  7-H ) :   0.2059 B(  1-C ,  8-H ) :   0.2070 B(  1-C ,  9-H ) :   0.1880
B(  3-H ,  4-C ) :   0.1434 B(  4-C ,  5-O ) :   1.8847 B(  4-C ,  6-F ) :   0.7886
B(  5-O ,  6-F ) :   0.1376

Dispersion correction           -0.012845332
FINAL SINGLE POINT ENERGY      -292.128245252986

DIPOLE MOMENT
-------------
                                X             Y             Z
Electronic contribution:      6.41791      -0.97850      -4.78733
Nuclear contribution   :     -6.76123       0.61881       5.86003
                        -----------------------------------------
Total Dipole Moment    :     -0.34332      -0.35969       1.07270
                        -----------------------------------------
Magnitude (a.u.)       :      1.18234
Magnitude (Debye)      :      3.00528

Rotational constants in cm-1:     0.275298     0.134631     0.105723
Rotational constants in MHz :  8253.224169  4036.137572  3169.487264

                             ****ORCA TERMINATED NORMALLY****
TOTAL RUN TIME: 0 days 0 hours 0 minutes 9 seconds 445 msec
