                         Program Version 5.0.0 -  RELEASE  -
|  1> !BLYP D3BJ RIJCOSX def2-SVPD def2/J TightSCF
|  2> *xyz 0 1
|  3> C          3.90595        2.81985       -3.75292
|  4> N          5.29562        3.13151       -4.10533
|  5> C          3.80351        1.37472       -3.26081
|  6> C          5.70862        3.46889       -5.32419
|  7> C          6.90470        3.03895       -5.71708
|  8> N          4.98188        4.29357       -6.09746
|  9> H          5.00055        4.10131       -7.08776
| 10> H          4.08469        4.59690       -5.73965
| 11> H          5.96336        2.52611       -3.64239
| 12> H          7.04716        2.06686       -5.47360
| 13> H          7.19815        3.30799       -6.64523
| 14> H          3.28202        2.94919       -4.64026
| 15> H          3.56525        3.51457       -2.98252
| 16> H          4.14157        0.71142       -4.02935
| 17> H          2.78528        1.15146       -3.01944
| 18> H          4.41205        1.25066       -2.38949
| 19> *
| 20>
| 21> %MaxCore 64000
| 22>
| 23> %pal nprocs 4
| 24> end
| 25>
| 26> %scf
| 27>   MaxIter 150
| 28> end
| 29>
| 30>
| 31>                          ****END OF INPUT****

CARTESIAN COORDINATES (ANGSTROEM)
---------------------------------
  C      3.905950    2.819850   -3.752920
  N      5.295620    3.131510   -4.105330
  C      3.803510    1.374720   -3.260810
  C      5.708620    3.468890   -5.324190
  C      6.904700    3.038950   -5.717080
  N      4.981880    4.293570   -6.097460
  H      5.000550    4.101310   -7.087760
  H      4.084690    4.596900   -5.739650
  H      5.963360    2.526110   -3.642390
  H      7.047160    2.066860   -5.473600
  H      7.198150    3.307990   -6.645230
  H      3.282020    2.949190   -4.640260
  H      3.565250    3.514570   -2.982520
  H      4.141570    0.711420   -4.029350
  H      2.785280    1.151460   -3.019440
  H      4.412050    1.250660   -2.389490

 Total Charge           Charge          ....    0
 Multiplicity           Mult            ....    1
 Number of Electrons    NEL             ....   48
 Basis Dimension        Dim             ....  200

ORBITAL ENERGIES
----------------

  NO   OCC          E(Eh)            E(eV)
   0   2.0000     -14.028575      -381.7369
   1   2.0000     -14.025344      -381.6490
   2   2.0000      -9.963675      -271.1254
   3   2.0000      -9.961858      -271.0760
   4   2.0000      -9.923822      -270.0409
   5   2.0000      -9.837354      -267.6880
   6   2.0000      -0.873141       -23.7594
   7   2.0000      -0.797308       -21.6958
   8   2.0000      -0.691678       -18.8215
   9   2.0000      -0.627362       -17.0714
  10   2.0000      -0.560050       -15.2397
  11   2.0000      -0.534740       -14.5510
  12   2.0000      -0.478338       -13.0162
  13   2.0000      -0.442054       -12.0289
  14   2.0000      -0.431113       -11.7312
  15   2.0000      -0.402978       -10.9656
  16   2.0000      -0.372057       -10.1242
  17   2.0000      -0.352609        -9.5950
  18   2.0000      -0.334905        -9.1132
  19   2.0000      -0.329158        -8.9568
  20   2.0000      -0.326972        -8.8974
  21   2.0000      -0.290806        -7.9132
  22   2.0000      -0.217779        -5.9261
  23   2.0000      -0.139843        -3.8053
  24   0.0000      -0.008446        -0.2298
  25   0.0000       0.011499         0.3129
  26   0.0000       0.021937         0.5969
  27   0.0000       0.028004         0.7620
  28   0.0000       0.045851         1.2477

MULLIKEN ATOMIC CHARGES
-----------------------
   0 C :    0.571362
   1 N :   -0.211948
   2 C :    1.109275
   3 C :    0.142405
   4 C :    0.745244
   5 N :    0.293370
   6 H :   -0.107237
   7 H :   -0.173381
   8 H :   -0.102021
   9 H :   -0.404414
  10 H :   -0.533311
  11 H :   -0.231177
  12 H :   -0.455225
  13 H :   -0.202254
  14 H :   -0.276655
  15 H :   -0.164032
Sum of atomic charges:   -0.0000000

LOEWDIN ATOMIC CHARGES
----------------------
   0 C :    0.011777
   1 N :    0.012822
   2 C :    0.146590
   3 C :   -0.258743
   4 C :    0.157901
   5 N :    0.223310
   6 H :   -0.003025
   7 H :   -0.027939
   8 H :    0.012869
   9 H :   -0.111467
  10 H :   -0.112289
  11 H :    0.004386
  12 H :    0.007042
  13 H :   -0.017707
  14 H :   -0.023556
  15 H :   -0.021970

  Mayer bond orders larger than 0.100000
B(  0-C ,  1-N ) :   0.9295 B(  0-C ,  2-C ) :   1.2755 B(  0-C , 11-H ) :   0.7224
B(  0-C , 12-H ) :   0.7219 B(  0-C , 13-H ) :   0.3058 B(  0-C , 14-H ) :   0.3131
B(  0-C , 15-H ) :   0.2146 B(  1-N ,  2-C ) :   0.1092 B(  1-N ,  3-C ) :   1.2278
B(  1-N ,  4-C ) :   0.2505 B(  1-N ,  8-H ) :   1.0588 B(  1-N , 11-H ) :   0.1427
B(  1-N , 12-H ) :   0.2087 B(  2-C , 13-H ) :   0.6874 B(  2-C , 14-H ) :   0.6892
B(  2-C , 15-H ) :   0.7269 B(  3-C ,  4-C ) :   1.6739 B(  3-C ,  5-N ) :   1.0068
B(  3-C ,  8-H ) :  -0.1391 B(  3-C ,  9-H ) :   0.2752 B(  3-C , 10-H ) :   0.4056
B(  4-C ,  5-N ) :   0.2447 B(  4-C ,  9-H ) :   0.7440 B(  4-C , 10-H ) :   0.3779
B(  5-N ,  6-H ) :   1.1020 B(  5-N ,  7-H ) :   0.9229 B(  6-H ,  7-H ) :  -0.1234
B(  9-H , 10-H ) :   0.1744

Dispersion correction           -0.025564756
FINAL SINGLE POINT ENERGY      -267.608273160590

DIPOLE MOMENT
-------------
                                X             Y             Z
Electronic contribution:      1.55906       3.26240      -1.26570
Nuclear contribution   :     -2.93222      -3.63618       1.36440
                        -----------------------------------------
Total Dipole Moment    :     -1.37316      -0.37378       0.09870
                        -----------------------------------------
Magnitude (a.u.)       :      1.42654
Magnitude (Debye)      :      3.62598

Rotational constants in cm-1:     0.237993     0.072843     0.061284
Rotational constants in MHz :  7134.860770  2183.763760  1837.240960

                             ****ORCA TERMINATED NORMALLY****
TOTAL RUN TIME: 0 days 0 hours 0 minutes 14 seconds 173 msec
