                         Program Version 5.0.0 -  RELEASE  -
|  1> !BLYP D3BJ RIJCOSX def2-SVPD def2/J TightSCF
|  2> *xyz 0 1
|  3> C          3.90595        2.81985       -3.75292
|  4> N          5.29562        3.13151       -4.10533
|  5> C          3.80351        1.37472       -3.26081
|  6> C          5.70862        3.46889       -5.32419
|  7> N          6.90470        3.03895       -5.71708
|  8> C          4.98188        4.29357       -6.09746
|  9> H          5.00055        4.10131       -7.08776
| 10> H          4.08469        4.59690       -5.73965
| 11> H          5.96336        2.52611       -3.64239
| 12> H          7.04716        2.06686       -5.47360
| 13> H          7.19815        3.30799       -6.64523
| 14> H          3.28202        2.94919       -4.64026
| 15> H          3.56525        3.51457       -2.98252
| 16> H          4.14157        0.71142       -4.02935
| 17> H          2.78528        1.15146       -3.01944
| 18> H          4.41205        1.25066       -2.38949
| 19> *
| 20>
| 21> %MaxCore 64000
| 22>
| 23> %pal nprocs 4
| 24> end
| 25>
| 26> %scf
| 27>   MaxIter 150
| 28> end
| 29>
| 30>
| 31>                          ****END OF INPUT****

CARTESIAN COORDINATES (ANGSTROEM)
---------------------------------
  C      3.905950    2.819850   -3.752920
  N      5.295620    3.131510   -4.105330
  C      3.803510    1.374720   -3.260810
  C      5.708620    3.468890   -5.324190
  N      6.904700    3.038950   -5.717080
  C      4.981880    4.293570   -6.097460
  H      5.000550    4.101310   -7.087760
  H      4.084690    4.596900   -5.739650
  H      5.963360    2.526110   -3.642390
  H      7.047160    2.066860   -5.473600
  H      7.198150    3.307990   -6.645230
  H      3.282020    2.949190   -4.640260
  H      3.565250    3.514570   -2.982520
  H      4.141570    0.711420   -4.029350
  H      2.785280    1.151460   -3.019440
  H      4.412050    1.250660   -2.389490

 Total Charge           Charge          ....    0
 Multiplicity           Mult            ....    1
 Number of Electrons    NEL             ....   48
 Basis Dimension        Dim             ....  200

ORBITAL ENERGIES
----------------

  NO   OCC          E(Eh)            E(eV)
   0   2.0000     -14.028013      -381.7216
   1   2.0000     -14.027393      -381.7048
   2   2.0000      -9.963268      -271.1143
   3   2.0000      -9.956492      -270.9299
   4   2.0000      -9.921897      -269.9886
   5   2.0000      -9.843190      -267.8468
   6   2.0000      -0.878230       -23.8978
   7   2.0000      -0.799197       -21.7472
   8   2.0000      -0.681626       -18.5480
   9   2.0000      -0.628836       -17.1115
  10   2.0000      -0.574208       -15.6250
  11   2.0000      -0.505474       -13.7547
  12   2.0000      -0.481146       -13.0926
  13   2.0000      -0.461981       -12.5712
  14   2.0000      -0.419654       -11.4194
  15   2.0000      -0.407360       -11.0848
  16   2.0000      -0.356194        -9.6925
  17   2.0000      -0.355520        -9.6742
  18   2.0000      -0.344788        -9.3822
  19   2.0000      -0.328122        -8.9287
  20   2.0000      -0.319304        -8.6887
  21   2.0000      -0.292981        -7.9724
  22   2.0000      -0.215716        -5.8699
  23   2.0000      -0.143909        -3.9159
  24   0.0000      -0.009303        -0.2532
  25   0.0000       0.015375         0.4184
  26   0.0000       0.023991         0.6528
  27   0.0000       0.028805         0.7838
  28   0.0000       0.045205         1.2301

MULLIKEN ATOMIC CHARGES
-----------------------
   0 C :    0.585073
   1 N :   -0.091506
   2 C :    1.130236
   3 C :    0.030637
   4 N :    0.246207
   5 C :    0.677360
   6 H :   -0.588980
   7 H :   -0.255044
   8 H :   -0.250765
   9 H :   -0.109842
  10 H :   -0.050906
  11 H :   -0.186425
  12 H :   -0.480623
  13 H :   -0.212882
  14 H :   -0.252672
  15 H :   -0.189868
Sum of atomic charges:    0.0000000

LOEWDIN ATOMIC CHARGES
----------------------
   0 C :    0.023250
   1 N :    0.014124
   2 C :    0.143879
   3 C :   -0.268999
   4 N :    0.210195
   5 C :    0.176061
   6 H :   -0.112405
   7 H :   -0.116069
   8 H :    0.001562
   9 H :   -0.019367
  10 H :   -0.004318
  11 H :    0.010017
  12 H :    0.012246
  13 H :   -0.022167
  14 H :   -0.022511
  15 H :   -0.025497

  Mayer bond orders larger than 0.100000
B(  0-C ,  1-N ) :   0.9761 B(  0-C ,  2-C ) :   1.2529 B(  0-C , 11-H ) :   0.7584
B(  0-C , 12-H ) :   0.7265 B(  0-C , 13-H ) :   0.2721 B(  0-C , 14-H ) :   0.3178
B(  0-C , 15-H ) :   0.2241 B(  1-N ,  2-C ) :   0.1147 B(  1-N ,  3-C ) :   1.1955
B(  1-N ,  4-N ) :   0.1903 B(  1-N ,  5-C ) :   0.2482 B(  1-N ,  8-H ) :   0.9945
B(  1-N , 11-H ) :   0.1424 B(  1-N , 12-H ) :   0.1942 B(  2-C , 13-H ) :   0.7137
B(  2-C , 14-H ) :   0.6759 B(  2-C , 15-H ) :   0.7143 B(  3-C ,  4-N ) :   1.1032
B(  3-C ,  5-C ) :   1.7648 B(  3-C ,  6-H ) :   0.2521 B(  3-C ,  7-H ) :   0.3673
B(  3-C ,  8-H ) :  -0.1140 B(  4-N ,  5-C ) :   0.1817 B(  4-N ,  9-H ) :   0.9482
B(  4-N , 10-H ) :   0.9841 B(  5-C ,  6-H ) :   0.6729 B(  5-C ,  7-H ) :   0.4089
B(  6-H ,  7-H ) :   0.3183

Dispersion correction           -0.025646923
FINAL SINGLE POINT ENERGY      -267.612644769450

DIPOLE MOMENT
-------------
                                X             Y             Z
Electronic contribution:      3.38633       2.11863      -0.97575
Nuclear contribution   :     -3.34013      -3.37002       1.28371
                        -----------------------------------------
Total Dipole Moment    :      0.04619      -1.25139       0.30796
                        -----------------------------------------
Magnitude (a.u.)       :      1.28955
Magnitude (Debye)      :      3.27778

Rotational constants in cm-1:     0.239537     0.072280     0.060961
Rotational constants in MHz :  7181.153552  2166.902802  1827.551447

                             ****ORCA TERMINATED NORMALLY****
TOTAL RUN TIME: 0 days 0 hours 0 minutes 16 seconds 545 msec
