                         Program Version 5.0.0 -  RELEASE  -
|  1> !BLYP D3BJ RIJCOSX def2-SVPD def2/J TightSCF xyzfile
|  2>
|  3> *xyzfile 0 1 D3.xyz
|  4>
|  5> %MaxCore 64000
|  6>
|  7> %pal nprocs 4
|  8> end
|  9>
| 10> %scf
| 11>   MaxIter 150
| 12> end
| 13>
| 14>
| 15>                          ****END OF INPUT****

CARTESIAN COORDINATES (ANGSTROEM)
---------------------------------
  C      3.905947    2.819855   -3.752920
  N      5.295615    3.131515   -4.105334
  C      3.803511    1.374716   -3.260807
  C      3.939934    0.320362   -4.367729
  H      4.105043   -0.655085   -3.907733
  H      3.022801    0.280517   -4.957117
  C      5.105846    0.668022   -5.305463
  C      5.708619    3.468885   -5.324190
  N      6.904696    3.038954   -5.717084
  C      4.981884    4.293570   -6.097457
  H      5.000546    4.101311   -7.087761
  H      4.084693    4.596899   -5.739652
  H      5.963358    2.526112   -3.642391
  H      7.047164    2.066861   -5.473604
  H      7.198145    3.307994   -6.645225
  H      3.282025    2.949187   -4.640259
  H      3.565254    3.514574   -2.982523
  H      4.574833    1.215157   -2.500443
  H      2.843514    1.260845   -2.751465
  F      4.809132    1.150187   -6.414361
  O      6.267366    0.564999   -4.819481

 Total Charge           Charge          ....    0
 Multiplicity           Mult            ....    1
 Number of Electrons    NEL             ....   78
 Basis Dimension        Dim             ....  294

ORBITAL ENERGIES
----------------

  NO   OCC          E(Eh)            E(eV)
   0   2.0000     -24.394471      -663.8073
   1   2.0000     -18.817027      -512.0373
   2   2.0000     -14.028949      -381.7471
   3   2.0000     -14.006152      -381.1268
   4   2.0000     -10.117485      -275.3108
   5   2.0000      -9.966384      -271.1991
   6   2.0000      -9.966266      -271.1959
   7   2.0000      -9.958089      -270.9734
   8   2.0000      -9.953904      -270.8595
   9   2.0000      -9.838637      -267.7229
  10   2.0000      -1.220202       -33.2034
  11   2.0000      -0.954518       -25.9738
  12   2.0000      -0.874757       -23.8033
  13   2.0000      -0.796468       -21.6730
  14   2.0000      -0.733931       -19.9713
  15   2.0000      -0.660153       -17.9637
  16   2.0000      -0.625692       -17.0259
  17   2.0000      -0.607493       -16.5307
  18   2.0000      -0.567014       -15.4292
  19   2.0000      -0.511530       -13.9194
  20   2.0000      -0.508149       -13.8274
  21   2.0000      -0.494715       -13.4619
  22   2.0000      -0.477640       -12.9972
  23   2.0000      -0.460276       -12.5247
  24   2.0000      -0.446985       -12.1631
  25   2.0000      -0.431494       -11.7415
  26   2.0000      -0.421937       -11.4815
  27   2.0000      -0.387891       -10.5551
  28   2.0000      -0.377314       -10.2672
  29   2.0000      -0.362261        -9.8576
  30   2.0000      -0.344822        -9.3831
  31   2.0000      -0.343747        -9.3538
  32   2.0000      -0.332197        -9.0396
  33   2.0000      -0.326456        -8.8833
  34   2.0000      -0.316219        -8.6047
  35   2.0000      -0.287996        -7.8368
  36   2.0000      -0.264700        -7.2029
  37   2.0000      -0.210488        -5.7277
  38   2.0000      -0.139226        -3.7885
  39   0.0000      -0.090307        -2.4574
  40   0.0000      -0.010390        -0.2827
  41   0.0000       0.013875         0.3776
  42   0.0000       0.017133         0.4662
  43   0.0000       0.025669         0.6985

MULLIKEN ATOMIC CHARGES
-----------------------
   0 C :    1.050235
   1 N :   -0.040122
   2 C :    0.461497
   3 C :    0.612131
   4 H :   -0.236137
   5 H :   -0.154065
   6 C :    0.612776
   7 C :   -0.068743
   8 N :    0.446579
   9 C :    0.634597
  10 H :   -0.579031
  11 H :   -0.325975
  12 H :   -0.240510
  13 H :   -0.209591
  14 H :   -0.013830
  15 H :   -0.106225
  16 H :   -0.614891
  17 H :   -0.084910
  18 H :   -0.330521
  19 F :   -0.312454
  20 O :   -0.500809
Sum of atomic charges:   -0.0000000

LOEWDIN ATOMIC CHARGES
----------------------
   0 C :    0.073520
   1 N :    0.033485
   2 C :    0.004035
   3 C :    0.074173
   4 H :    0.033944
   5 H :    0.022483
   6 C :   -0.018091
   7 C :   -0.280384
   8 N :    0.238520
   9 C :    0.171436
  10 H :   -0.109221
  11 H :   -0.117831
  12 H :    0.000529
  13 H :   -0.092542
  14 H :    0.003785
  15 H :    0.015535
  16 H :    0.015495
  17 H :    0.025401
  18 H :    0.021823
  19 F :    0.013195
  20 O :   -0.129292

  Mayer bond orders larger than 0.100000
B(  0-C ,  1-N ) :   0.9364 B(  0-C ,  2-C ) :   1.1285 B(  0-C ,  3-C ) :   0.1432
B(  0-C , 15-H ) :   0.6639 B(  0-C , 16-H ) :   0.6842 B(  0-C , 18-H ) :   0.2515
B(  1-N ,  2-C ) :   0.1895 B(  1-N ,  7-C ) :   1.3128 B(  1-N ,  8-N ) :   0.1047
B(  1-N ,  9-C ) :   0.2903 B(  1-N , 12-H ) :   0.9214 B(  1-N , 15-H ) :   0.1829
B(  2-C ,  3-C ) :   1.1816 B(  2-C ,  4-H ) :   0.2292 B(  2-C ,  5-H ) :   0.1591
B(  2-C ,  6-C ) :   0.1028 B(  2-C , 17-H ) :   0.7430 B(  2-C , 18-H ) :   0.7632
B(  3-C ,  4-H ) :   0.6666 B(  3-C ,  5-H ) :   0.7564 B(  3-C ,  6-C ) :   1.0921
B(  3-C , 17-H ) :   0.1074 B(  4-H ,  6-C ) :   0.1618 B(  5-H ,  6-C ) :   0.1955
B(  6-C , 19-F ) :   0.7925 B(  6-C , 20-O ) :   1.7122 B(  7-C ,  8-N ) :   1.0980
B(  7-C ,  9-C ) :   1.7391 B(  7-C , 10-H ) :   0.2552 B(  7-C , 11-H ) :   0.3738
B(  7-C , 12-H ) :  -0.1697 B(  7-C , 13-H ) :   0.1654 B(  7-C , 14-H ) :   0.1352
B(  7-C , 15-H ) :   0.1147 B(  8-N ,  9-C ) :   0.2035 B(  8-N , 13-H ) :   0.8123
B(  8-N , 14-H ) :   0.8852 B(  9-C , 10-H ) :   0.6642 B(  9-C , 11-H ) :   0.4416
B( 10-H , 11-H ) :   0.1980 B( 12-H , 13-H ) :   0.1027 B( 15-H , 16-H ) :  -0.1802
B( 17-H , 18-H ) :  -0.1393 B( 19-F , 20-O ) :   0.1167

Dispersion correction           -0.046134549
FINAL SINGLE POINT ENERGY      -519.284596005470

DIPOLE MOMENT
-------------
                                X             Y             Z
Electronic contribution:      3.61844      -4.78642      -4.87294
Nuclear contribution   :     -4.64021       3.37029       5.31478
                        -----------------------------------------
Total Dipole Moment    :     -1.02177      -1.41614       0.44184
                        -----------------------------------------
Magnitude (a.u.)       :      1.80130
Magnitude (Debye)      :      4.57853

Rotational constants in cm-1:     0.061077     0.043622     0.034103
Rotational constants in MHz :  1831.041375  1307.759852  1022.388536

                             ****ORCA TERMINATED NORMALLY****
TOTAL RUN TIME: 0 days 0 hours 0 minutes 20 seconds 697 msec
