                         Program Version 5.0.0 -  RELEASE  -
|  1> !B3LYP D3BJ RIJCOSX def2-SVP def2/J TightSCF
|  2> *xyz -1 1
|  3> C          4.90646       -3.10282       -5.95484
|  4> C          3.51177       -2.80621       -6.49228
|  5> H          2.73604       -3.37345       -5.97374
|  6> H          3.44490       -3.04083       -7.55528
|  7> S          3.00462       -1.09621       -6.38926
|  8> O          4.12886       -0.32965       -6.95372
|  9> O          1.78128       -1.00078       -7.13640
| 10> O          2.85155       -0.78368       -4.95679
| 11> H          5.62703       -2.52424       -6.49422
| 12> H          5.12164       -4.14387       -6.07654
| 13> H          4.95004       -2.84862       -4.91639
| 14> *
| 15>
| 16> %MaxCore 64000
| 17>
| 18> %pal nprocs 4
| 19> end
| 20>
| 21> %scf
| 22>   MaxIter 150
| 23> end
| 24>
| 25>
| 26>                          ****END OF INPUT****

CARTESIAN COORDINATES (ANGSTROEM)
---------------------------------
  C      4.906460   -3.102820   -5.954840
  C      3.511770   -2.806210   -6.492280
  H      2.736040   -3.373450   -5.973740
  H      3.444900   -3.040830   -7.555280
  S      3.004620   -1.096210   -6.389260
  O      4.128860   -0.329650   -6.953720
  O      1.781280   -1.000780   -7.136400
  O      2.851550   -0.783680   -4.956790
  H      5.627030   -2.524240   -6.494220
  H      5.121640   -4.143870   -6.076540
  H      4.950040   -2.848620   -4.916390

 Total Charge           Charge          ....   -1
 Multiplicity           Mult            ....    1
 Number of Electrons    NEL             ....   58
 Basis Dimension        Dim             ....  113

ORBITAL ENERGIES
----------------

  NO   OCC          E(Eh)            E(eV)
   0   2.0000     -88.837401     -2417.3886
   1   2.0000     -18.881557      -513.7933
   2   2.0000     -18.868978      -513.4510
   3   2.0000     -18.867757      -513.4178
   4   2.0000     -10.033150      -273.0159
   5   2.0000     -10.029285      -272.9107
   6   2.0000      -7.898116      -214.9187
   7   2.0000      -5.866441      -159.6340
   8   2.0000      -5.866363      -159.6319
   9   2.0000      -5.866138      -159.6257
  10   2.0000      -0.895518       -24.3683
  11   2.0000      -0.753436       -20.5020
  12   2.0000      -0.731699       -19.9106
  13   2.0000      -0.616119       -16.7655
  14   2.0000      -0.492528       -13.4024
  15   2.0000      -0.358163        -9.7461
  16   2.0000      -0.307917        -8.3788
  17   2.0000      -0.291626        -7.9356
  18   2.0000      -0.257837        -7.0161
  19   2.0000      -0.236748        -6.4422
  20   2.0000      -0.233796        -6.3619
  21   2.0000      -0.212432        -5.7806
  22   2.0000      -0.199362        -5.4249
  23   2.0000      -0.115089        -3.1317
  24   2.0000      -0.114690        -3.1209
  25   2.0000      -0.083081        -2.2607
  26   2.0000      -0.075519        -2.0550
  27   2.0000      -0.067254        -1.8301
  28   2.0000      -0.029131        -0.7927
  29   0.0000       0.203630         5.5411
  30   0.0000       0.253273         6.8919
  31   0.0000       0.260043         7.0761
  32   0.0000       0.267907         7.2901
  33   0.0000       0.296868         8.0782

MULLIKEN ATOMIC CHARGES
-----------------------
   0 C :    0.066344
   1 C :   -0.065987
   2 H :   -0.017327
   3 H :   -0.017511
   4 S :    0.867692
   5 O :   -0.604737
   6 O :   -0.564848
   7 O :   -0.606818
   8 H :   -0.003113
   9 H :   -0.046611
  10 H :   -0.007083
Sum of atomic charges:   -1.0000000

LOEWDIN ATOMIC CHARGES
----------------------
   0 C :   -0.064868
   1 C :   -0.180197
   2 H :    0.002210
   3 H :    0.002461
   4 S :    1.107205
   5 O :   -0.642042
   6 O :   -0.603782
   7 O :   -0.645853
   8 H :    0.013884
   9 H :   -0.002059
  10 H :    0.013040

  Mayer bond orders larger than 0.100000
B(  0-C ,  1-C ) :   1.0656 B(  0-C ,  8-H ) :   0.9620 B(  0-C ,  9-H ) :   0.9557
B(  0-C , 10-H ) :   0.9642 B(  1-C ,  2-H ) :   0.9363 B(  1-C ,  3-H ) :   0.9356
B(  1-C ,  4-S ) :   0.8882 B(  4-S ,  5-O ) :   1.5857 B(  4-S ,  6-O ) :   1.6396
B(  4-S ,  7-O ) :   1.5918

Dispersion correction           -0.016731904
FINAL SINGLE POINT ENERGY      -702.527113516201

DIPOLE MOMENT
-------------
                                X             Y             Z
Electronic contribution:     -4.44289       6.55080      -0.66751
Nuclear contribution   :      5.05690      -8.21735       0.57889
                        -----------------------------------------
Total Dipole Moment    :      0.61401      -1.66655      -0.08862
                        -----------------------------------------
Magnitude (a.u.)       :      1.77827
Magnitude (Debye)      :      4.52000

Rotational constants in cm-1:     0.162547     0.083494     0.081672
Rotational constants in MHz :  4873.033504  2503.090885  2448.458543

                             ****ORCA TERMINATED NORMALLY****
TOTAL RUN TIME: 0 days 0 hours 0 minutes 8 seconds 85 msec
