                         Program Version 5.0.0 -  RELEASE  -
|  1> !B3LYP D3BJ RIJCOSX def2-SVP def2/J TightSCF
|  2> *xyz 1 1
|  3> C          4.49059        1.15590       -2.46929
|  4> N          4.30539        1.22276       -3.90832
|  5> C          4.63192        2.24637       -4.67096
|  6> N          4.54169        2.14399       -5.98714
|  7> N          5.08409        3.39358       -4.11855
|  8> H          4.92067        3.57050       -3.13587
|  9> H          5.25465        4.19739       -4.70696
| 10> H          3.82453        0.44911       -4.35093
| 11> H          4.34337        1.24932       -6.41665
| 12> H          4.67671        2.95662       -6.57411
| 13> C          5.94213        0.93950       -2.03689
| 14> H          3.86431        0.32853       -2.13661
| 15> H          4.07623        2.04999       -1.98901
| 16> H          6.32982        0.06401       -2.51451
| 17> H          5.98308        0.81426       -0.97504
| 18> H          6.52865        1.78889       -2.31873
| 19> *
| 20>
| 21> %MaxCore 64000
| 22>
| 23> %pal nprocs 4
| 24> end
| 25>
| 26> %scf
| 27>   MaxIter 150
| 28> end
| 29>
| 30>
| 31>                          ****END OF INPUT****

CARTESIAN COORDINATES (ANGSTROEM)
---------------------------------
  C      4.490590    1.155900   -2.469290
  N      4.305390    1.222760   -3.908320
  C      4.631920    2.246370   -4.670960
  N      4.541690    2.143990   -5.987140
  N      5.084090    3.393580   -4.118550
  H      4.920670    3.570500   -3.135870
  H      5.254650    4.197390   -4.706960
  H      3.824530    0.449110   -4.350930
  H      4.343370    1.249320   -6.416650
  H      4.676710    2.956620   -6.574110
  C      5.942130    0.939500   -2.036890
  H      3.864310    0.328530   -2.136610
  H      4.076230    2.049990   -1.989010
  H      6.329820    0.064010   -2.514510
  H      5.983080    0.814260   -0.975040
  H      6.528650    1.788890   -2.318730

 Total Charge           Charge          ....    1
 Multiplicity           Mult            ....    1
 Number of Electrons    NEL             ....   48
 Basis Dimension        Dim             ....  134

ORBITAL ENERGIES
----------------

  NO   OCC          E(Eh)            E(eV)
   0   2.0000     -14.550825      -395.9481
   1   2.0000     -14.548498      -395.8848
   2   2.0000     -14.547370      -395.8541
   3   2.0000     -10.514488      -286.1138
   4   2.0000     -10.388006      -282.6720
   5   2.0000     -10.316698      -280.7316
   6   2.0000      -1.203861       -32.7587
   7   2.0000      -1.094657       -29.7871
   8   2.0000      -1.078651       -29.3516
   9   2.0000      -0.920686       -25.0531
  10   2.0000      -0.837477       -22.7889
  11   2.0000      -0.795288       -21.6409
  12   2.0000      -0.782862       -21.3028
  13   2.0000      -0.738595       -20.0982
  14   2.0000      -0.690394       -18.7866
  15   2.0000      -0.688213       -18.7272
  16   2.0000      -0.657068       -17.8797
  17   2.0000      -0.622221       -16.9315
  18   2.0000      -0.599726       -16.3194
  19   2.0000      -0.554866       -15.0987
  20   2.0000      -0.527660       -14.3584
  21   2.0000      -0.508713       -13.8428
  22   2.0000      -0.472128       -12.8473
  23   2.0000      -0.447483       -12.1766
  24   0.0000      -0.156537        -4.2596
  25   0.0000      -0.138005        -3.7553
  26   0.0000      -0.104013        -2.8303
  27   0.0000      -0.096954        -2.6382
  28   0.0000      -0.077367        -2.1053

MULLIKEN ATOMIC CHARGES
-----------------------
   0 C :    0.025781
   1 N :   -0.094487
   2 C :    0.017686
   3 N :    0.006110
   4 N :   -0.034671
   5 H :    0.164738
   6 H :    0.162020
   7 H :    0.161016
   8 H :    0.167351
   9 H :    0.167786
  10 C :    0.042235
  11 H :    0.055173
  12 H :    0.045257
  13 H :    0.037652
  14 H :    0.057804
  15 H :    0.018549
Sum of atomic charges:    1.0000000

LOEWDIN ATOMIC CHARGES
----------------------
   0 C :    0.041595
   1 N :    0.037072
   2 C :    0.142441
   3 N :    0.055286
   4 N :    0.041081
   5 H :    0.104897
   6 H :    0.108022
   7 H :    0.107795
   8 H :    0.111277
   9 H :    0.111034
  10 C :   -0.039625
  11 H :    0.047325
  12 H :    0.028741
  13 H :    0.034013
  14 H :    0.046382
  15 H :    0.022664

  Mayer bond orders larger than 0.100000
B(  0-C ,  1-N ) :   0.9471 B(  0-C , 10-C ) :   1.1005 B(  0-C , 11-H ) :   0.9448
B(  0-C , 12-H ) :   0.9497 B(  1-N ,  2-C ) :   1.3827 B(  1-N ,  7-H ) :   0.9136
B(  2-C ,  3-N ) :   1.4032 B(  2-C ,  4-N ) :   1.3719 B(  3-N ,  8-H ) :   0.9245
B(  3-N ,  9-H ) :   0.9254 B(  4-N ,  5-H ) :   0.9227 B(  4-N ,  6-H ) :   0.9278
B( 10-C , 13-H ) :   0.9653 B( 10-C , 14-H ) :   0.9621 B( 10-C , 15-H ) :   0.9671

Dispersion correction           -0.020389671
FINAL SINGLE POINT ENERGY      -284.035093961714

DIPOLE MOMENT
-------------
                                X             Y             Z
Electronic contribution:     -1.83702       1.62337      -4.55250
Nuclear contribution   :      1.34333      -1.11039       3.43667
                        -----------------------------------------
Total Dipole Moment    :     -0.49370       0.51298      -1.11584
                        -----------------------------------------
Magnitude (a.u.)       :      1.32362
Magnitude (Debye)      :      3.36438

Rotational constants in cm-1:     0.227161     0.075356     0.065003
Rotational constants in MHz :  6810.114531  2259.122204  1948.738523

                             ****ORCA TERMINATED NORMALLY****
TOTAL RUN TIME: 0 days 0 hours 0 minutes 11 seconds 382 msec
