                         Program Version 5.0.0 -  RELEASE  -
|  1> !B3LYP D3BJ RIJCOSX def2-SVP def2/J TightSCF
|  2> *xyz 0 1
|  3> C          4.90646       -3.10282       -5.95484
|  4> C          3.51177       -2.80621       -6.49228
|  5> H          2.73604       -3.37345       -5.97374
|  6> H          3.44490       -3.04083       -7.55528
|  7> S          3.00462       -1.09621       -6.38926
|  8> F          4.12886       -0.32965       -6.95372
|  9> O          1.78128       -1.00078       -7.13640
| 10> O          2.85155       -0.78368       -4.95679
| 11> H          5.62703       -2.52424       -6.49422
| 12> H          5.12164       -4.14387       -6.07654
| 13> H          4.95004       -2.84862       -4.91639
| 14> *
| 15>
| 16> %MaxCore 64000
| 17>
| 18> %pal nprocs 4
| 19> end
| 20>
| 21> %scf
| 22>   MaxIter 150
| 23> end
| 24>
| 25>
| 26>                          ****END OF INPUT****

CARTESIAN COORDINATES (ANGSTROEM)
---------------------------------
  C      4.906460   -3.102820   -5.954840
  C      3.511770   -2.806210   -6.492280
  H      2.736040   -3.373450   -5.973740
  H      3.444900   -3.040830   -7.555280
  S      3.004620   -1.096210   -6.389260
  F      4.128860   -0.329650   -6.953720
  O      1.781280   -1.000780   -7.136400
  O      2.851550   -0.783680   -4.956790
  H      5.627030   -2.524240   -6.494220
  H      5.121640   -4.143870   -6.076540
  H      4.950040   -2.848620   -4.916390

 Total Charge           Charge          ....    0
 Multiplicity           Mult            ....    1
 Number of Electrons    NEL             ....   58
 Basis Dimension        Dim             ....  113

ORBITAL ENERGIES
----------------

  NO   OCC          E(Eh)            E(eV)
   0   2.0000     -89.110430     -2424.8181
   1   2.0000     -24.781998      -674.3525
   2   2.0000     -19.133921      -520.6605
   3   2.0000     -19.121169      -520.3135
   4   2.0000     -10.241409      -278.6829
   5   2.0000     -10.207975      -277.7731
   6   2.0000      -8.173482      -222.4117
   7   2.0000      -6.145827      -167.2365
   8   2.0000      -6.139519      -167.0648
   9   2.0000      -6.138240      -167.0300
  10   2.0000      -1.339766       -36.4569
  11   2.0000      -1.098578       -29.8938
  12   2.0000      -0.994913       -27.0730
  13   2.0000      -0.820882       -22.3373
  14   2.0000      -0.716387       -19.4939
  15   2.0000      -0.669400       -18.2153
  16   2.0000      -0.579007       -15.7556
  17   2.0000      -0.559461       -15.2237
  18   2.0000      -0.534600       -14.5472
  19   2.0000      -0.493266       -13.4224
  20   2.0000      -0.470564       -12.8047
  21   2.0000      -0.447289       -12.1714
  22   2.0000      -0.428490       -11.6598
  23   2.0000      -0.410110       -11.1596
  24   2.0000      -0.397043       -10.8041
  25   2.0000      -0.371526       -10.1097
  26   2.0000      -0.325738        -8.8638
  27   2.0000      -0.313500        -8.5308
  28   2.0000      -0.296880        -8.0785
  29   0.0000       0.027779         0.7559
  30   0.0000       0.059591         1.6216
  31   0.0000       0.088241         2.4012
  32   0.0000       0.090307         2.4574
  33   0.0000       0.095951         2.6109

MULLIKEN ATOMIC CHARGES
-----------------------
   0 C :    0.032696
   1 C :   -0.109488
   2 H :    0.082095
   3 H :    0.054084
   4 S :    0.948656
   5 F :   -0.204024
   6 O :   -0.426769
   7 O :   -0.470518
   8 H :    0.021445
   9 H :    0.031865
  10 H :    0.039958
Sum of atomic charges:    0.0000000

LOEWDIN ATOMIC CHARGES
----------------------
   0 C :   -0.053224
   1 C :   -0.142926
   2 H :    0.050142
   3 H :    0.031944
   4 S :    1.169856
   5 F :   -0.150703
   6 O :   -0.476444
   7 O :   -0.518901
   8 H :    0.024033
   9 H :    0.034882
  10 H :    0.031341

  Mayer bond orders larger than 0.100000
B(  0-C ,  1-C ) :   1.0575 B(  0-C ,  8-H ) :   0.9715 B(  0-C ,  9-H ) :   0.9599
B(  0-C , 10-H ) :   0.9692 B(  1-C ,  2-H ) :   0.9344 B(  1-C ,  3-H ) :   0.9310
B(  1-C ,  4-S ) :   0.9207 B(  4-S ,  5-F ) :   0.9771 B(  4-S ,  6-O ) :   1.7909
B(  4-S ,  7-O ) :   1.7478

Dispersion correction           -0.015893933
FINAL SINGLE POINT ENERGY      -727.044243163059

DIPOLE MOMENT
-------------
                                X             Y             Z
Electronic contribution:     -3.02482       8.24682      -1.74997
Nuclear contribution   :      4.18919      -9.36357       1.23251
                        -----------------------------------------
Total Dipole Moment    :      1.16438      -1.11675      -0.51746
                        -----------------------------------------
Magnitude (a.u.)       :      1.69431
Magnitude (Debye)      :      4.30658

Rotational constants in cm-1:     0.153152     0.082513     0.079874
Rotational constants in MHz :  4591.373714  2473.673397  2394.575279

                             ****ORCA TERMINATED NORMALLY****
TOTAL RUN TIME: 0 days 0 hours 0 minutes 8 seconds 472 msec
