                         Program Version 5.0.0 -  RELEASE  -
|  1> !B3LYP D3BJ RIJCOSX def2-SVP def2/J TightSCF
|  2> *xyz 0 1
|  3> C          4.49059        1.15590       -2.46929
|  4> C          4.30539        1.22276       -3.90832
|  5> C          4.63192        2.24637       -4.67096
|  6> N          4.54169        2.14399       -5.98714
|  7> N          5.08409        3.39358       -4.11855
|  8> H          4.92067        3.57050       -3.13587
|  9> H          5.25465        4.19739       -4.70696
| 10> H          3.82453        0.44911       -4.35093
| 11> H          4.34337        1.24932       -6.41665
| 12> H          4.67671        2.95662       -6.57411
| 13> C          5.94213        0.93950       -2.03689
| 14> H          3.86431        0.32853       -2.13661
| 15> H          4.07623        2.04999       -1.98901
| 16> H          6.32982        0.06401       -2.51451
| 17> H          5.98308        0.81426       -0.97504
| 18> H          6.52865        1.78889       -2.31873
| 19> *
| 20>
| 21> %MaxCore 64000
| 22>
| 23> %pal nprocs 4
| 24> end
| 25>
| 26> %scf
| 27>   MaxIter 150
| 28> end
| 29>
| 30>
| 31>                          ****END OF INPUT****

CARTESIAN COORDINATES (ANGSTROEM)
---------------------------------
  C      4.490590    1.155900   -2.469290
  C      4.305390    1.222760   -3.908320
  C      4.631920    2.246370   -4.670960
  N      4.541690    2.143990   -5.987140
  N      5.084090    3.393580   -4.118550
  H      4.920670    3.570500   -3.135870
  H      5.254650    4.197390   -4.706960
  H      3.824530    0.449110   -4.350930
  H      4.343370    1.249320   -6.416650
  H      4.676710    2.956620   -6.574110
  C      5.942130    0.939500   -2.036890
  H      3.864310    0.328530   -2.136610
  H      4.076230    2.049990   -1.989010
  H      6.329820    0.064010   -2.514510
  H      5.983080    0.814260   -0.975040
  H      6.528650    1.788890   -2.318730

 Total Charge           Charge          ....    0
 Multiplicity           Mult            ....    1
 Number of Electrons    NEL             ....   48
 Basis Dimension        Dim             ....  134

ORBITAL ENERGIES
----------------

  NO   OCC          E(Eh)            E(eV)
   0   2.0000     -14.320084      -389.6693
   1   2.0000     -14.318278      -389.6202
   2   2.0000     -10.215366      -277.9742
   3   2.0000     -10.148894      -276.1654
   4   2.0000     -10.140994      -275.9505
   5   2.0000     -10.091472      -274.6029
   6   2.0000      -0.939776       -25.5726
   7   2.0000      -0.850610       -23.1463
   8   2.0000      -0.754311       -20.5258
   9   2.0000      -0.677957       -18.4481
  10   2.0000      -0.603887       -16.4326
  11   2.0000      -0.565542       -15.3892
  12   2.0000      -0.531907       -14.4739
  13   2.0000      -0.497595       -13.5402
  14   2.0000      -0.466834       -12.7032
  15   2.0000      -0.427766       -11.6401
  16   2.0000      -0.410784       -11.1780
  17   2.0000      -0.381855       -10.3908
  18   2.0000      -0.372391       -10.1333
  19   2.0000      -0.341316        -9.2877
  20   2.0000      -0.319902        -8.7050
  21   2.0000      -0.308672        -8.3994
  22   2.0000      -0.252842        -6.8802
  23   2.0000      -0.146602        -3.9892
  24   0.0000       0.044630         1.2144
  25   0.0000       0.075299         2.0490
  26   0.0000       0.089958         2.4479
  27   0.0000       0.104006         2.8302
  28   0.0000       0.111493         3.0339

MULLIKEN ATOMIC CHARGES
-----------------------
   0 C :    0.072365
   1 C :   -0.179159
   2 C :   -0.045506
   3 N :   -0.031749
   4 N :   -0.070537
   5 H :    0.113887
   6 H :    0.091971
   7 H :   -0.115988
   8 H :    0.112174
   9 H :    0.090405
  10 C :    0.083521
  11 H :   -0.031205
  12 H :   -0.038966
  13 H :   -0.014519
  14 H :   -0.020292
  15 H :   -0.016403
Sum of atomic charges:   -0.0000000

LOEWDIN ATOMIC CHARGES
----------------------
   0 C :   -0.034346
   1 C :   -0.218673
   2 C :    0.025970
   3 N :   -0.016081
   4 N :   -0.026246
   5 H :    0.075520
   6 H :    0.062217
   7 H :   -0.013042
   8 H :    0.081481
   9 H :    0.061770
  10 C :   -0.047994
  11 H :    0.020223
  12 H :   -0.000760
  13 H :    0.014222
  14 H :    0.007217
  15 H :    0.008522

  Mayer bond orders larger than 0.100000
B(  0-C ,  1-C ) :   1.0759 B(  0-C , 10-C ) :   1.0961 B(  0-C , 11-H ) :   0.9122
B(  0-C , 12-H ) :   0.9253 B(  1-C ,  2-C ) :   1.6810 B(  1-C ,  7-H ) :   0.9468
B(  2-C ,  3-N ) :   1.2496 B(  2-C ,  4-N ) :   1.2386 B(  3-N ,  8-H ) :   0.9391
B(  3-N ,  9-H ) :   0.9466 B(  4-N ,  5-H ) :   0.9359 B(  4-N ,  6-H ) :   0.9490
B( 10-C , 13-H ) :   0.9625 B( 10-C , 14-H ) :   0.9604 B( 10-C , 15-H ) :   0.9691

Dispersion correction           -0.021319054
FINAL SINGLE POINT ENERGY      -267.559161550271

DIPOLE MOMENT
-------------
                                X             Y             Z
Electronic contribution:     -1.24313       2.11427      -4.27190
Nuclear contribution   :      1.23062      -1.24683       3.43056
                        -----------------------------------------
Total Dipole Moment    :     -0.01251       0.86744      -0.84134
                        -----------------------------------------
Magnitude (a.u.)       :      1.20849
Magnitude (Debye)      :      3.07175

Rotational constants in cm-1:     0.231477     0.075416     0.065327
Rotational constants in MHz :  6939.497385  2260.912204  1958.442932

                             ****ORCA TERMINATED NORMALLY****
TOTAL RUN TIME: 0 days 0 hours 0 minutes 11 seconds 827 msec
