                         Program Version 5.0.0 -  RELEASE  -
|  1> !B3LYP D3BJ RIJCOSX def2-SVP def2/J TightSCF
|  2> *xyz 0 1
|  3> C          4.90646       -3.10282       -5.95484
|  4> C          3.51177       -2.80621       -6.49228
|  5> H          2.73604       -3.37345       -5.97374
|  6> H          3.44490       -3.04083       -7.55528
|  7> S          3.00462       -1.09621       -6.38926
|  8> O          4.12886       -0.32965       -6.95372
|  9> F          1.78128       -1.00078       -7.13640
| 10> O          2.85155       -0.78368       -4.95679
| 11> H          5.62703       -2.52424       -6.49422
| 12> H          5.12164       -4.14387       -6.07654
| 13> H          4.95004       -2.84862       -4.91639
| 14> *
| 15>
| 16> %MaxCore 64000
| 17>
| 18> %pal nprocs 4
| 19> end
| 20>
| 21> %scf
| 22>   MaxIter 150
| 23> end
| 24>
| 25>
| 26>                          ****END OF INPUT****

CARTESIAN COORDINATES (ANGSTROEM)
---------------------------------
  C      4.906460   -3.102820   -5.954840
  C      3.511770   -2.806210   -6.492280
  H      2.736040   -3.373450   -5.973740
  H      3.444900   -3.040830   -7.555280
  S      3.004620   -1.096210   -6.389260
  O      4.128860   -0.329650   -6.953720
  F      1.781280   -1.000780   -7.136400
  O      2.851550   -0.783680   -4.956790
  H      5.627030   -2.524240   -6.494220
  H      5.121640   -4.143870   -6.076540
  H      4.950040   -2.848620   -4.916390

 Total Charge           Charge          ....    0
 Multiplicity           Mult            ....    1
 Number of Electrons    NEL             ....   58
 Basis Dimension        Dim             ....  113

ORBITAL ENERGIES
----------------

  NO   OCC          E(Eh)            E(eV)
   0   2.0000     -89.111766     -2424.8544
   1   2.0000     -24.800595      -674.8585
   2   2.0000     -19.120963      -520.3078
   3   2.0000     -19.120575      -520.2973
   4   2.0000     -10.242242      -278.7056
   5   2.0000     -10.202967      -277.6369
   6   2.0000      -8.174911      -222.4506
   7   2.0000      -6.147341      -167.2776
   8   2.0000      -6.140748      -167.0983
   9   2.0000      -6.139551      -167.0657
  10   2.0000      -1.371549       -37.3218
  11   2.0000      -1.084299       -29.5053
  12   2.0000      -0.980331       -26.6762
  13   2.0000      -0.817529       -22.2461
  14   2.0000      -0.730715       -19.8838
  15   2.0000      -0.671601       -18.2752
  16   2.0000      -0.582826       -15.8595
  17   2.0000      -0.582514       -15.8510
  18   2.0000      -0.545752       -14.8507
  19   2.0000      -0.494299       -13.4506
  20   2.0000      -0.470259       -12.7964
  21   2.0000      -0.430612       -11.7175
  22   2.0000      -0.424879       -11.5615
  23   2.0000      -0.407458       -11.0875
  24   2.0000      -0.387761       -10.5515
  25   2.0000      -0.365838        -9.9550
  26   2.0000      -0.313033        -8.5181
  27   2.0000      -0.310326        -8.4444
  28   2.0000      -0.284855        -7.7513
  29   0.0000       0.040596         1.1047
  30   0.0000       0.045887         1.2486
  31   0.0000       0.082988         2.2582
  32   0.0000       0.087231         2.3737
  33   0.0000       0.096174         2.6170

MULLIKEN ATOMIC CHARGES
-----------------------
   0 C :    0.048578
   1 C :   -0.101078
   2 H :    0.053091
   3 H :    0.046530
   4 S :    0.940669
   5 O :   -0.467090
   6 F :   -0.164954
   7 O :   -0.467067
   8 H :    0.042411
   9 H :    0.028544
  10 H :    0.040365
Sum of atomic charges:   -0.0000000

LOEWDIN ATOMIC CHARGES
----------------------
   0 C :   -0.037912
   1 C :   -0.144537
   2 H :    0.031510
   3 H :    0.028727
   4 S :    1.163649
   5 O :   -0.513888
   6 F :   -0.113341
   7 O :   -0.516013
   8 H :    0.033800
   9 H :    0.034173
  10 H :    0.033830

  Mayer bond orders larger than 0.100000
B(  0-C ,  1-C ) :   1.0817 B(  0-C ,  8-H ) :   0.9672 B(  0-C ,  9-H ) :   0.9599
B(  0-C , 10-H ) :   0.9701 B(  1-C ,  2-H ) :   0.9279 B(  1-C ,  3-H ) :   0.9258
B(  1-C ,  4-S ) :   0.9187 B(  4-S ,  5-O ) :   1.7389 B(  4-S ,  6-F ) :   1.0252
B(  4-S ,  7-O ) :   1.7444

Dispersion correction           -0.015988382
FINAL SINGLE POINT ENERGY      -727.027909233502

DIPOLE MOMENT
-------------
                                X             Y             Z
Electronic contribution:     -6.99803       7.12803      -2.06314
Nuclear contribution   :      6.63544      -8.66423       1.42287
                        -----------------------------------------
Total Dipole Moment    :     -0.36259      -1.53620      -0.64027
                        -----------------------------------------
Magnitude (a.u.)       :      1.70333
Magnitude (Debye)      :      4.32952

Rotational constants in cm-1:     0.158118     0.080978     0.078216
Rotational constants in MHz :  4740.271775  2427.649826  2344.849020

                             ****ORCA TERMINATED NORMALLY****
TOTAL RUN TIME: 0 days 0 hours 0 minutes 8 seconds 951 msec
