                         Program Version 5.0.0 -  RELEASE  -
|  1> !B3LYP D3BJ RIJCOSX def2-SVP def2/J TightSCF
|  2> *xyz 0 1
|  3> C          4.49059        1.15590       -2.46929
|  4> N          4.30539        1.22276       -3.90832
|  5> C          4.63192        2.24637       -4.67096
|  6> C          4.54169        2.14399       -5.98714
|  7> N          5.08409        3.39358       -4.11855
|  8> H          4.92067        3.57050       -3.13587
|  9> H          5.25465        4.19739       -4.70696
| 10> H          3.82453        0.44911       -4.35093
| 11> H          4.34337        1.24932       -6.41665
| 12> H          4.67671        2.95662       -6.57411
| 13> C          5.94213        0.93950       -2.03689
| 14> H          3.86431        0.32853       -2.13661
| 15> H          4.07623        2.04999       -1.98901
| 16> H          6.32982        0.06401       -2.51451
| 17> H          5.98308        0.81426       -0.97504
| 18> H          6.52865        1.78889       -2.31873
| 19> *
| 20>
| 21> %MaxCore 64000
| 22>
| 23> %pal nprocs 4
| 24> end
| 25>
| 26> %scf
| 27>   MaxIter 150
| 28> end
| 29>
| 30>
| 31>                          ****END OF INPUT****

CARTESIAN COORDINATES (ANGSTROEM)
---------------------------------
  C      4.490590    1.155900   -2.469290
  N      4.305390    1.222760   -3.908320
  C      4.631920    2.246370   -4.670960
  C      4.541690    2.143990   -5.987140
  N      5.084090    3.393580   -4.118550
  H      4.920670    3.570500   -3.135870
  H      5.254650    4.197390   -4.706960
  H      3.824530    0.449110   -4.350930
  H      4.343370    1.249320   -6.416650
  H      4.676710    2.956620   -6.574110
  C      5.942130    0.939500   -2.036890
  H      3.864310    0.328530   -2.136610
  H      4.076230    2.049990   -1.989010
  H      6.329820    0.064010   -2.514510
  H      5.983080    0.814260   -0.975040
  H      6.528650    1.788890   -2.318730

 Total Charge           Charge          ....    0
 Multiplicity           Mult            ....    1
 Number of Electrons    NEL             ....   48
 Basis Dimension        Dim             ....  134

ORBITAL ENERGIES
----------------

  NO   OCC          E(Eh)            E(eV)
   0   2.0000     -14.319020      -389.6404
   1   2.0000     -14.318725      -389.6323
   2   2.0000     -10.219784      -278.0945
   3   2.0000     -10.217479      -278.0317
   4   2.0000     -10.169660      -276.7305
   5   2.0000     -10.087009      -274.4815
   6   2.0000      -0.949751       -25.8440
   7   2.0000      -0.863430       -23.4951
   8   2.0000      -0.757464       -20.6117
   9   2.0000      -0.686990       -18.6939
  10   2.0000      -0.619299       -16.8520
  11   2.0000      -0.587150       -15.9772
  12   2.0000      -0.526085       -14.3155
  13   2.0000      -0.490035       -13.3345
  14   2.0000      -0.473508       -12.8848
  15   2.0000      -0.441794       -12.0218
  16   2.0000      -0.416960       -11.3461
  17   2.0000      -0.395584       -10.7644
  18   2.0000      -0.374548       -10.1920
  19   2.0000      -0.369043       -10.0422
  20   2.0000      -0.353867        -9.6292
  21   2.0000      -0.346491        -9.4285
  22   2.0000      -0.244200        -6.6450
  23   2.0000      -0.151083        -4.1112
  24   0.0000       0.043953         1.1960
  25   0.0000       0.069231         1.8839
  26   0.0000       0.085617         2.3298
  27   0.0000       0.102774         2.7966
  28   0.0000       0.113553         3.0899

MULLIKEN ATOMIC CHARGES
-----------------------
   0 C :    0.068147
   1 N :   -0.115946
   2 C :   -0.041709
   3 C :   -0.051801
   4 N :   -0.078029
   5 H :    0.095667
   6 H :    0.112510
   7 H :    0.113561
   8 H :   -0.078995
   9 H :   -0.079352
  10 C :    0.063806
  11 H :   -0.004958
  12 H :   -0.006563
  13 H :    0.004837
  14 H :   -0.003039
  15 H :    0.001865
Sum of atomic charges:   -0.0000000

LOEWDIN ATOMIC CHARGES
----------------------
   0 C :    0.032792
   1 N :   -0.021043
   2 C :    0.034872
   3 C :   -0.247041
   4 N :   -0.025673
   5 H :    0.059750
   6 H :    0.080478
   7 H :    0.083368
   8 H :   -0.012510
   9 H :   -0.012704
  10 C :   -0.055762
  11 H :    0.021413
  12 H :    0.006292
  13 H :    0.020717
  14 H :    0.018466
  15 H :    0.016586

  Mayer bond orders larger than 0.100000
B(  0-C ,  1-N ) :   1.0370 B(  0-C , 10-C ) :   1.0900 B(  0-C , 11-H ) :   0.9494
B(  0-C , 12-H ) :   0.9447 B(  1-N ,  2-C ) :   1.2039 B(  1-N ,  7-H ) :   0.9304
B(  2-C ,  3-C ) :   1.7584 B(  2-C ,  4-N ) :   1.2121 B(  3-C ,  8-H ) :   0.9249
B(  3-C ,  9-H ) :   0.9250 B(  4-N ,  5-H ) :   0.9467 B(  4-N ,  6-H ) :   0.9436
B( 10-C , 13-H ) :   0.9632 B( 10-C , 14-H ) :   0.9584 B( 10-C , 15-H ) :   0.9634

Dispersion correction           -0.021071742
FINAL SINGLE POINT ENERGY      -267.553977141780

DIPOLE MOMENT
-------------
                                X             Y             Z
Electronic contribution:     -1.43778       1.13778      -1.95257
Nuclear contribution   :      1.28075      -1.05140       2.98955
                        -----------------------------------------
Total Dipole Moment    :     -0.15704       0.08638       1.03698
                        -----------------------------------------
Magnitude (a.u.)       :      1.05236
Magnitude (Debye)      :      2.67488

Rotational constants in cm-1:     0.229858     0.078444     0.067377
Rotational constants in MHz :  6890.979812  2351.691803  2019.910665

                             ****ORCA TERMINATED NORMALLY****
TOTAL RUN TIME: 0 days 0 hours 0 minutes 11 seconds 296 msec
