                         Program Version 5.0.0 -  RELEASE  -
|  1> !B3LYP D3BJ RIJCOSX def2-SVP def2/J TightSCF
|  2> *xyz 0 1
|  3> C          4.90646       -3.10282       -5.95484
|  4> C          3.51177       -2.80621       -6.49228
|  5> H          2.73604       -3.37345       -5.97374
|  6> H          3.44490       -3.04083       -7.55528
|  7> S          3.00462       -1.09621       -6.38926
|  8> O          4.12886       -0.32965       -6.95372
|  9> O          1.78128       -1.00078       -7.13640
| 10> F          2.85155       -0.78368       -4.95679
| 11> H          5.62703       -2.52424       -6.49422
| 12> H          5.12164       -4.14387       -6.07654
| 13> H          4.95004       -2.84862       -4.91639
| 14> *
| 15>
| 16> %MaxCore 64000
| 17>
| 18> %pal nprocs 4
| 19> end
| 20>
| 21> %scf
| 22>   MaxIter 150
| 23> end
| 24>
| 25>
| 26>                          ****END OF INPUT****

CARTESIAN COORDINATES (ANGSTROEM)
---------------------------------
  C      4.906460   -3.102820   -5.954840
  C      3.511770   -2.806210   -6.492280
  H      2.736040   -3.373450   -5.973740
  H      3.444900   -3.040830   -7.555280
  S      3.004620   -1.096210   -6.389260
  O      4.128860   -0.329650   -6.953720
  O      1.781280   -1.000780   -7.136400
  F      2.851550   -0.783680   -4.956790
  H      5.627030   -2.524240   -6.494220
  H      5.121640   -4.143870   -6.076540
  H      4.950040   -2.848620   -4.916390

 Total Charge           Charge          ....    0
 Multiplicity           Mult            ....    1
 Number of Electrons    NEL             ....   58
 Basis Dimension        Dim             ....  113

ORBITAL ENERGIES
----------------

  NO   OCC          E(Eh)            E(eV)
   0   2.0000     -89.110758     -2424.8270
   1   2.0000     -24.781343      -674.3346
   2   2.0000     -19.134253      -520.6695
   3   2.0000     -19.122204      -520.3416
   4   2.0000     -10.241327      -278.6807
   5   2.0000     -10.204779      -277.6862
   6   2.0000      -8.173777      -222.4198
   7   2.0000      -6.146069      -167.2431
   8   2.0000      -6.139825      -167.0731
   9   2.0000      -6.138592      -167.0396
  10   2.0000      -1.338586       -36.4248
  11   2.0000      -1.098953       -29.9040
  12   2.0000      -0.997015       -27.1302
  13   2.0000      -0.818458       -22.2714
  14   2.0000      -0.715613       -19.4728
  15   2.0000      -0.668148       -18.1812
  16   2.0000      -0.576111       -15.6768
  17   2.0000      -0.558182       -15.1889
  18   2.0000      -0.536701       -14.6044
  19   2.0000      -0.491551       -13.3758
  20   2.0000      -0.472853       -12.8670
  21   2.0000      -0.447109       -12.1664
  22   2.0000      -0.425957       -11.5909
  23   2.0000      -0.405847       -11.0437
  24   2.0000      -0.397075       -10.8050
  25   2.0000      -0.370047       -10.0695
  26   2.0000      -0.325940        -8.8693
  27   2.0000      -0.314579        -8.5601
  28   2.0000      -0.298836        -8.1318
  29   0.0000       0.028933         0.7873
  30   0.0000       0.055799         1.5184
  31   0.0000       0.087016         2.3678
  32   0.0000       0.090559         2.4642
  33   0.0000       0.095054         2.5866

MULLIKEN ATOMIC CHARGES
-----------------------
   0 C :    0.038012
   1 C :   -0.111386
   2 H :    0.051846
   3 H :    0.080708
   4 S :    0.950046
   5 O :   -0.470470
   6 O :   -0.428051
   7 F :   -0.203932
   8 H :    0.044858
   9 H :    0.028209
  10 H :    0.020160
Sum of atomic charges:   -0.0000000

LOEWDIN ATOMIC CHARGES
----------------------
   0 C :   -0.051431
   1 C :   -0.143483
   2 H :    0.030404
   3 H :    0.049755
   4 S :    1.169653
   5 O :   -0.516075
   6 O :   -0.477162
   7 F :   -0.152643
   8 H :    0.032898
   9 H :    0.033419
  10 H :    0.024665

  Mayer bond orders larger than 0.100000
B(  0-C ,  1-C ) :   1.0590 B(  0-C ,  8-H ) :   0.9671 B(  0-C ,  9-H ) :   0.9586
B(  0-C , 10-H ) :   0.9723 B(  1-C ,  2-H ) :   0.9314 B(  1-C ,  3-H ) :   0.9336
B(  1-C ,  4-S ) :   0.9182 B(  4-S ,  5-O ) :   1.7438 B(  4-S ,  6-O ) :   1.7922
B(  4-S ,  7-F ) :   0.9799

Dispersion correction           -0.015923725
FINAL SINGLE POINT ENERGY      -727.044847637290

DIPOLE MOMENT
-------------
                                X             Y             Z
Electronic contribution:     -5.19463       7.49167       1.63290
Nuclear contribution   :      5.52019      -8.89046      -0.84835
                        -----------------------------------------
Total Dipole Moment    :      0.32555      -1.39879       0.78455
                        -----------------------------------------
Magnitude (a.u.)       :      1.63649
Magnitude (Debye)      :      4.15964

Rotational constants in cm-1:     0.153332     0.082132     0.079755
Rotational constants in MHz :  4596.775407  2462.251277  2391.008596

                             ****ORCA TERMINATED NORMALLY****
TOTAL RUN TIME: 0 days 0 hours 0 minutes 8 seconds 153 msec
