                         Program Version 5.0.0 -  RELEASE  -
|  1> !B3LYP D3BJ RIJCOSX def2-SVP def2/J TightSCF
|  2> *xyz 0 1
|  3> C          4.49059        1.15590       -2.46929
|  4> N          4.30539        1.22276       -3.90832
|  5> C          4.63192        2.24637       -4.67096
|  6> N          4.54169        2.14399       -5.98714
|  7> C          5.08409        3.39358       -4.11855
|  8> H          4.92067        3.57050       -3.13587
|  9> H          5.25465        4.19739       -4.70696
| 10> H          3.82453        0.44911       -4.35093
| 11> H          4.34337        1.24932       -6.41665
| 12> H          4.67671        2.95662       -6.57411
| 13> C          5.94213        0.93950       -2.03689
| 14> H          3.86431        0.32853       -2.13661
| 15> H          4.07623        2.04999       -1.98901
| 16> H          6.32982        0.06401       -2.51451
| 17> H          5.98308        0.81426       -0.97504
| 18> H          6.52865        1.78889       -2.31873
| 19> *
| 20>
| 21> %MaxCore 64000
| 22>
| 23> %pal nprocs 4
| 24> end
| 25>
| 26> %scf
| 27>   MaxIter 150
| 28> end
| 29>
| 30>
| 31>                          ****END OF INPUT****

CARTESIAN COORDINATES (ANGSTROEM)
---------------------------------
  C      4.490590    1.155900   -2.469290
  N      4.305390    1.222760   -3.908320
  C      4.631920    2.246370   -4.670960
  N      4.541690    2.143990   -5.987140
  C      5.084090    3.393580   -4.118550
  H      4.920670    3.570500   -3.135870
  H      5.254650    4.197390   -4.706960
  H      3.824530    0.449110   -4.350930
  H      4.343370    1.249320   -6.416650
  H      4.676710    2.956620   -6.574110
  C      5.942130    0.939500   -2.036890
  H      3.864310    0.328530   -2.136610
  H      4.076230    2.049990   -1.989010
  H      6.329820    0.064010   -2.514510
  H      5.983080    0.814260   -0.975040
  H      6.528650    1.788890   -2.318730

 Total Charge           Charge          ....    0
 Multiplicity           Mult            ....    1
 Number of Electrons    NEL             ....   48
 Basis Dimension        Dim             ....  134

ORBITAL ENERGIES
----------------

  NO   OCC          E(Eh)            E(eV)
   0   2.0000     -14.322279      -389.7290
   1   2.0000     -14.321248      -389.7010
   2   2.0000     -10.220160      -278.1047
   3   2.0000     -10.210303      -277.8365
   4   2.0000     -10.158293      -276.4212
   5   2.0000     -10.085249      -274.4336
   6   2.0000      -0.953088       -25.9348
   7   2.0000      -0.870050       -23.6753
   8   2.0000      -0.738126       -20.0854
   9   2.0000      -0.690015       -18.7763
  10   2.0000      -0.628066       -17.0905
  11   2.0000      -0.550800       -14.9880
  12   2.0000      -0.543835       -14.7985
  13   2.0000      -0.511867       -13.9286
  14   2.0000      -0.462961       -12.5978
  15   2.0000      -0.432167       -11.7599
  16   2.0000      -0.405049       -11.0219
  17   2.0000      -0.387581       -10.5466
  18   2.0000      -0.373326       -10.1587
  19   2.0000      -0.356301        -9.6954
  20   2.0000      -0.352386        -9.5889
  21   2.0000      -0.339932        -9.2500
  22   2.0000      -0.240587        -6.5467
  23   2.0000      -0.150049        -4.0830
  24   0.0000       0.044899         1.2218
  25   0.0000       0.073351         1.9960
  26   0.0000       0.086466         2.3529
  27   0.0000       0.101091         2.7508
  28   0.0000       0.118727         3.2307

MULLIKEN ATOMIC CHARGES
-----------------------
   0 C :    0.096265
   1 N :   -0.131159
   2 C :   -0.053587
   3 N :   -0.048632
   4 C :   -0.074137
   5 H :   -0.061711
   6 H :   -0.086160
   7 H :    0.089844
   8 H :    0.091064
   9 H :    0.118091
  10 C :    0.059797
  11 H :   -0.014268
  12 H :    0.009922
  13 H :   -0.009143
  14 H :   -0.004528
  15 H :    0.018342
Sum of atomic charges:   -0.0000000

LOEWDIN ATOMIC CHARGES
----------------------
   0 C :    0.046396
   1 N :   -0.020642
   2 C :    0.032640
   3 N :   -0.013100
   4 C :   -0.264900
   5 H :   -0.012475
   6 H :   -0.015532
   7 H :    0.063526
   8 H :    0.061786
   9 H :    0.082947
  10 C :   -0.052029
  11 H :    0.016249
  12 H :    0.016762
  13 H :    0.014804
  14 H :    0.018592
  15 H :    0.024975

  Mayer bond orders larger than 0.100000
B(  0-C ,  1-N ) :   1.0249 B(  0-C , 10-C ) :   1.1075 B(  0-C , 11-H ) :   0.9508
B(  0-C , 12-H ) :   0.9384 B(  1-N ,  2-C ) :   1.1951 B(  1-N ,  7-H ) :   0.9365
B(  2-C ,  3-N ) :   1.2426 B(  2-C ,  4-C ) :   1.7257 B(  3-N ,  8-H ) :   0.9491
B(  3-N ,  9-H ) :   0.9416 B(  4-C ,  5-H ) :   0.9239 B(  4-C ,  6-H ) :   0.9313
B( 10-C , 13-H ) :   0.9619 B( 10-C , 14-H ) :   0.9605 B( 10-C , 15-H ) :   0.9629

Dispersion correction           -0.021235232
FINAL SINGLE POINT ENERGY      -267.552331919641

DIPOLE MOMENT
-------------
                                X             Y             Z
Electronic contribution:     -1.93928      -0.17812      -3.96457
Nuclear contribution   :      1.39581      -0.78630       3.38596
                        -----------------------------------------
Total Dipole Moment    :     -0.54347      -0.96443      -0.57861
                        -----------------------------------------
Magnitude (a.u.)       :      1.24911
Magnitude (Debye)      :      3.17498

Rotational constants in cm-1:     0.239249     0.075811     0.066261
Rotational constants in MHz :  7172.504830  2272.756282  1986.457543

                             ****ORCA TERMINATED NORMALLY****
TOTAL RUN TIME: 0 days 0 hours 0 minutes 12 seconds 776 msec
