                         Program Version 5.0.0 -  RELEASE  -
|  1> !B3LYP D3BJ RIJCOSX def2-TZVP def2/J TightSCF xyzfile
|  2>
|  3> *xyzfile 0 1 D1.xyz
|  4>
|  5> %MaxCore 64000
|  6>
|  7> %pal nprocs 18
|  8> end
|  9>
| 10> %scf
| 11>   MaxIter 150
| 12> end
| 13>
| 14>
| 15>                          ****END OF INPUT****

CARTESIAN COORDINATES (ANGSTROEM)
---------------------------------
  C      4.490588    1.155899   -2.469290
  C      4.305394    1.222762   -3.908317
  C      4.906458   -3.102816   -5.954844
  C      3.511771   -2.806215   -6.492283
  H      2.736044   -3.373445   -5.973736
  H      3.444904   -3.040831   -7.555281
  S      3.004618   -1.096206   -6.389259
  C      4.631918    2.246365   -4.670958
  N      4.541686    2.143990   -5.987139
  N      5.084086    3.393584   -4.118545
  H      4.920675    3.570501   -3.135870
  H      5.254652    4.197390   -4.706956
  H      3.824530    0.449113   -4.350926
  H      4.343373    1.249318   -6.416646
  H      4.676712    2.956624   -6.574113
  F      4.128856   -0.329647   -6.953717
  O      1.781285   -1.000779   -7.136399
  C      5.942129    0.939500   -2.036893
  H      3.864305    0.328532   -2.136611
  H      4.076233    2.049994   -1.989010
  C      6.462677   -3.117775   -3.944671
  C      5.024977   -3.025679   -4.437625
  H      4.423321   -3.818693   -3.977648
  H      4.579350   -2.087131   -4.108727
  H      5.201533   -4.100207   -6.296905
  H      5.605922   -2.397822   -6.413368
  C      6.559957   -0.356290   -2.559086
  H      5.967976    0.952567   -0.942444
  H      6.547184    1.788331   -2.368849
  C      6.006283   -1.615917   -1.899301
  H      7.642360   -0.318000   -2.402059
  H      6.414855   -0.403433   -3.642587
  C      6.608718   -2.917014   -2.435655
  H      6.190324   -1.561115   -0.820948
  H      4.919250   -1.651245   -2.016586
  H      7.066975   -2.374258   -4.475514
  H      6.887808   -4.089747   -4.215332
  H      6.135197   -3.755573   -1.915159
  H      7.671142   -2.955503   -2.172291
  O      2.851546   -0.783683   -4.956789

 Total Charge           Charge          ....    0
 Multiplicity           Mult            ....    1
 Number of Electrons    NEL             ....  144
 Basis Dimension        Dim             ....  671

ORBITAL ENERGIES
----------------

  NO   OCC          E(Eh)            E(eV)
   0   2.0000     -89.104154     -2424.6473
   1   2.0000     -24.805733      -674.9983
   2   2.0000     -19.146304      -520.9974
   3   2.0000     -19.133182      -520.6403
   4   2.0000     -14.300576      -389.1385
   5   2.0000     -14.296301      -389.0221
   6   2.0000     -10.232527      -278.4412
   7   2.0000     -10.196737      -277.4673
   8   2.0000     -10.192233      -277.3448
   9   2.0000     -10.166075      -276.6330
  10   2.0000     -10.161618      -276.5117
  11   2.0000     -10.155141      -276.3354
  12   2.0000     -10.145825      -276.0819
  13   2.0000     -10.138764      -275.8898
  14   2.0000     -10.133371      -275.7430
  15   2.0000     -10.126470      -275.5553
  16   2.0000     -10.058455      -273.7045
  17   2.0000      -8.148475      -221.7313
  18   2.0000      -6.115543      -166.4124
  19   2.0000      -6.108598      -166.2234
  20   2.0000      -6.108422      -166.2186
  21   2.0000      -1.380801       -37.5735
  22   2.0000      -1.118025       -30.4230
  23   2.0000      -1.022250       -27.8168
  24   2.0000      -0.944795       -25.7092
  25   2.0000      -0.857843       -23.3431
  26   2.0000      -0.842088       -22.9144
  27   2.0000      -0.803640       -21.8682
  28   2.0000      -0.775489       -21.1021
  29   2.0000      -0.751363       -20.4456
  30   2.0000      -0.726506       -19.7692
  31   2.0000      -0.700808       -19.0700
  32   2.0000      -0.669979       -18.2311
  33   2.0000      -0.639436       -17.3999
  34   2.0000      -0.614559       -16.7230
  35   2.0000      -0.608710       -16.5639
  36   2.0000      -0.592618       -16.1260
  37   2.0000      -0.581160       -15.8142
  38   2.0000      -0.561113       -15.2687
  39   2.0000      -0.558448       -15.1961
  40   2.0000      -0.540334       -14.7032
  41   2.0000      -0.525803       -14.3078
  42   2.0000      -0.498788       -13.5727
  43   2.0000      -0.491824       -13.3832
  44   2.0000      -0.485175       -13.2023
  45   2.0000      -0.471406       -12.8276
  46   2.0000      -0.461071       -12.5464
  47   2.0000      -0.453478       -12.3398
  48   2.0000      -0.449449       -12.2301
  49   2.0000      -0.446534       -12.1508
  50   2.0000      -0.425316       -11.5734
  51   2.0000      -0.417909       -11.3719
  52   2.0000      -0.414579       -11.2813
  53   2.0000      -0.404410       -11.0045
  54   2.0000      -0.390797       -10.6341
  55   2.0000      -0.380089       -10.3427
  56   2.0000      -0.378990       -10.3128
  57   2.0000      -0.369682       -10.0596
  58   2.0000      -0.363462        -9.8903
  59   2.0000      -0.352715        -9.5979
  60   2.0000      -0.348816        -9.4918
  61   2.0000      -0.342070        -9.3082
  62   2.0000      -0.337130        -9.1738
  63   2.0000      -0.323359        -8.7990
  64   2.0000      -0.320795        -8.7293
  65   2.0000      -0.313804        -8.5390
  66   2.0000      -0.307627        -8.3710
  67   2.0000      -0.299152        -8.1404
  68   2.0000      -0.292090        -7.9482
  69   2.0000      -0.276613        -7.5270
  70   2.0000      -0.251038        -6.8311
  71   2.0000      -0.142631        -3.8812
  72   0.0000       0.001205         0.0328
  73   0.0000       0.029346         0.7985
  74   0.0000       0.034131         0.9287
  75   0.0000       0.044993         1.2243
  76   0.0000       0.047190         1.2841

MULLIKEN ATOMIC CHARGES
-----------------------
   0 C :   -0.287038
   1 C :   -0.336412
   2 C :   -0.186504
   3 C :   -0.202820
   4 H :    0.149010
   5 H :    0.148173
   6 S :    0.873213
   7 C :    0.340892
   8 N :   -0.473012
   9 N :   -0.475554
  10 H :    0.232117
  11 H :    0.196787
  12 H :    0.146136
  13 H :    0.231475
  14 H :    0.198216
  15 F :   -0.151257
  16 O :   -0.403044
  17 C :   -0.077704
  18 H :    0.089037
  19 H :    0.066791
  20 C :   -0.170131
  21 C :   -0.275171
  22 H :    0.081883
  23 H :    0.162526
  24 H :    0.108551
  25 H :    0.108469
  26 C :   -0.151931
  27 H :    0.055451
  28 H :    0.078199
  29 C :   -0.226174
  30 H :    0.072516
  31 H :    0.091520
  32 C :   -0.119202
  33 H :    0.081368
  34 H :    0.105610
  35 H :    0.097043
  36 H :    0.083745
  37 H :    0.080401
  38 H :    0.083743
  39 O :   -0.426920
Sum of atomic charges:   -0.0000000

LOEWDIN ATOMIC CHARGES
----------------------
   0 C :   -0.281624
   1 C :   -0.282814
   2 C :   -0.281051
   3 C :   -0.356456
   4 H :    0.152783
   5 H :    0.141127
   6 S :    0.563772
   7 C :   -0.459963
   8 N :   -0.021698
   9 N :   -0.023249
  10 H :    0.170459
  11 H :    0.154382
  12 H :    0.108154
  13 H :    0.148082
  14 H :    0.155823
  15 F :    0.070588
  16 O :   -0.250648
  17 C :   -0.259668
  18 H :    0.139388
  19 H :    0.122146
  20 C :   -0.265891
  21 C :   -0.267996
  22 H :    0.134965
  23 H :    0.143210
  24 H :    0.142873
  25 H :    0.137486
  26 C :   -0.263007
  27 H :    0.125023
  28 H :    0.129714
  29 C :   -0.265171
  30 H :    0.129518
  31 H :    0.133060
  32 C :   -0.262576
  33 H :    0.132589
  34 H :    0.132135
  35 H :    0.133459
  36 H :    0.130888
  37 H :    0.131985
  38 H :    0.133086
  39 O :   -0.254882

  Mayer bond orders larger than 0.100000
B(  0-C ,  1-C ) :   0.9989 B(  0-C , 17-C ) :   0.9429 B(  0-C , 18-H ) :   1.0009
B(  0-C , 19-H ) :   0.9768 B(  1-C ,  7-C ) :   1.6355 B(  1-C , 12-H ) :   0.9625
B(  2-C ,  3-C ) :   0.9479 B(  2-C , 21-C ) :   0.9472 B(  2-C , 24-H ) :   0.9548
B(  2-C , 25-H ) :   0.9764 B(  3-C ,  4-H ) :   0.9433 B(  3-C ,  5-H ) :   0.9544
B(  3-C ,  6-S ) :   0.9078 B(  6-S , 15-F ) :   1.0334 B(  6-S , 16-O ) :   1.9760
B(  6-S , 39-O ) :   1.8286 B(  7-C ,  8-N ) :   1.1440 B(  7-C ,  9-N ) :   1.1260
B(  8-N , 13-H ) :   0.9056 B(  8-N , 14-H ) :   0.9288 B(  9-N , 10-H ) :   0.9162
B(  9-N , 11-H ) :   0.9340 B( 17-C , 26-C ) :   0.9871 B( 17-C , 27-H ) :   0.9660
B( 17-C , 28-H ) :   0.9612 B( 20-C , 21-C ) :   0.9637 B( 20-C , 32-C ) :   0.9767
B( 20-C , 35-H ) :   0.9735 B( 20-C , 36-H ) :   0.9679 B( 21-C , 22-H ) :   0.9620
B( 21-C , 23-H ) :   0.9709 B( 26-C , 29-C ) :   0.9596 B( 26-C , 30-H ) :   0.9678
B( 26-C , 31-H ) :   0.9638 B( 29-C , 32-C ) :   0.9622 B( 29-C , 33-H ) :   0.9638
B( 29-C , 34-H ) :   0.9832 B( 32-C , 37-H ) :   0.9737 B( 32-C , 38-H ) :   0.9691

Dispersion correction           -0.079637812
FINAL SINGLE POINT ENERGY     -1190.817923746056

DIPOLE MOMENT
-------------
                                X             Y             Z
Electronic contribution:    -16.33989       4.93753     -21.50233
Nuclear contribution   :     17.24138      -5.45913      20.34076
                        -----------------------------------------
Total Dipole Moment    :      0.90149      -0.52161      -1.16157
                        -----------------------------------------
Magnitude (a.u.)       :      1.56013
Magnitude (Debye)      :      3.96554

Rotational constants in cm-1:     0.014201     0.012275     0.007453
Rotational constants in MHz :   425.728191   368.008875   223.435232

                             ****ORCA TERMINATED NORMALLY****
TOTAL RUN TIME: 0 days 0 hours 1 minutes 52 seconds 218 msec
