                         Program Version 5.0.0 -  RELEASE  -
|  1> !B3LYP D3BJ RIJCOSX def2-TZVP def2/J TightSCF xyzfile
|  2>
|  3> *xyzfile 0 1 D5.xyz
|  4>
|  5> %MaxCore 64000
|  6>
|  7> %pal nprocs 18
|  8> end
|  9>
| 10> %scf
| 11>   MaxIter 150
| 12> end
| 13>
| 14>
| 15>                          ****END OF INPUT****

CARTESIAN COORDINATES (ANGSTROEM)
---------------------------------
  C      4.490588    1.155899   -2.469290
  N      4.305394    1.222762   -3.908317
  C      4.906458   -3.102816   -5.954844
  C      3.511771   -2.806215   -6.492283
  H      2.736044   -3.373445   -5.973736
  H      3.444904   -3.040831   -7.555281
  S      3.004618   -1.096206   -6.389259
  C      4.631918    2.246365   -4.670958
  C      4.541686    2.143990   -5.987139
  N      5.084086    3.393584   -4.118545
  H      4.920675    3.570501   -3.135870
  H      5.254652    4.197390   -4.706956
  H      3.824530    0.449113   -4.350926
  H      4.343373    1.249318   -6.416646
  H      4.676712    2.956624   -6.574113
  O      4.128856   -0.329647   -6.953717
  F      1.781285   -1.000779   -7.136399
  C      5.942129    0.939500   -2.036893
  H      3.864305    0.328532   -2.136611
  H      4.076233    2.049994   -1.989010
  C      6.462677   -3.117775   -3.944671
  C      5.024977   -3.025679   -4.437625
  H      4.423321   -3.818693   -3.977648
  H      4.579350   -2.087131   -4.108727
  H      5.201533   -4.100207   -6.296905
  H      5.605922   -2.397822   -6.413368
  C      6.559957   -0.356290   -2.559086
  H      5.967976    0.952567   -0.942444
  H      6.547184    1.788331   -2.368849
  C      6.006283   -1.615917   -1.899301
  H      7.642360   -0.318000   -2.402059
  H      6.414855   -0.403433   -3.642587
  C      6.608718   -2.917014   -2.435655
  H      6.190324   -1.561115   -0.820948
  H      4.919250   -1.651245   -2.016586
  H      7.066975   -2.374258   -4.475514
  H      6.887808   -4.089747   -4.215332
  H      6.135197   -3.755573   -1.915159
  H      7.671142   -2.955503   -2.172291
  O      2.851546   -0.783683   -4.956789

 Total Charge           Charge          ....    0
 Multiplicity           Mult            ....    1
 Number of Electrons    NEL             ....  144
 Basis Dimension        Dim             ....  671

ORBITAL ENERGIES
----------------

  NO   OCC          E(Eh)            E(eV)
   0   2.0000     -89.112195     -2424.8661
   1   2.0000     -24.815186      -675.2555
   2   2.0000     -19.146651      -521.0069
   3   2.0000     -19.136468      -520.7298
   4   2.0000     -14.285484      -388.7278
   5   2.0000     -14.272077      -388.3630
   6   2.0000     -10.237013      -278.5633
   7   2.0000     -10.197414      -277.4858
   8   2.0000     -10.182334      -277.0754
   9   2.0000     -10.178573      -276.9730
  10   2.0000     -10.169749      -276.7330
  11   2.0000     -10.164507      -276.5903
  12   2.0000     -10.160568      -276.4831
  13   2.0000     -10.154753      -276.3249
  14   2.0000     -10.148819      -276.1634
  15   2.0000     -10.148114      -276.1442
  16   2.0000     -10.036078      -273.0956
  17   2.0000      -8.156145      -221.9400
  18   2.0000      -6.122859      -166.6115
  19   2.0000      -6.116586      -166.4408
  20   2.0000      -6.116193      -166.4301
  21   2.0000      -1.399383       -38.0791
  22   2.0000      -1.114019       -30.3140
  23   2.0000      -1.017726       -27.6937
  24   2.0000      -0.934933       -25.4408
  25   2.0000      -0.852617       -23.2009
  26   2.0000      -0.843333       -22.9483
  27   2.0000      -0.808010       -21.9871
  28   2.0000      -0.779745       -21.2180
  29   2.0000      -0.751154       -20.4399
  30   2.0000      -0.726006       -19.7556
  31   2.0000      -0.698169       -18.9981
  32   2.0000      -0.668613       -18.1939
  33   2.0000      -0.641933       -17.4679
  34   2.0000      -0.620024       -16.8717
  35   2.0000      -0.603230       -16.4147
  36   2.0000      -0.591087       -16.0843
  37   2.0000      -0.589541       -16.0422
  38   2.0000      -0.576272       -15.6812
  39   2.0000      -0.558442       -15.1960
  40   2.0000      -0.546853       -14.8806
  41   2.0000      -0.512268       -13.9395
  42   2.0000      -0.502898       -13.6845
  43   2.0000      -0.489524       -13.3206
  44   2.0000      -0.476319       -12.9613
  45   2.0000      -0.471711       -12.8359
  46   2.0000      -0.461761       -12.5652
  47   2.0000      -0.460262       -12.5244
  48   2.0000      -0.447757       -12.1841
  49   2.0000      -0.441396       -12.0110
  50   2.0000      -0.429377       -11.6840
  51   2.0000      -0.423566       -11.5258
  52   2.0000      -0.413213       -11.2441
  53   2.0000      -0.396441       -10.7877
  54   2.0000      -0.387993       -10.5578
  55   2.0000      -0.385089       -10.4788
  56   2.0000      -0.376177       -10.2363
  57   2.0000      -0.370486       -10.0814
  58   2.0000      -0.358391        -9.7523
  59   2.0000      -0.354951        -9.6587
  60   2.0000      -0.353141        -9.6095
  61   2.0000      -0.344150        -9.3648
  62   2.0000      -0.337611        -9.1869
  63   2.0000      -0.331210        -9.0127
  64   2.0000      -0.325151        -8.8478
  65   2.0000      -0.318309        -8.6616
  66   2.0000      -0.310449        -8.4477
  67   2.0000      -0.309097        -8.4109
  68   2.0000      -0.302879        -8.2418
  69   2.0000      -0.290539        -7.9060
  70   2.0000      -0.224005        -6.0955
  71   2.0000      -0.129777        -3.5314
  72   0.0000       0.011988         0.3262
  73   0.0000       0.019696         0.5360
  74   0.0000       0.039066         1.0630
  75   0.0000       0.044429         1.2090
  76   0.0000       0.047973         1.3054

MULLIKEN ATOMIC CHARGES
-----------------------
   0 C :   -0.216321
   1 N :   -0.291047
   2 C :   -0.168612
   3 C :   -0.198391
   4 H :    0.128502
   5 H :    0.142800
   6 S :    0.900235
   7 C :    0.394240
   8 C :   -0.608088
   9 N :   -0.486341
  10 H :    0.207430
  11 H :    0.217514
  12 H :    0.242642
  13 H :    0.154214
  14 H :    0.060552
  15 O :   -0.422021
  16 F :   -0.096409
  17 C :   -0.055230
  18 H :    0.114094
  19 H :    0.095447
  20 C :   -0.181488
  21 C :   -0.266653
  22 H :    0.079058
  23 H :    0.137622
  24 H :    0.107561
  25 H :    0.135969
  26 C :   -0.214922
  27 H :    0.061661
  28 H :    0.094251
  29 C :   -0.216254
  30 H :    0.082117
  31 H :    0.121326
  32 C :   -0.120638
  33 H :    0.084146
  34 H :    0.098284
  35 H :    0.108205
  36 H :    0.085423
  37 H :    0.081689
  38 H :    0.087406
  39 O :   -0.479976
Sum of atomic charges:   -0.0000000

LOEWDIN ATOMIC CHARGES
----------------------
   0 C :   -0.294982
   1 N :    0.122935
   2 C :   -0.267637
   3 C :   -0.363411
   4 H :    0.139233
   5 H :    0.140178
   6 S :    0.571916
   7 C :   -0.464139
   8 C :   -0.356396
   9 N :   -0.025867
  10 H :    0.153756
  11 H :    0.168428
  12 H :    0.166503
  13 H :    0.084660
  14 H :    0.087686
  15 O :   -0.250472
  16 F :    0.111633
  17 C :   -0.267305
  18 H :    0.130628
  19 H :    0.118803
  20 C :   -0.264149
  21 C :   -0.266485
  22 H :    0.133500
  23 H :    0.139582
  24 H :    0.144532
  25 H :    0.149549
  26 C :   -0.263391
  27 H :    0.129982
  28 H :    0.133731
  29 C :   -0.266957
  30 H :    0.133276
  31 H :    0.138898
  32 C :   -0.261742
  33 H :    0.132821
  34 H :    0.129775
  35 H :    0.136566
  36 H :    0.131887
  37 H :    0.132325
  38 H :    0.134245
  39 O :   -0.284094

  Mayer bond orders larger than 0.100000
B(  0-C ,  1-N ) :   0.9671 B(  0-C , 17-C ) :   0.9192 B(  0-C , 18-H ) :   0.9867
B(  0-C , 19-H ) :   0.9839 B(  1-N ,  7-C ) :   1.1982 B(  1-N , 12-H ) :   0.8782
B(  2-C ,  3-C ) :   0.9625 B(  2-C , 21-C ) :   0.9803 B(  2-C , 24-H ) :   0.9517
B(  2-C , 25-H ) :   0.9588 B(  3-C ,  4-H ) :   0.9362 B(  3-C ,  5-H ) :   0.9419
B(  3-C ,  6-S ) :   0.9210 B(  6-S , 15-O ) :   1.8415 B(  6-S , 16-F ) :   1.1473
B(  6-S , 39-O ) :   1.7636 B(  7-C ,  8-C ) :   1.5692 B(  7-C ,  9-N ) :   1.1031
B(  8-C , 13-H ) :   1.0077 B(  8-C , 14-H ) :   0.9998 B(  9-N , 10-H ) :   0.9232
B(  9-N , 11-H ) :   0.9292 B( 17-C , 26-C ) :   0.9682 B( 17-C , 27-H ) :   0.9593
B( 17-C , 28-H ) :   0.9606 B( 20-C , 21-C ) :   0.9702 B( 20-C , 32-C ) :   0.9722
B( 20-C , 35-H ) :   0.9758 B( 20-C , 36-H ) :   0.9669 B( 21-C , 22-H ) :   0.9620
B( 21-C , 23-H ) :   0.9684 B( 26-C , 29-C ) :   0.9583 B( 26-C , 30-H ) :   0.9655
B( 26-C , 31-H ) :   0.9688 B( 29-C , 32-C ) :   0.9667 B( 29-C , 33-H ) :   0.9637
B( 29-C , 34-H ) :   0.9815 B( 32-C , 37-H ) :   0.9738 B( 32-C , 38-H ) :   0.9698

Dispersion correction           -0.079691154
FINAL SINGLE POINT ENERGY     -1190.807272044407

DIPOLE MOMENT
-------------
                                X             Y             Z
Electronic contribution:    -20.63451       2.69177     -20.21166
Nuclear contribution   :     20.03262      -4.53368      20.24480
                        -----------------------------------------
Total Dipole Moment    :     -0.60188      -1.84192       0.03314
                        -----------------------------------------
Magnitude (a.u.)       :      1.93805
Magnitude (Debye)      :      4.92612

Rotational constants in cm-1:     0.014367     0.012055     0.007393
Rotational constants in MHz :   430.711297   361.391195   221.649333

                             ****ORCA TERMINATED NORMALLY****
TOTAL RUN TIME: 0 days 0 hours 1 minutes 31 seconds 273 msec
