                         Program Version 5.0.0 -  RELEASE  -
|  1> !B3LYP D3BJ RIJCOSX def2-TZVP def2/J TightSCF xyzfile
|  2>
|  3> *xyzfile 0 1 D7.xyz
|  4>
|  5> %MaxCore 64000
|  6>
|  7> %pal nprocs 18
|  8> end
|  9>
| 10> %scf
| 11>   MaxIter 150
| 12> end
| 13>
| 14>
| 15>                          ****END OF INPUT****

CARTESIAN COORDINATES (ANGSTROEM)
---------------------------------
  C      4.490588    1.155899   -2.469290
  C      4.305394    1.222762   -3.908317
  C      4.906458   -3.102816   -5.954844
  C      3.511771   -2.806215   -6.492283
  H      2.736044   -3.373445   -5.973736
  H      3.444904   -3.040831   -7.555281
  S      3.004618   -1.096206   -6.389259
  C      4.631918    2.246365   -4.670958
  N      4.541686    2.143990   -5.987139
  N      5.084086    3.393584   -4.118545
  H      4.920675    3.570501   -3.135870
  H      5.254652    4.197390   -4.706956
  H      3.824530    0.449113   -4.350926
  H      4.343373    1.249318   -6.416646
  H      4.676712    2.956624   -6.574113
  O      4.128856   -0.329647   -6.953717
  O      1.781285   -1.000779   -7.136399
  C      5.942129    0.939500   -2.036893
  H      3.864305    0.328532   -2.136611
  H      4.076233    2.049994   -1.989010
  C      6.462677   -3.117775   -3.944671
  C      5.024977   -3.025679   -4.437625
  H      4.423321   -3.818693   -3.977648
  H      4.579350   -2.087131   -4.108727
  H      5.201533   -4.100207   -6.296905
  H      5.605922   -2.397822   -6.413368
  C      6.559957   -0.356290   -2.559086
  H      5.967976    0.952567   -0.942444
  H      6.547184    1.788331   -2.368849
  C      6.006283   -1.615917   -1.899301
  H      7.642360   -0.318000   -2.402059
  H      6.414855   -0.403433   -3.642587
  C      6.608718   -2.917014   -2.435655
  H      6.190324   -1.561115   -0.820948
  H      4.919250   -1.651245   -2.016586
  H      7.066975   -2.374258   -4.475514
  H      6.887808   -4.089747   -4.215332
  H      6.135197   -3.755573   -1.915159
  H      7.671142   -2.955503   -2.172291
  F      2.851546   -0.783683   -4.956789

 Total Charge           Charge          ....    0
 Multiplicity           Mult            ....    1
 Number of Electrons    NEL             ....  144
 Basis Dimension        Dim             ....  671

ORBITAL ENERGIES
----------------

  NO   OCC          E(Eh)            E(eV)
   0   2.0000     -89.107082     -2424.7270
   1   2.0000     -24.791261      -674.6045
   2   2.0000     -19.147536      -521.0309
   3   2.0000     -19.143933      -520.9329
   4   2.0000     -14.301619      -389.1668
   5   2.0000     -14.279309      -388.5597
   6   2.0000     -10.233064      -278.4558
   7   2.0000     -10.194716      -277.4123
   8   2.0000     -10.193702      -277.3847
   9   2.0000     -10.175021      -276.8764
  10   2.0000     -10.165444      -276.6158
  11   2.0000     -10.159091      -276.4429
  12   2.0000     -10.150943      -276.2212
  13   2.0000     -10.141930      -275.9759
  14   2.0000     -10.137038      -275.8428
  15   2.0000     -10.133426      -275.7445
  16   2.0000     -10.068443      -273.9763
  17   2.0000      -8.151084      -221.8023
  18   2.0000      -6.117898      -166.4765
  19   2.0000      -6.111598      -166.3050
  20   2.0000      -6.111070      -166.2907
  21   2.0000      -1.367660       -37.2159
  22   2.0000      -1.121200       -30.5094
  23   2.0000      -1.029619       -28.0173
  24   2.0000      -0.940146       -25.5827
  25   2.0000      -0.850797       -23.1514
  26   2.0000      -0.842281       -22.9196
  27   2.0000      -0.807044       -21.9608
  28   2.0000      -0.778827       -21.1930
  29   2.0000      -0.754219       -20.5233
  30   2.0000      -0.720075       -19.5942
  31   2.0000      -0.705512       -19.1980
  32   2.0000      -0.668968       -18.2035
  33   2.0000      -0.642057       -17.4713
  34   2.0000      -0.620908       -16.8958
  35   2.0000      -0.592465       -16.1218
  36   2.0000      -0.586387       -15.9564
  37   2.0000      -0.577465       -15.7136
  38   2.0000      -0.572277       -15.5724
  39   2.0000      -0.552544       -15.0355
  40   2.0000      -0.543477       -14.7887
  41   2.0000      -0.523205       -14.2371
  42   2.0000      -0.498188       -13.5564
  43   2.0000      -0.487364       -13.2619
  44   2.0000      -0.483770       -13.1640
  45   2.0000      -0.476804       -12.9745
  46   2.0000      -0.474001       -12.8982
  47   2.0000      -0.456806       -12.4303
  48   2.0000      -0.449051       -12.2193
  49   2.0000      -0.440138       -11.9768
  50   2.0000      -0.427692       -11.6381
  51   2.0000      -0.421980       -11.4827
  52   2.0000      -0.419087       -11.4039
  53   2.0000      -0.403155       -10.9704
  54   2.0000      -0.394218       -10.7272
  55   2.0000      -0.381555       -10.3826
  56   2.0000      -0.375562       -10.2196
  57   2.0000      -0.371103       -10.0982
  58   2.0000      -0.362710        -9.8698
  59   2.0000      -0.355131        -9.6636
  60   2.0000      -0.346569        -9.4306
  61   2.0000      -0.343539        -9.3482
  62   2.0000      -0.337848        -9.1933
  63   2.0000      -0.330346        -8.9892
  64   2.0000      -0.328153        -8.9295
  65   2.0000      -0.325574        -8.8593
  66   2.0000      -0.319205        -8.6860
  67   2.0000      -0.304250        -8.2791
  68   2.0000      -0.298193        -8.1142
  69   2.0000      -0.293269        -7.9803
  70   2.0000      -0.244805        -6.6615
  71   2.0000      -0.145438        -3.9576
  72   0.0000       0.009450         0.2572
  73   0.0000       0.028905         0.7865
  74   0.0000       0.032823         0.8932
  75   0.0000       0.045226         1.2307
  76   0.0000       0.045774         1.2456

MULLIKEN ATOMIC CHARGES
-----------------------
   0 C :   -0.262048
   1 C :   -0.355291
   2 C :   -0.146139
   3 C :   -0.221898
   4 H :    0.135569
   5 H :    0.161914
   6 S :    0.895591
   7 C :    0.326002
   8 N :   -0.463478
   9 N :   -0.473745
  10 H :    0.229460
  11 H :    0.201000
  12 H :    0.113052
  13 H :    0.263011
  14 H :    0.190116
  15 O :   -0.479388
  16 O :   -0.407807
  17 C :   -0.071168
  18 H :    0.073411
  19 H :    0.070162
  20 C :   -0.177989
  21 C :   -0.274087
  22 H :    0.086899
  23 H :    0.114213
  24 H :    0.103548
  25 H :    0.130628
  26 C :   -0.169946
  27 H :    0.055783
  28 H :    0.081877
  29 C :   -0.220492
  30 H :    0.075405
  31 H :    0.112043
  32 C :   -0.120782
  33 H :    0.084243
  34 H :    0.093846
  35 H :    0.106320
  36 H :    0.087466
  37 H :    0.080989
  38 H :    0.086441
  39 F :   -0.114733
Sum of atomic charges:   -0.0000000

LOEWDIN ATOMIC CHARGES
----------------------
   0 C :   -0.286444
   1 C :   -0.302467
   2 C :   -0.277661
   3 C :   -0.356944
   4 H :    0.140618
   5 H :    0.152816
   6 S :    0.575254
   7 C :   -0.452382
   8 N :   -0.009772
   9 N :   -0.020077
  10 H :    0.169152
  11 H :    0.156594
  12 H :    0.104669
  13 H :    0.146735
  14 H :    0.154064
  15 O :   -0.278775
  16 O :   -0.250493
  17 C :   -0.259430
  18 H :    0.135114
  19 H :    0.122725
  20 C :   -0.263021
  21 C :   -0.269562
  22 H :    0.134412
  23 H :    0.133864
  24 H :    0.142503
  25 H :    0.146777
  26 C :   -0.263033
  27 H :    0.125083
  28 H :    0.131045
  29 C :   -0.266061
  30 H :    0.130742
  31 H :    0.136095
  32 C :   -0.262549
  33 H :    0.133166
  34 H :    0.128240
  35 H :    0.136625
  36 H :    0.132760
  37 H :    0.131799
  38 H :    0.134136
  39 F :    0.083685

  Mayer bond orders larger than 0.100000
B(  0-C ,  1-C ) :   0.9969 B(  0-C , 17-C ) :   0.9445 B(  0-C , 18-H ) :   0.9940
B(  0-C , 19-H ) :   0.9786 B(  1-C ,  7-C ) :   1.6277 B(  1-C , 12-H ) :   0.9865
B(  2-C ,  3-C ) :   0.9422 B(  2-C , 21-C ) :   0.9711 B(  2-C , 24-H ) :   0.9502
B(  2-C , 25-H ) :   0.9592 B(  3-C ,  4-H ) :   0.9492 B(  3-C ,  5-H ) :   0.9487
B(  3-C ,  6-S ) :   0.9093 B(  6-S , 15-O ) :   1.7459 B(  6-S , 16-O ) :   1.9781
B(  6-S , 39-F ) :   1.0928 B(  7-C ,  8-N ) :   1.1999 B(  7-C ,  9-N ) :   1.1332
B(  8-N , 13-H ) :   0.8546 B(  8-N , 14-H ) :   0.9315 B(  9-N , 10-H ) :   0.9162
B(  9-N , 11-H ) :   0.9322 B( 17-C , 26-C ) :   0.9843 B( 17-C , 27-H ) :   0.9653
B( 17-C , 28-H ) :   0.9620 B( 20-C , 21-C ) :   0.9756 B( 20-C , 32-C ) :   0.9718
B( 20-C , 35-H ) :   0.9747 B( 20-C , 36-H ) :   0.9680 B( 21-C , 22-H ) :   0.9608
B( 21-C , 23-H ) :   0.9708 B( 26-C , 29-C ) :   0.9553 B( 26-C , 30-H ) :   0.9677
B( 26-C , 31-H ) :   0.9668 B( 29-C , 32-C ) :   0.9622 B( 29-C , 33-H ) :   0.9641
B( 29-C , 34-H ) :   0.9847 B( 32-C , 37-H ) :   0.9747 B( 32-C , 38-H ) :   0.9689

Dispersion correction           -0.079476616
FINAL SINGLE POINT ENERGY     -1190.832105218779

DIPOLE MOMENT
-------------
                                X             Y             Z
Electronic contribution:    -18.43735       4.12619     -18.09421
Nuclear contribution   :     18.74089      -4.92611      17.99644
                        -----------------------------------------
Total Dipole Moment    :      0.30355      -0.79992      -0.09776
                        -----------------------------------------
Magnitude (a.u.)       :      0.86115
Magnitude (Debye)      :      2.18886

Rotational constants in cm-1:     0.014210     0.012324     0.007480
Rotational constants in MHz :   425.991442   369.455467   224.259162

                             ****ORCA TERMINATED NORMALLY****
TOTAL RUN TIME: 0 days 0 hours 1 minutes 30 seconds 178 msec
