                         Program Version 5.0.0 -  RELEASE  -
|  1> !CAM-B3LYP RIJCOSX def2-TZVPD def2/J TightSCF
|  2> *xyz -1 1
|  3> C         -0.91495        0.61511        2.50554
|  4> C         -0.05915        1.50352        3.41058
|  5> H          0.36536        2.34431        2.86116
|  6> H         -0.69226        1.92021        4.19898
|  7> C          1.08303        0.74964        4.08571
|  8> O          2.22817        1.26348        4.01983
|  9> O          0.81003       -0.34541        4.63627
| 10> H         -0.30401        0.20228        1.73015
| 11> H         -1.69811        1.19946        2.06954
| 12> H         -1.34124       -0.17772        3.08397
| 13> *
| 14>
| 15> %MaxCore 64000
| 16>
| 17> %pal nprocs 4
| 18> end
| 19>
| 20> %scf
| 21>   MaxIter 150
| 22> end
| 23>
| 24>
| 25>                          ****END OF INPUT****

CARTESIAN COORDINATES (ANGSTROEM)
---------------------------------
  C     -0.914950    0.615110    2.505540
  C     -0.059150    1.503520    3.410580
  H      0.365360    2.344310    2.861160
  H     -0.692260    1.920210    4.198980
  C      1.083030    0.749640    4.085710
  O      2.228170    1.263480    4.019830
  O      0.810030   -0.345410    4.636270
  H     -0.304010    0.202280    1.730150
  H     -1.698110    1.199460    2.069540
  H     -1.341240   -0.177720    3.083970

 Total Charge           Charge          ....   -1
 Multiplicity           Mult            ....    1
 Number of Electrons    NEL             ....   40
 Basis Dimension        Dim             ....  236

ORBITAL ENERGIES
----------------

  NO   OCC          E(Eh)            E(eV)
   0   2.0000     -18.934145      -515.2243
   1   2.0000     -18.933705      -515.2123
   2   2.0000     -10.129249      -275.6309
   3   2.0000     -10.078707      -274.2556
   4   2.0000     -10.069500      -274.0050
   5   2.0000      -0.903156       -24.5761
   6   2.0000      -0.808587       -22.0028
   7   2.0000      -0.688906       -18.7461
   8   2.0000      -0.554195       -15.0804
   9   2.0000      -0.393809       -10.7161
  10   2.0000      -0.364725        -9.9247
  11   2.0000      -0.331755        -9.0275
  12   2.0000      -0.300260        -8.1705
  13   2.0000      -0.283783        -7.7221
  14   2.0000      -0.276753        -7.5308
  15   2.0000      -0.246406        -6.7051
  16   2.0000      -0.228727        -6.2240
  17   2.0000      -0.112923        -3.0728
  18   2.0000      -0.108110        -2.9418
  19   2.0000      -0.095783        -2.6064
  20   0.0000       0.157720         4.2918
  21   0.0000       0.181727         4.9450
  22   0.0000       0.192492         5.2380
  23   0.0000       0.206135         5.6092
  24   0.0000       0.228097         6.2068

MULLIKEN ATOMIC CHARGES
-----------------------
   0 C :   -1.028987
   1 C :   -0.110411
   2 H :    0.208431
   3 H :    0.191361
   4 C :    0.332469
   5 O :   -0.721666
   6 O :   -0.716758
   7 H :    0.294519
   8 H :    0.295083
   9 H :    0.255961
Sum of atomic charges:   -1.0000000

LOEWDIN ATOMIC CHARGES
----------------------
   0 C :   -0.133758
   1 C :   -0.213416
   2 H :    0.088385
   3 H :    0.096435
   4 C :   -0.779889
   5 O :   -0.112725
   6 O :   -0.104315
   7 H :    0.061627
   8 H :    0.043004
   9 H :    0.054651

  Mayer bond orders larger than 0.100000
B(  0-C ,  1-C ) :   0.5415 B(  0-C ,  7-H ) :   0.9587 B(  0-C ,  8-H ) :   0.9415
B(  0-C ,  9-H ) :   1.0334 B(  1-C ,  2-H ) :   1.0240 B(  1-C ,  3-H ) :   0.9591
B(  1-C ,  4-C ) :   0.9202 B(  4-C ,  5-O ) :   1.4763 B(  4-C ,  6-O ) :   1.4870

FINAL SINGLE POINT ENERGY      -267.837176492333

DIPOLE MOMENT
-------------
                                X             Y             Z
Electronic contribution:      4.69639      -0.99100       3.34263
Nuclear contribution   :     -6.38408       1.63097      -4.40540
                        -----------------------------------------
Total Dipole Moment    :     -1.68769       0.63997      -1.06277
                        -----------------------------------------
Magnitude (a.u.)       :      2.09460
Magnitude (Debye)      :      5.32405

Rotational constants in cm-1:     0.319732     0.134414     0.104753
Rotational constants in MHz :  9585.336550  4029.633034  3140.404334

                             ****ORCA TERMINATED NORMALLY****
TOTAL RUN TIME: 0 days 0 hours 0 minutes 43 seconds 144 msec
