                         Program Version 5.0.0 -  RELEASE  -
|  1> !CAM-B3LYP RIJCOSX def2-TZVPD def2/J TightSCF
|  2> *xyz 1 1
|  3> C          4.60295       -2.44010        2.63478
|  4> C          3.86085       -1.59157        3.62289
|  5> N          2.75650       -2.04616        4.16633
|  6> N          4.25433       -0.36291        3.86046
|  7> H          3.56526        0.31099        4.16898
|  8> H          5.05429       -0.01606        3.33784
|  9> H          2.43970       -2.97389        3.89740
| 10> H          2.06687       -1.41253        4.54981
| 11> C          3.74469       -2.58056        1.36188
| 12> H          5.56156       -1.97135        2.40708
| 13> H          4.81050       -3.42255        3.06310
| 14> H          4.26314       -3.18477        0.64702
| 15> H          3.56325       -1.61180        0.94535
| 16> H          2.81197       -3.04259        1.60980
| 17> *
| 18>
| 19> %MaxCore 64000
| 20>
| 21> %pal nprocs 4
| 22> end
| 23>
| 24> %scf
| 25>   MaxIter 150
| 26> end
| 27>
| 28>
| 29>                          ****END OF INPUT****

CARTESIAN COORDINATES (ANGSTROEM)
---------------------------------
  C      4.602950   -2.440100    2.634780
  C      3.860850   -1.591570    3.622890
  N      2.756500   -2.046160    4.166330
  N      4.254330   -0.362910    3.860460
  H      3.565260    0.310990    4.168980
  H      5.054290   -0.016060    3.337840
  H      2.439700   -2.973890    3.897400
  H      2.066870   -1.412530    4.549810
  C      3.744690   -2.580560    1.361880
  H      5.561560   -1.971350    2.407080
  H      4.810500   -3.422550    3.063100
  H      4.263140   -3.184770    0.647020
  H      3.563250   -1.611800    0.945350
  H      2.811970   -3.042590    1.609800

 Total Charge           Charge          ....    1
 Multiplicity           Mult            ....    1
 Number of Electrons    NEL             ....   40
 Basis Dimension        Dim             ....  266

ORBITAL ENERGIES
----------------

  NO   OCC          E(Eh)            E(eV)
   0   2.0000     -14.635408      -398.2497
   1   2.0000     -14.634430      -398.2231
   2   2.0000     -10.570801      -287.6461
   3   2.0000     -10.446450      -284.2624
   4   2.0000     -10.403956      -283.1060
   5   2.0000      -1.293922       -35.2094
   6   2.0000      -1.193808       -32.4852
   7   2.0000      -1.055746       -28.7283
   8   2.0000      -0.940382       -25.5891
   9   2.0000      -0.893774       -24.3208
  10   2.0000      -0.845659       -23.0115
  11   2.0000      -0.827437       -22.5157
  12   2.0000      -0.767489       -20.8844
  13   2.0000      -0.736819       -20.0499
  14   2.0000      -0.697062       -18.9680
  15   2.0000      -0.671530       -18.2733
  16   2.0000      -0.616855       -16.7855
  17   2.0000      -0.611247       -16.6329
  18   2.0000      -0.598685       -16.2911
  19   2.0000      -0.560827       -15.2609
  20   0.0000      -0.170547        -4.6408
  21   0.0000      -0.135959        -3.6996
  22   0.0000      -0.096731        -2.6322
  23   0.0000      -0.091311        -2.4847
  24   0.0000      -0.072099        -1.9619

MULLIKEN ATOMIC CHARGES
-----------------------
   0 C :   -0.471450
   1 C :    0.600308
   2 N :   -0.320574
   3 N :   -0.299686
   4 H :    0.235436
   5 H :    0.244901
   6 H :    0.247870
   7 H :    0.215914
   8 C :   -1.084779
   9 H :    0.310188
  10 H :    0.300309
  11 H :    0.328553
  12 H :    0.347939
  13 H :    0.345071
Sum of atomic charges:    1.0000000

LOEWDIN ATOMIC CHARGES
----------------------
   0 C :   -0.140847
   1 C :   -0.368641
   2 N :    0.228385
   3 N :    0.230458
   4 H :    0.148031
   5 H :    0.149679
   6 H :    0.149148
   7 H :    0.150140
   8 C :   -0.053805
   9 H :    0.125850
  10 H :    0.135724
  11 H :    0.088374
  12 H :    0.085379
  13 H :    0.072126

  Mayer bond orders larger than 0.100000
B(  0-C ,  1-C ) :   0.8079 B(  0-C ,  8-C ) :   0.5914 B(  0-C ,  9-H ) :   0.9420
B(  0-C , 10-H ) :   0.9830 B(  1-C ,  2-N ) :   1.2154 B(  1-C ,  3-N ) :   1.2485
B(  2-N ,  6-H ) :   0.9272 B(  2-N ,  7-H ) :   0.9835 B(  3-N ,  4-H ) :   0.9539
B(  3-N ,  5-H ) :   0.9323 B(  8-C , 11-H ) :   0.9748 B(  8-C , 12-H ) :   0.9631
B(  8-C , 13-H ) :   0.9054

FINAL SINGLE POINT ENERGY      -228.993972009085

DIPOLE MOMENT
-------------
                                X             Y             Z
Electronic contribution:     -0.23117       1.78186       3.72173
Nuclear contribution   :     -0.22400      -1.16268      -3.30447
                        -----------------------------------------
Total Dipole Moment    :     -0.45517       0.61919       0.41725
                        -----------------------------------------
Magnitude (a.u.)       :      0.87446
Magnitude (Debye)      :      2.22269

Rotational constants in cm-1:     0.258103     0.130571     0.102508
Rotational constants in MHz :  7737.732062  3914.431392  3073.119154

                             ****ORCA TERMINATED NORMALLY****
TOTAL RUN TIME: 0 days 0 hours 0 minutes 58 seconds 820 msec
