                         Program Version 5.0.0 -  RELEASE  -
|  1> !CAM-B3LYP RIJCOSX def2-TZVPD def2/J TightSCF xyzfile
|  2>
|  3> *xyzfile 0 1 B.xyz
|  4>
|  5> %MaxCore 64000
|  6>
|  7> %pal nprocs 4
|  8> end
|  9>
| 10> %scf
| 11>   MaxIter 150
| 12> end
| 13>
| 14>
| 15>                          ****END OF INPUT****

CARTESIAN COORDINATES (ANGSTROEM)
---------------------------------
  C      4.602954   -2.440100    2.634780
  C     -0.914947    0.615112    2.505538
  C     -0.059146    1.503524    3.410578
  H      0.365364    2.344315    2.861161
  H     -0.692261    1.920207    4.198985
  C      1.083027    0.749640    4.085705
  C      3.860851   -1.591565    3.622893
  N      2.756502   -2.046159    4.166333
  N      4.254325   -0.362905    3.860455
  H      3.565256    0.310994    4.168983
  H      5.054292   -0.016059    3.337838
  H      2.439696   -2.973894    3.897395
  H      2.066869   -1.412532    4.549813
  O      2.228167    1.263475    4.019826
  O      0.810034   -0.345411    4.636269
  C      3.744685   -2.580557    1.361882
  C      0.772139    0.636882    0.562129
  C     -0.130740   -0.193985    1.470763
  H     -0.840563   -0.760165    0.856377
  H      0.466691   -0.938942    2.006959
  H     -1.647961    1.245963    1.991076
  H     -1.478180   -0.081046    3.130424
  C      3.203721   -1.256004    0.826211
  H      2.898939   -3.239289    1.583074
  H      4.334962   -3.095523    0.600188
  C      2.107815   -1.442385   -0.216865
  H      2.786775   -0.672760    1.650711
  H      4.021008   -0.652993    0.414046
  C      1.390662   -0.145912   -0.602422
  H      1.372179   -2.152184    0.176151
  H      2.523302   -1.906787   -1.117115
  H      1.561361    1.100094    1.161831
  H      0.195516    1.468325    0.142758
  H      0.602893   -0.398214   -1.319716
  H      2.087247    0.508272   -1.137335
  H      5.561557   -1.971347    2.407084
  H      4.810498   -3.422552    3.063099

 Total Charge           Charge          ....    0
 Multiplicity           Mult            ....    1
 Number of Electrons    NEL             ....  118
 Basis Dimension        Dim             ....  759

ORBITAL ENERGIES
----------------

  NO   OCC          E(Eh)            E(eV)
   0   2.0000     -19.121907      -520.3335
   1   2.0000     -19.119914      -520.2793
   2   2.0000     -14.430960      -392.6864
   3   2.0000     -14.430855      -392.6835
   4   2.0000     -10.384846      -282.5860
   5   2.0000     -10.310378      -280.5596
   6   2.0000     -10.295762      -280.1619
   7   2.0000     -10.276277      -279.6317
   8   2.0000     -10.252151      -278.9752
   9   2.0000     -10.243160      -278.7306
  10   2.0000     -10.235144      -278.5124
  11   2.0000     -10.224408      -278.2203
  12   2.0000     -10.221181      -278.1325
  13   2.0000     -10.217279      -278.0263
  14   2.0000     -10.209123      -277.8044
  15   2.0000      -1.106470       -30.1086
  16   2.0000      -1.090950       -29.6863
  17   2.0000      -1.008753       -27.4496
  18   2.0000      -0.992214       -26.9995
  19   2.0000      -0.922660       -25.1069
  20   2.0000      -0.887919       -24.1615
  21   2.0000      -0.857240       -23.3267
  22   2.0000      -0.816069       -22.2064
  23   2.0000      -0.776860       -21.1394
  24   2.0000      -0.737634       -20.0720
  25   2.0000      -0.720579       -19.6080
  26   2.0000      -0.696950       -18.9650
  27   2.0000      -0.662875       -18.0377
  28   2.0000      -0.653897       -17.7934
  29   2.0000      -0.645069       -17.5532
  30   2.0000      -0.622044       -16.9267
  31   2.0000      -0.585715       -15.9381
  32   2.0000      -0.578093       -15.7307
  33   2.0000      -0.556827       -15.1520
  34   2.0000      -0.547230       -14.8909
  35   2.0000      -0.534951       -14.5568
  36   2.0000      -0.527604       -14.3568
  37   2.0000      -0.512961       -13.9584
  38   2.0000      -0.501991       -13.6599
  39   2.0000      -0.489152       -13.3105
  40   2.0000      -0.483828       -13.1656
  41   2.0000      -0.474314       -12.9067
  42   2.0000      -0.470688       -12.8081
  43   2.0000      -0.464757       -12.6467
  44   2.0000      -0.442976       -12.0540
  45   2.0000      -0.439675       -11.9642
  46   2.0000      -0.433380       -11.7929
  47   2.0000      -0.428379       -11.6568
  48   2.0000      -0.417088       -11.3496
  49   2.0000      -0.399763       -10.8781
  50   2.0000      -0.396281       -10.7833
  51   2.0000      -0.388114       -10.5611
  52   2.0000      -0.372775       -10.1437
  53   2.0000      -0.367492       -10.0000
  54   2.0000      -0.365594        -9.9483
  55   2.0000      -0.358459        -9.7542
  56   2.0000      -0.301597        -8.2069
  57   2.0000      -0.291378        -7.9288
  58   2.0000      -0.288286        -7.8447
  59   0.0000       0.003358         0.0914
  60   0.0000       0.017879         0.4865
  61   0.0000       0.027283         0.7424
  62   0.0000       0.036186         0.9847
  63   0.0000       0.044079         1.1994

MULLIKEN ATOMIC CHARGES
-----------------------
   0 C :   -0.636739
   1 C :   -0.683419
   2 C :   -0.464553
   3 H :    0.266249
   4 H :    0.311326
   5 C :    0.636762
   6 C :    0.120073
   7 N :   -0.244139
   8 N :   -0.258352
   9 H :    0.351016
  10 H :    0.201097
  11 H :    0.206937
  12 H :    0.332107
  13 O :   -0.833842
  14 O :   -0.846326
  15 C :   -0.679299
  16 C :   -0.413928
  17 C :   -0.497021
  18 H :    0.348909
  19 H :    0.222163
  20 H :    0.297341
  21 H :    0.266853
  22 C :    0.160223
  23 H :    0.268709
  24 H :    0.342538
  25 C :   -0.685252
  26 H :   -0.024297
  27 H :    0.226776
  28 C :   -0.788510
  29 H :    0.303230
  30 H :    0.335009
  31 H :    0.303432
  32 H :    0.324386
  33 H :    0.313892
  34 H :    0.295525
  35 H :    0.317081
  36 H :    0.304039
Sum of atomic charges:   -0.0000000

LOEWDIN ATOMIC CHARGES
----------------------
   0 C :   -0.113042
   1 C :   -0.205728
   2 C :   -0.127762
   3 H :    0.107229
   4 H :    0.118979
   5 C :   -0.656773
   6 C :   -0.392805
   7 N :    0.233078
   8 N :    0.219373
   9 H :    0.053507
  10 H :    0.135922
  11 H :    0.137925
  12 H :    0.052870
  13 O :   -0.052543
  14 O :   -0.048693
  15 C :   -0.188895
  16 C :   -0.214180
  17 C :   -0.214720
  18 H :    0.117572
  19 H :    0.099674
  20 H :    0.109431
  21 H :    0.109180
  22 C :   -0.212366
  23 H :    0.110508
  24 H :    0.119640
  25 C :   -0.217895
  26 H :    0.091082
  27 H :    0.129727
  28 C :   -0.210192
  29 H :    0.108595
  30 H :    0.114669
  31 H :    0.105213
  32 H :    0.118030
  33 H :    0.109779
  34 H :    0.109963
  35 H :    0.119247
  36 H :    0.124401

  Mayer bond orders larger than 0.100000
B(  0-C ,  6-C ) :   0.6959 B(  0-C , 15-C ) :   0.6926 B(  0-C , 35-H ) :   0.9476
B(  0-C , 36-H ) :   1.0388 B(  1-C ,  2-C ) :   0.7888 B(  1-C , 17-C ) :   0.8717
B(  1-C , 20-H ) :   0.9646 B(  1-C , 21-H ) :   0.9573 B(  2-C ,  3-H ) :   1.0208
B(  2-C ,  4-H ) :   0.8808 B(  2-C ,  5-C ) :   0.9177 B(  2-C , 16-C ) :   0.1185
B(  5-C , 13-O ) :   1.2385 B(  5-C , 14-O ) :   1.2225 B(  6-C ,  7-N ) :   1.3314
B(  6-C ,  8-N ) :   1.4539 B(  7-N , 11-H ) :   0.9424 B(  7-N , 12-H ) :   0.7166
B(  8-N ,  9-H ) :   0.7514 B(  8-N , 10-H ) :   0.9285 B( 12-H , 14-O ) :   0.1133
B( 13-O , 14-O ) :   0.1304 B( 15-C , 22-C ) :   0.4728 B( 15-C , 23-H ) :   0.9651
B( 15-C , 24-H ) :   0.9498 B( 15-C , 25-C ) :   0.3083 B( 15-C , 27-H ) :  -0.1124
B( 16-C , 17-C ) :   0.2973 B( 16-C , 19-H ) :  -0.1881 B( 16-C , 28-C ) :   0.7554
B( 16-C , 31-H ) :   1.0772 B( 16-C , 32-H ) :   0.8709 B( 17-C , 18-H ) :   0.8528
B( 17-C , 19-H ) :   1.2062 B( 17-C , 28-C ) :   0.1130 B( 17-C , 31-H ) :  -0.1349
B( 22-C , 25-C ) :   0.4526 B( 22-C , 26-H ) :   1.3461 B( 22-C , 27-H ) :   0.9152
B( 25-C , 28-C ) :   0.8191 B( 25-C , 29-H ) :   0.9648 B( 25-C , 30-H ) :   0.9362
B( 26-H , 27-H ) :   0.1418 B( 28-C , 33-H ) :   0.9719 B( 28-C , 34-H ) :   0.9756

FINAL SINGLE POINT ENERGY      -692.338079804654

DIPOLE MOMENT
-------------
                                X             Y             Z
Electronic contribution:      3.44140       1.59959      12.97015
Nuclear contribution   :     -1.50655      -3.48027     -14.35034
                        -----------------------------------------
Total Dipole Moment    :      1.93485      -1.88068      -1.38019
                        -----------------------------------------
Magnitude (a.u.)       :      3.03076
Magnitude (Debye)      :      7.70359

Rotational constants in cm-1:     0.021781     0.017296     0.011403
Rotational constants in MHz :   652.971749   518.510612   341.853154

                             ****ORCA TERMINATED NORMALLY****
TOTAL RUN TIME: 0 days 0 hours 14 minutes 53 seconds 60 msec
