                         Program Version 5.0.0 -  RELEASE  -
|  1> !CAM-B3LYP RIJCOSX def2-TZVPD def2/J TightSCF
|  2> *xyz 0 1
|  3> C         -0.91495        0.61511        2.50554
|  4> C         -0.05915        1.50352        3.41058
|  5> H          0.36536        2.34431        2.86116
|  6> H         -0.69226        1.92021        4.19898
|  7> C          1.08303        0.74964        4.08571
|  8> F          2.22817        1.26348        4.01983
|  9> O          0.81003       -0.34541        4.63627
| 10> H         -0.30401        0.20228        1.73015
| 11> H         -1.69811        1.19946        2.06954
| 12> H         -1.34124       -0.17772        3.08397
| 13> *
| 14>
| 15> %MaxCore 64000
| 16>
| 17> %pal nprocs 4
| 18> end
| 19>
| 20> %scf
| 21>   MaxIter 150
| 22> end
| 23>
| 24>
| 25>                          ****END OF INPUT****

CARTESIAN COORDINATES (ANGSTROEM)
---------------------------------
  C     -0.914950    0.615110    2.505540
  C     -0.059150    1.503520    3.410580
  H      0.365360    2.344310    2.861160
  H     -0.692260    1.920210    4.198980
  C      1.083030    0.749640    4.085710
  F      2.228170    1.263480    4.019830
  O      0.810030   -0.345410    4.636270
  H     -0.304010    0.202280    1.730150
  H     -1.698110    1.199460    2.069540
  H     -1.341240   -0.177720    3.083970

 Total Charge           Charge          ....    0
 Multiplicity           Mult            ....    1
 Number of Electrons    NEL             ....   40
 Basis Dimension        Dim             ....  236

ORBITAL ENERGIES
----------------

  NO   OCC          E(Eh)            E(eV)
   0   2.0000     -24.829040      -675.6325
   1   2.0000     -19.207695      -522.6679
   2   2.0000     -10.428285      -283.7681
   3   2.0000     -10.277623      -279.6683
   4   2.0000     -10.246774      -278.8289
   5   2.0000      -1.403508       -38.1914
   6   2.0000      -1.117985       -30.4219
   7   2.0000      -0.885662       -24.1001
   8   2.0000      -0.772241       -21.0138
   9   2.0000      -0.716727       -19.5031
  10   2.0000      -0.626392       -17.0450
  11   2.0000      -0.612051       -16.6547
  12   2.0000      -0.584565       -15.9068
  13   2.0000      -0.538639       -14.6571
  14   2.0000      -0.506685       -13.7876
  15   2.0000      -0.467008       -12.7079
  16   2.0000      -0.447322       -12.1722
  17   2.0000      -0.443168       -12.0592
  18   2.0000      -0.415290       -11.3006
  19   2.0000      -0.364542        -9.9197
  20   0.0000       0.013647         0.3714
  21   0.0000       0.030672         0.8346
  22   0.0000       0.052415         1.4263
  23   0.0000       0.061010         1.6602
  24   0.0000       0.072435         1.9711

MULLIKEN ATOMIC CHARGES
-----------------------
   0 C :   -1.078371
   1 C :   -0.194683
   2 H :    0.271212
   3 H :    0.253455
   4 C :    0.491782
   5 F :   -0.207752
   6 O :   -0.483439
   7 H :    0.331174
   8 H :    0.315619
   9 H :    0.301002
Sum of atomic charges:    0.0000000

LOEWDIN ATOMIC CHARGES
----------------------
   0 C :   -0.089607
   1 C :   -0.159265
   2 H :    0.109703
   3 H :    0.123625
   4 C :   -0.487954
   5 F :    0.205934
   6 O :    0.079867
   7 H :    0.075519
   8 H :    0.069755
   9 H :    0.072424

  Mayer bond orders larger than 0.100000
B(  0-C ,  1-C ) :   0.6119 B(  0-C ,  7-H ) :   0.9254 B(  0-C ,  8-H ) :   0.9449
B(  0-C ,  9-H ) :   1.0021 B(  1-C ,  2-H ) :   0.9615 B(  1-C ,  3-H ) :   0.9409
B(  1-C ,  4-C ) :   0.9139 B(  4-C ,  5-F ) :   1.0242 B(  4-C ,  6-O ) :   1.7694

FINAL SINGLE POINT ENERGY      -292.404692037381

DIPOLE MOMENT
-------------
                                X             Y             Z
Electronic contribution:      7.71156      -0.14907       4.07666
Nuclear contribution   :     -8.12386       1.06915      -4.71960
                        -----------------------------------------
Total Dipole Moment    :     -0.41230       0.92008      -0.64293
                        -----------------------------------------
Magnitude (a.u.)       :      1.19578
Magnitude (Debye)      :      3.03944

Rotational constants in cm-1:     0.309513     0.127560     0.099675
Rotational constants in MHz :  9278.979128  3824.146597  2988.174827

                             ****ORCA TERMINATED NORMALLY****
TOTAL RUN TIME: 0 days 0 hours 0 minutes 45 seconds 3 msec
