                         Program Version 5.0.0 -  RELEASE  -
|  1> !CAM-B3LYP RIJCOSX def2-TZVPD def2/J TightSCF
|  2> *xyz 0 1
|  3> C          4.60295       -2.44010        2.63478
|  4> C          3.86085       -1.59157        3.62289
|  5> C          2.75650       -2.04616        4.16633
|  6> N          4.25433       -0.36291        3.86046
|  7> H          3.56526        0.31099        4.16898
|  8> H          5.05429       -0.01606        3.33784
|  9> H          2.43970       -2.97389        3.89740
| 10> H          2.06687       -1.41253        4.54981
| 11> C          3.74469       -2.58056        1.36188
| 12> H          5.56156       -1.97135        2.40708
| 13> H          4.81050       -3.42255        3.06310
| 14> H          4.26314       -3.18477        0.64702
| 15> H          3.56325       -1.61180        0.94535
| 16> H          2.81197       -3.04259        1.60980
| 17> *
| 18>
| 19> %MaxCore 64000
| 20>
| 21> %pal nprocs 4
| 22> end
| 23>
| 24> %scf
| 25>   MaxIter 150
| 26> end
| 27>
| 28>
| 29>                          ****END OF INPUT****

CARTESIAN COORDINATES (ANGSTROEM)
---------------------------------
  C      4.602950   -2.440100    2.634780
  C      3.860850   -1.591570    3.622890
  C      2.756500   -2.046160    4.166330
  N      4.254330   -0.362910    3.860460
  H      3.565260    0.310990    4.168980
  H      5.054290   -0.016060    3.337840
  H      2.439700   -2.973890    3.897400
  H      2.066870   -1.412530    4.549810
  C      3.744690   -2.580560    1.361880
  H      5.561560   -1.971350    2.407080
  H      4.810500   -3.422550    3.063100
  H      4.263140   -3.184770    0.647020
  H      3.563250   -1.611800    0.945350
  H      2.811970   -3.042590    1.609800

 Total Charge           Charge          ....    0
 Multiplicity           Mult            ....    1
 Number of Electrons    NEL             ....   40
 Basis Dimension        Dim             ....  266

ORBITAL ENERGIES
----------------

  NO   OCC          E(Eh)            E(eV)
   0   2.0000     -14.390292      -391.5798
   1   2.0000     -10.263318      -279.2791
   2   2.0000     -10.246023      -278.8085
   3   2.0000     -10.227934      -278.3162
   4   2.0000     -10.171170      -276.7716
   5   2.0000      -1.017855       -27.6972
   6   2.0000      -0.865613       -23.5545
   7   2.0000      -0.793908       -21.6033
   8   2.0000      -0.719410       -19.5761
   9   2.0000      -0.637175       -17.3384
  10   2.0000      -0.596327       -16.2269
  11   2.0000      -0.554689       -15.0939
  12   2.0000      -0.519097       -14.1254
  13   2.0000      -0.482803       -13.1377
  14   2.0000      -0.457103       -12.4384
  15   2.0000      -0.445821       -12.1314
  16   2.0000      -0.419527       -11.4159
  17   2.0000      -0.409020       -11.1300
  18   2.0000      -0.395532       -10.7630
  19   2.0000      -0.249515        -6.7897
  20   0.0000       0.030606         0.8328
  21   0.0000       0.054258         1.4764
  22   0.0000       0.058428         1.5899
  23   0.0000       0.067566         1.8386
  24   0.0000       0.083869         2.2822

MULLIKEN ATOMIC CHARGES
-----------------------
   0 C :   -0.458223
   1 C :    0.548389
   2 C :   -1.043928
   3 N :   -0.372584
   4 H :    0.175008
   5 H :    0.189281
   6 H :    0.310369
   7 H :    0.252066
   8 C :   -1.055001
   9 H :    0.280310
  10 H :    0.254231
  11 H :    0.300907
  12 H :    0.298138
  13 H :    0.321037
Sum of atomic charges:    0.0000000

LOEWDIN ATOMIC CHARGES
----------------------
   0 C :   -0.192384
   1 C :   -0.507851
   2 C :    0.007755
   3 N :    0.102026
   4 H :    0.111972
   5 H :    0.104666
   6 H :    0.026225
   7 H :    0.024657
   8 C :   -0.091868
   9 H :    0.102674
  10 H :    0.114795
  11 H :    0.062248
  12 H :    0.072074
  13 H :    0.063012

  Mayer bond orders larger than 0.100000
B(  0-C ,  1-C ) :   0.6974 B(  0-C ,  8-C ) :   0.5922 B(  0-C ,  9-H ) :   1.0298
B(  0-C , 10-H ) :   0.9867 B(  1-C ,  2-C ) :   1.4175 B(  1-C ,  3-N ) :   0.9773
B(  1-C ,  7-H ) :  -0.1021 B(  1-C ,  9-H ) :  -0.1075 B(  2-C ,  6-H ) :   0.9283
B(  2-C ,  7-H ) :   1.0767 B(  3-N ,  4-H ) :   0.9833 B(  3-N ,  5-H ) :   0.9900
B(  8-C , 11-H ) :   0.9606 B(  8-C , 12-H ) :   0.9737 B(  8-C , 13-H ) :   0.9692

FINAL SINGLE POINT ENERGY      -212.519340283269

DIPOLE MOMENT
-------------
                                X             Y             Z
Electronic contribution:      0.80223       1.76086       2.53503
Nuclear contribution   :     -0.47010      -1.22282      -3.06417
                        -----------------------------------------
Total Dipole Moment    :      0.33213       0.53804      -0.52913
                        -----------------------------------------
Magnitude (a.u.)       :      0.82449
Magnitude (Debye)      :      2.09568

Rotational constants in cm-1:     0.271862     0.131962     0.105499
Rotational constants in MHz :  8150.219120  3956.123671  3162.785522

                             ****ORCA TERMINATED NORMALLY****
TOTAL RUN TIME: 0 days 0 hours 1 minutes 1 seconds 968 msec
