                         Program Version 5.0.0 -  RELEASE  -
|  1> !CAM-B3LYP RIJCOSX def2-TZVPD def2/J TightSCF
|  2> *xyz 0 1
|  3> C         -0.91495        0.61511        2.50554
|  4> C         -0.05915        1.50352        3.41058
|  5> H          0.36536        2.34431        2.86116
|  6> H         -0.69226        1.92021        4.19898
|  7> C          1.08303        0.74964        4.08571
|  8> O          2.22817        1.26348        4.01983
|  9> F          0.81003       -0.34541        4.63627
| 10> H         -0.30401        0.20228        1.73015
| 11> H         -1.69811        1.19946        2.06954
| 12> H         -1.34124       -0.17772        3.08397
| 13> *
| 14>
| 15> %MaxCore 64000
| 16>
| 17> %pal nprocs 4
| 18> end
| 19>
| 20> %scf
| 21>   MaxIter 150
| 22> end
| 23>
| 24>
| 25>                          ****END OF INPUT****

CARTESIAN COORDINATES (ANGSTROEM)
---------------------------------
  C     -0.914950    0.615110    2.505540
  C     -0.059150    1.503520    3.410580
  H      0.365360    2.344310    2.861160
  H     -0.692260    1.920210    4.198980
  C      1.083030    0.749640    4.085710
  O      2.228170    1.263480    4.019830
  F      0.810030   -0.345410    4.636270
  H     -0.304010    0.202280    1.730150
  H     -1.698110    1.199460    2.069540
  H     -1.341240   -0.177720    3.083970

 Total Charge           Charge          ....    0
 Multiplicity           Mult            ....    1
 Number of Electrons    NEL             ....   40
 Basis Dimension        Dim             ....  236

ORBITAL ENERGIES
----------------

  NO   OCC          E(Eh)            E(eV)
   0   2.0000     -24.830157      -675.6629
   1   2.0000     -19.206822      -522.6442
   2   2.0000     -10.427698      -283.7521
   3   2.0000     -10.277050      -279.6528
   4   2.0000     -10.252286      -278.9789
   5   2.0000      -1.405039       -38.2331
   6   2.0000      -1.116101       -30.3706
   7   2.0000      -0.889947       -24.2167
   8   2.0000      -0.768095       -20.9009
   9   2.0000      -0.723822       -19.6962
  10   2.0000      -0.629130       -17.1195
  11   2.0000      -0.619235       -16.8502
  12   2.0000      -0.574995       -15.6464
  13   2.0000      -0.539732       -14.6868
  14   2.0000      -0.506995       -13.7960
  15   2.0000      -0.472504       -12.8575
  16   2.0000      -0.454495       -12.3674
  17   2.0000      -0.446915       -12.1612
  18   2.0000      -0.417055       -11.3487
  19   2.0000      -0.359147        -9.7729
  20   0.0000       0.015479         0.4212
  21   0.0000       0.030126         0.8198
  22   0.0000       0.052139         1.4188
  23   0.0000       0.059655         1.6233
  24   0.0000       0.072373         1.9694

MULLIKEN ATOMIC CHARGES
-----------------------
   0 C :   -1.108982
   1 C :   -0.147880
   2 H :    0.235357
   3 H :    0.269122
   4 C :    0.485385
   5 O :   -0.488534
   6 F :   -0.210595
   7 H :    0.346473
   8 H :    0.307531
   9 H :    0.312123
Sum of atomic charges:    0.0000000

LOEWDIN ATOMIC CHARGES
----------------------
   0 C :   -0.093429
   1 C :   -0.155106
   2 H :    0.118568
   3 H :    0.121529
   4 C :   -0.492759
   5 O :    0.075798
   6 F :    0.210064
   7 H :    0.076028
   8 H :    0.070251
   9 H :    0.069057

  Mayer bond orders larger than 0.100000
B(  0-C ,  1-C ) :   0.5474 B(  0-C ,  7-H ) :   0.9377 B(  0-C ,  8-H ) :   0.9655
B(  0-C ,  9-H ) :   0.9714 B(  1-C ,  2-H ) :   1.0008 B(  1-C ,  3-H ) :   0.9294
B(  1-C ,  4-C ) :   0.9135 B(  4-C ,  5-O ) :   1.7613 B(  4-C ,  6-F ) :   1.0242

FINAL SINGLE POINT ENERGY      -292.403778553393

DIPOLE MOMENT
-------------
                                X             Y             Z
Electronic contribution:      5.31518      -2.83006       5.09110
Nuclear contribution   :     -6.57765       2.82334      -5.39171
                        -----------------------------------------
Total Dipole Moment    :     -1.26247      -0.00672      -0.30061
                        -----------------------------------------
Magnitude (a.u.)       :      1.29778
Magnitude (Debye)      :      3.29870

Rotational constants in cm-1:     0.294245     0.132994     0.101060
Rotational constants in MHz :  8821.228602  3987.049251  3029.696815

                             ****ORCA TERMINATED NORMALLY****
TOTAL RUN TIME: 0 days 0 hours 0 minutes 45 seconds 550 msec
