                         Program Version 5.0.0 -  RELEASE  -
|  1> !CAM-B3LYP RIJCOSX def2-TZVPD def2/J TightSCF
|  2> *xyz 0 1
|  3> C          4.60295       -2.44010        2.63478
|  4> C          3.86085       -1.59157        3.62289
|  5> N          2.75650       -2.04616        4.16633
|  6> C          4.25433       -0.36291        3.86046
|  7> H          3.56526        0.31099        4.16898
|  8> H          5.05429       -0.01606        3.33784
|  9> H          2.43970       -2.97389        3.89740
| 10> H          2.06687       -1.41253        4.54981
| 11> C          3.74469       -2.58056        1.36188
| 12> H          5.56156       -1.97135        2.40708
| 13> H          4.81050       -3.42255        3.06310
| 14> H          4.26314       -3.18477        0.64702
| 15> H          3.56325       -1.61180        0.94535
| 16> H          2.81197       -3.04259        1.60980
| 17> *
| 18>
| 19> %MaxCore 64000
| 20>
| 21> %pal nprocs 4
| 22> end
| 23>
| 24> %scf
| 25>   MaxIter 150
| 26> end
| 27>
| 28>
| 29>                          ****END OF INPUT****

CARTESIAN COORDINATES (ANGSTROEM)
---------------------------------
  C      4.602950   -2.440100    2.634780
  C      3.860850   -1.591570    3.622890
  N      2.756500   -2.046160    4.166330
  C      4.254330   -0.362910    3.860460
  H      3.565260    0.310990    4.168980
  H      5.054290   -0.016060    3.337840
  H      2.439700   -2.973890    3.897400
  H      2.066870   -1.412530    4.549810
  C      3.744690   -2.580560    1.361880
  H      5.561560   -1.971350    2.407080
  H      4.810500   -3.422550    3.063100
  H      4.263140   -3.184770    0.647020
  H      3.563250   -1.611800    0.945350
  H      2.811970   -3.042590    1.609800

 Total Charge           Charge          ....    0
 Multiplicity           Mult            ....    1
 Number of Electrons    NEL             ....   40
 Basis Dimension        Dim             ....  266

ORBITAL ENERGIES
----------------

  NO   OCC          E(Eh)            E(eV)
   0   2.0000     -14.390036      -391.5728
   1   2.0000     -10.264420      -279.3091
   2   2.0000     -10.245572      -278.7962
   3   2.0000     -10.231691      -278.4185
   4   2.0000     -10.172527      -276.8085
   5   2.0000      -1.017567       -27.6894
   6   2.0000      -0.863629       -23.5005
   7   2.0000      -0.802128       -21.8270
   8   2.0000      -0.714676       -19.4473
   9   2.0000      -0.644053       -17.5256
  10   2.0000      -0.597860       -16.2686
  11   2.0000      -0.549763       -14.9598
  12   2.0000      -0.509289       -13.8585
  13   2.0000      -0.500002       -13.6057
  14   2.0000      -0.457190       -12.4408
  15   2.0000      -0.448329       -12.1996
  16   2.0000      -0.423407       -11.5215
  17   2.0000      -0.406338       -11.0570
  18   2.0000      -0.391584       -10.6555
  19   2.0000      -0.252062        -6.8589
  20   0.0000       0.029315         0.7977
  21   0.0000       0.055028         1.4974
  22   0.0000       0.061401         1.6708
  23   0.0000       0.065051         1.7701
  24   0.0000       0.082892         2.2556

MULLIKEN ATOMIC CHARGES
-----------------------
   0 C :   -0.483689
   1 C :    0.525067
   2 N :   -0.390354
   3 C :   -0.937302
   4 H :    0.267024
   5 H :    0.256095
   6 H :    0.183488
   7 H :    0.159227
   8 C :   -1.034950
   9 H :    0.247409
  10 H :    0.286959
  11 H :    0.301454
  12 H :    0.312586
  13 H :    0.306984
Sum of atomic charges:   -0.0000000

LOEWDIN ATOMIC CHARGES
----------------------
   0 C :   -0.194191
   1 C :   -0.511463
   2 N :    0.102549
   3 C :    0.013892
   4 H :    0.023190
   5 H :    0.022225
   6 H :    0.106778
   7 H :    0.114285
   8 C :   -0.091881
   9 H :    0.109706
  10 H :    0.109704
  11 H :    0.063735
  12 H :    0.074300
  13 H :    0.057172

  Mayer bond orders larger than 0.100000
B(  0-C ,  1-C ) :   0.7883 B(  0-C ,  8-C ) :   0.6141 B(  0-C ,  9-H ) :   0.9778
B(  0-C , 10-H ) :   0.9808 B(  1-C ,  2-N ) :   0.9441 B(  1-C ,  3-C ) :   1.4233
B(  2-N ,  6-H ) :   0.9767 B(  2-N ,  7-H ) :   1.0065 B(  3-C ,  4-H ) :   1.0388
B(  3-C ,  5-H ) :   1.0152 B(  8-C , 11-H ) :   0.9731 B(  8-C , 12-H ) :   1.0062
B(  8-C , 13-H ) :   0.9399

FINAL SINGLE POINT ENERGY      -212.519861614468

DIPOLE MOMENT
-------------
                                X             Y             Z
Electronic contribution:     -0.48051       0.31085       2.80860
Nuclear contribution   :     -0.12319      -0.83296      -3.13501
                        -----------------------------------------
Total Dipole Moment    :     -0.60370      -0.52211      -0.32640
                        -----------------------------------------
Magnitude (a.u.)       :      0.86232
Magnitude (Debye)      :      2.19184

Rotational constants in cm-1:     0.266453     0.134423     0.106086
Rotational constants in MHz :  7988.053142  4029.892766  3180.375228

                             ****ORCA TERMINATED NORMALLY****
TOTAL RUN TIME: 0 days 0 hours 1 minutes 3 seconds 33 msec
