                         Program Version 5.0.0 -  RELEASE  -
|  1> !CAM-B3LYP RIJCOSX def2-TZVPD def2/J TightSCF xyzfile
|  2>
|  3> *xyzfile 0 1 D1.xyz
|  4>
|  5> %MaxCore 64000
|  6>
|  7> %pal nprocs 4
|  8> end
|  9>
| 10> %scf
| 11>   MaxIter 150
| 12> end
| 13>
| 14>
| 15>                          ****END OF INPUT****

CARTESIAN COORDINATES (ANGSTROEM)
---------------------------------
  C      4.602954   -2.440100    2.634780
  C     -0.914947    0.615112    2.505538
  C     -0.059146    1.503524    3.410578
  H      0.365364    2.344315    2.861161
  H     -0.692261    1.920207    4.198985
  C      1.083027    0.749640    4.085705
  C      3.860851   -1.591565    3.622893
  C      2.756502   -2.046159    4.166333
  N      4.254325   -0.362905    3.860455
  H      3.565256    0.310994    4.168983
  H      5.054292   -0.016059    3.337838
  H      2.439696   -2.973894    3.897395
  H      2.066869   -1.412532    4.549813
  F      2.228167    1.263475    4.019826
  O      0.810034   -0.345411    4.636269
  C      3.744685   -2.580557    1.361882
  C      0.772139    0.636882    0.562129
  C     -0.130740   -0.193985    1.470763
  H     -0.840563   -0.760165    0.856377
  H      0.466691   -0.938942    2.006959
  H     -1.647961    1.245963    1.991076
  H     -1.478180   -0.081046    3.130424
  C      3.203721   -1.256004    0.826211
  H      2.898939   -3.239289    1.583074
  H      4.334962   -3.095523    0.600188
  C      2.107815   -1.442385   -0.216865
  H      2.786775   -0.672760    1.650711
  H      4.021008   -0.652993    0.414046
  C      1.390662   -0.145912   -0.602422
  H      1.372179   -2.152184    0.176151
  H      2.523302   -1.906787   -1.117115
  H      1.561361    1.100094    1.161831
  H      0.195516    1.468325    0.142758
  H      0.602893   -0.398214   -1.319716
  H      2.087247    0.508272   -1.137335
  H      5.561557   -1.971347    2.407084
  H      4.810498   -3.422552    3.063099

 Total Charge           Charge          ....    0
 Multiplicity           Mult            ....    1
 Number of Electrons    NEL             ....  118
 Basis Dimension        Dim             ....  759

ORBITAL ENERGIES
----------------

  NO   OCC          E(Eh)            E(eV)
   0   2.0000     -24.853659      -676.3024
   1   2.0000     -19.219272      -522.9830
   2   2.0000     -14.365805      -390.9134
   3   2.0000     -10.442764      -284.1621
   4   2.0000     -10.282205      -279.7930
   5   2.0000     -10.259532      -279.1761
   6   2.0000     -10.243839      -278.7490
   7   2.0000     -10.243570      -278.7417
   8   2.0000     -10.241416      -278.6831
   9   2.0000     -10.238742      -278.6103
  10   2.0000     -10.232307      -278.4352
  11   2.0000     -10.230729      -278.3923
  12   2.0000     -10.230521      -278.3866
  13   2.0000     -10.228359      -278.3278
  14   2.0000     -10.138529      -275.8834
  15   2.0000      -1.431976       -38.9660
  16   2.0000      -1.136894       -30.9365
  17   2.0000      -0.999799       -27.2059
  18   2.0000      -0.916281       -24.9333
  19   2.0000      -0.890417       -24.2295
  20   2.0000      -0.864809       -23.5327
  21   2.0000      -0.826920       -22.5016
  22   2.0000      -0.801895       -21.8207
  23   2.0000      -0.771708       -20.9993
  24   2.0000      -0.757389       -20.6096
  25   2.0000      -0.727262       -19.7898
  26   2.0000      -0.691618       -18.8199
  27   2.0000      -0.668364       -18.1871
  28   2.0000      -0.653270       -17.7764
  29   2.0000      -0.644534       -17.5387
  30   2.0000      -0.630149       -17.1472
  31   2.0000      -0.613919       -16.7056
  32   2.0000      -0.600490       -16.3402
  33   2.0000      -0.570239       -15.5170
  34   2.0000      -0.555208       -15.1080
  35   2.0000      -0.551900       -15.0180
  36   2.0000      -0.541951       -14.7472
  37   2.0000      -0.522623       -14.2213
  38   2.0000      -0.515584       -14.0297
  39   2.0000      -0.497325       -13.5329
  40   2.0000      -0.494157       -13.4467
  41   2.0000      -0.478651       -13.0248
  42   2.0000      -0.472887       -12.8679
  43   2.0000      -0.458848       -12.4859
  44   2.0000      -0.454734       -12.3739
  45   2.0000      -0.440625       -11.9900
  46   2.0000      -0.436731       -11.8841
  47   2.0000      -0.428168       -11.6510
  48   2.0000      -0.419073       -11.4036
  49   2.0000      -0.410305       -11.1650
  50   2.0000      -0.407714       -11.0945
  51   2.0000      -0.399664       -10.8754
  52   2.0000      -0.389110       -10.5882
  53   2.0000      -0.385068       -10.4782
  54   2.0000      -0.376389       -10.2421
  55   2.0000      -0.373464       -10.1625
  56   2.0000      -0.366838        -9.9822
  57   2.0000      -0.341977        -9.3057
  58   2.0000      -0.228322        -6.2130
  59   0.0000       0.000131         0.0036
  60   0.0000       0.023995         0.6529
  61   0.0000       0.037607         1.0233
  62   0.0000       0.040102         1.0912
  63   0.0000       0.043500         1.1837

MULLIKEN ATOMIC CHARGES
-----------------------
   0 C :   -0.802829
   1 C :   -0.667263
   2 C :   -0.555926
   3 H :    0.322312
   4 H :    0.332733
   5 C :    0.671154
   6 C :    0.049750
   7 C :   -1.291186
   8 N :   -0.308109
   9 H :    0.331883
  10 H :    0.194851
  11 H :    0.316469
  12 H :    0.721470
  13 F :   -0.326163
  14 O :   -0.550611
  15 C :   -0.659144
  16 C :   -0.399926
  17 C :   -0.532949
  18 H :    0.355520
  19 H :    0.267124
  20 H :    0.313620
  21 H :    0.297259
  22 C :    0.139786
  23 H :    0.280651
  24 H :    0.334530
  25 C :   -0.677437
  26 H :   -0.019050
  27 H :    0.222683
  28 C :   -0.802856
  29 H :    0.268972
  30 H :    0.346041
  31 H :    0.296746
  32 H :    0.307893
  33 H :    0.310231
  34 H :    0.302534
  35 H :    0.338578
  36 H :    0.270659
Sum of atomic charges:   -0.0000000

LOEWDIN ATOMIC CHARGES
----------------------
   0 C :   -0.142995
   1 C :   -0.192563
   2 C :   -0.100203
   3 H :    0.114458
   4 H :    0.130184
   5 C :   -0.437992
   6 C :   -0.497868
   7 C :    0.026747
   8 N :    0.116155
   9 H :    0.068039
  10 H :    0.109442
  11 H :    0.039507
  12 H :   -0.023085
  13 F :    0.192507
  14 O :    0.081182
  15 C :   -0.196189
  16 C :   -0.217616
  17 C :   -0.208219
  18 H :    0.123941
  19 H :    0.107486
  20 H :    0.117509
  21 H :    0.116355
  22 C :   -0.216725
  23 H :    0.109806
  24 H :    0.111235
  25 C :   -0.218482
  26 H :    0.084865
  27 H :    0.125240
  28 C :   -0.209918
  29 H :    0.109060
  30 H :    0.114975
  31 H :    0.101305
  32 H :    0.116770
  33 H :    0.109801
  34 H :    0.110554
  35 H :    0.107489
  36 H :    0.117241

  Mayer bond orders larger than 0.100000
B(  0-C ,  6-C ) :   0.6422 B(  0-C , 15-C ) :   0.7487 B(  0-C , 35-H ) :   0.9712
B(  0-C , 36-H ) :   1.0306 B(  1-C ,  2-C ) :   0.7860 B(  1-C , 17-C ) :   0.8372
B(  1-C , 20-H ) :   0.9591 B(  1-C , 21-H ) :   0.9514 B(  2-C ,  3-H ) :   0.9924
B(  2-C ,  4-H ) :   0.8779 B(  2-C ,  5-C ) :   0.8662 B(  2-C , 16-C ) :   0.1227
B(  5-C , 13-F ) :   0.8003 B(  5-C , 14-O ) :   1.6875 B(  6-C ,  7-C ) :   1.6286
B(  6-C ,  8-N ) :   1.0680 B(  6-C , 12-H ) :  -0.1292 B(  6-C , 35-H ) :  -0.1148
B(  7-C , 11-H ) :   1.1054 B(  7-C , 12-H ) :   0.6436 B(  8-N ,  9-H ) :   0.7760
B(  8-N , 10-H ) :   0.9122 B( 12-H , 14-O ) :  -0.2383 B( 15-C , 22-C ) :   0.5400
B( 15-C , 23-H ) :   0.9423 B( 15-C , 24-H ) :   0.9442 B( 15-C , 25-C ) :   0.3243
B( 15-C , 27-H ) :  -0.1109 B( 16-C , 17-C ) :   0.2811 B( 16-C , 19-H ) :  -0.1933
B( 16-C , 22-C ) :   0.1035 B( 16-C , 28-C ) :   0.8331 B( 16-C , 31-H ) :   1.0808
B( 16-C , 32-H ) :   0.8950 B( 17-C , 18-H ) :   0.8338 B( 17-C , 19-H ) :   1.2299
B( 17-C , 28-C ) :   0.1066 B( 17-C , 31-H ) :  -0.1511 B( 22-C , 25-C ) :   0.4207
B( 22-C , 26-H ) :   1.4410 B( 22-C , 27-H ) :   0.9117 B( 25-C , 27-H ) :  -0.1024
B( 25-C , 28-C ) :   0.7983 B( 25-C , 29-H ) :   0.9995 B( 25-C , 30-H ) :   0.9226
B( 26-H , 27-H ) :   0.1251 B( 28-C , 33-H ) :   0.9769 B( 28-C , 34-H ) :   0.9715

FINAL SINGLE POINT ENERGY      -700.204758629526

DIPOLE MOMENT
-------------
                                X             Y             Z
Electronic contribution:      1.16350       7.38323      14.93489
Nuclear contribution   :     -1.66567      -5.90236     -15.95042
                        -----------------------------------------
Total Dipole Moment    :     -0.50216       1.48087      -1.01554
                        -----------------------------------------
Magnitude (a.u.)       :      1.86452
Magnitude (Debye)      :      4.73924

Rotational constants in cm-1:     0.021600     0.017292     0.011381
Rotational constants in MHz :   647.565282   518.410024   341.193038

                             ****ORCA TERMINATED NORMALLY****
TOTAL RUN TIME: 0 days 0 hours 15 minutes 3 seconds 430 msec
