                         Program Version 5.0.0 -  RELEASE  -
|  1> !CAM-B3LYP RIJCOSX def2-TZVPD def2/J TightSCF xyzfile
|  2>
|  3> *xyzfile 0 1 D2.xyz
|  4>
|  5> %MaxCore 64000
|  6>
|  7> %pal nprocs 4
|  8> end
|  9>
| 10> %scf
| 11>   MaxIter 150
| 12> end
| 13>
| 14>
| 15>                          ****END OF INPUT****

CARTESIAN COORDINATES (ANGSTROEM)
---------------------------------
  C      4.602954   -2.440100    2.634780
  C     -0.914947    0.615112    2.505538
  C     -0.059146    1.503524    3.410578
  H      0.365364    2.344315    2.861161
  H     -0.692261    1.920207    4.198985
  C      1.083027    0.749640    4.085705
  C      3.860851   -1.591565    3.622893
  N      2.756502   -2.046159    4.166333
  C      4.254325   -0.362905    3.860455
  H      3.565256    0.310994    4.168983
  H      5.054292   -0.016059    3.337838
  H      2.439696   -2.973894    3.897395
  H      2.066869   -1.412532    4.549813
  F      2.228167    1.263475    4.019826
  O      0.810034   -0.345411    4.636269
  C      3.744685   -2.580557    1.361882
  C      0.772139    0.636882    0.562129
  C     -0.130740   -0.193985    1.470763
  H     -0.840563   -0.760165    0.856377
  H      0.466691   -0.938942    2.006959
  H     -1.647961    1.245963    1.991076
  H     -1.478180   -0.081046    3.130424
  C      3.203721   -1.256004    0.826211
  H      2.898939   -3.239289    1.583074
  H      4.334962   -3.095523    0.600188
  C      2.107815   -1.442385   -0.216865
  H      2.786775   -0.672760    1.650711
  H      4.021008   -0.652993    0.414046
  C      1.390662   -0.145912   -0.602422
  H      1.372179   -2.152184    0.176151
  H      2.523302   -1.906787   -1.117115
  H      1.561361    1.100094    1.161831
  H      0.195516    1.468325    0.142758
  H      0.602893   -0.398214   -1.319716
  H      2.087247    0.508272   -1.137335
  H      5.561557   -1.971347    2.407084
  H      4.810498   -3.422552    3.063099

 Total Charge           Charge          ....    0
 Multiplicity           Mult            ....    1
 Number of Electrons    NEL             ....  118
 Basis Dimension        Dim             ....  759

ORBITAL ENERGIES
----------------

  NO   OCC          E(Eh)            E(eV)
   0   2.0000     -24.844048      -676.0409
   1   2.0000     -19.230314      -523.2835
   2   2.0000     -14.354124      -390.5956
   3   2.0000     -10.450248      -284.3657
   4   2.0000     -10.285112      -279.8721
   5   2.0000     -10.263077      -279.2725
   6   2.0000     -10.247411      -278.8462
   7   2.0000     -10.244679      -278.7719
   8   2.0000     -10.244248      -278.7602
   9   2.0000     -10.239251      -278.6242
  10   2.0000     -10.234029      -278.4821
  11   2.0000     -10.232807      -278.4488
  12   2.0000     -10.229973      -278.3717
  13   2.0000     -10.226739      -278.2837
  14   2.0000     -10.147087      -276.1163
  15   2.0000      -1.423935       -38.7473
  16   2.0000      -1.147232       -31.2178
  17   2.0000      -0.992452       -27.0060
  18   2.0000      -0.919043       -25.0084
  19   2.0000      -0.891117       -24.2485
  20   2.0000      -0.864025       -23.5113
  21   2.0000      -0.828699       -22.5500
  22   2.0000      -0.797411       -21.6987
  23   2.0000      -0.783798       -21.3282
  24   2.0000      -0.750288       -20.4164
  25   2.0000      -0.728611       -19.8265
  26   2.0000      -0.690855       -18.7991
  27   2.0000      -0.663995       -18.0682
  28   2.0000      -0.646935       -17.6040
  29   2.0000      -0.639933       -17.4135
  30   2.0000      -0.632470       -17.2104
  31   2.0000      -0.624463       -16.9925
  32   2.0000      -0.601112       -16.3571
  33   2.0000      -0.571535       -15.5523
  34   2.0000      -0.558631       -15.2011
  35   2.0000      -0.551371       -15.0036
  36   2.0000      -0.534464       -14.5435
  37   2.0000      -0.525033       -14.2869
  38   2.0000      -0.514894       -14.0110
  39   2.0000      -0.504629       -13.7316
  40   2.0000      -0.493951       -13.4411
  41   2.0000      -0.479633       -13.0515
  42   2.0000      -0.476596       -12.9688
  43   2.0000      -0.463683       -12.6175
  44   2.0000      -0.449529       -12.2323
  45   2.0000      -0.441954       -12.0262
  46   2.0000      -0.437360       -11.9012
  47   2.0000      -0.434218       -11.8157
  48   2.0000      -0.419354       -11.4112
  49   2.0000      -0.414918       -11.2905
  50   2.0000      -0.408701       -11.1213
  51   2.0000      -0.395651       -10.7662
  52   2.0000      -0.388914       -10.5829
  53   2.0000      -0.385497       -10.4899
  54   2.0000      -0.379456       -10.3255
  55   2.0000      -0.376756       -10.2520
  56   2.0000      -0.367446        -9.9987
  57   2.0000      -0.358275        -9.7492
  58   2.0000      -0.229847        -6.2544
  59   0.0000      -0.004928        -0.1341
  60   0.0000       0.025444         0.6924
  61   0.0000       0.034670         0.9434
  62   0.0000       0.039720         1.0808
  63   0.0000       0.043724         1.1898

MULLIKEN ATOMIC CHARGES
-----------------------
   0 C :   -0.750818
   1 C :   -0.670979
   2 C :   -0.522848
   3 H :    0.325542
   4 H :    0.329304
   5 C :    0.674306
   6 C :    0.101651
   7 N :   -0.292413
   8 C :   -1.120094
   9 H :    0.535067
  10 H :    0.269307
  11 H :    0.186251
  12 H :    0.314864
  13 F :   -0.286796
  14 O :   -0.638305
  15 C :   -0.693233
  16 C :   -0.415208
  17 C :   -0.538545
  18 H :    0.361680
  19 H :    0.259550
  20 H :    0.322223
  21 H :    0.288316
  22 C :    0.222510
  23 H :    0.282581
  24 H :    0.313199
  25 C :   -0.668363
  26 H :   -0.064039
  27 H :    0.243304
  28 C :   -0.792657
  29 H :    0.274760
  30 H :    0.321658
  31 H :    0.311736
  32 H :    0.312859
  33 H :    0.309933
  34 H :    0.300970
  35 H :    0.286442
  36 H :    0.306287
Sum of atomic charges:   -0.0000000

LOEWDIN ATOMIC CHARGES
----------------------
   0 C :   -0.143762
   1 C :   -0.193329
   2 C :   -0.097220
   3 H :    0.116752
   4 H :    0.131225
   5 C :   -0.431791
   6 C :   -0.500346
   7 N :    0.130389
   8 C :    0.016351
   9 H :   -0.003452
  10 H :    0.032011
  11 H :    0.112276
  12 H :    0.041210
  13 F :    0.189496
  14 O :    0.081553
  15 C :   -0.196090
  16 C :   -0.216284
  17 C :   -0.210074
  18 H :    0.123759
  19 H :    0.104903
  20 H :    0.118144
  21 H :    0.115538
  22 C :   -0.213327
  23 H :    0.103975
  24 H :    0.112831
  25 C :   -0.220839
  26 H :    0.085398
  27 H :    0.129956
  28 C :   -0.209220
  29 H :    0.106905
  30 H :    0.114498
  31 H :    0.103434
  32 H :    0.117173
  33 H :    0.109591
  34 H :    0.111460
  35 H :    0.113995
  36 H :    0.112912

  Mayer bond orders larger than 0.100000
B(  0-C ,  6-C ) :   0.6942 B(  0-C , 15-C ) :   0.7435 B(  0-C , 35-H ) :   0.9189
B(  0-C , 36-H ) :   1.0690 B(  1-C ,  2-C ) :   0.7917 B(  1-C , 17-C ) :   0.8385
B(  1-C , 20-H ) :   0.9464 B(  1-C , 21-H ) :   0.9579 B(  2-C ,  3-H ) :   0.9819
B(  2-C ,  4-H ) :   0.8739 B(  2-C ,  5-C ) :   0.8771 B(  2-C , 16-C ) :   0.1250
B(  5-C , 13-F ) :   0.8642 B(  5-C , 14-O ) :   1.5526 B(  6-C ,  7-N ) :   0.9176
B(  6-C ,  8-C ) :   1.8321 B(  6-C ,  9-H ) :  -0.1220 B(  6-C , 10-H ) :  -0.1238
B(  7-N , 11-H ) :   0.9344 B(  7-N , 12-H ) :   0.7765 B(  8-C ,  9-H ) :   0.7589
B(  8-C , 10-H ) :   1.1606 B(  8-C , 26-H ) :  -0.1523 B( 13-F , 14-O ) :   0.1019
B( 15-C , 22-C ) :   0.5077 B( 15-C , 23-H ) :   0.9458 B( 15-C , 24-H ) :   0.9623
B( 15-C , 25-C ) :   0.3045 B( 15-C , 27-H ) :  -0.1068 B( 16-C , 17-C ) :   0.2781
B( 16-C , 19-H ) :  -0.1856 B( 16-C , 22-C ) :   0.1020 B( 16-C , 28-C ) :   0.8399
B( 16-C , 31-H ) :   1.0749 B( 16-C , 32-H ) :   0.8911 B( 17-C , 18-H ) :   0.8282
B( 17-C , 19-H ) :   1.2250 B( 17-C , 28-C ) :   0.1075 B( 17-C , 31-H ) :  -0.1551
B( 22-C , 25-C ) :   0.4522 B( 22-C , 26-H ) :   1.4545 B( 22-C , 27-H ) :   0.8568
B( 25-C , 28-C ) :   0.7939 B( 25-C , 29-H ) :   0.9931 B( 25-C , 30-H ) :   0.9534
B( 26-H , 27-H ) :   0.1798 B( 28-C , 33-H ) :   0.9796 B( 28-C , 34-H ) :   0.9715

FINAL SINGLE POINT ENERGY      -700.214973405269

DIPOLE MOMENT
-------------
                                X             Y             Z
Electronic contribution:      0.05910       6.26200      15.10164
Nuclear contribution   :     -1.39991      -5.60370     -16.00470
                        -----------------------------------------
Total Dipole Moment    :     -1.34081       0.65830      -0.90306
                        -----------------------------------------
Magnitude (a.u.)       :      1.74546
Magnitude (Debye)      :      4.43661

Rotational constants in cm-1:     0.021622     0.017313     0.011402
Rotational constants in MHz :   648.226014   519.043632   341.814105

                             ****ORCA TERMINATED NORMALLY****
TOTAL RUN TIME: 0 days 0 hours 14 minutes 8 seconds 302 msec
