                         Program Version 5.0.0 -  RELEASE  -
|  1> !CAM-B3LYP RIJCOSX def2-TZVPD def2/J TightSCF xyzfile
|  2>
|  3> *xyzfile 0 1 D3.xyz
|  4>
|  5> %MaxCore 64000
|  6>
|  7> %pal nprocs 4
|  8> end
|  9>
| 10> %scf
| 11>   MaxIter 150
| 12> end
| 13>
| 14>
| 15>                          ****END OF INPUT****

CARTESIAN COORDINATES (ANGSTROEM)
---------------------------------
  C      4.602954   -2.440100    2.634780
  C     -0.914947    0.615112    2.505538
  C     -0.059146    1.503524    3.410578
  H      0.365364    2.344315    2.861161
  H     -0.692261    1.920207    4.198985
  C      1.083027    0.749640    4.085705
  C      3.860851   -1.591565    3.622893
  C      2.756502   -2.046159    4.166333
  N      4.254325   -0.362905    3.860455
  H      3.565256    0.310994    4.168983
  H      5.054292   -0.016059    3.337838
  H      2.439696   -2.973894    3.897395
  H      2.066869   -1.412532    4.549813
  O      2.228167    1.263475    4.019826
  F      0.810034   -0.345411    4.636269
  C      3.744685   -2.580557    1.361882
  C      0.772139    0.636882    0.562129
  C     -0.130740   -0.193985    1.470763
  H     -0.840563   -0.760165    0.856377
  H      0.466691   -0.938942    2.006959
  H     -1.647961    1.245963    1.991076
  H     -1.478180   -0.081046    3.130424
  C      3.203721   -1.256004    0.826211
  H      2.898939   -3.239289    1.583074
  H      4.334962   -3.095523    0.600188
  C      2.107815   -1.442385   -0.216865
  H      2.786775   -0.672760    1.650711
  H      4.021008   -0.652993    0.414046
  C      1.390662   -0.145912   -0.602422
  H      1.372179   -2.152184    0.176151
  H      2.523302   -1.906787   -1.117115
  H      1.561361    1.100094    1.161831
  H      0.195516    1.468325    0.142758
  H      0.602893   -0.398214   -1.319716
  H      2.087247    0.508272   -1.137335
  H      5.561557   -1.971347    2.407084
  H      4.810498   -3.422552    3.063099

 Total Charge           Charge          ....    0
 Multiplicity           Mult            ....    1
 Number of Electrons    NEL             ....  118
 Basis Dimension        Dim             ....  759

ORBITAL ENERGIES
----------------

  NO   OCC          E(Eh)            E(eV)
   0   2.0000     -24.843375      -676.0226
   1   2.0000     -19.228963      -523.2467
   2   2.0000     -14.351973      -390.5370
   3   2.0000     -10.448786      -284.3259
   4   2.0000     -10.283384      -279.8251
   5   2.0000     -10.264545      -279.3125
   6   2.0000     -10.248357      -278.8720
   7   2.0000     -10.244098      -278.7561
   8   2.0000     -10.241866      -278.6953
   9   2.0000     -10.237612      -278.5796
  10   2.0000     -10.231518      -278.4138
  11   2.0000     -10.230352      -278.3820
  12   2.0000     -10.230098      -278.3751
  13   2.0000     -10.225907      -278.2611
  14   2.0000     -10.146552      -276.1017
  15   2.0000      -1.423741       -38.7420
  16   2.0000      -1.144429       -31.1415
  17   2.0000      -0.991093       -26.9690
  18   2.0000      -0.920142       -25.0383
  19   2.0000      -0.890602       -24.2345
  20   2.0000      -0.863488       -23.4967
  21   2.0000      -0.827575       -22.5195
  22   2.0000      -0.794393       -21.6165
  23   2.0000      -0.776409       -21.1272
  24   2.0000      -0.750403       -20.4195
  25   2.0000      -0.728851       -19.8331
  26   2.0000      -0.693114       -18.8606
  27   2.0000      -0.667536       -18.1646
  28   2.0000      -0.647832       -17.6284
  29   2.0000      -0.644147       -17.5281
  30   2.0000      -0.631735       -17.1904
  31   2.0000      -0.617619       -16.8063
  32   2.0000      -0.594913       -16.1884
  33   2.0000      -0.565427       -15.3861
  34   2.0000      -0.557038       -15.1578
  35   2.0000      -0.551181       -14.9984
  36   2.0000      -0.539463       -14.6795
  37   2.0000      -0.519384       -14.1332
  38   2.0000      -0.515258       -14.0209
  39   2.0000      -0.501523       -13.6471
  40   2.0000      -0.493260       -13.4223
  41   2.0000      -0.479423       -13.0458
  42   2.0000      -0.477275       -12.9873
  43   2.0000      -0.459881       -12.5140
  44   2.0000      -0.453953       -12.3527
  45   2.0000      -0.443546       -12.0695
  46   2.0000      -0.439480       -11.9589
  47   2.0000      -0.431988       -11.7550
  48   2.0000      -0.419504       -11.4153
  49   2.0000      -0.409067       -11.1313
  50   2.0000      -0.406316       -11.0564
  51   2.0000      -0.400117       -10.8877
  52   2.0000      -0.388215       -10.5639
  53   2.0000      -0.383766       -10.4428
  54   2.0000      -0.376271       -10.2388
  55   2.0000      -0.373734       -10.1698
  56   2.0000      -0.365586        -9.9481
  57   2.0000      -0.358122        -9.7450
  58   2.0000      -0.228401        -6.2151
  59   0.0000      -0.000743        -0.0202
  60   0.0000       0.025096         0.6829
  61   0.0000       0.037808         1.0288
  62   0.0000       0.039976         1.0878
  63   0.0000       0.044231         1.2036

MULLIKEN ATOMIC CHARGES
-----------------------
   0 C :   -0.789170
   1 C :   -0.737140
   2 C :   -0.462124
   3 H :    0.286922
   4 H :    0.347202
   5 C :    0.646964
   6 C :    0.095390
   7 C :   -1.254335
   8 N :   -0.301348
   9 H :    0.328227
  10 H :    0.187894
  11 H :    0.326207
  12 H :    0.622683
  13 O :   -0.616858
  14 F :   -0.299381
  15 C :   -0.663084
  16 C :   -0.422058
  17 C :   -0.441512
  18 H :    0.350008
  19 H :    0.223884
  20 H :    0.313849
  21 H :    0.301567
  22 C :    0.145689
  23 H :    0.275748
  24 H :    0.329439
  25 C :   -0.673543
  26 H :   -0.003379
  27 H :    0.217373
  28 C :   -0.790881
  29 H :    0.263406
  30 H :    0.344014
  31 H :    0.311540
  32 H :    0.314788
  33 H :    0.307039
  34 H :    0.302583
  35 H :    0.337262
  36 H :    0.275137
Sum of atomic charges:    0.0000000

LOEWDIN ATOMIC CHARGES
----------------------
   0 C :   -0.141351
   1 C :   -0.197478
   2 C :   -0.094137
   3 H :    0.123141
   4 H :    0.129336
   5 C :   -0.435254
   6 C :   -0.495627
   7 C :    0.020303
   8 N :    0.119510
   9 H :    0.041553
  10 H :    0.110022
  11 H :    0.035123
  12 H :   -0.004740
  13 O :    0.078510
  14 F :    0.192119
  15 C :   -0.196748
  16 C :   -0.214746
  17 C :   -0.209453
  18 H :    0.123536
  19 H :    0.106258
  20 H :    0.117784
  21 H :    0.113441
  22 C :   -0.215401
  23 H :    0.108611
  24 H :    0.111234
  25 C :   -0.219217
  26 H :    0.086197
  27 H :    0.126366
  28 C :   -0.209595
  29 H :    0.107905
  30 H :    0.114742
  31 H :    0.104604
  32 H :    0.117280
  33 H :    0.109125
  34 H :    0.111250
  35 H :    0.108677
  36 H :    0.117117

  Mayer bond orders larger than 0.100000
B(  0-C ,  6-C ) :   0.6618 B(  0-C , 15-C ) :   0.7480 B(  0-C , 35-H ) :   0.9631
B(  0-C , 36-H ) :   1.0323 B(  1-C ,  2-C ) :   0.7385 B(  1-C , 17-C ) :   0.7592
B(  1-C , 20-H ) :   0.9527 B(  1-C , 21-H ) :   0.9852 B(  2-C ,  3-H ) :   1.0154
B(  2-C ,  4-H ) :   0.8837 B(  2-C ,  5-C ) :   0.8662 B(  2-C , 16-C ) :   0.1271
B(  2-C , 17-C ) :  -0.1170 B(  5-C , 13-O ) :   1.6004 B(  5-C , 14-F ) :   0.8597
B(  6-C ,  7-C ) :   1.6349 B(  6-C ,  8-N ) :   1.0581 B(  6-C , 35-H ) :  -0.1056
B(  7-C , 11-H ) :   1.0821 B(  7-C , 12-H ) :   0.6691 B(  8-N ,  9-H ) :   0.7949
B(  8-N , 10-H ) :   0.9080 B( 15-C , 22-C ) :   0.5364 B( 15-C , 23-H ) :   0.9454
B( 15-C , 24-H ) :   0.9463 B( 15-C , 25-C ) :   0.3220 B( 15-C , 27-H ) :  -0.1113
B( 16-C , 17-C ) :   0.3247 B( 16-C , 19-H ) :  -0.1719 B( 16-C , 28-C ) :   0.8148
B( 16-C , 31-H ) :   1.0718 B( 16-C , 32-H ) :   0.8846 B( 17-C , 18-H ) :   0.8630
B( 17-C , 19-H ) :   1.2047 B( 17-C , 28-C ) :   0.1028 B( 17-C , 31-H ) :  -0.1347
B( 22-C , 25-C ) :   0.4053 B( 22-C , 26-H ) :   1.4380 B( 22-C , 27-H ) :   0.9016
B( 25-C , 27-H ) :  -0.1018 B( 25-C , 28-C ) :   0.7962 B( 25-C , 29-H ) :   1.0046
B( 25-C , 30-H ) :   0.9240 B( 26-H , 27-H ) :   0.1447 B( 28-C , 33-H ) :   0.9820
B( 28-C , 34-H ) :   0.9687

FINAL SINGLE POINT ENERGY      -700.216005328870

DIPOLE MOMENT
-------------
                                X             Y             Z
Electronic contribution:     -1.24826       4.75480      15.93628
Nuclear contribution   :      0.05905      -3.94566     -16.70013
                        -----------------------------------------
Total Dipole Moment    :     -1.18921       0.80914      -0.76386
                        -----------------------------------------
Magnitude (a.u.)       :      1.62862
Magnitude (Debye)      :      4.13963

Rotational constants in cm-1:     0.021602     0.017295     0.011353
Rotational constants in MHz :   647.614981   518.478934   340.359556

                             ****ORCA TERMINATED NORMALLY****
TOTAL RUN TIME: 0 days 0 hours 14 minutes 1 seconds 21 msec
