                         Program Version 5.0.0 -  RELEASE  -
|  1> !CAM-B3LYP RIJCOSX def2-TZVPD def2/J TightSCF xyzfile
|  2>
|  3> *xyzfile 0 1 D4.xyz
|  4>
|  5> %MaxCore 64000
|  6>
|  7> %pal nprocs 4
|  8> end
|  9>
| 10> %scf
| 11>   MaxIter 150
| 12> end
| 13>
| 14>
| 15>                          ****END OF INPUT****

CARTESIAN COORDINATES (ANGSTROEM)
---------------------------------
  C      4.602954   -2.440100    2.634780
  C     -0.914947    0.615112    2.505538
  C     -0.059146    1.503524    3.410578
  H      0.365364    2.344315    2.861161
  H     -0.692261    1.920207    4.198985
  C      1.083027    0.749640    4.085705
  C      3.860851   -1.591565    3.622893
  N      2.756502   -2.046159    4.166333
  C      4.254325   -0.362905    3.860455
  H      3.565256    0.310994    4.168983
  H      5.054292   -0.016059    3.337838
  H      2.439696   -2.973894    3.897395
  H      2.066869   -1.412532    4.549813
  O      2.228167    1.263475    4.019826
  F      0.810034   -0.345411    4.636269
  C      3.744685   -2.580557    1.361882
  C      0.772139    0.636882    0.562129
  C     -0.130740   -0.193985    1.470763
  H     -0.840563   -0.760165    0.856377
  H      0.466691   -0.938942    2.006959
  H     -1.647961    1.245963    1.991076
  H     -1.478180   -0.081046    3.130424
  C      3.203721   -1.256004    0.826211
  H      2.898939   -3.239289    1.583074
  H      4.334962   -3.095523    0.600188
  C      2.107815   -1.442385   -0.216865
  H      2.786775   -0.672760    1.650711
  H      4.021008   -0.652993    0.414046
  C      1.390662   -0.145912   -0.602422
  H      1.372179   -2.152184    0.176151
  H      2.523302   -1.906787   -1.117115
  H      1.561361    1.100094    1.161831
  H      0.195516    1.468325    0.142758
  H      0.602893   -0.398214   -1.319716
  H      2.087247    0.508272   -1.137335
  H      5.561557   -1.971347    2.407084
  H      4.810498   -3.422552    3.063099

 Total Charge           Charge          ....    0
 Multiplicity           Mult            ....    1
 Number of Electrons    NEL             ....  118
 Basis Dimension        Dim             ....  759

ORBITAL ENERGIES
----------------

  NO   OCC          E(Eh)            E(eV)
   0   2.0000     -24.855593      -676.3551
   1   2.0000     -19.220483      -523.0159
   2   2.0000     -14.366962      -390.9449
   3   2.0000     -10.444214      -284.2015
   4   2.0000     -10.282833      -279.8101
   5   2.0000     -10.265628      -279.3419
   6   2.0000     -10.251093      -278.9464
   7   2.0000     -10.241919      -278.6968
   8   2.0000     -10.239529      -278.6318
   9   2.0000     -10.237536      -278.5775
  10   2.0000     -10.232553      -278.4419
  11   2.0000     -10.231623      -278.4166
  12   2.0000     -10.228335      -278.3271
  13   2.0000     -10.224094      -278.2117
  14   2.0000     -10.136927      -275.8398
  15   2.0000      -1.434644       -39.0386
  16   2.0000      -1.137019       -30.9399
  17   2.0000      -0.999160       -27.1885
  18   2.0000      -0.920923       -25.0596
  19   2.0000      -0.890464       -24.2308
  20   2.0000      -0.863969       -23.5098
  21   2.0000      -0.826262       -22.4837
  22   2.0000      -0.799746       -21.7622
  23   2.0000      -0.774587       -21.0776
  24   2.0000      -0.760333       -20.6897
  25   2.0000      -0.727044       -19.7839
  26   2.0000      -0.693511       -18.8714
  27   2.0000      -0.665645       -18.1131
  28   2.0000      -0.659409       -17.9434
  29   2.0000      -0.650298       -17.6955
  30   2.0000      -0.630445       -17.1553
  31   2.0000      -0.617765       -16.8102
  32   2.0000      -0.594682       -16.1821
  33   2.0000      -0.573517       -15.6062
  34   2.0000      -0.559246       -15.2179
  35   2.0000      -0.555061       -15.1040
  36   2.0000      -0.532192       -14.4817
  37   2.0000      -0.517931       -14.0936
  38   2.0000      -0.512236       -13.9386
  39   2.0000      -0.506396       -13.7797
  40   2.0000      -0.490095       -13.3362
  41   2.0000      -0.483988       -13.1700
  42   2.0000      -0.478006       -13.0072
  43   2.0000      -0.458340       -12.4721
  44   2.0000      -0.451392       -12.2830
  45   2.0000      -0.443270       -12.0620
  46   2.0000      -0.440350       -11.9825
  47   2.0000      -0.428668       -11.6647
  48   2.0000      -0.422681       -11.5017
  49   2.0000      -0.414518       -11.2796
  50   2.0000      -0.410379       -11.1670
  51   2.0000      -0.395325       -10.7573
  52   2.0000      -0.388671       -10.5763
  53   2.0000      -0.387069       -10.5327
  54   2.0000      -0.376516       -10.2455
  55   2.0000      -0.372682       -10.1412
  56   2.0000      -0.365622        -9.9491
  57   2.0000      -0.336738        -9.1631
  58   2.0000      -0.228175        -6.2090
  59   0.0000       0.001114         0.0303
  60   0.0000       0.022168         0.6032
  61   0.0000       0.034066         0.9270
  62   0.0000       0.039303         1.0695
  63   0.0000       0.043709         1.1894

MULLIKEN ATOMIC CHARGES
-----------------------
   0 C :   -0.758956
   1 C :   -0.742727
   2 C :   -0.447899
   3 H :    0.284378
   4 H :    0.342641
   5 C :    0.604016
   6 C :    0.056511
   7 N :   -0.309116
   8 C :   -1.131769
   9 H :    0.618642
  10 H :    0.247368
  11 H :    0.193498
  12 H :    0.339471
  13 O :   -0.541857
  14 F :   -0.355885
  15 C :   -0.687582
  16 C :   -0.444594
  17 C :   -0.439203
  18 H :    0.355900
  19 H :    0.209755
  20 H :    0.319300
  21 H :    0.300483
  22 C :    0.212382
  23 H :    0.275343
  24 H :    0.309846
  25 C :   -0.668585
  26 H :   -0.036179
  27 H :    0.243060
  28 C :   -0.779931
  29 H :    0.269086
  30 H :    0.319436
  31 H :    0.328171
  32 H :    0.319153
  33 H :    0.307321
  34 H :    0.301757
  35 H :    0.283034
  36 H :    0.303732
Sum of atomic charges:   -0.0000000

LOEWDIN ATOMIC CHARGES
----------------------
   0 C :   -0.145499
   1 C :   -0.199843
   2 C :   -0.095198
   3 H :    0.124088
   4 H :    0.128562
   5 C :   -0.439884
   6 C :   -0.502247
   7 N :    0.128038
   8 C :    0.020990
   9 H :   -0.023671
  10 H :    0.035689
  11 H :    0.111496
  12 H :    0.066745
  13 O :    0.079835
  14 F :    0.196213
  15 C :   -0.197717
  16 C :   -0.213482
  17 C :   -0.211608
  18 H :    0.123090
  19 H :    0.103319
  20 H :    0.117828
  21 H :    0.112005
  22 C :   -0.211860
  23 H :    0.102401
  24 H :    0.112435
  25 C :   -0.221731
  26 H :    0.087118
  27 H :    0.130920
  28 C :   -0.209097
  29 H :    0.105641
  30 H :    0.114232
  31 H :    0.106563
  32 H :    0.117718
  33 H :    0.108862
  34 H :    0.112038
  35 H :    0.114521
  36 H :    0.111488

  Mayer bond orders larger than 0.100000
B(  0-C ,  6-C ) :   0.6906 B(  0-C , 15-C ) :   0.7388 B(  0-C , 35-H ) :   0.9178
B(  0-C , 36-H ) :   1.0821 B(  1-C ,  2-C ) :   0.7343 B(  1-C , 17-C ) :   0.7637
B(  1-C , 20-H ) :   0.9477 B(  1-C , 21-H ) :   0.9829 B(  2-C ,  3-H ) :   1.0103
B(  2-C ,  4-H ) :   0.8862 B(  2-C ,  5-C ) :   0.8814 B(  2-C , 16-C ) :   0.1298
B(  2-C , 17-C ) :  -0.1255 B(  5-C , 13-O ) :   1.6883 B(  5-C , 14-F ) :   0.7568
B(  6-C ,  7-N ) :   0.9413 B(  6-C ,  8-C ) :   1.8040 B(  6-C ,  9-H ) :  -0.1425
B(  6-C , 10-H ) :  -0.1284 B(  7-N , 11-H ) :   0.9381 B(  7-N , 12-H ) :   0.7558
B(  8-C ,  9-H ) :   0.7518 B(  8-C , 10-H ) :   1.2074 B(  8-C , 26-H ) :  -0.1380
B(  9-H , 13-O ) :  -0.2314 B( 13-O , 14-F ) :   0.1027 B( 15-C , 22-C ) :   0.4930
B( 15-C , 23-H ) :   0.9524 B( 15-C , 24-H ) :   0.9626 B( 15-C , 25-C ) :   0.3029
B( 15-C , 27-H ) :  -0.1059 B( 16-C , 17-C ) :   0.3288 B( 16-C , 19-H ) :  -0.1626
B( 16-C , 28-C ) :   0.8179 B( 16-C , 31-H ) :   1.0619 B( 16-C , 32-H ) :   0.8807
B( 17-C , 18-H ) :   0.8516 B( 17-C , 19-H ) :   1.2018 B( 17-C , 28-C ) :   0.1039
B( 17-C , 31-H ) :  -0.1353 B( 22-C , 25-C ) :   0.4396 B( 22-C , 26-H ) :   1.4504
B( 22-C , 27-H ) :   0.8542 B( 25-C , 28-C ) :   0.7920 B( 25-C , 29-H ) :   0.9969
B( 25-C , 30-H ) :   0.9543 B( 26-H , 27-H ) :   0.1865 B( 28-C , 33-H ) :   0.9833
B( 28-C , 34-H ) :   0.9679

FINAL SINGLE POINT ENERGY      -700.203376223673

DIPOLE MOMENT
-------------
                                X             Y             Z
Electronic contribution:     -2.28313       3.59932      16.17897
Nuclear contribution   :      0.32481      -3.64700     -16.75441
                        -----------------------------------------
Total Dipole Moment    :     -1.95833      -0.04769      -0.57544
                        -----------------------------------------
Magnitude (a.u.)       :      2.04168
Magnitude (Debye)      :      5.18953

Rotational constants in cm-1:     0.021629     0.017327     0.011372
Rotational constants in MHz :   648.414821   519.443407   340.925013

                             ****ORCA TERMINATED NORMALLY****
TOTAL RUN TIME: 0 days 0 hours 14 minutes 2 seconds 543 msec
