                         Program Version 5.0.0 -  RELEASE  -
|  1> !BLYP D3BJ RIJCOSX def2-SVPD def2/J TightSCF
|  2> *xyz -1 1
|  3> C         -0.71189        0.84252       -4.21834
|  4> C         -0.39762       -0.20587       -5.28802
|  5> O          0.61717       -0.00535       -5.99827
|  6> O         -1.13317       -1.22138       -5.34147
|  7> H         -0.00939        1.64646       -4.28960
|  8> H         -0.64409        0.39449       -3.24902
|  9> H         -1.70192        1.21961       -4.36851
| 10> *
| 11>
| 12> %MaxCore 64000
| 13>
| 14> %pal nprocs 4
| 15> end
| 16>
| 17> %scf
| 18>   MaxIter 150
| 19> end
| 20>
| 21>
| 22>                          ****END OF INPUT****

CARTESIAN COORDINATES (ANGSTROEM)
---------------------------------
  C     -0.711890    0.842520   -4.218340
  C     -0.397620   -0.205870   -5.288020
  O      0.617170   -0.005350   -5.998270
  O     -1.133170   -1.221380   -5.341470
  H     -0.009390    1.646460   -4.289600
  H     -0.644090    0.394490   -3.249020
  H     -1.701920    1.219610   -4.368510

 Total Charge           Charge          ....   -1
 Multiplicity           Mult            ....    1
 Number of Electrons    NEL             ....   32
 Basis Dimension        Dim             ....  110

ORBITAL ENERGIES
----------------

  NO   OCC          E(Eh)            E(eV)
   0   2.0000     -18.528646      -504.1901
   1   2.0000     -18.528259      -504.1796
   2   2.0000      -9.801764      -266.7196
   3   2.0000      -9.735035      -264.9038
   4   2.0000      -0.715120       -19.4594
   5   2.0000      -0.627476       -17.0745
   6   2.0000      -0.462113       -12.5747
   7   2.0000      -0.240543        -6.5455
   8   2.0000      -0.208496        -5.6735
   9   2.0000      -0.192697        -5.2435
  10   2.0000      -0.165930        -4.5152
  11   2.0000      -0.131089        -3.5671
  12   2.0000      -0.117975        -3.2103
  13   2.0000      -0.007497        -0.2040
  14   2.0000       0.004949         0.1347
  15   2.0000       0.023479         0.6389
  16   0.0000       0.155467         4.2305
  17   0.0000       0.198914         5.4127
  18   0.0000       0.200591         5.4584
  19   0.0000       0.223853         6.0913
  20   0.0000       0.243018         6.6129

MULLIKEN ATOMIC CHARGES
-----------------------
   0 C :    0.856295
   1 C :   -0.156022
   2 O :   -0.545851
   3 O :   -0.568356
   4 H :   -0.214978
   5 H :   -0.186422
   6 H :   -0.184666
Sum of atomic charges:   -1.0000000

LOEWDIN ATOMIC CHARGES
----------------------
   0 C :    0.156216
   1 C :   -0.361808
   2 O :   -0.320992
   3 O :   -0.322884
   4 H :   -0.054720
   5 H :   -0.046836
   6 H :   -0.048976

  Mayer bond orders larger than 0.100000
B(  0-C ,  1-C ) :   1.2182 B(  0-C ,  4-H ) :   0.7955 B(  0-C ,  5-H ) :   0.7475
B(  0-C ,  6-H ) :   0.7381 B(  1-C ,  2-O ) :   1.5543 B(  1-C ,  3-O ) :   1.5825
B(  1-C ,  4-H ) :   0.3167 B(  1-C ,  5-H ) :   0.2172 B(  1-C ,  6-H ) :   0.2258

Dispersion correction           -0.007717350
FINAL SINGLE POINT ENERGY      -228.325718205053

DIPOLE MOMENT
-------------
                                X             Y             Z
Electronic contribution:      0.77536      -2.52315      -2.56208
Nuclear contribution   :     -1.06347       3.45957       3.47855
                        -----------------------------------------
Total Dipole Moment    :     -0.28810       0.93642       0.91647
                        -----------------------------------------
Magnitude (a.u.)       :      1.34157
Magnitude (Debye)      :      3.41001

Rotational constants in cm-1:     0.393276     0.333956     0.186777
Rotational constants in MHz : 11790.103634 10011.747201  5599.422324

                             ****ORCA TERMINATED NORMALLY****
TOTAL RUN TIME: 0 days 0 hours 0 minutes 3 seconds 409 msec
