                         Program Version 5.0.0 -  RELEASE  -
|  1> !BLYP D3BJ RIJCOSX def2-SVPD def2/J TightSCF
|  2> *xyz 1 1
|  3> C          2.23447       -2.98975       -2.39762
|  4> N          2.75680       -2.94555       -3.76503
|  5> C          1.98721       -2.59045       -4.81898
|  6> N          0.74322       -3.01749       -4.91352
|  7> N          2.49964       -1.84860       -5.80324
|  8> H          3.30978       -1.29282       -5.55895
|  9> H          1.80103       -1.30430       -6.28913
| 10> H          3.71612       -2.62880       -3.82953
| 11> H          0.39583       -3.62775       -4.18502
| 12> H          0.03920       -2.45438       -5.37137
| 13> H          1.22098       -3.33251       -2.41386
| 14> H          2.27280       -2.00995       -1.96933
| 15> H          2.82798       -3.65908       -1.81056
| 16> *
| 17>
| 18> %MaxCore 64000
| 19>
| 20> %pal nprocs 4
| 21> end
| 22>
| 23> %scf
| 24>   MaxIter 150
| 25> end
| 26>
| 27>
| 28>                          ****END OF INPUT****

CARTESIAN COORDINATES (ANGSTROEM)
---------------------------------
  C      2.234470   -2.989750   -2.397620
  N      2.756800   -2.945550   -3.765030
  C      1.987210   -2.590450   -4.818980
  N      0.743220   -3.017490   -4.913520
  N      2.499640   -1.848600   -5.803240
  H      3.309780   -1.292820   -5.558950
  H      1.801030   -1.304300   -6.289130
  H      3.716120   -2.628800   -3.829530
  H      0.395830   -3.627750   -4.185020
  H      0.039200   -2.454380   -5.371370
  H      1.220980   -3.332510   -2.413860
  H      2.272800   -2.009950   -1.969330
  H      2.827980   -3.659080   -1.810560

 Total Charge           Charge          ....    1
 Multiplicity           Mult            ....    1
 Number of Electrons    NEL             ....   40
 Basis Dimension        Dim             ....  164

ORBITAL ENERGIES
----------------

  NO   OCC          E(Eh)            E(eV)
   0   2.0000     -14.258041      -387.9810
   1   2.0000     -14.254098      -387.8737
   2   2.0000     -14.253768      -387.8647
   3   2.0000     -10.257495      -279.1206
   4   2.0000     -10.132034      -275.7066
   5   2.0000      -1.125670       -30.6310
   6   2.0000      -1.019454       -27.7408
   7   2.0000      -1.015622       -27.6365
   8   2.0000      -0.830597       -22.6017
   9   2.0000      -0.769121       -20.9289
  10   2.0000      -0.732123       -19.9221
  11   2.0000      -0.698023       -18.9942
  12   2.0000      -0.653240       -17.7756
  13   2.0000      -0.639335       -17.3972
  14   2.0000      -0.597231       -16.2515
  15   2.0000      -0.592888       -16.1333
  16   2.0000      -0.547515       -14.8986
  17   2.0000      -0.536436       -14.5972
  18   2.0000      -0.449130       -12.2215
  19   2.0000      -0.419854       -11.4248
  20   0.0000      -0.230405        -6.2696
  21   0.0000      -0.185634        -5.0514
  22   0.0000      -0.150255        -4.0886
  23   0.0000      -0.139431        -3.7941
  24   0.0000      -0.119669        -3.2564

MULLIKEN ATOMIC CHARGES
-----------------------
   0 C :    1.565721
   1 N :   -0.379652
   2 C :    0.593577
   3 N :    0.345851
   4 N :    0.233611
   5 H :   -0.064584
   6 H :   -0.017273
   7 H :   -0.231236
   8 H :   -0.096252
   9 H :   -0.094337
  10 H :   -0.341251
  11 H :   -0.195729
  12 H :   -0.318446
Sum of atomic charges:    1.0000000

LOEWDIN ATOMIC CHARGES
----------------------
   0 C :    0.268738
   1 N :    0.048113
   2 C :   -0.073662
   3 N :    0.301179
   4 N :    0.292086
   5 H :    0.030582
   6 H :    0.030405
   7 H :    0.045248
   8 H :    0.021135
   9 H :    0.043150
  10 H :   -0.020029
  11 H :    0.005538
  12 H :    0.007516

  Mayer bond orders larger than 0.100000
B(  0-C ,  1-N ) :   0.9612 B(  0-C ,  7-H ) :  -0.1042 B(  0-C , 10-H ) :   0.7124
B(  0-C , 11-H ) :   0.7137 B(  0-C , 12-H ) :   0.6680 B(  1-N ,  2-C ) :   1.1287
B(  1-N ,  3-N ) :   0.1148 B(  1-N ,  4-N ) :   0.1513 B(  1-N ,  7-H ) :   1.1807
B(  1-N , 10-H ) :   0.1705 B(  1-N , 11-H ) :   0.1572 B(  1-N , 12-H ) :   0.2380
B(  2-C ,  3-N ) :   1.1332 B(  2-C ,  4-N ) :   1.0938 B(  2-C ,  7-H ) :  -0.1712
B(  2-C ,  9-H ) :  -0.1079 B(  3-N ,  4-N ) :   0.1650 B(  3-N ,  8-H ) :   1.0034
B(  3-N ,  9-H ) :   1.2034 B(  4-N ,  5-H ) :   1.0178 B(  4-N ,  6-H ) :   1.0136
B(  8-H ,  9-H ) :  -0.1646

Dispersion correction           -0.018598281
FINAL SINGLE POINT ENERGY      -244.823909465102

DIPOLE MOMENT
-------------
                                X             Y             Z
Electronic contribution:      0.28355      -0.08758      -3.01551
Nuclear contribution   :     -0.61773       0.88991       3.03801
                        -----------------------------------------
Total Dipole Moment    :     -0.33418       0.80234       0.02250
                        -----------------------------------------
Magnitude (a.u.)       :      0.86944
Magnitude (Debye)      :      2.20994

Rotational constants in cm-1:     0.302561     0.133407     0.098295
Rotational constants in MHz :  9070.558660  3999.431512  2946.819102

                             ****ORCA TERMINATED NORMALLY****
TOTAL RUN TIME: 0 days 0 hours 0 minutes 6 seconds 64 msec
