                         Program Version 5.0.0 -  RELEASE  -
|  1> !BLYP D3BJ RIJCOSX def2-SVPD def2/J TightSCF
|  2> *xyz 0 1
|  3> C         -0.71189        0.84252       -4.21834
|  4> C         -0.39762       -0.20587       -5.28802
|  5> F          0.61717       -0.00535       -5.99827
|  6> O         -1.13317       -1.22138       -5.34147
|  7> H         -0.00939        1.64646       -4.28960
|  8> H         -0.64409        0.39449       -3.24902
|  9> H         -1.70192        1.21961       -4.36851
| 10> *
| 11>
| 12> %MaxCore 64000
| 13>
| 14> %pal nprocs 4
| 15> end
| 16>
| 17> %scf
| 18>   MaxIter 150
| 19> end
| 20>
| 21>
| 22>                          ****END OF INPUT****

CARTESIAN COORDINATES (ANGSTROEM)
---------------------------------
  C     -0.711890    0.842520   -4.218340
  C     -0.397620   -0.205870   -5.288020
  F      0.617170   -0.005350   -5.998270
  O     -1.133170   -1.221380   -5.341470
  H     -0.009390    1.646460   -4.289600
  H     -0.644090    0.394490   -3.249020
  H     -1.701920    1.219610   -4.368510

 Total Charge           Charge          ....    0
 Multiplicity           Mult            ....    1
 Number of Electrons    NEL             ....   32
 Basis Dimension        Dim             ....  110

ORBITAL ENERGIES
----------------

  NO   OCC          E(Eh)            E(eV)
   0   2.0000     -24.378108      -663.3620
   1   2.0000     -18.801303      -511.6095
   2   2.0000     -10.102599      -274.9057
   3   2.0000      -9.951214      -270.7863
   4   2.0000      -1.200798       -32.6754
   5   2.0000      -0.934396       -25.4262
   6   2.0000      -0.691474       -18.8160
   7   2.0000      -0.591466       -16.0946
   8   2.0000      -0.490119       -13.3368
   9   2.0000      -0.483429       -13.1548
  10   2.0000      -0.442546       -12.0423
  11   2.0000      -0.397135       -10.8066
  12   2.0000      -0.384439       -10.4611
  13   2.0000      -0.350716        -9.5435
  14   2.0000      -0.313348        -8.5266
  15   2.0000      -0.247289        -6.7291
  16   0.0000      -0.070344        -1.9142
  17   0.0000      -0.007403        -0.2014
  18   0.0000       0.040821         1.1108
  19   0.0000       0.064775         1.7626
  20   0.0000       0.068552         1.8654

MULLIKEN ATOMIC CHARGES
-----------------------
   0 C :    0.811028
   1 C :    0.237629
   2 F :   -0.276095
   3 O :   -0.373075
   4 H :   -0.181364
   5 H :   -0.107253
   6 H :   -0.110870
Sum of atomic charges:    0.0000000

LOEWDIN ATOMIC CHARGES
----------------------
   0 C :    0.229112
   1 C :   -0.068268
   2 F :   -0.017689
   3 O :   -0.117382
   4 H :   -0.021257
   5 H :   -0.001691
   6 H :   -0.002825

  Mayer bond orders larger than 0.100000
B(  0-C ,  1-C ) :   1.2413 B(  0-C ,  4-H ) :   0.8117 B(  0-C ,  5-H ) :   0.7391
B(  0-C ,  6-H ) :   0.7273 B(  1-C ,  2-F ) :   0.8871 B(  1-C ,  3-O ) :   1.8874
B(  1-C ,  4-H ) :   0.2099 B(  1-C ,  5-H ) :   0.1870 B(  1-C ,  6-H ) :   0.1998
B(  2-F ,  3-O ) :   0.1068

Dispersion correction           -0.007105239
FINAL SINGLE POINT ENERGY      -252.862470443940

DIPOLE MOMENT
-------------
                                X             Y             Z
Electronic contribution:      2.40815      -2.30004      -3.82781
Nuclear contribution   :     -2.12043       3.31297       4.29327
                        -----------------------------------------
Total Dipole Moment    :      0.28772       1.01293       0.46547
                        -----------------------------------------
Magnitude (a.u.)       :      1.15129
Magnitude (Debye)      :      2.92635

Rotational constants in cm-1:     0.368089     0.321934     0.177312
Rotational constants in MHz : 11035.034199  9651.332398  5315.666874

                             ****ORCA TERMINATED NORMALLY****
TOTAL RUN TIME: 0 days 0 hours 0 minutes 3 seconds 319 msec
