                         Program Version 5.0.0 -  RELEASE  -
|  1> !BLYP D3BJ RIJCOSX def2-SVPD def2/J TightSCF
|  2> *xyz 0 1
|  3> C          2.23447       -2.98975       -2.39762
|  4> C          2.75680       -2.94555       -3.76503
|  5> C          1.98721       -2.59045       -4.81898
|  6> N          0.74322       -3.01749       -4.91352
|  7> N          2.49964       -1.84860       -5.80324
|  8> H          3.30978       -1.29282       -5.55895
|  9> H          1.80103       -1.30430       -6.28913
| 10> H          3.71612       -2.62880       -3.82953
| 11> H          0.39583       -3.62775       -4.18502
| 12> H          0.03920       -2.45438       -5.37137
| 13> H          1.22098       -3.33251       -2.41386
| 14> H          2.27280       -2.00995       -1.96933
| 15> H          2.82798       -3.65908       -1.81056
| 16> *
| 17>
| 18> %MaxCore 64000
| 19>
| 20> %pal nprocs 4
| 21> end
| 22>
| 23> %scf
| 24>   MaxIter 150
| 25> end
| 26>
| 27>
| 28>                          ****END OF INPUT****

CARTESIAN COORDINATES (ANGSTROEM)
---------------------------------
  C      2.234470   -2.989750   -2.397620
  C      2.756800   -2.945550   -3.765030
  C      1.987210   -2.590450   -4.818980
  N      0.743220   -3.017490   -4.913520
  N      2.499640   -1.848600   -5.803240
  H      3.309780   -1.292820   -5.558950
  H      1.801030   -1.304300   -6.289130
  H      3.716120   -2.628800   -3.829530
  H      0.395830   -3.627750   -4.185020
  H      0.039200   -2.454380   -5.371370
  H      1.220980   -3.332510   -2.413860
  H      2.272800   -2.009950   -1.969330
  H      2.827980   -3.659080   -1.810560

 Total Charge           Charge          ....    0
 Multiplicity           Mult            ....    1
 Number of Electrons    NEL             ....   40
 Basis Dimension        Dim             ....  164

ORBITAL ENERGIES
----------------

  NO   OCC          E(Eh)            E(eV)
   0   2.0000     -14.030276      -381.7832
   1   2.0000     -14.026409      -381.6780
   2   2.0000      -9.963371      -271.1171
   3   2.0000      -9.891346      -269.1572
   4   2.0000      -9.851032      -268.0602
   5   2.0000      -0.873078       -23.7577
   6   2.0000      -0.788571       -21.4581
   7   2.0000      -0.668201       -18.1827
   8   2.0000      -0.581491       -15.8232
   9   2.0000      -0.526086       -14.3155
  10   2.0000      -0.486621       -13.2416
  11   2.0000      -0.450478       -12.2581
  12   2.0000      -0.420076       -11.4309
  13   2.0000      -0.384167       -10.4537
  14   2.0000      -0.352256        -9.5854
  15   2.0000      -0.326377        -8.8812
  16   2.0000      -0.312518        -8.5041
  17   2.0000      -0.293292        -7.9809
  18   2.0000      -0.229048        -6.2327
  19   2.0000      -0.126353        -3.4382
  20   0.0000      -0.012153        -0.3307
  21   0.0000       0.013191         0.3589
  22   0.0000       0.028061         0.7636
  23   0.0000       0.038907         1.0587
  24   0.0000       0.059787         1.6269

MULLIKEN ATOMIC CHARGES
-----------------------
   0 C :    1.280546
   1 C :   -0.301464
   2 C :    0.136721
   3 N :    0.271419
   4 N :    0.206066
   5 H :   -0.027055
   6 H :   -0.094016
   7 H :   -0.417555
   8 H :   -0.097752
   9 H :   -0.198605
  10 H :   -0.401214
  11 H :   -0.233162
  12 H :   -0.123930
Sum of atomic charges:    0.0000000

LOEWDIN ATOMIC CHARGES
----------------------
   0 C :    0.102896
   1 C :   -0.042059
   2 C :   -0.256340
   3 N :    0.213196
   4 N :    0.207888
   5 H :   -0.005513
   6 H :   -0.021263
   7 H :   -0.066849
   8 H :   -0.010947
   9 H :   -0.012686
  10 H :   -0.051430
  11 H :   -0.026697
  12 H :   -0.030198

  Mayer bond orders larger than 0.100000
B(  0-C ,  1-C ) :   1.1176 B(  0-C ,  7-H ) :   0.2412 B(  0-C , 10-H ) :   0.5615
B(  0-C , 11-H ) :   0.7012 B(  0-C , 12-H ) :   0.5994 B(  1-C ,  2-C ) :   1.6287
B(  1-C ,  3-N ) :   0.2216 B(  1-C ,  4-N ) :   0.2515 B(  1-C ,  7-H ) :   0.7095
B(  1-C , 10-H ) :   0.4173 B(  1-C , 11-H ) :   0.1357 B(  1-C , 12-H ) :   0.2936
B(  2-C ,  3-N ) :   1.1650 B(  2-C ,  4-N ) :   1.0860 B(  2-C ,  7-H ) :   0.3099
B(  3-N ,  4-N ) :   0.1365 B(  3-N ,  8-H ) :   0.9993 B(  3-N ,  9-H ) :   1.2072
B(  4-N ,  5-H ) :   0.9572 B(  4-N ,  6-H ) :   0.9462 B(  8-H ,  9-H ) :  -0.1451
B( 10-H , 12-H ) :   0.1408

Dispersion correction           -0.019560734
FINAL SINGLE POINT ENERGY      -228.350721670460

DIPOLE MOMENT
-------------
                                X             Y             Z
Electronic contribution:     -0.25846       0.01612      -3.44191
Nuclear contribution   :     -0.47056       0.83150       3.15332
                        -----------------------------------------
Total Dipole Moment    :     -0.72902       0.84762      -0.28859
                        -----------------------------------------
Magnitude (a.u.)       :      1.15465
Magnitude (Debye)      :      2.93489

Rotational constants in cm-1:     0.307275     0.134774     0.099280
Rotational constants in MHz :  9211.860934  4040.421317  2976.324646

                             ****ORCA TERMINATED NORMALLY****
TOTAL RUN TIME: 0 days 0 hours 0 minutes 6 seconds 456 msec
