                         Program Version 5.0.0 -  RELEASE  -
|  1> !BLYP D3BJ RIJCOSX def2-SVPD def2/J TightSCF
|  2> *xyz 0 1
|  3> C         -0.71189        0.84252       -4.21834
|  4> C         -0.39762       -0.20587       -5.28802
|  5> O          0.61717       -0.00535       -5.99827
|  6> F         -1.13317       -1.22138       -5.34147
|  7> H         -0.00939        1.64646       -4.28960
|  8> H         -0.64409        0.39449       -3.24902
|  9> H         -1.70192        1.21961       -4.36851
| 10> *
| 11>
| 12> %MaxCore 64000
| 13>
| 14> %pal nprocs 4
| 15> end
| 16>
| 17> %scf
| 18>   MaxIter 150
| 19> end
| 20>
| 21>
| 22>                          ****END OF INPUT****

CARTESIAN COORDINATES (ANGSTROEM)
---------------------------------
  C     -0.711890    0.842520   -4.218340
  C     -0.397620   -0.205870   -5.288020
  O      0.617170   -0.005350   -5.998270
  F     -1.133170   -1.221380   -5.341470
  H     -0.009390    1.646460   -4.289600
  H     -0.644090    0.394490   -3.249020
  H     -1.701920    1.219610   -4.368510

 Total Charge           Charge          ....    0
 Multiplicity           Mult            ....    1
 Number of Electrons    NEL             ....   32
 Basis Dimension        Dim             ....  110

ORBITAL ENERGIES
----------------

  NO   OCC          E(Eh)            E(eV)
   0   2.0000     -24.378619      -663.3759
   1   2.0000     -18.800871      -511.5977
   2   2.0000     -10.102327      -274.8983
   3   2.0000      -9.950970      -270.7797
   4   2.0000      -1.200740       -32.6738
   5   2.0000      -0.934589       -25.4315
   6   2.0000      -0.691117       -18.8062
   7   2.0000      -0.591428       -16.0936
   8   2.0000      -0.490566       -13.3490
   9   2.0000      -0.483099       -13.1458
  10   2.0000      -0.441821       -12.0226
  11   2.0000      -0.396328       -10.7846
  12   2.0000      -0.385109       -10.4793
  13   2.0000      -0.350716        -9.5435
  14   2.0000      -0.316116        -8.6020
  15   2.0000      -0.244877        -6.6634
  16   0.0000      -0.067716        -1.8427
  17   0.0000      -0.007305        -0.1988
  18   0.0000       0.040680         1.1070
  19   0.0000       0.063832         1.7370
  20   0.0000       0.071449         1.9442

MULLIKEN ATOMIC CHARGES
-----------------------
   0 C :    0.825962
   1 C :    0.255030
   2 O :   -0.353671
   3 F :   -0.301933
   4 H :   -0.195460
   5 H :   -0.113272
   6 H :   -0.116656
Sum of atomic charges:   -0.0000000

LOEWDIN ATOMIC CHARGES
----------------------
   0 C :    0.228410
   1 C :   -0.069461
   2 O :   -0.117656
   3 F :   -0.015753
   4 H :   -0.007427
   5 H :   -0.007859
   6 H :   -0.010254

  Mayer bond orders larger than 0.100000
B(  0-C ,  1-C ) :   1.2236 B(  0-C ,  4-H ) :   0.8032 B(  0-C ,  5-H ) :   0.7406
B(  0-C ,  6-H ) :   0.7338 B(  1-C ,  2-O ) :   1.9044 B(  1-C ,  3-F ) :   0.8441
B(  1-C ,  4-H ) :   0.2778 B(  1-C ,  5-H ) :   0.1710 B(  1-C ,  6-H ) :   0.1773
B(  2-O ,  3-F ) :   0.1143

Dispersion correction           -0.007104863
FINAL SINGLE POINT ENERGY      -252.862498736737

DIPOLE MOMENT
-------------
                                X             Y             Z
Electronic contribution:     -0.41453      -4.26013      -2.76700
Nuclear contribution   :     -0.31181       4.56949       3.61460
                        -----------------------------------------
Total Dipole Moment    :     -0.72633       0.30936       0.84760
                        -----------------------------------------
Magnitude (a.u.)       :      1.15832
Magnitude (Debye)      :      2.94421

Rotational constants in cm-1:     0.370228     0.320104     0.177247
Rotational constants in MHz : 11099.151631  9596.483000  5313.726171

                             ****ORCA TERMINATED NORMALLY****
TOTAL RUN TIME: 0 days 0 hours 0 minutes 3 seconds 415 msec
