                         Program Version 5.0.0 -  RELEASE  -
|  1> !BLYP D3BJ RIJCOSX def2-SVPD def2/J TightSCF
|  2> *xyz 0 1
|  3> C          2.23447       -2.98975       -2.39762
|  4> N          2.75680       -2.94555       -3.76503
|  5> C          1.98721       -2.59045       -4.81898
|  6> C          0.74322       -3.01749       -4.91352
|  7> N          2.49964       -1.84860       -5.80324
|  8> H          3.30978       -1.29282       -5.55895
|  9> H          1.80103       -1.30430       -6.28913
| 10> H          3.71612       -2.62880       -3.82953
| 11> H          0.39583       -3.62775       -4.18502
| 12> H          0.03920       -2.45438       -5.37137
| 13> H          1.22098       -3.33251       -2.41386
| 14> H          2.27280       -2.00995       -1.96933
| 15> H          2.82798       -3.65908       -1.81056
| 16> *
| 17>
| 18> %MaxCore 64000
| 19>
| 20> %pal nprocs 4
| 21> end
| 22>
| 23> %scf
| 24>   MaxIter 150
| 25> end
| 26>
| 27>
| 28>                          ****END OF INPUT****

CARTESIAN COORDINATES (ANGSTROEM)
---------------------------------
  C      2.234470   -2.989750   -2.397620
  N      2.756800   -2.945550   -3.765030
  C      1.987210   -2.590450   -4.818980
  C      0.743220   -3.017490   -4.913520
  N      2.499640   -1.848600   -5.803240
  H      3.309780   -1.292820   -5.558950
  H      1.801030   -1.304300   -6.289130
  H      3.716120   -2.628800   -3.829530
  H      0.395830   -3.627750   -4.185020
  H      0.039200   -2.454380   -5.371370
  H      1.220980   -3.332510   -2.413860
  H      2.272800   -2.009950   -1.969330
  H      2.827980   -3.659080   -1.810560

 Total Charge           Charge          ....    0
 Multiplicity           Mult            ....    1
 Number of Electrons    NEL             ....   40
 Basis Dimension        Dim             ....  164

ORBITAL ENERGIES
----------------

  NO   OCC          E(Eh)            E(eV)
   0   2.0000     -14.027739      -381.7142
   1   2.0000     -14.025637      -381.6570
   2   2.0000      -9.963380      -271.1173
   3   2.0000      -9.947628      -270.6887
   4   2.0000      -9.843436      -267.8535
   5   2.0000      -0.870883       -23.6979
   6   2.0000      -0.795894       -21.6574
   7   2.0000      -0.644561       -17.5394
   8   2.0000      -0.619611       -16.8605
   9   2.0000      -0.504372       -13.7246
  10   2.0000      -0.488386       -13.2897
  11   2.0000      -0.458327       -12.4717
  12   2.0000      -0.396729       -10.7955
  13   2.0000      -0.394154       -10.7255
  14   2.0000      -0.369997       -10.0681
  15   2.0000      -0.342884        -9.3304
  16   2.0000      -0.329240        -8.9591
  17   2.0000      -0.308778        -8.4023
  18   2.0000      -0.209812        -5.7093
  19   2.0000      -0.142270        -3.8714
  20   0.0000      -0.009129        -0.2484
  21   0.0000       0.014474         0.3938
  22   0.0000       0.029950         0.8150
  23   0.0000       0.035994         0.9794
  24   0.0000       0.058975         1.6048

MULLIKEN ATOMIC CHARGES
-----------------------
   0 C :    1.573038
   1 N :   -0.280148
   2 C :    0.249198
   3 C :    0.602783
   4 N :    0.257694
   5 H :   -0.159912
   6 H :   -0.027019
   7 H :   -0.369104
   8 H :   -0.337093
   9 H :   -0.547251
  10 H :   -0.357765
  11 H :   -0.247703
  12 H :   -0.356719
Sum of atomic charges:    0.0000000

LOEWDIN ATOMIC CHARGES
----------------------
   0 C :    0.219497
   1 N :   -0.015410
   2 C :   -0.260936
   3 C :    0.170386
   4 N :    0.206160
   5 H :   -0.024064
   6 H :   -0.006892
   7 H :    0.002100
   8 H :   -0.110766
   9 H :   -0.100576
  10 H :   -0.034206
  11 H :   -0.023027
  12 H :   -0.022267

  Mayer bond orders larger than 0.100000
B(  0-C ,  1-N ) :   0.9435 B(  0-C , 10-H ) :   0.7288 B(  0-C , 11-H ) :   0.6841
B(  0-C , 12-H ) :   0.6292 B(  1-N ,  2-C ) :   1.1090 B(  1-N ,  3-C ) :   0.2511
B(  1-N ,  4-N ) :   0.1262 B(  1-N ,  7-H ) :   1.1025 B(  1-N , 10-H ) :   0.1577
B(  1-N , 11-H ) :   0.1987 B(  1-N , 12-H ) :   0.2413 B(  2-C ,  3-C ) :   1.5955
B(  2-C ,  4-N ) :   1.0195 B(  2-C ,  8-H ) :   0.3030 B(  2-C ,  9-H ) :   0.1375
B(  2-C , 10-H ) :   0.1023 B(  3-C ,  4-N ) :   0.2775 B(  3-C ,  8-H ) :   0.4295
B(  3-C ,  9-H ) :   0.7566 B(  4-N ,  5-H ) :   0.9545 B(  4-N ,  6-H ) :   0.9910
B(  8-H ,  9-H ) :   0.1822

Dispersion correction           -0.019481346
FINAL SINGLE POINT ENERGY      -228.342992877308

DIPOLE MOMENT
-------------
                                X             Y             Z
Electronic contribution:      1.53502       0.07424      -2.37869
Nuclear contribution   :     -0.87840       0.81693       2.92070
                        -----------------------------------------
Total Dipole Moment    :      0.65662       0.89117       0.54201
                        -----------------------------------------
Magnitude (a.u.)       :      1.23252
Magnitude (Debye)      :      3.13282

Rotational constants in cm-1:     0.323282     0.134248     0.100848
Rotational constants in MHz :  9691.753357  4024.663509  3023.338831

                             ****ORCA TERMINATED NORMALLY****
TOTAL RUN TIME: 0 days 0 hours 0 minutes 6 seconds 220 msec
