                         Program Version 5.0.0 -  RELEASE  -
|  1> !BLYP D3BJ RIJCOSX def2-SVPD def2/J TightSCF
|  2> *xyz 0 1
|  3> C          2.23447       -2.98975       -2.39762
|  4> N          2.75680       -2.94555       -3.76503
|  5> C          1.98721       -2.59045       -4.81898
|  6> N          0.74322       -3.01749       -4.91352
|  7> C          2.49964       -1.84860       -5.80324
|  8> H          3.30978       -1.29282       -5.55895
|  9> H          1.80103       -1.30430       -6.28913
| 10> H          3.71612       -2.62880       -3.82953
| 11> H          0.39583       -3.62775       -4.18502
| 12> H          0.03920       -2.45438       -5.37137
| 13> H          1.22098       -3.33251       -2.41386
| 14> H          2.27280       -2.00995       -1.96933
| 15> H          2.82798       -3.65908       -1.81056
| 16> *
| 17>
| 18> %MaxCore 64000
| 19>
| 20> %pal nprocs 4
| 21> end
| 22>
| 23> %scf
| 24>   MaxIter 150
| 25> end
| 26>
| 27>
| 28>                          ****END OF INPUT****

CARTESIAN COORDINATES (ANGSTROEM)
---------------------------------
  C      2.234470   -2.989750   -2.397620
  N      2.756800   -2.945550   -3.765030
  C      1.987210   -2.590450   -4.818980
  N      0.743220   -3.017490   -4.913520
  C      2.499640   -1.848600   -5.803240
  H      3.309780   -1.292820   -5.558950
  H      1.801030   -1.304300   -6.289130
  H      3.716120   -2.628800   -3.829530
  H      0.395830   -3.627750   -4.185020
  H      0.039200   -2.454380   -5.371370
  H      1.220980   -3.332510   -2.413860
  H      2.272800   -2.009950   -1.969330
  H      2.827980   -3.659080   -1.810560

 Total Charge           Charge          ....    0
 Multiplicity           Mult            ....    1
 Number of Electrons    NEL             ....   40
 Basis Dimension        Dim             ....  164

ORBITAL ENERGIES
----------------

  NO   OCC          E(Eh)            E(eV)
   0   2.0000     -14.028793      -381.7429
   1   2.0000     -14.026607      -381.6834
   2   2.0000      -9.966231      -271.1949
   3   2.0000      -9.955970      -270.9157
   4   2.0000      -9.838811      -267.7277
   5   2.0000      -0.872621       -23.7452
   6   2.0000      -0.796021       -21.6608
   7   2.0000      -0.661700       -18.0058
   8   2.0000      -0.597616       -16.2620
   9   2.0000      -0.539491       -14.6803
  10   2.0000      -0.482843       -13.1388
  11   2.0000      -0.438645       -11.9361
  12   2.0000      -0.430269       -11.7082
  13   2.0000      -0.397775       -10.8240
  14   2.0000      -0.360394        -9.8068
  15   2.0000      -0.342778        -9.3275
  16   2.0000      -0.321458        -8.7473
  17   2.0000      -0.312472        -8.5028
  18   2.0000      -0.212024        -5.7695
  19   2.0000      -0.138043        -3.7564
  20   0.0000      -0.009938        -0.2704
  21   0.0000       0.014010         0.3812
  22   0.0000       0.024400         0.6640
  23   0.0000       0.036968         1.0060
  24   0.0000       0.058562         1.5936

MULLIKEN ATOMIC CHARGES
-----------------------
   0 C :    1.579213
   1 N :   -0.409358
   2 C :    0.129316
   3 N :    0.461788
   4 C :    0.707802
   5 H :   -0.301282
   6 H :   -0.582031
   7 H :   -0.226742
   8 H :   -0.217039
   9 H :   -0.170245
  10 H :   -0.362379
  11 H :   -0.224336
  12 H :   -0.384707
Sum of atomic charges:    0.0000000

LOEWDIN ATOMIC CHARGES
----------------------
   0 C :    0.213033
   1 N :   -0.012583
   2 C :   -0.255800
   3 N :    0.214800
   4 C :    0.155332
   5 H :   -0.113397
   6 H :   -0.113484
   7 H :    0.017391
   8 H :   -0.026291
   9 H :    0.005958
  10 H :   -0.039680
  11 H :   -0.022698
  12 H :   -0.022583

  Mayer bond orders larger than 0.100000
B(  0-C ,  1-N ) :   0.9375 B(  0-C ,  7-H ) :  -0.1073 B(  0-C , 10-H ) :   0.7005
B(  0-C , 11-H ) :   0.6936 B(  0-C , 12-H ) :   0.6317 B(  1-N ,  2-C ) :   1.1208
B(  1-N ,  4-C ) :   0.1931 B(  1-N ,  7-H ) :   1.1473 B(  1-N , 10-H ) :   0.1625
B(  1-N , 11-H ) :   0.1447 B(  1-N , 12-H ) :   0.2525 B(  2-C ,  3-N ) :   1.1448
B(  2-C ,  4-C ) :   1.7683 B(  2-C ,  5-H ) :   0.2656 B(  2-C ,  6-H ) :   0.3009
B(  2-C ,  7-H ) :  -0.1134 B(  3-N ,  4-C ) :   0.2404 B(  3-N ,  8-H ) :   0.9890
B(  3-N ,  9-H ) :   1.1518 B(  4-C ,  5-H ) :   0.6464 B(  4-C ,  6-H ) :   0.5466
B(  5-H ,  6-H ) :   0.3182 B(  8-H ,  9-H ) :  -0.1616

Dispersion correction           -0.019397085
FINAL SINGLE POINT ENERGY      -228.338616858770

DIPOLE MOMENT
-------------
                                X             Y             Z
Electronic contribution:     -0.06700      -1.06173      -1.52419
Nuclear contribution   :     -0.52265       1.05368       2.74049
                        -----------------------------------------
Total Dipole Moment    :     -0.58965      -0.00804       1.21630
                        -----------------------------------------
Magnitude (a.u.)       :      1.35172
Magnitude (Debye)      :      3.43580

Rotational constants in cm-1:     0.310125     0.138772     0.101978
Rotational constants in MHz :  9297.312912  4160.277024  3057.230514

                             ****ORCA TERMINATED NORMALLY****
TOTAL RUN TIME: 0 days 0 hours 0 minutes 6 seconds 419 msec
