                         Program Version 5.0.0 -  RELEASE  -
|  1> !BLYP D3BJ RIJCOSX def2-SVPD def2/J TightSCF xyzfile
|  2>
|  3> *xyzfile 0 1 D3.xyz
|  4>
|  5> %MaxCore 64000
|  6>
|  7> %pal nprocs 4
|  8> end
|  9>
| 10> %scf
| 11>   MaxIter 150
| 12> end
| 13>
| 14>
| 15>                          ****END OF INPUT****

CARTESIAN COORDINATES (ANGSTROEM)
---------------------------------
  C      2.234473   -2.989754   -2.397622
  N      2.756799   -2.945553   -3.765029
  C     -1.104325    0.251374   -2.860056
  C     -0.711893    0.842517   -4.218344
  H      0.154626    1.499800   -4.130909
  H     -1.538134    1.459222   -4.582671
  C     -0.397624   -0.205875   -5.288018
  C      1.987208   -2.590451   -4.818975
  N      0.743221   -3.017493   -4.913524
  C      2.499636   -1.848598   -5.803241
  H      3.309780   -1.292818   -5.558947
  H      1.801025   -1.304298   -6.289129
  H      3.716116   -2.628797   -3.829533
  H      0.395828   -3.627747   -4.185024
  H      0.039201   -2.454383   -5.371367
  F      0.617165   -0.005348   -5.998273
  O     -1.133173   -1.221380   -5.341465
  C      2.191199   -1.619503   -1.715492
  H      2.872783   -3.666368   -1.828014
  H      1.246188   -3.447444   -2.407842
  C      1.298729   -0.554314   -2.359773
  H      1.872917   -1.787955   -0.681310
  H      3.216809   -1.238432   -1.654428
  C     -0.196255   -0.863365   -2.325763
  H      1.612531   -0.371346   -3.393065
  H      1.480944    0.388638   -1.834444
  H     -0.404105   -1.761825   -2.909448
  H     -0.490439   -1.087880   -1.294131
  H     -1.143842    1.066711   -2.129680
  H     -2.114401   -0.156834   -2.930323

 Total Charge           Charge          ....    0
 Multiplicity           Mult            ....    1
 Number of Electrons    NEL             ....  102
 Basis Dimension        Dim             ....  402

ORBITAL ENERGIES
----------------

  NO   OCC          E(Eh)            E(eV)
   0   2.0000     -24.386787      -663.5982
   1   2.0000     -18.819121      -512.0943
   2   2.0000     -14.017030      -381.4228
   3   2.0000     -14.001377      -380.9968
   4   2.0000     -10.113478      -275.2017
   5   2.0000      -9.961126      -271.0560
   6   2.0000      -9.956083      -270.9188
   7   2.0000      -9.953812      -270.8570
   8   2.0000      -9.941485      -270.5216
   9   2.0000      -9.926529      -270.1146
  10   2.0000      -9.926456      -270.1126
  11   2.0000      -9.926054      -270.1017
  12   2.0000      -9.825309      -267.3603
  13   2.0000      -1.211776       -32.9741
  14   2.0000      -0.958052       -26.0699
  15   2.0000      -0.860988       -23.4287
  16   2.0000      -0.784785       -21.3551
  17   2.0000      -0.743283       -20.2258
  18   2.0000      -0.706761       -19.2320
  19   2.0000      -0.664761       -18.0891
  20   2.0000      -0.631388       -17.1809
  21   2.0000      -0.614197       -16.7131
  22   2.0000      -0.582171       -15.8417
  23   2.0000      -0.549521       -14.9532
  24   2.0000      -0.532459       -14.4890
  25   2.0000      -0.515972       -14.0403
  26   2.0000      -0.499150       -13.5826
  27   2.0000      -0.477416       -12.9912
  28   2.0000      -0.470846       -12.8124
  29   2.0000      -0.468329       -12.7439
  30   2.0000      -0.438708       -11.9379
  31   2.0000      -0.428312       -11.6550
  32   2.0000      -0.421145       -11.4599
  33   2.0000      -0.411104       -11.1867
  34   2.0000      -0.397298       -10.8110
  35   2.0000      -0.386083       -10.5059
  36   2.0000      -0.365335        -9.9413
  37   2.0000      -0.362755        -9.8711
  38   2.0000      -0.344669        -9.3789
  39   2.0000      -0.336053        -9.1445
  40   2.0000      -0.331973        -9.0334
  41   2.0000      -0.325232        -8.8500
  42   2.0000      -0.318302        -8.6614
  43   2.0000      -0.311329        -8.4717
  44   2.0000      -0.300640        -8.1808
  45   2.0000      -0.293876        -7.9968
  46   2.0000      -0.287972        -7.8361
  47   2.0000      -0.285054        -7.7567
  48   2.0000      -0.263451        -7.1689
  49   2.0000      -0.198014        -5.3882
  50   2.0000      -0.127007        -3.4560
  51   0.0000      -0.086368        -2.3502
  52   0.0000      -0.009860        -0.2683
  53   0.0000       0.002822         0.0768
  54   0.0000       0.006928         0.1885
  55   0.0000       0.016144         0.4393

MULLIKEN ATOMIC CHARGES
-----------------------
   0 C :    1.162419
   1 N :   -0.294844
   2 C :    0.892464
   3 C :    0.466686
   4 H :    0.050649
   5 H :   -0.419944
   6 C :    0.506817
   7 C :    0.125481
   8 N :    0.678885
   9 C :    1.071199
  10 H :   -0.224376
  11 H :   -0.908973
  12 H :   -0.190793
  13 H :   -0.110345
  14 H :   -0.451992
  15 F :   -0.375085
  16 O :   -0.497555
  17 C :    0.625304
  18 H :   -0.572554
  19 H :   -0.136650
  20 C :    0.255116
  21 H :   -0.114979
  22 H :   -0.277434
  23 C :    0.234641
  24 H :   -0.227651
  25 H :   -0.371150
  26 H :   -0.295585
  27 H :   -0.292348
  28 H :   -0.248863
  29 H :   -0.058540
Sum of atomic charges:   -0.0000000

LOEWDIN ATOMIC CHARGES
----------------------
   0 C :    0.054325
   1 N :    0.025943
   2 C :   -0.001777
   3 C :    0.065051
   4 H :    0.021929
   5 H :    0.037035
   6 C :    0.007163
   7 C :   -0.242761
   8 N :    0.248557
   9 C :    0.162009
  10 H :   -0.104771
  11 H :   -0.152234
  12 H :    0.018784
  13 H :   -0.016103
  14 H :   -0.095441
  15 F :   -0.009508
  16 O :   -0.097971
  17 C :   -0.006858
  18 H :    0.010593
  19 H :   -0.004179
  20 C :   -0.014603
  21 H :    0.015052
  22 H :    0.016129
  23 C :   -0.015766
  24 H :   -0.000058
  25 H :    0.020884
  26 H :   -0.011948
  27 H :    0.023854
  28 H :    0.022787
  29 H :    0.023881

  Mayer bond orders larger than 0.100000
B(  0-C ,  1-N ) :   0.9648 B(  0-C , 12-H ) :  -0.1101 B(  0-C , 17-C ) :   1.0496
B(  0-C , 18-H ) :   0.5487 B(  0-C , 19-H ) :   0.6724 B(  0-C , 20-C ) :   0.1345
B(  0-C , 21-H ) :   0.1856 B(  0-C , 22-H ) :   0.1849 B(  1-N ,  7-C ) :   1.1176
B(  1-N ,  9-C ) :   0.2436 B(  1-N , 12-H ) :   1.0881 B(  1-N , 18-H ) :   0.2914
B(  1-N , 19-H ) :   0.1544 B(  2-C ,  3-C ) :   1.1280 B(  2-C ,  4-H ) :   0.1350
B(  2-C ,  5-H ) :   0.2092 B(  2-C ,  6-C ) :   0.1009 B(  2-C , 23-C ) :   1.1963
B(  2-C , 26-H ) :   0.1057 B(  2-C , 28-H ) :   0.6205 B(  2-C , 29-H ) :   0.4795
B(  3-C ,  4-H ) :   0.7642 B(  3-C ,  5-H ) :   0.5808 B(  3-C ,  6-C ) :   1.1759
B(  3-C , 23-C ) :   0.1892 B(  3-C , 28-H ) :   0.2152 B(  3-C , 29-H ) :   0.1169
B(  4-H ,  5-H ) :  -0.1233 B(  4-H ,  6-C ) :   0.2254 B(  5-H ,  6-C ) :   0.2378
B(  6-C , 15-F ) :   0.7678 B(  6-C , 16-O ) :   1.7308 B(  7-C ,  8-N ) :   1.0312
B(  7-C ,  9-C ) :   1.7865 B(  7-C , 10-H ) :   0.4005 B(  7-C , 11-H ) :   0.4404
B(  7-C , 12-H ) :  -0.1203 B(  8-N ,  9-C ) :   0.2513 B(  8-N , 13-H ) :   0.8934
B(  8-N , 14-H ) :   0.9484 B(  9-C , 10-H ) :   0.3123 B(  9-C , 11-H ) :  -0.1784
B( 10-H , 11-H ) :   0.3533 B( 11-H , 15-F ) :   0.2201 B( 13-H , 14-H ) :  -0.2545
B( 14-H , 16-O ) :   0.1576 B( 15-F , 16-O ) :   0.1226 B( 17-C , 18-H ) :   0.1617
B( 17-C , 19-H ) :   0.1734 B( 17-C , 20-C ) :   1.2002 B( 17-C , 21-H ) :   0.7199
B( 17-C , 22-H ) :   0.5133 B( 17-C , 24-H ) :   0.1536 B( 18-H , 19-H ) :  -0.2094
B( 20-C , 21-H ) :   0.2041 B( 20-C , 22-H ) :   0.3393 B( 20-C , 23-C ) :   1.2534
B( 20-C , 24-H ) :   0.7981 B( 20-C , 25-H ) :   0.6443 B( 20-C , 26-H ) :   0.2110
B( 20-C , 27-H ) :   0.2661 B( 21-H , 22-H ) :  -0.1684 B( 23-C , 24-H ) :   0.2024
B( 23-C , 25-H ) :   0.2162 B( 23-C , 26-H ) :   0.8057 B( 23-C , 27-H ) :   0.5745
B( 23-C , 28-H ) :   0.2190 B( 23-C , 29-H ) :   0.3510 B( 28-H , 29-H ) :  -0.1826

Dispersion correction           -0.070003327
FINAL SINGLE POINT ENERGY      -637.074473721059

DIPOLE MOMENT
-------------
                                X             Y             Z
Electronic contribution:     -2.86351       1.30156     -12.78734
Nuclear contribution   :      2.27881      -0.10762      14.43322
                        -----------------------------------------
Total Dipole Moment    :     -0.58471       1.19395       1.64588
                        -----------------------------------------
Magnitude (a.u.)       :      2.11573
Magnitude (Debye)      :      5.37775

Rotational constants in cm-1:     0.033336     0.023673     0.017062
Rotational constants in MHz :   999.388459   709.685364   511.514310

                             ****ORCA TERMINATED NORMALLY****
TOTAL RUN TIME: 0 days 0 hours 0 minutes 40 seconds 25 msec
