                         Program Version 5.0.0 -  RELEASE  -
|  1> !BLYP D3BJ RIJCOSX def2-SVPD def2/J TightSCF xyzfile
|  2>
|  3> *xyzfile 0 1 D4.xyz
|  4>
|  5> %MaxCore 64000
|  6>
|  7> %pal nprocs 4
|  8> end
|  9>
| 10> %scf
| 11>   MaxIter 150
| 12> end
| 13>
| 14>
| 15>                          ****END OF INPUT****

CARTESIAN COORDINATES (ANGSTROEM)
---------------------------------
  C      2.234473   -2.989754   -2.397622
  C      2.756799   -2.945553   -3.765029
  C     -1.104325    0.251374   -2.860056
  C     -0.711893    0.842517   -4.218344
  H      0.154626    1.499800   -4.130909
  H     -1.538134    1.459222   -4.582671
  C     -0.397624   -0.205875   -5.288018
  C      1.987208   -2.590451   -4.818975
  N      0.743221   -3.017493   -4.913524
  N      2.499636   -1.848598   -5.803241
  H      3.309780   -1.292818   -5.558947
  H      1.801025   -1.304298   -6.289129
  H      3.716116   -2.628797   -3.829533
  H      0.395828   -3.627747   -4.185024
  H      0.039201   -2.454383   -5.371367
  O      0.617165   -0.005348   -5.998273
  F     -1.133173   -1.221380   -5.341465
  C      2.191199   -1.619503   -1.715492
  H      2.872783   -3.666368   -1.828014
  H      1.246188   -3.447444   -2.407842
  C      1.298729   -0.554314   -2.359773
  H      1.872917   -1.787955   -0.681310
  H      3.216809   -1.238432   -1.654428
  C     -0.196255   -0.863365   -2.325763
  H      1.612531   -0.371346   -3.393065
  H      1.480944    0.388638   -1.834444
  H     -0.404105   -1.761825   -2.909448
  H     -0.490439   -1.087880   -1.294131
  H     -1.143842    1.066711   -2.129680
  H     -2.114401   -0.156834   -2.930323

 Total Charge           Charge          ....    0
 Multiplicity           Mult            ....    1
 Number of Electrons    NEL             ....  102
 Basis Dimension        Dim             ....  402

ORBITAL ENERGIES
----------------

  NO   OCC          E(Eh)            E(eV)
   0   2.0000     -24.406123      -664.1244
   1   2.0000     -18.824174      -512.2318
   2   2.0000     -14.017004      -381.4221
   3   2.0000     -14.002928      -381.0390
   4   2.0000     -10.115108      -275.2461
   5   2.0000      -9.962003      -271.0799
   6   2.0000      -9.955623      -270.9063
   7   2.0000      -9.942815      -270.5578
   8   2.0000      -9.925751      -270.0934
   9   2.0000      -9.916053      -269.8295
  10   2.0000      -9.905889      -269.5530
  11   2.0000      -9.897517      -269.3251
  12   2.0000      -9.842625      -267.8314
  13   2.0000      -1.230371       -33.4801
  14   2.0000      -0.960834       -26.1456
  15   2.0000      -0.861327       -23.4379
  16   2.0000      -0.775214       -21.0946
  17   2.0000      -0.745684       -20.2911
  18   2.0000      -0.705640       -19.2014
  19   2.0000      -0.671247       -18.2656
  20   2.0000      -0.629022       -17.1166
  21   2.0000      -0.614697       -16.7268
  22   2.0000      -0.583933       -15.8896
  23   2.0000      -0.546726       -14.8772
  24   2.0000      -0.530611       -14.4386
  25   2.0000      -0.519000       -14.1227
  26   2.0000      -0.505421       -13.7532
  27   2.0000      -0.498810       -13.5733
  28   2.0000      -0.466342       -12.6898
  29   2.0000      -0.458568       -12.4783
  30   2.0000      -0.434049       -11.8111
  31   2.0000      -0.429317       -11.6823
  32   2.0000      -0.421441       -11.4680
  33   2.0000      -0.404086       -10.9957
  34   2.0000      -0.389036       -10.5862
  35   2.0000      -0.386514       -10.5176
  36   2.0000      -0.377860       -10.2821
  37   2.0000      -0.355626        -9.6771
  38   2.0000      -0.349891        -9.5210
  39   2.0000      -0.344664        -9.3788
  40   2.0000      -0.339245        -9.2313
  41   2.0000      -0.318220        -8.6592
  42   2.0000      -0.314279        -8.5520
  43   2.0000      -0.303156        -8.2493
  44   2.0000      -0.295587        -8.0433
  45   2.0000      -0.283042        -7.7020
  46   2.0000      -0.273699        -7.4477
  47   2.0000      -0.266501        -7.2519
  48   2.0000      -0.262228        -7.1356
  49   2.0000      -0.214509        -5.8371
  50   2.0000      -0.120680        -3.2839
  51   0.0000      -0.088790        -2.4161
  52   0.0000      -0.015460        -0.4207
  53   0.0000       0.007429         0.2021
  54   0.0000       0.014536         0.3955
  55   0.0000       0.015203         0.4137

MULLIKEN ATOMIC CHARGES
-----------------------
   0 C :    0.656472
   1 C :   -0.042404
   2 C :    0.860464
   3 C :    0.524023
   4 H :    0.067819
   5 H :   -0.439665
   6 C :    0.416557
   7 C :    0.127427
   8 N :    0.555917
   9 N :    0.359029
  10 H :    0.059968
  11 H :   -0.254416
  12 H :   -0.319976
  13 H :    0.003510
  14 H :   -0.560296
  15 O :   -0.377647
  16 F :   -0.402974
  17 C :    0.742993
  18 H :   -0.336925
  19 H :   -0.306913
  20 C :    0.287499
  21 H :   -0.155416
  22 H :   -0.248459
  23 C :    0.289131
  24 H :   -0.294883
  25 H :   -0.262680
  26 H :   -0.344024
  27 H :   -0.249703
  28 H :   -0.255378
  29 H :   -0.099047
Sum of atomic charges:    0.0000000

LOEWDIN ATOMIC CHARGES
----------------------
   0 C :   -0.052697
   1 C :   -0.001925
   2 C :   -0.012399
   3 C :    0.069456
   4 H :    0.031532
   5 H :    0.034015
   6 C :   -0.010753
   7 C :   -0.232893
   8 N :    0.247690
   9 N :    0.238578
  10 H :    0.003615
  11 H :   -0.098074
  12 H :   -0.061187
  13 H :   -0.003349
  14 H :   -0.076570
  15 O :   -0.106039
  16 F :   -0.012275
  17 C :   -0.013155
  18 H :    0.005042
  19 H :   -0.015051
  20 C :   -0.015558
  21 H :    0.011231
  22 H :    0.017744
  23 C :   -0.018486
  24 H :    0.000182
  25 H :    0.020394
  26 H :   -0.014374
  27 H :    0.024984
  28 H :    0.022603
  29 H :    0.017719

  Mayer bond orders larger than 0.100000
B(  0-C ,  1-C ) :   1.1634 B(  0-C ,  7-C ) :   0.1613 B(  0-C , 12-H ) :   0.4569
B(  0-C , 17-C ) :   1.0972 B(  0-C , 18-H ) :   0.5147 B(  0-C , 19-H ) :   0.6029
B(  0-C , 20-C ) :   0.1110 B(  0-C , 21-H ) :   0.2761 B(  0-C , 22-H ) :   0.2380
B(  1-C ,  7-C ) :   1.3328 B(  1-C ,  8-N ) :   0.1779 B(  1-C ,  9-N ) :   0.3529
B(  1-C , 12-H ) :   0.3549 B(  1-C , 17-C ) :   0.1052 B(  1-C , 18-H ) :   0.2867
B(  1-C , 19-H ) :   0.2917 B(  2-C ,  3-C ) :   1.1100 B(  2-C ,  4-H ) :   0.1265
B(  2-C ,  5-H ) :   0.2154 B(  2-C ,  6-C ) :   0.1073 B(  2-C , 23-C ) :   1.1810
B(  2-C , 26-H ) :   0.1500 B(  2-C , 28-H ) :   0.6359 B(  2-C , 29-H ) :   0.4803
B(  3-C ,  4-H ) :   0.7517 B(  3-C ,  5-H ) :   0.5820 B(  3-C ,  6-C ) :   1.1546
B(  3-C , 23-C ) :   0.1700 B(  3-C , 28-H ) :   0.1999 B(  3-C , 29-H ) :   0.1249
B(  4-H ,  5-H ) :  -0.1540 B(  4-H ,  6-C ) :   0.2649 B(  5-H ,  6-C ) :   0.2367
B(  5-H , 24-H ) :  -0.1093 B(  6-C , 15-O ) :   1.7287 B(  6-C , 16-F ) :   0.6811
B(  7-C ,  8-N ) :   1.1312 B(  7-C ,  9-N ) :   0.9489 B(  7-C , 11-H ) :   0.1632
B(  7-C , 12-H ) :   0.4443 B(  8-N ,  9-N ) :   0.1409 B(  8-N , 13-H ) :   0.8920
B(  8-N , 14-H ) :   1.0758 B(  9-N , 10-H ) :   0.8467 B(  9-N , 11-H ) :   0.7755
B( 11-H , 12-H ) :   0.1155 B( 11-H , 15-O ) :   0.1212 B( 13-H , 14-H ) :  -0.2438
B( 14-H , 16-F ) :   0.1091 B( 15-O , 16-F ) :   0.1119 B( 17-C , 18-H ) :   0.1488
B( 17-C , 19-H ) :   0.1660 B( 17-C , 20-C ) :   1.1927 B( 17-C , 21-H ) :   0.6282
B( 17-C , 22-H ) :   0.4907 B( 17-C , 24-H ) :   0.1544 B( 20-C , 21-H ) :   0.2046
B( 20-C , 22-H ) :   0.3742 B( 20-C , 23-C ) :   1.2555 B( 20-C , 24-H ) :   0.7535
B( 20-C , 25-H ) :   0.6139 B( 20-C , 26-H ) :   0.1996 B( 20-C , 27-H ) :   0.2694
B( 21-H , 22-H ) :  -0.1976 B( 23-C , 24-H ) :   0.2136 B( 23-C , 25-H ) :   0.2510
B( 23-C , 26-H ) :   0.7485 B( 23-C , 27-H ) :   0.6040 B( 23-C , 28-H ) :   0.2177
B( 23-C , 29-H ) :   0.3476 B( 28-H , 29-H ) :  -0.1849

Dispersion correction           -0.070146325
FINAL SINGLE POINT ENERGY      -637.089606299206

DIPOLE MOMENT
-------------
                                X             Y             Z
Electronic contribution:     -5.85437       0.06583     -13.43013
Nuclear contribution   :      4.38568       1.15960      13.97148
                        -----------------------------------------
Total Dipole Moment    :     -1.46868       1.22543       0.54134
                        -----------------------------------------
Magnitude (a.u.)       :      1.98791
Magnitude (Debye)      :      5.05286

Rotational constants in cm-1:     0.032892     0.023844     0.017123
Rotational constants in MHz :   986.091711   714.821905   513.334630

                             ****ORCA TERMINATED NORMALLY****
TOTAL RUN TIME: 0 days 0 hours 0 minutes 45 seconds 547 msec
