                         Program Version 5.0.0 -  RELEASE  -
|  1> !BLYP D3BJ RIJCOSX def2-SVPD def2/J TightSCF xyzfile
|  2>
|  3> *xyzfile 0 1 D6.xyz
|  4>
|  5> %MaxCore 64000
|  6>
|  7> %pal nprocs 4
|  8> end
|  9>
| 10> %scf
| 11>   MaxIter 150
| 12> end
| 13>
| 14>
| 15>                          ****END OF INPUT****

CARTESIAN COORDINATES (ANGSTROEM)
---------------------------------
  C      2.234473   -2.989754   -2.397622
  N      2.756799   -2.945553   -3.765029
  C     -1.104325    0.251374   -2.860056
  C     -0.711893    0.842517   -4.218344
  H      0.154626    1.499800   -4.130909
  H     -1.538134    1.459222   -4.582671
  C     -0.397624   -0.205875   -5.288018
  C      1.987208   -2.590451   -4.818975
  N      0.743221   -3.017493   -4.913524
  C      2.499636   -1.848598   -5.803241
  H      3.309780   -1.292818   -5.558947
  H      1.801025   -1.304298   -6.289129
  H      3.716116   -2.628797   -3.829533
  H      0.395828   -3.627747   -4.185024
  H      0.039201   -2.454383   -5.371367
  O      0.617165   -0.005348   -5.998273
  F     -1.133173   -1.221380   -5.341465
  C      2.191199   -1.619503   -1.715492
  H      2.872783   -3.666368   -1.828014
  H      1.246188   -3.447444   -2.407842
  C      1.298729   -0.554314   -2.359773
  H      1.872917   -1.787955   -0.681310
  H      3.216809   -1.238432   -1.654428
  C     -0.196255   -0.863365   -2.325763
  H      1.612531   -0.371346   -3.393065
  H      1.480944    0.388638   -1.834444
  H     -0.404105   -1.761825   -2.909448
  H     -0.490439   -1.087880   -1.294131
  H     -1.143842    1.066711   -2.129680
  H     -2.114401   -0.156834   -2.930323

 Total Charge           Charge          ....    0
 Multiplicity           Mult            ....    1
 Number of Electrons    NEL             ....  102
 Basis Dimension        Dim             ....  402

ORBITAL ENERGIES
----------------

  NO   OCC          E(Eh)            E(eV)
   0   2.0000     -24.393352      -663.7768
   1   2.0000     -18.806060      -511.7389
   2   2.0000     -14.017761      -381.4427
   3   2.0000     -14.015043      -381.3687
   4   2.0000     -10.099248      -274.8145
   5   2.0000      -9.957085      -270.9461
   6   2.0000      -9.955345      -270.8987
   7   2.0000      -9.953109      -270.8379
   8   2.0000      -9.941735      -270.5284
   9   2.0000      -9.930226      -270.2152
  10   2.0000      -9.926247      -270.1069
  11   2.0000      -9.924349      -270.0553
  12   2.0000      -9.819363      -267.1984
  13   2.0000      -1.218422       -33.1550
  14   2.0000      -0.942441       -25.6451
  15   2.0000      -0.864748       -23.5310
  16   2.0000      -0.790856       -21.5203
  17   2.0000      -0.744095       -20.2479
  18   2.0000      -0.706003       -19.2113
  19   2.0000      -0.662292       -18.0219
  20   2.0000      -0.632526       -17.2119
  21   2.0000      -0.609067       -16.5736
  22   2.0000      -0.589804       -16.0494
  23   2.0000      -0.548512       -14.9258
  24   2.0000      -0.541231       -14.7276
  25   2.0000      -0.516853       -14.0643
  26   2.0000      -0.502656       -13.6780
  27   2.0000      -0.492044       -13.3892
  28   2.0000      -0.475010       -12.9257
  29   2.0000      -0.447257       -12.1705
  30   2.0000      -0.438373       -11.9287
  31   2.0000      -0.428214       -11.6523
  32   2.0000      -0.418140       -11.3782
  33   2.0000      -0.409966       -11.1558
  34   2.0000      -0.394861       -10.7447
  35   2.0000      -0.387124       -10.5342
  36   2.0000      -0.365408        -9.9433
  37   2.0000      -0.360423        -9.8076
  38   2.0000      -0.341777        -9.3002
  39   2.0000      -0.337861        -9.1937
  40   2.0000      -0.334635        -9.1059
  41   2.0000      -0.326968        -8.8973
  42   2.0000      -0.321462        -8.7474
  43   2.0000      -0.312040        -8.4911
  44   2.0000      -0.292689        -7.9645
  45   2.0000      -0.291797        -7.9402
  46   2.0000      -0.291144        -7.9224
  47   2.0000      -0.284414        -7.7393
  48   2.0000      -0.238800        -6.4981
  49   2.0000      -0.203373        -5.5341
  50   2.0000      -0.125397        -3.4122
  51   0.0000      -0.074378        -2.0239
  52   0.0000      -0.013712        -0.3731
  53   0.0000       0.001622         0.0441
  54   0.0000       0.004058         0.1104
  55   0.0000       0.017438         0.4745

MULLIKEN ATOMIC CHARGES
-----------------------
   0 C :    1.165210
   1 N :   -0.298337
   2 C :    0.878037
   3 C :    0.515740
   4 H :    0.049899
   5 H :   -0.435577
   6 C :    0.388874
   7 C :    0.088113
   8 N :    0.688494
   9 C :    1.051932
  10 H :   -0.228638
  11 H :   -0.834963
  12 H :   -0.183563
  13 H :   -0.110649
  14 H :   -0.441875
  15 O :   -0.380427
  16 F :   -0.404457
  17 C :    0.643377
  18 H :   -0.575141
  19 H :   -0.141563
  20 C :    0.279066
  21 H :   -0.121678
  22 H :   -0.276983
  23 C :    0.263729
  24 H :   -0.231533
  25 H :   -0.384788
  26 H :   -0.335214
  27 H :   -0.274228
  28 H :   -0.257730
  29 H :   -0.095126
Sum of atomic charges:    0.0000000

LOEWDIN ATOMIC CHARGES
----------------------
   0 C :    0.053164
   1 N :    0.025978
   2 C :   -0.012822
   3 C :    0.069221
   4 H :    0.031026
   5 H :    0.032672
   6 C :   -0.010174
   7 C :   -0.239679
   8 N :    0.248676
   9 C :    0.173746
  10 H :   -0.097402
  11 H :   -0.169041
  12 H :    0.020193
  13 H :   -0.017191
  14 H :   -0.064742
  15 O :   -0.097133
  16 F :   -0.018112
  17 C :   -0.006897
  18 H :    0.010523
  19 H :   -0.005765
  20 C :   -0.010955
  21 H :    0.014437
  22 H :    0.016942
  23 C :   -0.020796
  24 H :    0.004964
  25 H :    0.022259
  26 H :   -0.015563
  27 H :    0.022948
  28 H :    0.021545
  29 H :    0.017980

  Mayer bond orders larger than 0.100000
B(  0-C ,  1-N ) :   0.9691 B(  0-C , 12-H ) :  -0.1075 B(  0-C , 17-C ) :   1.0462
B(  0-C , 18-H ) :   0.5477 B(  0-C , 19-H ) :   0.6715 B(  0-C , 20-C ) :   0.1337
B(  0-C , 21-H ) :   0.1879 B(  0-C , 22-H ) :   0.1853 B(  1-N ,  7-C ) :   1.1182
B(  1-N ,  9-C ) :   0.2464 B(  1-N , 12-H ) :   1.0824 B(  1-N , 18-H ) :   0.2922
B(  1-N , 19-H ) :   0.1554 B(  2-C ,  3-C ) :   1.1158 B(  2-C ,  4-H ) :   0.1161
B(  2-C ,  5-H ) :   0.2106 B(  2-C ,  6-C ) :   0.1024 B(  2-C , 23-C ) :   1.1857
B(  2-C , 26-H ) :   0.1162 B(  2-C , 28-H ) :   0.6389 B(  2-C , 29-H ) :   0.4759
B(  3-C ,  4-H ) :   0.7668 B(  3-C ,  5-H ) :   0.5817 B(  3-C ,  6-C ) :   1.1435
B(  3-C , 23-C ) :   0.1644 B(  3-C , 28-H ) :   0.1999 B(  3-C , 29-H ) :   0.1197
B(  4-H ,  5-H ) :  -0.1471 B(  4-H ,  6-C ) :   0.2822 B(  5-H ,  6-C ) :   0.2241
B(  6-C , 15-O ) :   1.8059 B(  6-C , 16-F ) :   0.6600 B(  7-C ,  8-N ) :   1.0282
B(  7-C ,  9-C ) :   1.7932 B(  7-C , 10-H ) :   0.4076 B(  7-C , 11-H ) :   0.4584
B(  7-C , 12-H ) :  -0.1247 B(  8-N ,  9-C ) :   0.2511 B(  8-N , 13-H ) :   0.9076
B(  8-N , 14-H ) :   0.9497 B(  9-C , 10-H ) :   0.2843 B( 10-H , 11-H ) :   0.3929
B( 11-H , 15-O ) :   0.2362 B( 13-H , 14-H ) :  -0.2407 B( 15-O , 16-F ) :   0.1079
B( 17-C , 18-H ) :   0.1607 B( 17-C , 19-H ) :   0.1755 B( 17-C , 20-C ) :   1.1933
B( 17-C , 21-H ) :   0.7132 B( 17-C , 22-H ) :   0.5098 B( 17-C , 24-H ) :   0.1523
B( 18-H , 19-H ) :  -0.2102 B( 20-C , 21-H ) :   0.2022 B( 20-C , 22-H ) :   0.3453
B( 20-C , 23-C ) :   1.2639 B( 20-C , 24-H ) :   0.7867 B( 20-C , 25-H ) :   0.6427
B( 20-C , 26-H ) :   0.2226 B( 20-C , 27-H ) :   0.2697 B( 21-H , 22-H ) :  -0.1719
B( 23-C , 24-H ) :   0.2036 B( 23-C , 25-H ) :   0.2145 B( 23-C , 26-H ) :   0.7578
B( 23-C , 27-H ) :   0.5906 B( 23-C , 28-H ) :   0.2231 B( 23-C , 29-H ) :   0.3451
B( 28-H , 29-H ) :  -0.1892

Dispersion correction           -0.069976213
FINAL SINGLE POINT ENERGY      -637.065117122106

DIPOLE MOMENT
-------------
                                X             Y             Z
Electronic contribution:     -5.59686      -0.80946     -11.75096
Nuclear contribution   :      4.34606       1.32859      13.65749
                        -----------------------------------------
Total Dipole Moment    :     -1.25079       0.51913       1.90653
                        -----------------------------------------
Magnitude (a.u.)       :      2.33855
Magnitude (Debye)      :      5.94413

Rotational constants in cm-1:     0.033551     0.023540     0.017085
Rotational constants in MHz :  1005.818710   705.725032   512.192443

                             ****ORCA TERMINATED NORMALLY****
TOTAL RUN TIME: 0 days 0 hours 0 minutes 44 seconds 735 msec
