                         Program Version 5.0.0 -  RELEASE  -
|  1> !TPSS D3BJ RIJCOSX def2-SVPD def2/J TightSCF
|  2> *xyz -1 1
|  3> C         -0.87096        0.24804       -2.66280
|  4> C         -0.47749        0.60819       -4.10105
|  5> H          0.20677        1.45830       -4.11875
|  6> H         -1.36844        0.92942       -4.64785
|  7> C          0.18467       -0.50664       -4.91676
|  8> O         -0.15869       -1.70109       -4.65798
|  9> O          1.05594       -0.17441       -5.74037
| 10> H         -1.54056       -0.58646       -2.67455
| 11> H         -1.35339        1.08600       -2.20455
| 12> H          0.00660       -0.00662       -2.10609
| 13> *
| 14>
| 15> %MaxCore 64000
| 16>
| 17> %pal nprocs 4
| 18> end
| 19>
| 20> %scf
| 21>   MaxIter 150
| 22> end
| 23>
| 24>
| 25>                          ****END OF INPUT****

CARTESIAN COORDINATES (ANGSTROEM)
---------------------------------
  C     -0.870960    0.248040   -2.662800
  C     -0.477490    0.608190   -4.101050
  H      0.206770    1.458300   -4.118750
  H     -1.368440    0.929420   -4.647850
  C      0.184670   -0.506640   -4.916760
  O     -0.158690   -1.701090   -4.657980
  O      1.055940   -0.174410   -5.740370
  H     -1.540560   -0.586460   -2.674550
  H     -1.353390    1.086000   -2.204550
  H      0.006600   -0.006620   -2.106090

 Total Charge           Charge          ....   -1
 Multiplicity           Mult            ....    1
 Number of Electrons    NEL             ....   40
 Basis Dimension        Dim             ....  146

ORBITAL ENERGIES
----------------

  NO   OCC          E(Eh)            E(eV)
   0   2.0000     -18.639900      -507.2175
   1   2.0000     -18.636651      -507.1290
   2   2.0000      -9.876329      -268.7486
   3   2.0000      -9.837900      -267.7029
   4   2.0000      -9.826872      -267.4028
   5   2.0000      -0.740335       -20.1455
   6   2.0000      -0.649939       -17.6857
   7   2.0000      -0.539970       -14.6933
   8   2.0000      -0.418761       -11.3951
   9   2.0000      -0.269056        -7.3214
  10   2.0000      -0.251141        -6.8339
  11   2.0000      -0.213452        -5.8083
  12   2.0000      -0.184754        -5.0274
  13   2.0000      -0.175275        -4.7695
  14   2.0000      -0.163000        -4.4354
  15   2.0000      -0.134636        -3.6636
  16   2.0000      -0.121547        -3.3075
  17   2.0000      -0.013196        -0.3591
  18   2.0000      -0.001054        -0.0287
  19   2.0000       0.015271         0.4155
  20   0.0000       0.145626         3.9627
  21   0.0000       0.181090         4.9277
  22   0.0000       0.193294         5.2598
  23   0.0000       0.200015         5.4427
  24   0.0000       0.225032         6.1234

MULLIKEN ATOMIC CHARGES
-----------------------
   0 C :    0.560987
   1 C :   -0.402162
   2 H :   -0.026360
   3 H :   -0.008656
   4 C :    0.455400
   5 O :   -0.747031
   6 O :   -0.684474
   7 H :   -0.020852
   8 H :   -0.077452
   9 H :   -0.049399
Sum of atomic charges:   -1.0000000

LOEWDIN ATOMIC CHARGES
----------------------
   0 C :    0.102786
   1 C :   -0.033370
   2 H :   -0.007933
   3 H :    0.002980
   4 C :   -0.301710
   5 O :   -0.326119
   6 O :   -0.320448
   7 H :   -0.035364
   8 H :   -0.051113
   9 H :   -0.029711

  Mayer bond orders larger than 0.100000
B(  0-C ,  1-C ) :   1.2622 B(  0-C ,  7-H ) :   0.8336 B(  0-C ,  8-H ) :   0.8217
B(  0-C ,  9-H ) :   0.8542 B(  1-C ,  2-H ) :   0.9621 B(  1-C ,  3-H ) :   0.9096
B(  1-C ,  4-C ) :   1.0591 B(  1-C ,  7-H ) :   0.2122 B(  1-C ,  8-H ) :   0.2080
B(  1-C ,  9-H ) :   0.1739 B(  2-H ,  4-C ) :   0.1824 B(  4-C ,  5-O ) :   1.4378
B(  4-C ,  6-O ) :   1.4516

Dispersion correction           -0.008004854
FINAL SINGLE POINT ENERGY      -267.703720933465

DIPOLE MOMENT
-------------
                                X             Y             Z
Electronic contribution:      2.65395      -2.94937      -4.58767
Nuclear contribution   :     -3.54611       4.15440       5.90446
                        -----------------------------------------
Total Dipole Moment    :     -0.89217       1.20503       1.31679
                        -----------------------------------------
Magnitude (a.u.)       :      1.99550
Magnitude (Debye)      :      5.07215

Rotational constants in cm-1:     0.332789     0.132085     0.101080
Rotational constants in MHz :  9976.755824  3959.803182  3030.288811

                             ****ORCA TERMINATED NORMALLY****
TOTAL RUN TIME: 0 days 0 hours 0 minutes 14 seconds 109 msec
