                         Program Version 5.0.0 -  RELEASE  -
|  1> !TPSS D3BJ RIJCOSX def2-SVPD def2/J TightSCF
|  2> *xyz 1 1
|  3> C          2.48645       -2.67712       -2.56345
|  4> C          3.03764       -2.36672       -3.92351
|  5> N          2.28036       -2.45441       -4.96769
|  6> N          4.32174       -2.01793       -4.01664
|  7> H          4.87994       -1.91167       -3.17382
|  8> H          4.71015       -1.67088       -4.88356
|  9> H          1.27042       -2.41265       -4.86614
| 10> H          2.58183       -2.05528       -5.84688
| 11> C          2.49799       -1.46946       -1.61030
| 12> H          1.47259       -3.05153       -2.69437
| 13> H          3.08320       -3.49064       -2.14147
| 14> H          1.91240       -0.67831       -2.02991
| 15> H          3.50450       -1.13364       -1.47227
| 16> H          2.08509       -1.75655       -0.66585
| 17> *
| 18>
| 19> %MaxCore 64000
| 20>
| 21> %pal nprocs 4
| 22> end
| 23>
| 24> %scf
| 25>   MaxIter 150
| 26> end
| 27>
| 28>
| 29>                          ****END OF INPUT****

CARTESIAN COORDINATES (ANGSTROEM)
---------------------------------
  C      2.486450   -2.677120   -2.563450
  C      3.037640   -2.366720   -3.923510
  N      2.280360   -2.454410   -4.967690
  N      4.321740   -2.017930   -4.016640
  H      4.879940   -1.911670   -3.173820
  H      4.710150   -1.670880   -4.883560
  H      1.270420   -2.412650   -4.866140
  H      2.581830   -2.055280   -5.846880
  C      2.497990   -1.469460   -1.610300
  H      1.472590   -3.051530   -2.694370
  H      3.083200   -3.490640   -2.141470
  H      1.912400   -0.678310   -2.029910
  H      3.504500   -1.133640   -1.472270
  H      2.085090   -1.756550   -0.665850

 Total Charge           Charge          ....    1
 Multiplicity           Mult            ....    1
 Number of Electrons    NEL             ....   40
 Basis Dimension        Dim             ....  172

ORBITAL ENERGIES
----------------

  NO   OCC          E(Eh)            E(eV)
   0   2.0000     -14.368111      -390.9762
   1   2.0000     -14.363281      -390.8448
   2   2.0000     -10.314968      -280.6845
   3   2.0000     -10.200591      -277.5722
   4   2.0000     -10.161780      -276.5161
   5   2.0000      -1.134157       -30.8620
   6   2.0000      -1.043587       -28.3974
   7   2.0000      -0.907199       -24.6861
   8   2.0000      -0.811481       -22.0815
   9   2.0000      -0.765095       -20.8193
  10   2.0000      -0.729679       -19.8556
  11   2.0000      -0.704229       -19.1630
  12   2.0000      -0.660623       -17.9765
  13   2.0000      -0.609978       -16.5984
  14   2.0000      -0.583905       -15.8889
  15   2.0000      -0.568729       -15.4759
  16   2.0000      -0.512179       -13.9371
  17   2.0000      -0.502914       -13.6850
  18   2.0000      -0.494134       -13.4461
  19   2.0000      -0.460863       -12.5407
  20   0.0000      -0.244326        -6.6485
  21   0.0000      -0.173026        -4.7083
  22   0.0000      -0.132323        -3.6007
  23   0.0000      -0.130801        -3.5593
  24   0.0000      -0.099117        -2.6971

MULLIKEN ATOMIC CHARGES
-----------------------
   0 C :   -0.309368
   1 C :    0.687360
   2 N :    0.083925
   3 N :    0.048485
   4 H :    0.029360
   5 H :   -0.124998
   6 H :    0.013617
   7 H :   -0.088326
   8 C :    0.641234
   9 H :    0.037619
  10 H :    0.059580
  11 H :   -0.058577
  12 H :   -0.055392
  13 H :    0.035479
Sum of atomic charges:    1.0000000

LOEWDIN ATOMIC CHARGES
----------------------
   0 C :    0.022845
   1 C :   -0.047382
   2 N :    0.284260
   3 N :    0.290583
   4 H :    0.048639
   5 H :    0.044428
   6 H :    0.059465
   7 H :    0.049808
   8 C :    0.182503
   9 H :    0.031268
  10 H :    0.049868
  11 H :   -0.003783
  12 H :   -0.018370
  13 H :    0.005868

  Mayer bond orders larger than 0.100000
B(  0-C ,  1-C ) :   1.1632 B(  0-C ,  8-C ) :   1.2718 B(  0-C ,  9-H ) :   0.8854
B(  0-C , 10-H ) :   0.8735 B(  0-C , 11-H ) :   0.1533 B(  0-C , 12-H ) :   0.1796
B(  0-C , 13-H ) :   0.1472 B(  1-C ,  2-N ) :   1.0790 B(  1-C ,  3-N ) :   1.0729
B(  1-C ,  5-H ) :  -0.1551 B(  1-C ,  7-H ) :  -0.1321 B(  1-C ,  9-H ) :   0.1512
B(  2-N ,  3-N ) :   0.1723 B(  2-N ,  6-H ) :   1.0655 B(  2-N ,  7-H ) :   1.2117
B(  3-N ,  4-H ) :   1.0945 B(  3-N ,  5-H ) :   1.2902 B(  4-H ,  5-H ) :  -0.1672
B(  6-H ,  7-H ) :  -0.1246 B(  8-C , 11-H ) :   0.8462 B(  8-C , 12-H ) :   0.8066
B(  8-C , 13-H ) :   0.8450

Dispersion correction           -0.012449758
FINAL SINGLE POINT ENERGY      -228.924471664185

DIPOLE MOMENT
-------------
                                X             Y             Z
Electronic contribution:      1.07096      -1.07630      -3.92459
Nuclear contribution   :     -0.84604       1.34287       2.92710
                        -----------------------------------------
Total Dipole Moment    :      0.22492       0.26657      -0.99749
                        -----------------------------------------
Magnitude (a.u.)       :      1.05671
Magnitude (Debye)      :      2.68595

Rotational constants in cm-1:     0.265816     0.126189     0.097583
Rotational constants in MHz :  7968.948902  3783.040103  2925.457702

                             ****ORCA TERMINATED NORMALLY****
TOTAL RUN TIME: 0 days 0 hours 0 minutes 12 seconds 921 msec
