                         Program Version 5.0.0 -  RELEASE  -
|  1> !TPSS D3BJ RIJCOSX def2-SVPD def2/J TightSCF
|  2> *xyz 0 1
|  3> C         -0.87096        0.24804       -2.66280
|  4> C         -0.47749        0.60819       -4.10105
|  5> H          0.20677        1.45830       -4.11875
|  6> H         -1.36844        0.92942       -4.64785
|  7> C          0.18467       -0.50664       -4.91676
|  8> F         -0.15869       -1.70109       -4.65798
|  9> O          1.05594       -0.17441       -5.74037
| 10> H         -1.54056       -0.58646       -2.67455
| 11> H         -1.35339        1.08600       -2.20455
| 12> H          0.00660       -0.00662       -2.10609
| 13> *
| 14>
| 15> %MaxCore 64000
| 16>
| 17> %pal nprocs 4
| 18> end
| 19>
| 20> %scf
| 21>   MaxIter 150
| 22> end
| 23>
| 24>
| 25>                          ****END OF INPUT****

CARTESIAN COORDINATES (ANGSTROEM)
---------------------------------
  C     -0.870960    0.248040   -2.662800
  C     -0.477490    0.608190   -4.101050
  H      0.206770    1.458300   -4.118750
  H     -1.368440    0.929420   -4.647850
  C      0.184670   -0.506640   -4.916760
  F     -0.158690   -1.701090   -4.657980
  O      1.055940   -0.174410   -5.740370
  H     -1.540560   -0.586460   -2.674550
  H     -1.353390    1.086000   -2.204550
  H      0.006600   -0.006620   -2.106090

 Total Charge           Charge          ....    0
 Multiplicity           Mult            ....    1
 Number of Electrons    NEL             ....   40
 Basis Dimension        Dim             ....  146

ORBITAL ENERGIES
----------------

  NO   OCC          E(Eh)            E(eV)
   0   2.0000     -24.492836      -666.4839
   1   2.0000     -18.908410      -514.5240
   2   2.0000     -10.170631      -276.7569
   3   2.0000     -10.034618      -273.0558
   4   2.0000     -10.011827      -272.4357
   5   2.0000      -1.216467       -33.1018
   6   2.0000      -0.961537       -26.1648
   7   2.0000      -0.739389       -20.1198
   8   2.0000      -0.626502       -17.0480
   9   2.0000      -0.585375       -15.9289
  10   2.0000      -0.493777       -13.4363
  11   2.0000      -0.485842       -13.2204
  12   2.0000      -0.445269       -12.1164
  13   2.0000      -0.425142       -11.5687
  14   2.0000      -0.391528       -10.6540
  15   2.0000      -0.361532        -9.8378
  16   2.0000      -0.349779        -9.5180
  17   2.0000      -0.341249        -9.2859
  18   2.0000      -0.315667        -8.5897
  19   2.0000      -0.250889        -6.8270
  20   0.0000      -0.063319        -1.7230
  21   0.0000      -0.000913        -0.0249
  22   0.0000       0.037553         1.0219
  23   0.0000       0.044661         1.2153
  24   0.0000       0.061713         1.6793

MULLIKEN ATOMIC CHARGES
-----------------------
   0 C :    0.587330
   1 C :   -0.451278
   2 H :    0.007203
   3 H :    0.060160
   4 C :    0.787331
   5 F :   -0.406549
   6 O :   -0.496381
   7 H :   -0.016710
   8 H :   -0.045853
   9 H :   -0.025253
Sum of atomic charges:   -0.0000000

LOEWDIN ATOMIC CHARGES
----------------------
   0 C :    0.141113
   1 C :    0.017764
   2 H :    0.029313
   3 H :    0.035577
   4 C :   -0.010222
   5 F :   -0.036450
   6 O :   -0.125864
   7 H :   -0.019528
   8 H :   -0.017623
   9 H :   -0.014080

  Mayer bond orders larger than 0.100000
B(  0-C ,  1-C ) :   1.3034 B(  0-C ,  7-H ) :   0.8299 B(  0-C ,  8-H ) :   0.8193
B(  0-C ,  9-H ) :   0.8545 B(  1-C ,  2-H ) :   0.9704 B(  1-C ,  3-H ) :   0.8805
B(  1-C ,  4-C ) :   1.0577 B(  1-C ,  7-H ) :   0.1792 B(  1-C ,  8-H ) :   0.1989
B(  1-C ,  9-H ) :   0.1590 B(  2-H ,  4-C ) :   0.1294 B(  4-C ,  5-F ) :   0.7103
B(  4-C ,  6-O ) :   1.7568 B(  5-F ,  6-O ) :   0.1009

Dispersion correction           -0.007539090
FINAL SINGLE POINT ENERGY      -292.242141330903

DIPOLE MOMENT
-------------
                                X             Y             Z
Electronic contribution:      2.62830      -5.36503      -5.31393
Nuclear contribution   :     -3.42837       5.66737       6.17046
                        -----------------------------------------
Total Dipole Moment    :     -0.80007       0.30234       0.85653
                        -----------------------------------------
Magnitude (a.u.)       :      1.21044
Magnitude (Debye)      :      3.07669

Rotational constants in cm-1:     0.304660     0.130969     0.097716
Rotational constants in MHz :  9133.464515  3926.366384  2929.457090

                             ****ORCA TERMINATED NORMALLY****
TOTAL RUN TIME: 0 days 0 hours 0 minutes 10 seconds 642 msec
