                         Program Version 5.0.0 -  RELEASE  -
|  1> !TPSS D3BJ RIJCOSX def2-SVPD def2/J TightSCF
|  2> *xyz 0 1
|  3> C          2.48645       -2.67712       -2.56345
|  4> C          3.03764       -2.36672       -3.92351
|  5> C          2.28036       -2.45441       -4.96769
|  6> N          4.32174       -2.01793       -4.01664
|  7> H          4.87994       -1.91167       -3.17382
|  8> H          4.71015       -1.67088       -4.88356
|  9> H          1.27042       -2.41265       -4.86614
| 10> H          2.58183       -2.05528       -5.84688
| 11> C          2.49799       -1.46946       -1.61030
| 12> H          1.47259       -3.05153       -2.69437
| 13> H          3.08320       -3.49064       -2.14147
| 14> H          1.91240       -0.67831       -2.02991
| 15> H          3.50450       -1.13364       -1.47227
| 16> H          2.08509       -1.75655       -0.66585
| 17> *
| 18>
| 19> %MaxCore 64000
| 20>
| 21> %pal nprocs 4
| 22> end
| 23>
| 24> %scf
| 25>   MaxIter 150
| 26> end
| 27>
| 28>
| 29>                          ****END OF INPUT****

CARTESIAN COORDINATES (ANGSTROEM)
---------------------------------
  C      2.486450   -2.677120   -2.563450
  C      3.037640   -2.366720   -3.923510
  C      2.280360   -2.454410   -4.967690
  N      4.321740   -2.017930   -4.016640
  H      4.879940   -1.911670   -3.173820
  H      4.710150   -1.670880   -4.883560
  H      1.270420   -2.412650   -4.866140
  H      2.581830   -2.055280   -5.846880
  C      2.497990   -1.469460   -1.610300
  H      1.472590   -3.051530   -2.694370
  H      3.083200   -3.490640   -2.141470
  H      1.912400   -0.678310   -2.029910
  H      3.504500   -1.133640   -1.472270
  H      2.085090   -1.756550   -0.665850

 Total Charge           Charge          ....    0
 Multiplicity           Mult            ....    1
 Number of Electrons    NEL             ....   40
 Basis Dimension        Dim             ....  172

ORBITAL ENERGIES
----------------

  NO   OCC          E(Eh)            E(eV)
   0   2.0000     -14.120447      -384.2369
   1   2.0000     -10.013718      -272.4871
   2   2.0000     -10.000137      -272.1176
   3   2.0000      -9.992146      -271.9001
   4   2.0000      -9.931212      -270.2420
   5   2.0000      -0.853489       -23.2246
   6   2.0000      -0.715694       -19.4750
   7   2.0000      -0.663130       -18.0447
   8   2.0000      -0.580770       -15.8036
   9   2.0000      -0.517996       -14.0954
  10   2.0000      -0.480662       -13.0795
  11   2.0000      -0.433386       -11.7930
  12   2.0000      -0.396390       -10.7863
  13   2.0000      -0.389923       -10.6104
  14   2.0000      -0.348610        -9.4862
  15   2.0000      -0.344081        -9.3629
  16   2.0000      -0.318956        -8.6792
  17   2.0000      -0.296652        -8.0723
  18   2.0000      -0.287727        -7.8294
  19   2.0000      -0.166099        -4.5198
  20   0.0000       0.003813         0.1038
  21   0.0000       0.018046         0.4911
  22   0.0000       0.042109         1.1458
  23   0.0000       0.047724         1.2986
  24   0.0000       0.058168         1.5828

MULLIKEN ATOMIC CHARGES
-----------------------
   0 C :   -0.243275
   1 C :   -0.069851
   2 C :    0.305600
   3 N :    0.166527
   4 H :   -0.139396
   5 H :   -0.192175
   6 H :    0.011489
   7 H :   -0.389073
   8 C :    0.633099
   9 H :    0.110876
  10 H :   -0.035741
  11 H :   -0.048536
  12 H :   -0.069204
  13 H :   -0.040339
Sum of atomic charges:   -0.0000000

LOEWDIN ATOMIC CHARGES
----------------------
   0 C :   -0.020254
   1 C :   -0.260829
   2 C :    0.164163
   3 N :    0.178773
   4 H :   -0.005063
   5 H :    0.003571
   6 H :   -0.077690
   7 H :   -0.085807
   8 C :    0.142882
   9 H :    0.016199
  10 H :    0.019402
  11 H :   -0.016477
  12 H :   -0.035604
  13 H :   -0.023267

  Mayer bond orders larger than 0.100000
B(  0-C ,  1-C ) :   1.2311 B(  0-C ,  8-C ) :   1.2306 B(  0-C ,  9-H ) :   0.8717
B(  0-C , 10-H ) :   0.8982 B(  0-C , 11-H ) :   0.1447 B(  0-C , 12-H ) :   0.2071
B(  0-C , 13-H ) :   0.1861 B(  1-C ,  2-C ) :   1.9119 B(  1-C ,  3-N ) :   1.1784
B(  1-C ,  6-H ) :   0.1135 B(  1-C ,  7-H ) :   0.2626 B(  1-C ,  9-H ) :   0.1222
B(  1-C , 10-H ) :   0.1577 B(  2-C ,  3-N ) :   0.2702 B(  2-C ,  6-H ) :   0.8650
B(  2-C ,  7-H ) :   0.6911 B(  3-N ,  4-H ) :   1.1530 B(  3-N ,  5-H ) :   1.2331
B(  4-H ,  5-H ) :  -0.1372 B(  6-H ,  7-H ) :   0.1718 B(  8-C , 11-H ) :   0.8540
B(  8-C , 12-H ) :   0.7980 B(  8-C , 13-H ) :   0.8335

Dispersion correction           -0.012943051
FINAL SINGLE POINT ENERGY      -212.462420645718

DIPOLE MOMENT
-------------
                                X             Y             Z
Electronic contribution:      1.54133      -0.88471      -2.15282
Nuclear contribution   :     -0.99743       1.27863       2.57190
                        -----------------------------------------
Total Dipole Moment    :      0.54390       0.39392       0.41908
                        -----------------------------------------
Magnitude (a.u.)       :      0.79159
Magnitude (Debye)      :      2.01207

Rotational constants in cm-1:     0.274050     0.130114     0.100964
Rotational constants in MHz :  8215.815505  3900.722919  3026.834930

                             ****ORCA TERMINATED NORMALLY****
TOTAL RUN TIME: 0 days 0 hours 0 minutes 16 seconds 284 msec
