                         Program Version 5.0.0 -  RELEASE  -
|  1> !TPSS D3BJ RIJCOSX def2-SVPD def2/J TightSCF
|  2> *xyz 0 1
|  3> C         -0.87096        0.24804       -2.66280
|  4> C         -0.47749        0.60819       -4.10105
|  5> H          0.20677        1.45830       -4.11875
|  6> H         -1.36844        0.92942       -4.64785
|  7> C          0.18467       -0.50664       -4.91676
|  8> O         -0.15869       -1.70109       -4.65798
|  9> F          1.05594       -0.17441       -5.74037
| 10> H         -1.54056       -0.58646       -2.67455
| 11> H         -1.35339        1.08600       -2.20455
| 12> H          0.00660       -0.00662       -2.10609
| 13> *
| 14>
| 15> %MaxCore 64000
| 16>
| 17> %pal nprocs 4
| 18> end
| 19>
| 20> %scf
| 21>   MaxIter 150
| 22> end
| 23>
| 24>
| 25>                          ****END OF INPUT****

CARTESIAN COORDINATES (ANGSTROEM)
---------------------------------
  C     -0.870960    0.248040   -2.662800
  C     -0.477490    0.608190   -4.101050
  H      0.206770    1.458300   -4.118750
  H     -1.368440    0.929420   -4.647850
  C      0.184670   -0.506640   -4.916760
  O     -0.158690   -1.701090   -4.657980
  F      1.055940   -0.174410   -5.740370
  H     -1.540560   -0.586460   -2.674550
  H     -1.353390    1.086000   -2.204550
  H      0.006600   -0.006620   -2.106090

 Total Charge           Charge          ....    0
 Multiplicity           Mult            ....    1
 Number of Electrons    NEL             ....   40
 Basis Dimension        Dim             ....  146

ORBITAL ENERGIES
----------------

  NO   OCC          E(Eh)            E(eV)
   0   2.0000     -24.501836      -666.7289
   1   2.0000     -18.905204      -514.4368
   2   2.0000     -10.172705      -276.8134
   3   2.0000     -10.035692      -273.0851
   4   2.0000     -10.006289      -272.2850
   5   2.0000      -1.234780       -33.6001
   6   2.0000      -0.946959       -25.7681
   7   2.0000      -0.735708       -20.0196
   8   2.0000      -0.635039       -17.2803
   9   2.0000      -0.584769       -15.9124
  10   2.0000      -0.501042       -13.6340
  11   2.0000      -0.486315       -13.2333
  12   2.0000      -0.456013       -12.4088
  13   2.0000      -0.425142       -11.5687
  14   2.0000      -0.388590       -10.5741
  15   2.0000      -0.356498        -9.7008
  16   2.0000      -0.339877        -9.2485
  17   2.0000      -0.335415        -9.1271
  18   2.0000      -0.310885        -8.4596
  19   2.0000      -0.247624        -6.7382
  20   0.0000      -0.065766        -1.7896
  21   0.0000       0.002652         0.0722
  22   0.0000       0.033239         0.9045
  23   0.0000       0.048053         1.3076
  24   0.0000       0.060501         1.6463

MULLIKEN ATOMIC CHARGES
-----------------------
   0 C :    0.576313
   1 C :   -0.455669
   2 H :    0.017959
   3 H :    0.064138
   4 C :    0.778177
   5 O :   -0.544451
   6 F :   -0.358690
   7 H :   -0.006988
   8 H :   -0.045104
   9 H :   -0.025686
Sum of atomic charges:    0.0000000

LOEWDIN ATOMIC CHARGES
----------------------
   0 C :    0.150882
   1 C :    0.008675
   2 H :    0.017948
   3 H :    0.035335
   4 C :   -0.010690
   5 O :   -0.136078
   6 F :   -0.022381
   7 H :   -0.014547
   8 H :   -0.017464
   9 H :   -0.011682

  Mayer bond orders larger than 0.100000
B(  0-C ,  1-C ) :   1.3367 B(  0-C ,  7-H ) :   0.8285 B(  0-C ,  8-H ) :   0.8152
B(  0-C ,  9-H ) :   0.8502 B(  1-C ,  2-H ) :   0.9369 B(  1-C ,  3-H ) :   0.8815
B(  1-C ,  4-C ) :   1.0920 B(  1-C ,  7-H ) :   0.1925 B(  1-C ,  8-H ) :   0.1938
B(  1-C ,  9-H ) :   0.1686 B(  2-H ,  4-C ) :   0.1133 B(  4-C ,  5-O ) :   1.7472
B(  4-C ,  6-F ) :   0.7400

Dispersion correction           -0.007603748
FINAL SINGLE POINT ENERGY      -292.235696803069

DIPOLE MOMENT
-------------
                                X             Y             Z
Electronic contribution:      4.64876      -2.86187      -7.12278
Nuclear contribution   :     -4.75269       4.00281       7.35060
                        -----------------------------------------
Total Dipole Moment    :     -0.10393       1.14095       0.22782
                        -----------------------------------------
Magnitude (a.u.)       :      1.16810
Magnitude (Debye)      :      2.96909

Rotational constants in cm-1:     0.323805     0.124913     0.096140
Rotational constants in MHz :  9707.430323  3744.789513  2882.191141

                             ****ORCA TERMINATED NORMALLY****
TOTAL RUN TIME: 0 days 0 hours 0 minutes 11 seconds 58 msec
