                         Program Version 5.0.0 -  RELEASE  -
|  1> !TPSS D3BJ RIJCOSX def2-SVPD def2/J TightSCF
|  2> *xyz 0 1
|  3> C          2.48645       -2.67712       -2.56345
|  4> C          3.03764       -2.36672       -3.92351
|  5> N          2.28036       -2.45441       -4.96769
|  6> C          4.32174       -2.01793       -4.01664
|  7> H          4.87994       -1.91167       -3.17382
|  8> H          4.71015       -1.67088       -4.88356
|  9> H          1.27042       -2.41265       -4.86614
| 10> H          2.58183       -2.05528       -5.84688
| 11> C          2.49799       -1.46946       -1.61030
| 12> H          1.47259       -3.05153       -2.69437
| 13> H          3.08320       -3.49064       -2.14147
| 14> H          1.91240       -0.67831       -2.02991
| 15> H          3.50450       -1.13364       -1.47227
| 16> H          2.08509       -1.75655       -0.66585
| 17> *
| 18>
| 19> %MaxCore 64000
| 20>
| 21> %pal nprocs 4
| 22> end
| 23>
| 24> %scf
| 25>   MaxIter 150
| 26> end
| 27>
| 28>
| 29>                          ****END OF INPUT****

CARTESIAN COORDINATES (ANGSTROEM)
---------------------------------
  C      2.486450   -2.677120   -2.563450
  C      3.037640   -2.366720   -3.923510
  N      2.280360   -2.454410   -4.967690
  C      4.321740   -2.017930   -4.016640
  H      4.879940   -1.911670   -3.173820
  H      4.710150   -1.670880   -4.883560
  H      1.270420   -2.412650   -4.866140
  H      2.581830   -2.055280   -5.846880
  C      2.497990   -1.469460   -1.610300
  H      1.472590   -3.051530   -2.694370
  H      3.083200   -3.490640   -2.141470
  H      1.912400   -0.678310   -2.029910
  H      3.504500   -1.133640   -1.472270
  H      2.085090   -1.756550   -0.665850

 Total Charge           Charge          ....    0
 Multiplicity           Mult            ....    1
 Number of Electrons    NEL             ....   40
 Basis Dimension        Dim             ....  172

ORBITAL ENERGIES
----------------

  NO   OCC          E(Eh)            E(eV)
   0   2.0000     -14.124005      -384.3337
   1   2.0000     -10.013729      -272.4874
   2   2.0000     -10.000788      -272.1353
   3   2.0000      -9.988262      -271.7944
   4   2.0000      -9.932385      -270.2739
   5   2.0000      -0.868115       -23.6226
   6   2.0000      -0.716707       -19.5026
   7   2.0000      -0.648382       -17.6434
   8   2.0000      -0.585743       -15.9389
   9   2.0000      -0.521349       -14.1866
  10   2.0000      -0.477417       -12.9912
  11   2.0000      -0.437547       -11.9063
  12   2.0000      -0.404067       -10.9952
  13   2.0000      -0.367994       -10.0136
  14   2.0000      -0.354538        -9.6475
  15   2.0000      -0.340692        -9.2707
  16   2.0000      -0.316465        -8.6115
  17   2.0000      -0.300294        -8.1714
  18   2.0000      -0.295825        -8.0498
  19   2.0000      -0.157709        -4.2915
  20   0.0000       0.006103         0.1661
  21   0.0000       0.013984         0.3805
  22   0.0000       0.040853         1.1117
  23   0.0000       0.046531         1.2662
  24   0.0000       0.059465         1.6181

MULLIKEN ATOMIC CHARGES
-----------------------
   0 C :   -0.078733
   1 C :   -0.003751
   2 N :    0.114229
   3 C :    0.320118
   4 H :   -0.127968
   5 H :   -0.435992
   6 H :   -0.080110
   7 H :   -0.129271
   8 C :    0.602252
   9 H :   -0.070311
  10 H :    0.039442
  11 H :   -0.084802
  12 H :   -0.079825
  13 H :    0.014721
Sum of atomic charges:    0.0000000

LOEWDIN ATOMIC CHARGES
----------------------
   0 C :   -0.020990
   1 C :   -0.262698
   2 N :    0.166642
   3 C :    0.182408
   4 H :   -0.085618
   5 H :   -0.092767
   6 H :    0.002806
   7 H :    0.009314
   8 C :    0.145146
   9 H :    0.003594
  10 H :    0.024623
  11 H :   -0.019597
  12 H :   -0.028607
  13 H :   -0.024256

  Mayer bond orders larger than 0.100000
B(  0-C ,  1-C ) :   1.1168 B(  0-C ,  2-N ) :   0.1154 B(  0-C ,  3-C ) :   0.1302
B(  0-C ,  8-C ) :   1.2809 B(  0-C ,  9-H ) :   0.8147 B(  0-C , 10-H ) :   0.8369
B(  0-C , 11-H ) :   0.1730 B(  0-C , 12-H ) :   0.1790 B(  0-C , 13-H ) :   0.1549
B(  1-C ,  2-N ) :   1.0582 B(  1-C ,  3-C ) :   1.6765 B(  1-C ,  5-H ) :   0.1301
B(  1-C ,  9-H ) :   0.1852 B(  1-C , 10-H ) :   0.1249 B(  2-N ,  3-C ) :   0.2758
B(  2-N ,  6-H ) :   1.0239 B(  2-N ,  7-H ) :   1.1629 B(  3-C ,  4-H ) :   0.8264
B(  3-C ,  5-H ) :   0.8751 B(  6-H ,  7-H ) :  -0.1064 B(  8-C , 11-H ) :   0.8545
B(  8-C , 12-H ) :   0.8539 B(  8-C , 13-H ) :   0.8119

Dispersion correction           -0.012971900
FINAL SINGLE POINT ENERGY      -212.463443519784

DIPOLE MOMENT
-------------
                                X             Y             Z
Electronic contribution:     -0.23316      -1.20344      -2.99421
Nuclear contribution   :     -0.52463       1.37972       2.79217
                        -----------------------------------------
Total Dipole Moment    :     -0.75779       0.17628      -0.20204
                        -----------------------------------------
Magnitude (a.u.)       :      0.80383
Magnitude (Debye)      :      2.04318

Rotational constants in cm-1:     0.281086     0.127387     0.100311
Rotational constants in MHz :  8426.743103  3818.969834  3007.238026

                             ****ORCA TERMINATED NORMALLY****
TOTAL RUN TIME: 0 days 0 hours 0 minutes 17 seconds 491 msec
