                         Program Version 5.0.0 -  RELEASE  -
|  1> !wB97X-D3 RIJCOSX def2-SVP def2/J TightSCF
|  2> *xyz -1 1
|  3> C         -0.05915        1.50352        3.41058
|  4> C          1.08303        0.74964        4.08571
|  5> O          2.22817        1.26348        4.01983
|  6> O          0.81003       -0.34541        4.63627
|  7> H          0.31461        2.41205        2.98658
|  8> H         -0.81316        1.73160        4.13470
|  9> H         -0.47977        0.89552        2.63708
| 10> *
| 11>
| 12> %MaxCore 64000
| 13>
| 14> %pal nprocs 18
| 15> end
| 16>
| 17> %scf
| 18>   MaxIter 150
| 19> end
| 20>
| 21>
| 22>                          ****END OF INPUT****

CARTESIAN COORDINATES (ANGSTROEM)
---------------------------------
  C     -0.059150    1.503520    3.410580
  C      1.083030    0.749640    4.085710
  O      2.228170    1.263480    4.019830
  O      0.810030   -0.345410    4.636270
  H      0.314610    2.412050    2.986580
  H     -0.813160    1.731600    4.134700
  H     -0.479770    0.895520    2.637080

 Total Charge           Charge          ....   -1
 Multiplicity           Mult            ....    1
 Number of Electrons    NEL             ....   32
 Basis Dimension        Dim             ....   71

ORBITAL ENERGIES
----------------

  NO   OCC          E(Eh)            E(eV)
   0   2.0000     -18.930704      -515.1307
   1   2.0000     -18.929205      -515.0898
   2   2.0000     -10.138546      -275.8839
   3   2.0000     -10.083767      -274.3933
   4   2.0000      -0.884397       -24.0657
   5   2.0000      -0.787473       -21.4282
   6   2.0000      -0.634556       -17.2671
   7   2.0000      -0.379263       -10.3203
   8   2.0000      -0.343020        -9.3341
   9   2.0000      -0.326990        -8.8978
  10   2.0000      -0.290036        -7.8923
  11   2.0000      -0.246782        -6.7153
  12   2.0000      -0.232654        -6.3308
  13   2.0000      -0.098793        -2.6883
  14   2.0000      -0.098471        -2.6795
  15   2.0000      -0.081608        -2.2207
  16   0.0000       0.330452         8.9921
  17   0.0000       0.357966         9.7408
  18   0.0000       0.393773        10.7151
  19   0.0000       0.426082        11.5943
  20   0.0000       0.517720        14.0879

MULLIKEN ATOMIC CHARGES
-----------------------
   0 C :   -0.011637
   1 C :    0.027729
   2 O :   -0.461229
   3 O :   -0.470215
   4 H :   -0.038399
   5 H :   -0.024325
   6 H :   -0.021925
Sum of atomic charges:   -1.0000000

LOEWDIN ATOMIC CHARGES
----------------------
   0 C :   -0.124220
   1 C :   -0.046360
   2 O :   -0.414997
   3 O :   -0.420799
   4 H :   -0.003545
   5 H :    0.004439
   6 H :    0.005481

  Mayer bond orders larger than 0.100000
B(  0-C ,  1-C ) :   0.9418 B(  0-C ,  4-H ) :   0.9649 B(  0-C ,  5-H ) :   0.9654
B(  0-C ,  6-H ) :   0.9665 B(  1-C ,  2-O ) :   1.8554 B(  1-C ,  3-O ) :   1.8345
B(  2-O ,  3-O ) :   0.1094

Dispersion correction           -0.000903992
FINAL SINGLE POINT ENERGY      -228.264413969861

DIPOLE MOMENT
-------------
                                X             Y             Z
Electronic contribution:      2.78834      -1.85688       1.64701
Nuclear contribution   :     -3.75920       2.48542      -2.19871
                        -----------------------------------------
Total Dipole Moment    :     -0.97086       0.62854      -0.55171
                        -----------------------------------------
Magnitude (a.u.)       :      1.28141
Magnitude (Debye)      :      3.25708

Rotational constants in cm-1:     0.392838     0.334689     0.186890
Rotational constants in MHz : 11776.984954 10033.729666  5602.815156

                             ****ORCA TERMINATED NORMALLY****
TOTAL RUN TIME: 0 days 0 hours 0 minutes 4 seconds 752 msec
