                         Program Version 5.0.0 -  RELEASE  -
|  1> !wB97X-D3 RIJCOSX def2-SVP def2/J TightSCF
|  2> *xyz 1 1
|  3> C          4.60295       -2.44010        2.63478
|  4> C          3.86085       -1.59157        3.62289
|  5> N          2.75650       -2.04616        4.16633
|  6> N          4.25433       -0.36291        3.86046
|  7> H          3.56526        0.31099        4.16898
|  8> H          5.05429       -0.01606        3.33784
|  9> H          2.43970       -2.97389        3.89740
| 10> H          2.06687       -1.41253        4.54981
| 11> H          5.47239       -1.91604        2.29664
| 12> H          3.96816       -2.65362        1.80030
| 13> H          4.89801       -3.35632        3.10209
| 14> *
| 15>
| 16> %MaxCore 64000
| 17>
| 18> %pal nprocs 18
| 19> end
| 20>
| 21> %scf
| 22>   MaxIter 150
| 23> end
| 24>
| 25>
| 26>                          ****END OF INPUT****

CARTESIAN COORDINATES (ANGSTROEM)
---------------------------------
  C      4.602950   -2.440100    2.634780
  C      3.860850   -1.591570    3.622890
  N      2.756500   -2.046160    4.166330
  N      4.254330   -0.362910    3.860460
  H      3.565260    0.310990    4.168980
  H      5.054290   -0.016060    3.337840
  H      2.439700   -2.973890    3.897400
  H      2.066870   -1.412530    4.549810
  H      5.472390   -1.916040    2.296640
  H      3.968160   -2.653620    1.800300
  H      4.898010   -3.356320    3.102090

 Total Charge           Charge          ....    1
 Multiplicity           Mult            ....    1
 Number of Electrons    NEL             ....   32
 Basis Dimension        Dim             ....   91

ORBITAL ENERGIES
----------------

  NO   OCC          E(Eh)            E(eV)
   0   2.0000     -14.688324      -399.6896
   1   2.0000     -14.687956      -399.6796
   2   2.0000     -10.624170      -289.0984
   3   2.0000     -10.491239      -285.4811
   4   2.0000      -1.326000       -36.0823
   5   2.0000      -1.224217       -33.3126
   6   2.0000      -1.067134       -29.0382
   7   2.0000      -0.949085       -25.8259
   8   2.0000      -0.882976       -24.0270
   9   2.0000      -0.877056       -23.8659
  10   2.0000      -0.803447       -21.8629
  11   2.0000      -0.770156       -20.9570
  12   2.0000      -0.719625       -19.5820
  13   2.0000      -0.703842       -19.1525
  14   2.0000      -0.673722       -18.3329
  15   2.0000      -0.595303       -16.1990
  16   0.0000      -0.134858        -3.6697
  17   0.0000      -0.058635        -1.5955
  18   0.0000      -0.015905        -0.4328
  19   0.0000      -0.005071        -0.1380
  20   0.0000       0.015542         0.4229

MULLIKEN ATOMIC CHARGES
-----------------------
   0 C :    0.040848
   1 C :   -0.076100
   2 N :   -0.029912
   3 N :   -0.025583
   4 H :    0.188388
   5 H :    0.198952
   6 H :    0.197486
   7 H :    0.189082
   8 H :    0.077376
   9 H :    0.122140
  10 H :    0.117322
Sum of atomic charges:    1.0000000

LOEWDIN ATOMIC CHARGES
----------------------
   0 C :   -0.027137
   1 C :    0.158272
   2 N :    0.089886
   3 N :    0.092302
   4 H :    0.116584
   5 H :    0.123914
   6 H :    0.125104
   7 H :    0.116710
   8 H :    0.057666
   9 H :    0.074262
  10 H :    0.072436

  Mayer bond orders larger than 0.100000
B(  0-C ,  1-C ) :   1.0458 B(  0-C ,  8-H ) :   0.9466 B(  0-C ,  9-H ) :   0.9424
B(  0-C , 10-H ) :   0.9406 B(  1-C ,  2-N ) :   1.4987 B(  1-C ,  3-N ) :   1.5054
B(  2-N ,  6-H ) :   0.9265 B(  2-N ,  7-H ) :   0.9298 B(  3-N ,  4-H ) :   0.9306
B(  3-N ,  5-H ) :   0.9186

Dispersion correction           -0.001674059
FINAL SINGLE POINT ENERGY      -189.523418910534

DIPOLE MOMENT
-------------
                                X             Y             Z
Electronic contribution:     -0.97944       1.15337       1.59063
Nuclear contribution   :      0.47466      -0.79212      -1.71537
                        -----------------------------------------
Total Dipole Moment    :     -0.50479       0.36126      -0.12474
                        -----------------------------------------
Magnitude (a.u.)       :      0.63315
Magnitude (Debye)      :      1.60933

Rotational constants in cm-1:     0.335502     0.299428     0.163704
Rotational constants in MHz : 10058.111638  8976.630214  4907.722182

                             ****ORCA TERMINATED NORMALLY****
TOTAL RUN TIME: 0 days 0 hours 0 minutes 4 seconds 503 msec
