                         Program Version 5.0.0 -  RELEASE  -
|  1> !wB97X-D3 RIJCOSX def2-SVP def2/J TightSCF
|  2> *xyz 0 1
|  3> C         -0.05915        1.50352        3.41058
|  4> C          1.08303        0.74964        4.08571
|  5> F          2.22817        1.26348        4.01983
|  6> O          0.81003       -0.34541        4.63627
|  7> H          0.31461        2.41205        2.98658
|  8> H         -0.81316        1.73160        4.13470
|  9> H         -0.47977        0.89552        2.63708
| 10> *
| 11>
| 12> %MaxCore 64000
| 13>
| 14> %pal nprocs 18
| 15> end
| 16>
| 17> %scf
| 18>   MaxIter 150
| 19> end
| 20>
| 21>
| 22>                          ****END OF INPUT****

CARTESIAN COORDINATES (ANGSTROEM)
---------------------------------
  C     -0.059150    1.503520    3.410580
  C      1.083030    0.749640    4.085710
  F      2.228170    1.263480    4.019830
  O      0.810030   -0.345410    4.636270
  H      0.314610    2.412050    2.986580
  H     -0.813160    1.731600    4.134700
  H     -0.479770    0.895520    2.637080

 Total Charge           Charge          ....    0
 Multiplicity           Mult            ....    1
 Number of Electrons    NEL             ....   32
 Basis Dimension        Dim             ....   71

ORBITAL ENERGIES
----------------

  NO   OCC          E(Eh)            E(eV)
   0   2.0000     -24.858628      -676.4377
   1   2.0000     -19.240224      -523.5531
   2   2.0000     -10.466638      -284.8117
   3   2.0000     -10.312639      -280.6212
   4   2.0000      -1.414228       -38.4831
   5   2.0000      -1.132298       -30.8114
   6   2.0000      -0.879605       -23.9353
   7   2.0000      -0.757252       -20.6059
   8   2.0000      -0.648398       -17.6438
   9   2.0000      -0.645275       -17.5588
  10   2.0000      -0.599195       -16.3049
  11   2.0000      -0.542238       -14.7550
  12   2.0000      -0.528897       -14.3920
  13   2.0000      -0.494767       -13.4633
  14   2.0000      -0.442504       -12.0411
  15   2.0000      -0.384855       -10.4724
  16   0.0000       0.064983         1.7683
  17   0.0000       0.151929         4.1342
  18   0.0000       0.204166         5.5556
  19   0.0000       0.224081         6.0975
  20   0.0000       0.268061         7.2943

MULLIKEN ATOMIC CHARGES
-----------------------
   0 C :   -0.073566
   1 C :    0.226538
   2 F :   -0.085997
   3 O :   -0.276524
   4 H :    0.044663
   5 H :    0.081816
   6 H :    0.083070
Sum of atomic charges:    0.0000000

LOEWDIN ATOMIC CHARGES
----------------------
   0 C :   -0.081822
   1 C :    0.112487
   2 F :    0.036272
   3 O :   -0.207198
   4 H :    0.031763
   5 H :    0.054000
   6 H :    0.054500

  Mayer bond orders larger than 0.100000
B(  0-C ,  1-C ) :   1.0232 B(  0-C ,  4-H ) :   0.9619 B(  0-C ,  5-H ) :   0.9605
B(  0-C ,  6-H ) :   0.9604 B(  1-C ,  2-F ) :   1.1866 B(  1-C ,  3-O ) :   2.0670

Dispersion correction           -0.000908877
FINAL SINGLE POINT ENERGY      -252.820274485932

DIPOLE MOMENT
-------------
                                X             Y             Z
Electronic contribution:      4.69343      -1.07579       1.59812
Nuclear contribution   :     -5.01294       1.99942      -2.18092
                        -----------------------------------------
Total Dipole Moment    :     -0.31951       0.92364      -0.58280
                        -----------------------------------------
Magnitude (a.u.)       :      1.13791
Magnitude (Debye)      :      2.89235

Rotational constants in cm-1:     0.368501     0.321908     0.177384
Rotational constants in MHz : 11047.396090  9650.552559  5317.833075

                             ****ORCA TERMINATED NORMALLY****
TOTAL RUN TIME: 0 days 0 hours 0 minutes 4 seconds 446 msec
