                         Program Version 5.0.0 -  RELEASE  -
|  1> !wB97X-D3 RIJCOSX def2-SVP def2/J TightSCF
|  2> *xyz 0 1
|  3> C          4.60295       -2.44010        2.63478
|  4> C          3.86085       -1.59157        3.62289
|  5> C          2.75650       -2.04616        4.16633
|  6> N          4.25433       -0.36291        3.86046
|  7> H          3.56526        0.31099        4.16898
|  8> H          5.05429       -0.01606        3.33784
|  9> H          2.43970       -2.97389        3.89740
| 10> H          2.06687       -1.41253        4.54981
| 11> H          5.47239       -1.91604        2.29664
| 12> H          3.96816       -2.65362        1.80030
| 13> H          4.89801       -3.35632        3.10209
| 14> *
| 15>
| 16> %MaxCore 64000
| 17>
| 18> %pal nprocs 18
| 19> end
| 20>
| 21> %scf
| 22>   MaxIter 150
| 23> end
| 24>
| 25>
| 26>                          ****END OF INPUT****

CARTESIAN COORDINATES (ANGSTROEM)
---------------------------------
  C      4.602950   -2.440100    2.634780
  C      3.860850   -1.591570    3.622890
  C      2.756500   -2.046160    4.166330
  N      4.254330   -0.362910    3.860460
  H      3.565260    0.310990    4.168980
  H      5.054290   -0.016060    3.337840
  H      2.439700   -2.973890    3.897400
  H      2.066870   -1.412530    4.549810
  H      5.472390   -1.916040    2.296640
  H      3.968160   -2.653620    1.800300
  H      4.898010   -3.356320    3.102090

 Total Charge           Charge          ....    0
 Multiplicity           Mult            ....    1
 Number of Electrons    NEL             ....   32
 Basis Dimension        Dim             ....   91

ORBITAL ENERGIES
----------------

  NO   OCC          E(Eh)            E(eV)
   0   2.0000     -14.429685      -392.6517
   1   2.0000     -10.304748      -280.4064
   2   2.0000     -10.280037      -279.7340
   3   2.0000     -10.211672      -277.8737
   4   2.0000      -1.035619       -28.1806
   5   2.0000      -0.862726       -23.4760
   6   2.0000      -0.793530       -21.5930
   7   2.0000      -0.667864       -18.1735
   8   2.0000      -0.622642       -16.9430
   9   2.0000      -0.569434       -15.4951
  10   2.0000      -0.530705       -14.4412
  11   2.0000      -0.494096       -13.4450
  12   2.0000      -0.479605       -13.0507
  13   2.0000      -0.453196       -12.3321
  14   2.0000      -0.421639       -11.4734
  15   2.0000      -0.270663        -7.3651
  16   0.0000       0.130453         3.5498
  17   0.0000       0.147489         4.0134
  18   0.0000       0.188435         5.1276
  19   0.0000       0.194336         5.2882
  20   0.0000       0.228832         6.2268

MULLIKEN ATOMIC CHARGES
-----------------------
   0 C :    0.074159
   1 C :   -0.186824
   2 C :   -0.074830
   3 N :   -0.107139
   4 H :    0.127766
   5 H :    0.116589
   6 H :   -0.025066
   7 H :   -0.030706
   8 H :    0.001730
   9 H :    0.053693
  10 H :    0.050628
Sum of atomic charges:    0.0000000

LOEWDIN ATOMIC CHARGES
----------------------
   0 C :   -0.042536
   1 C :    0.000986
   2 C :   -0.186012
   3 N :   -0.014240
   4 H :    0.079396
   5 H :    0.069658
   6 H :   -0.000373
   7 H :   -0.005455
   8 H :    0.018288
   9 H :    0.039622
  10 H :    0.040666

  Mayer bond orders larger than 0.100000
B(  0-C ,  1-C ) :   1.0174 B(  0-C ,  8-H ) :   0.9609 B(  0-C ,  9-H ) :   0.9644
B(  0-C , 10-H ) :   0.9621 B(  1-C ,  2-C ) :   1.8744 B(  1-C ,  3-N ) :   1.2470
B(  2-C ,  6-H ) :   0.9578 B(  2-C ,  7-H ) :   0.9685 B(  3-N ,  4-H ) :   0.9529
B(  3-N ,  5-H ) :   0.9525

Dispersion correction           -0.001671841
FINAL SINGLE POINT ENERGY      -173.064440547815

DIPOLE MOMENT
-------------
                                X             Y             Z
Electronic contribution:      0.17710       1.49087       1.03880
Nuclear contribution   :      0.22927      -0.89318      -1.58153
                        -----------------------------------------
Total Dipole Moment    :      0.40637       0.59769      -0.54273
                        -----------------------------------------
Magnitude (a.u.)       :      0.90384
Magnitude (Debye)      :      2.29737

Rotational constants in cm-1:     0.356805     0.302813     0.169682
Rotational constants in MHz : 10696.748191  9078.116910  5086.926242

                             ****ORCA TERMINATED NORMALLY****
TOTAL RUN TIME: 0 days 0 hours 0 minutes 4 seconds 858 msec
