                         Program Version 5.0.0 -  RELEASE  -
|  1> !wB97X-D3 RIJCOSX def2-SVP def2/J TightSCF
|  2> *xyz 0 1
|  3> C         -0.05915        1.50352        3.41058
|  4> C          1.08303        0.74964        4.08571
|  5> O          2.22817        1.26348        4.01983
|  6> F          0.81003       -0.34541        4.63627
|  7> H          0.31461        2.41205        2.98658
|  8> H         -0.81316        1.73160        4.13470
|  9> H         -0.47977        0.89552        2.63708
| 10> *
| 11>
| 12> %MaxCore 64000
| 13>
| 14> %pal nprocs 18
| 15> end
| 16>
| 17> %scf
| 18>   MaxIter 150
| 19> end
| 20>
| 21>
| 22>                          ****END OF INPUT****

CARTESIAN COORDINATES (ANGSTROEM)
---------------------------------
  C     -0.059150    1.503520    3.410580
  C      1.083030    0.749640    4.085710
  O      2.228170    1.263480    4.019830
  F      0.810030   -0.345410    4.636270
  H      0.314610    2.412050    2.986580
  H     -0.813160    1.731600    4.134700
  H     -0.479770    0.895520    2.637080

 Total Charge           Charge          ....    0
 Multiplicity           Mult            ....    1
 Number of Electrons    NEL             ....   32
 Basis Dimension        Dim             ....   71

ORBITAL ENERGIES
----------------

  NO   OCC          E(Eh)            E(eV)
   0   2.0000     -24.859818      -676.4700
   1   2.0000     -19.240471      -523.5598
   2   2.0000     -10.466427      -284.8060
   3   2.0000     -10.312187      -280.6089
   4   2.0000      -1.415633       -38.5213
   5   2.0000      -1.131862       -30.7995
   6   2.0000      -0.879424       -23.9304
   7   2.0000      -0.757965       -20.6253
   8   2.0000      -0.650003       -17.6875
   9   2.0000      -0.645610       -17.5679
  10   2.0000      -0.598609       -16.2890
  11   2.0000      -0.541661       -14.7393
  12   2.0000      -0.529383       -14.4052
  13   2.0000      -0.494447       -13.4546
  14   2.0000      -0.444550       -12.0968
  15   2.0000      -0.383130       -10.4255
  16   0.0000       0.068443         1.8624
  17   0.0000       0.151200         4.1144
  18   0.0000       0.211005         5.7417
  19   0.0000       0.215349         5.8599
  20   0.0000       0.263396         7.1674

MULLIKEN ATOMIC CHARGES
-----------------------
   0 C :   -0.068462
   1 C :    0.224644
   2 O :   -0.273517
   3 F :   -0.085567
   4 H :    0.072696
   5 H :    0.064044
   6 H :    0.066161
Sum of atomic charges:    0.0000000

LOEWDIN ATOMIC CHARGES
----------------------
   0 C :   -0.080916
   1 C :    0.111946
   2 O :   -0.205532
   3 F :    0.036831
   4 H :    0.048457
   5 H :    0.044080
   6 H :    0.045135

  Mayer bond orders larger than 0.100000
B(  0-C ,  1-C ) :   1.0277 B(  0-C ,  4-H ) :   0.9710 B(  0-C ,  5-H ) :   0.9557
B(  0-C ,  6-H ) :   0.9559 B(  1-C ,  2-O ) :   2.0803 B(  1-C ,  3-F ) :   1.1801

Dispersion correction           -0.000897369
FINAL SINGLE POINT ENERGY      -252.820164007798

DIPOLE MOMENT
-------------
                                X             Y             Z
Electronic contribution:      2.41805      -3.67353       2.59606
Nuclear contribution   :     -3.54758       3.66189      -2.81789
                        -----------------------------------------
Total Dipole Moment    :     -1.12953      -0.01164      -0.22183
                        -----------------------------------------
Magnitude (a.u.)       :      1.15116
Magnitude (Debye)      :      2.92602

Rotational constants in cm-1:     0.369278     0.321254     0.177365
Rotational constants in MHz : 11070.686557  9630.951649  5317.254673

                             ****ORCA TERMINATED NORMALLY****
TOTAL RUN TIME: 0 days 0 hours 0 minutes 3 seconds 880 msec
