                         Program Version 5.0.0 -  RELEASE  -
|  1> !wB97X-D3 RIJCOSX def2-SVP def2/J TightSCF
|  2> *xyz 0 1
|  3> C          4.60295       -2.44010        2.63478
|  4> C          3.86085       -1.59157        3.62289
|  5> N          2.75650       -2.04616        4.16633
|  6> C          4.25433       -0.36291        3.86046
|  7> H          3.56526        0.31099        4.16898
|  8> H          5.05429       -0.01606        3.33784
|  9> H          2.43970       -2.97389        3.89740
| 10> H          2.06687       -1.41253        4.54981
| 11> H          5.47239       -1.91604        2.29664
| 12> H          3.96816       -2.65362        1.80030
| 13> H          4.89801       -3.35632        3.10209
| 14> *
| 15>
| 16> %MaxCore 64000
| 17>
| 18> %pal nprocs 18
| 19> end
| 20>
| 21> %scf
| 22>   MaxIter 150
| 23> end
| 24>
| 25>
| 26>                          ****END OF INPUT****

CARTESIAN COORDINATES (ANGSTROEM)
---------------------------------
  C      4.602950   -2.440100    2.634780
  C      3.860850   -1.591570    3.622890
  N      2.756500   -2.046160    4.166330
  C      4.254330   -0.362910    3.860460
  H      3.565260    0.310990    4.168980
  H      5.054290   -0.016060    3.337840
  H      2.439700   -2.973890    3.897400
  H      2.066870   -1.412530    4.549810
  H      5.472390   -1.916040    2.296640
  H      3.968160   -2.653620    1.800300
  H      4.898010   -3.356320    3.102090

 Total Charge           Charge          ....    0
 Multiplicity           Mult            ....    1
 Number of Electrons    NEL             ....   32
 Basis Dimension        Dim             ....   91

ORBITAL ENERGIES
----------------

  NO   OCC          E(Eh)            E(eV)
   0   2.0000     -14.430347      -392.6697
   1   2.0000     -10.305989      -280.4402
   2   2.0000     -10.279766      -279.7267
   3   2.0000     -10.213696      -277.9288
   4   2.0000      -1.035146       -28.1678
   5   2.0000      -0.863300       -23.4916
   6   2.0000      -0.794617       -21.6226
   7   2.0000      -0.671226       -18.2650
   8   2.0000      -0.621545       -16.9131
   9   2.0000      -0.568506       -15.4698
  10   2.0000      -0.532574       -14.4921
  11   2.0000      -0.492997       -13.4151
  12   2.0000      -0.481281       -13.0963
  13   2.0000      -0.451664       -12.2904
  14   2.0000      -0.420052       -11.4302
  15   2.0000      -0.273430        -7.4404
  16   0.0000       0.133544         3.6339
  17   0.0000       0.148771         4.0483
  18   0.0000       0.186330         5.0703
  19   0.0000       0.202152         5.5008
  20   0.0000       0.212739         5.7889

MULLIKEN ATOMIC CHARGES
-----------------------
   0 C :    0.076705
   1 C :   -0.173101
   2 N :   -0.110689
   3 C :   -0.077887
   4 H :   -0.029124
   5 H :   -0.024135
   6 H :    0.115958
   7 H :    0.127454
   8 H :    0.029405
   9 H :    0.036202
  10 H :    0.029214
Sum of atomic charges:   -0.0000000

LOEWDIN ATOMIC CHARGES
----------------------
   0 C :   -0.042579
   1 C :    0.005152
   2 N :   -0.015693
   3 C :   -0.185440
   4 H :   -0.005039
   5 H :   -0.000848
   6 H :    0.071372
   7 H :    0.079113
   8 H :    0.036647
   9 H :    0.030807
  10 H :    0.026510

  Mayer bond orders larger than 0.100000
B(  0-C ,  1-C ) :   1.0369 B(  0-C ,  8-H ) :   0.9587 B(  0-C ,  9-H ) :   0.9596
B(  0-C , 10-H ) :   0.9560 B(  1-C ,  2-N ) :   1.2461 B(  1-C ,  3-C ) :   1.8680
B(  2-N ,  6-H ) :   0.9587 B(  2-N ,  7-H ) :   0.9520 B(  3-C ,  4-H ) :   0.9721
B(  3-C ,  5-H ) :   0.9485

Dispersion correction           -0.001684059
FINAL SINGLE POINT ENERGY      -173.065305036718

DIPOLE MOMENT
-------------
                                X             Y             Z
Electronic contribution:     -1.23586      -0.07478       1.36705
Nuclear contribution   :      0.56519      -0.51568      -1.65012
                        -----------------------------------------
Total Dipole Moment    :     -0.67068      -0.59046      -0.28308
                        -----------------------------------------
Magnitude (a.u.)       :      0.93733
Magnitude (Debye)      :      2.38250

Rotational constants in cm-1:     0.356673     0.303029     0.169717
Rotational constants in MHz : 10692.789749  9084.577259  5087.998414

                             ****ORCA TERMINATED NORMALLY****
TOTAL RUN TIME: 0 days 0 hours 0 minutes 5 seconds 235 msec
