                         Program Version 5.0.0 -  RELEASE  -
|  1> !wB97X-D3 RIJCOSX def2-SVP def2/J TightSCF xyzfile
|  2>
|  3> *xyzfile 0 1 D4.xyz
|  4>
|  5> %MaxCore 64000
|  6>
|  7> %pal nprocs 18
|  8> end
|  9>
| 10> %scf
| 11>   MaxIter 150
| 12> end
| 13>
| 14>
| 15>                          ****END OF INPUT****

CARTESIAN COORDINATES (ANGSTROEM)
---------------------------------
  C      4.602954   -2.440100    2.634780
  C     -0.914947    0.615112    2.505538
  C     -0.059146    1.503524    3.410578
  H      0.365364    2.344315    2.861161
  H     -0.692261    1.920207    4.198985
  C      1.083027    0.749640    4.085705
  C      3.860851   -1.591565    3.622893
  N      2.756502   -2.046159    4.166333
  C      4.254325   -0.362905    3.860455
  H      3.565256    0.310994    4.168983
  H      5.054292   -0.016059    3.337838
  H      2.439696   -2.973894    3.897395
  H      2.066869   -1.412532    4.549813
  O      2.228167    1.263475    4.019826
  F      0.810034   -0.345411    4.636269
  C      3.744685   -2.580557    1.361882
  C      0.772139    0.636882    0.562129
  C     -0.130740   -0.193985    1.470763
  H     -0.840563   -0.760165    0.856377
  H      0.466691   -0.938942    2.006959
  H     -1.647961    1.245963    1.991076
  H     -1.478180   -0.081046    3.130424
  C      3.203721   -1.256004    0.826211
  H      2.898939   -3.239289    1.583074
  H      4.334962   -3.095523    0.600188
  C      2.107815   -1.442385   -0.216865
  H      2.786775   -0.672760    1.650711
  H      4.021008   -0.652993    0.414046
  C      1.390662   -0.145912   -0.602422
  H      1.372179   -2.152184    0.176151
  H      2.523302   -1.906787   -1.117115
  H      1.561361    1.100094    1.161831
  H      0.195516    1.468325    0.142758
  H      0.602893   -0.398214   -1.319716
  H      2.087247    0.508272   -1.137335
  H      5.561557   -1.971347    2.407084
  H      4.810498   -3.422552    3.063099

 Total Charge           Charge          ....    0
 Multiplicity           Mult            ....    1
 Number of Electrons    NEL             ....  118
 Basis Dimension        Dim             ....  320

ORBITAL ENERGIES
----------------

  NO   OCC          E(Eh)            E(eV)
   0   2.0000     -24.893101      -677.3757
   1   2.0000     -19.260489      -524.1045
   2   2.0000     -14.408627      -392.0787
   3   2.0000     -10.485143      -285.3153
   4   2.0000     -10.326779      -281.0059
   5   2.0000     -10.311906      -280.6012
   6   2.0000     -10.297731      -280.2155
   7   2.0000     -10.288183      -279.9557
   8   2.0000     -10.283466      -279.8273
   9   2.0000     -10.279580      -279.7216
  10   2.0000     -10.278026      -279.6793
  11   2.0000     -10.277583      -279.6672
  12   2.0000     -10.271837      -279.5109
  13   2.0000     -10.269501      -279.4473
  14   2.0000     -10.178611      -276.9741
  15   2.0000      -1.450537       -39.4711
  16   2.0000      -1.157399       -31.4944
  17   2.0000      -1.018593       -27.7173
  18   2.0000      -0.948210       -25.8021
  19   2.0000      -0.917066       -24.9546
  20   2.0000      -0.889958       -24.2170
  21   2.0000      -0.851861       -23.1803
  22   2.0000      -0.824526       -22.4365
  23   2.0000      -0.798100       -21.7174
  24   2.0000      -0.786315       -21.3967
  25   2.0000      -0.753193       -20.4954
  26   2.0000      -0.720553       -19.6072
  27   2.0000      -0.692187       -18.8354
  28   2.0000      -0.685918       -18.6648
  29   2.0000      -0.677668       -18.4403
  30   2.0000      -0.657130       -17.8814
  31   2.0000      -0.642325       -17.4786
  32   2.0000      -0.620481       -16.8842
  33   2.0000      -0.599782       -16.3209
  34   2.0000      -0.589285       -16.0353
  35   2.0000      -0.585014       -15.9190
  36   2.0000      -0.561096       -15.2682
  37   2.0000      -0.546625       -14.8744
  38   2.0000      -0.540257       -14.7011
  39   2.0000      -0.534664       -14.5490
  40   2.0000      -0.518927       -14.1207
  41   2.0000      -0.512255       -13.9392
  42   2.0000      -0.506275       -13.7764
  43   2.0000      -0.486665       -13.2428
  44   2.0000      -0.479247       -13.0410
  45   2.0000      -0.471739       -12.8367
  46   2.0000      -0.466603       -12.6969
  47   2.0000      -0.453618       -12.3436
  48   2.0000      -0.450439       -12.2571
  49   2.0000      -0.442328       -12.0364
  50   2.0000      -0.438172       -11.9233
  51   2.0000      -0.422000       -11.4832
  52   2.0000      -0.416231       -11.3262
  53   2.0000      -0.414185       -11.2706
  54   2.0000      -0.403711       -10.9855
  55   2.0000      -0.399459       -10.8698
  56   2.0000      -0.392977       -10.6934
  57   2.0000      -0.360818        -9.8184
  58   2.0000      -0.250147        -6.8068
  59   0.0000       0.043473         1.1830
  60   0.0000       0.122160         3.3241
  61   0.0000       0.137950         3.7538
  62   0.0000       0.150702         4.1008
  63   0.0000       0.157294         4.2802

MULLIKEN ATOMIC CHARGES
-----------------------
   0 C :    0.113223
   1 C :   -0.045343
   2 C :   -0.049470
   3 H :    0.076369
   4 H :    0.071757
   5 C :    0.278662
   6 C :   -0.187301
   7 N :   -0.108400
   8 C :   -0.063717
   9 H :   -0.003950
  10 H :   -0.046202
  11 H :    0.108133
  12 H :    0.110397
  13 O :   -0.234495
  14 F :   -0.089468
  15 C :   -0.052321
  16 C :   -0.072644
  17 C :   -0.066153
  18 H :    0.031390
  19 H :    0.012082
  20 H :    0.040965
  21 H :    0.036748
  22 C :   -0.038296
  23 H :   -0.004304
  24 H :    0.022369
  25 C :   -0.044055
  26 H :    0.016746
  27 H :    0.017521
  28 C :    0.012845
  29 H :    0.007558
  30 H :    0.018716
  31 H :    0.044134
  32 H :    0.017849
  33 H :    0.016938
  34 H :    0.021626
  35 H :    0.016406
  36 H :    0.013682
Sum of atomic charges:   -0.0000000

LOEWDIN ATOMIC CHARGES
----------------------
   0 C :   -0.028293
   1 C :   -0.038139
   2 C :   -0.061916
   3 H :    0.049059
   4 H :    0.050866
   5 C :    0.134313
   6 C :   -0.008313
   7 N :   -0.026361
   8 C :   -0.182600
   9 H :   -0.027826
  10 H :   -0.008371
  11 H :    0.064046
  12 H :    0.038602
  13 O :   -0.136887
  14 F :    0.070595
  15 C :   -0.034797
  16 C :   -0.046186
  17 C :   -0.046720
  18 H :    0.028559
  19 H :    0.013001
  20 H :    0.031785
  21 H :    0.026310
  22 C :   -0.040349
  23 H :    0.010045
  24 H :    0.021813
  25 C :   -0.041641
  26 H :    0.019655
  27 H :    0.024267
  28 C :   -0.035750
  29 H :    0.014748
  30 H :    0.022138
  31 H :    0.022965
  32 H :    0.022703
  33 H :    0.021106
  34 H :    0.024737
  35 H :    0.032641
  36 H :    0.020195

  Mayer bond orders larger than 0.100000
B(  0-C ,  6-C ) :   1.0355 B(  0-C , 15-C ) :   1.0596 B(  0-C , 35-H ) :   0.9282
B(  0-C , 36-H ) :   0.9354 B(  1-C ,  2-C ) :   1.0441 B(  1-C , 17-C ) :   1.0840
B(  1-C , 20-H ) :   0.9477 B(  1-C , 21-H ) :   0.9516 B(  2-C ,  3-H ) :   0.9449
B(  2-C ,  4-H ) :   0.9280 B(  2-C ,  5-C ) :   0.9985 B(  5-C , 13-O ) :   1.9960
B(  5-C , 14-F ) :   1.1064 B(  6-C ,  7-N ) :   1.2340 B(  6-C ,  8-C ) :   1.8593
B(  7-N , 11-H ) :   0.9549 B(  7-N , 12-H ) :   0.9353 B(  8-C ,  9-H ) :   0.9331
B(  8-C , 10-H ) :   0.9441 B(  9-H , 13-O ) :   0.1156 B( 15-C , 22-C ) :   1.0603
B( 15-C , 23-H ) :   0.9498 B( 15-C , 24-H ) :   0.9510 B( 16-C , 17-C ) :   1.0525
B( 16-C , 28-C ) :   1.0809 B( 16-C , 31-H ) :   0.9355 B( 16-C , 32-H ) :   0.9494
B( 17-C , 18-H ) :   0.9459 B( 17-C , 19-H ) :   0.9298 B( 22-C , 25-C ) :   1.0638
B( 22-C , 26-H ) :   0.9327 B( 22-C , 27-H ) :   0.9417 B( 25-C , 28-C ) :   1.0775
B( 25-C , 29-H ) :   0.9433 B( 25-C , 30-H ) :   0.9461 B( 28-C , 33-H ) :   0.9492
B( 28-C , 34-H ) :   0.9475

Dispersion correction           -0.019740342
FINAL SINGLE POINT ENERGY      -699.606356639907

DIPOLE MOMENT
-------------
                                X             Y             Z
Electronic contribution:     -2.30428       3.56715      16.29046
Nuclear contribution   :      0.32481      -3.64700     -16.75441
                        -----------------------------------------
Total Dipole Moment    :     -1.97947      -0.07985      -0.46395
                        -----------------------------------------
Magnitude (a.u.)       :      2.03468
Magnitude (Debye)      :      5.17175

Rotational constants in cm-1:     0.021629     0.017327     0.011372
Rotational constants in MHz :   648.414821   519.443407   340.925013

                             ****ORCA TERMINATED NORMALLY****
TOTAL RUN TIME: 0 days 0 hours 0 minutes 43 seconds 157 msec
