                         Program Version 5.0.0 -  RELEASE  -
|  1> !PBE D3BJ RIJCOSX def2-SVPD def2/J TightSCF
|  2> *xyz -1 1
|  3> C         -0.29041        0.95134       -5.15342
|  4> C         -0.05517        1.61942       -3.78858
|  5> H          0.04501        0.86230       -3.00301
|  6> H         -0.92294        2.23033       -3.51703
|  7> C          1.22302        2.46987       -3.75691
|  8> H          1.11470        3.25807       -4.53300
|  9> H          1.23773        3.01124       -2.79216
| 10> O          2.35381        1.71203       -3.93448
| 11> H         -0.38575        1.70447       -5.90748
| 12> H         -1.18723        0.36894       -5.11561
| 13> H          0.53806        0.31571       -5.38692
| 14> *
| 15>
| 16> %MaxCore 64000
| 17>
| 18> %pal nprocs 4
| 19> end
| 20>
| 21> %scf
| 22>   MaxIter 150
| 23> end
| 24>
| 25>
| 26>                          ****END OF INPUT****

CARTESIAN COORDINATES (ANGSTROEM)
---------------------------------
  C     -0.290410    0.951340   -5.153420
  C     -0.055170    1.619420   -3.788580
  H      0.045010    0.862300   -3.003010
  H     -0.922940    2.230330   -3.517030
  C      1.223020    2.469870   -3.756910
  H      1.114700    3.258070   -4.533000
  H      1.237730    3.011240   -2.792160
  O      2.353810    1.712030   -3.934480
  H     -0.385750    1.704470   -5.907480
  H     -1.187230    0.368940   -5.115610
  H      0.538060    0.315710   -5.386920

 Total Charge           Charge          ....   -1
 Multiplicity           Mult            ....    1
 Number of Electrons    NEL             ....   34
 Basis Dimension        Dim             ....  139

ORBITAL ENERGIES
----------------

  NO   OCC          E(Eh)            E(eV)
   0   2.0000     -18.447050      -501.9698
   1   2.0000      -9.715130      -264.3621
   2   2.0000      -9.712625      -264.2940
   3   2.0000      -9.706204      -264.1192
   4   2.0000      -0.599225       -16.3057
   5   2.0000      -0.505742       -13.7620
   6   2.0000      -0.399364       -10.8673
   7   2.0000      -0.305575        -8.3151
   8   2.0000      -0.224870        -6.1190
   9   2.0000      -0.219319        -5.9680
  10   2.0000      -0.176510        -4.8031
  11   2.0000      -0.144533        -3.9329
  12   2.0000      -0.121163        -3.2970
  13   2.0000      -0.112925        -3.0728
  14   2.0000      -0.073973        -2.0129
  15   2.0000       0.061690         1.6787
  16   2.0000       0.066280         1.8036
  17   0.0000       0.149254         4.0614
  18   0.0000       0.174284         4.7425
  19   0.0000       0.188697         5.1347
  20   0.0000       0.215923         5.8756
  21   0.0000       0.230402         6.2696

MULLIKEN ATOMIC CHARGES
-----------------------
   0 C :    0.594423
   1 C :   -0.609592
   2 H :   -0.037696
   3 H :   -0.047463
   4 C :    0.413889
   5 H :   -0.096710
   6 H :   -0.172517
   7 O :   -0.862107
   8 H :   -0.064681
   9 H :   -0.090543
  10 H :   -0.027001
Sum of atomic charges:   -1.0000000

LOEWDIN ATOMIC CHARGES
----------------------
   0 C :    0.087239
   1 C :   -0.118529
   2 H :    0.000977
   3 H :   -0.019481
   4 C :   -0.228471
   5 H :   -0.032074
   6 H :   -0.038706
   7 O :   -0.526152
   8 H :   -0.038603
   9 H :   -0.051611
  10 H :   -0.034591

  Mayer bond orders larger than 0.100000
B(  0-C ,  1-C ) :   1.2772 B(  0-C ,  3-H ) :   0.1002 B(  0-C ,  8-H ) :   0.8312
B(  0-C ,  9-H ) :   0.8028 B(  0-C , 10-H ) :   0.8392 B(  1-C ,  2-H ) :   0.9896
B(  1-C ,  3-H ) :   1.0290 B(  1-C ,  4-C ) :   1.0591 B(  1-C ,  5-H ) :   0.1473
B(  1-C ,  6-H ) :   0.1628 B(  1-C ,  7-O ) :   0.2379 B(  1-C ,  8-H ) :   0.2046
B(  1-C ,  9-H ) :   0.2025 B(  1-C , 10-H ) :   0.2129 B(  2-H ,  4-C ) :   0.1491
B(  3-H ,  4-C ) :   0.1017 B(  4-C ,  5-H ) :   0.9472 B(  4-C ,  6-H ) :   0.9576
B(  4-C ,  7-O ) :   1.0926

Dispersion correction           -0.006623226
FINAL SINGLE POINT ENERGY      -193.369785101456

DIPOLE MOMENT
-------------
                                X             Y             Z
Electronic contribution:      3.06874      -0.08216       0.70000
Nuclear contribution   :     -4.97104      -0.06484      -1.04325
                        -----------------------------------------
Total Dipole Moment    :     -1.90230      -0.14700      -0.34325
                        -----------------------------------------
Magnitude (a.u.)       :      1.93860
Magnitude (Debye)      :      4.92752

Rotational constants in cm-1:     0.508668     0.174500     0.148765
Rotational constants in MHz : 15249.486055  5231.367342  4459.875680

                             ****ORCA TERMINATED NORMALLY****
TOTAL RUN TIME: 0 days 0 hours 0 minutes 4 seconds 546 msec
