                         Program Version 5.0.0 -  RELEASE  -
|  1> !PBE D3BJ RIJCOSX def2-SVPD def2/J TightSCF
|  2> *xyz 1 1
|  3> C          1.63556       -1.67040       -5.29211
|  4> C          0.33848       -1.50091       -4.50540
|  5> N          2.48451       -0.50741       -5.14039
|  6> C         -0.68487       -0.52803       -5.09989
|  7> H          1.39834       -1.82924       -6.35259
|  8> H          2.15586       -2.56540       -4.93209
|  9> C          3.45115       -0.14953       -5.95259
| 10> N          3.92267        1.08956       -5.85071
| 11> N          3.96616       -1.00618       -6.86788
| 12> H          3.52139       -1.90647       -6.99527
| 13> H          4.44482       -0.62347       -7.67035
| 14> H          2.25200        0.24080       -4.49879
| 15> H          3.46428        1.64078       -5.13639
| 16> H          4.83447        1.31375       -6.22465
| 17> H          0.59489       -1.21158       -3.48231
| 18> H         -0.12653       -2.48766       -4.43418
| 19> H         -0.92267       -0.82721       -6.09931
| 20> H         -0.27317        0.45953       -5.11162
| 21> H         -1.57350       -0.53693       -4.50394
| 22> *
| 23>
| 24> %MaxCore 64000
| 25>
| 26> %pal nprocs 4
| 27> end
| 28>
| 29> %scf
| 30>   MaxIter 150
| 31> end
| 32>
| 33>
| 34>                          ****END OF INPUT****

CARTESIAN COORDINATES (ANGSTROEM)
---------------------------------
  C      1.635560   -1.670400   -5.292110
  C      0.338480   -1.500910   -4.505400
  N      2.484510   -0.507410   -5.140390
  C     -0.684870   -0.528030   -5.099890
  H      1.398340   -1.829240   -6.352590
  H      2.155860   -2.565400   -4.932090
  C      3.451150   -0.149530   -5.952590
  N      3.922670    1.089560   -5.850710
  N      3.966160   -1.006180   -6.867880
  H      3.521390   -1.906470   -6.995270
  H      4.444820   -0.623470   -7.670350
  H      2.252000    0.240800   -4.498790
  H      3.464280    1.640780   -5.136390
  H      4.834470    1.313750   -6.224650
  H      0.594890   -1.211580   -3.482310
  H     -0.126530   -2.487660   -4.434180
  H     -0.922670   -0.827210   -6.099310
  H     -0.273170    0.459530   -5.111620
  H     -1.573500   -0.536930   -4.503940

 Total Charge           Charge          ....    1
 Multiplicity           Mult            ....    1
 Number of Electrons    NEL             ....   56
 Basis Dimension        Dim             ....  236

ORBITAL ENERGIES
----------------

  NO   OCC          E(Eh)            E(eV)
   0   2.0000     -14.225337      -387.0911
   1   2.0000     -14.220558      -386.9611
   2   2.0000     -14.218959      -386.9176
   3   2.0000     -10.214209      -277.9428
   4   2.0000     -10.100591      -274.8510
   5   2.0000     -10.042972      -273.2832
   6   2.0000     -10.011842      -272.4361
   7   2.0000      -1.125421       -30.6243
   8   2.0000      -1.019456       -27.7408
   9   2.0000      -1.006882       -27.3987
  10   2.0000      -0.868733       -23.6394
  11   2.0000      -0.791161       -21.5286
  12   2.0000      -0.763794       -20.7839
  13   2.0000      -0.725696       -19.7472
  14   2.0000      -0.708594       -19.2818
  15   2.0000      -0.673627       -18.3303
  16   2.0000      -0.641237       -17.4489
  17   2.0000      -0.634113       -17.2551
  18   2.0000      -0.604033       -16.4366
  19   2.0000      -0.596763       -16.2388
  20   2.0000      -0.548603       -14.9283
  21   2.0000      -0.528908       -14.3923
  22   2.0000      -0.510294       -13.8858
  23   2.0000      -0.461202       -12.5499
  24   2.0000      -0.445575       -12.1247
  25   2.0000      -0.441642       -12.0177
  26   2.0000      -0.435024       -11.8376
  27   2.0000      -0.412454       -11.2234
  28   0.0000      -0.203028        -5.5247
  29   0.0000      -0.178209        -4.8493
  30   0.0000      -0.147217        -4.0060
  31   0.0000      -0.128087        -3.4854
  32   0.0000      -0.111733        -3.0404

MULLIKEN ATOMIC CHARGES
-----------------------
   0 C :    0.517764
   1 C :   -0.277636
   2 N :   -0.457345
   3 C :    0.780773
   4 H :   -0.000785
   5 H :   -0.148890
   6 C :    1.261457
   7 N :    0.020034
   8 N :   -0.015895
   9 H :   -0.024023
  10 H :   -0.103116
  11 H :   -0.155223
  12 H :    0.017940
  13 H :   -0.127428
  14 H :   -0.058554
  15 H :   -0.081682
  16 H :   -0.011708
  17 H :   -0.069663
  18 H :   -0.066018
Sum of atomic charges:    1.0000000

LOEWDIN ATOMIC CHARGES
----------------------
   0 C :    0.054541
   1 C :   -0.055596
   2 N :    0.054286
   3 C :    0.145586
   4 H :    0.040149
   5 H :    0.043716
   6 C :   -0.058006
   7 N :    0.275307
   8 N :    0.294673
   9 H :    0.012776
  10 H :    0.033113
  11 H :    0.049598
  12 H :    0.030574
  13 H :    0.041379
  14 H :    0.031310
  15 H :    0.038177
  16 H :   -0.007796
  17 H :   -0.023144
  18 H :   -0.000644

  Mayer bond orders larger than 0.100000
B(  0-C ,  1-C ) :   1.2260 B(  0-C ,  2-N ) :   0.9787 B(  0-C ,  4-H ) :   0.7950
B(  0-C ,  5-H ) :   0.8790 B(  0-C , 11-H ) :  -0.1301 B(  0-C , 14-H ) :   0.1502
B(  0-C , 15-H ) :   0.2212 B(  1-C ,  2-N ) :   0.1246 B(  1-C ,  3-C ) :   1.3224
B(  1-C , 14-H ) :   0.8528 B(  1-C , 15-H ) :   0.8269 B(  1-C , 16-H ) :   0.1982
B(  1-C , 17-H ) :   0.2339 B(  1-C , 18-H ) :   0.2422 B(  2-N ,  4-H ) :   0.1763
B(  2-N ,  5-H ) :   0.1489 B(  2-N ,  6-C ) :   1.0170 B(  2-N ,  7-N ) :   0.3505
B(  2-N ,  8-N ) :   0.2466 B(  2-N , 11-H ) :   1.1772 B(  3-C , 16-H ) :   0.7935
B(  3-C , 17-H ) :   0.7980 B(  3-C , 18-H ) :   0.7548 B(  6-C ,  7-N ) :   0.9131
B(  6-C ,  8-N ) :   0.9055 B(  6-C ,  9-H ) :  -0.1194 B(  6-C , 10-H ) :  -0.1340
B(  6-C , 11-H ) :  -0.2615 B(  6-C , 13-H ) :  -0.1212 B(  7-N ,  8-N ) :   0.1867
B(  7-N , 12-H ) :   1.0536 B(  7-N , 13-H ) :   1.2356 B(  8-N ,  9-H ) :   1.0320
B(  8-N , 10-H ) :   1.2249 B(  9-H , 10-H ) :  -0.1560 B( 12-H , 13-H ) :  -0.1491

Dispersion correction           -0.015301486
FINAL SINGLE POINT ENERGY      -323.096824450100

DIPOLE MOMENT
-------------
                                X             Y             Z
Electronic contribution:      7.32855       1.73197      -1.58969
Nuclear contribution   :     -5.91327      -1.13589       1.03073
                        -----------------------------------------
Total Dipole Moment    :      1.41528       0.59608      -0.55896
                        -----------------------------------------
Magnitude (a.u.)       :      1.63425
Magnitude (Debye)      :      4.15392

Rotational constants in cm-1:     0.176161     0.043658     0.038822
Rotational constants in MHz :  5281.161077  1308.843263  1163.840625

                             ****ORCA TERMINATED NORMALLY****
TOTAL RUN TIME: 0 days 0 hours 0 minutes 10 seconds 54 msec
