                         Program Version 5.0.0 -  RELEASE  -
|  1> !PBE D3BJ RIJCOSX def2-SVPD def2/J TightSCF xyzfile
|  2>
|  3> *xyzfile 0 1 B.xyz
|  4>
|  5> %MaxCore 64000
|  6>
|  7> %pal nprocs 4
|  8> end
|  9>
| 10> %scf
| 11>   MaxIter 150
| 12> end
| 13>
| 14>
| 15>                          ****END OF INPUT****

CARTESIAN COORDINATES (ANGSTROEM)
---------------------------------
  C      1.635557   -1.670396   -5.292109
  C      0.338484   -1.500907   -4.505398
  N      2.484511   -0.507410   -5.140392
  C     -0.684873   -0.528026   -5.099889
  C     -0.290406    0.951335   -5.153423
  H      0.607991    1.070692   -5.764412
  C     -0.055168    1.619420   -3.788577
  H     -1.080912    1.483775   -5.689436
  H      0.045006    0.862302   -3.003015
  H     -0.922936    2.230329   -3.517028
  C      1.223022    2.469865   -3.756911
  H      1.114701    3.258074   -4.532999
  H      1.237732    3.011242   -2.792157
  O      2.353815    1.712032   -3.934477
  H      1.398337   -1.829239   -6.352591
  H      2.155864   -2.565398   -4.932091
  C      3.451149   -0.149530   -5.952589
  N      3.922667    1.089559   -5.850711
  N      3.966162   -1.006183   -6.867880
  H      3.521391   -1.906467   -6.995270
  H      4.444824   -0.623472   -7.670348
  H      2.251995    0.240804   -4.498792
  H      3.464277    1.640782   -5.136392
  H      4.834470    1.313745   -6.224653
  H     -0.937999   -0.869056   -6.110838
  H     -1.604638   -0.622496   -4.513132
  H      0.594887   -1.211578   -3.482312
  H     -0.126530   -2.487656   -4.434176

 Total Charge           Charge          ....    0
 Multiplicity           Mult            ....    1
 Number of Electrons    NEL             ....   88
 Basis Dimension        Dim             ....  359

ORBITAL ENERGIES
----------------

  NO   OCC          E(Eh)            E(eV)
   0   2.0000     -18.642626      -507.2917
   1   2.0000     -14.056712      -382.5026
   2   2.0000     -14.016742      -381.4149
   3   2.0000     -14.013645      -381.3307
   4   2.0000     -10.028365      -272.8857
   5   2.0000      -9.946979      -270.6711
   6   2.0000      -9.900518      -269.4068
   7   2.0000      -9.887785      -269.0603
   8   2.0000      -9.875616      -268.7292
   9   2.0000      -9.869980      -268.5758
  10   2.0000      -9.852409      -268.0977
  11   2.0000      -0.939342       -25.5608
  12   2.0000      -0.841542       -22.8995
  13   2.0000      -0.822352       -22.3773
  14   2.0000      -0.794275       -21.6133
  15   2.0000      -0.722605       -19.6631
  16   2.0000      -0.672376       -18.2963
  17   2.0000      -0.620338       -16.8803
  18   2.0000      -0.590021       -16.0553
  19   2.0000      -0.563612       -15.3367
  20   2.0000      -0.543253       -14.7827
  21   2.0000      -0.520939       -14.1755
  22   2.0000      -0.505216       -13.7476
  23   2.0000      -0.467776       -12.7288
  24   2.0000      -0.460717       -12.5368
  25   2.0000      -0.446755       -12.1568
  26   2.0000      -0.438440       -11.9306
  27   2.0000      -0.430484       -11.7141
  28   2.0000      -0.392794       -10.6885
  29   2.0000      -0.380108       -10.3433
  30   2.0000      -0.371565       -10.1108
  31   2.0000      -0.365945        -9.9579
  32   2.0000      -0.340370        -9.2619
  33   2.0000      -0.324486        -8.8297
  34   2.0000      -0.316584        -8.6147
  35   2.0000      -0.296735        -8.0746
  36   2.0000      -0.280177        -7.6240
  37   2.0000      -0.271043        -7.3755
  38   2.0000      -0.264943        -7.2095
  39   2.0000      -0.257691        -7.0121
  40   2.0000      -0.251776        -6.8512
  41   2.0000      -0.226900        -6.1743
  42   2.0000      -0.140650        -3.8273
  43   2.0000      -0.132136        -3.5956
  44   0.0000      -0.030008        -0.8165
  45   0.0000      -0.023067        -0.6277
  46   0.0000       0.000492         0.0134
  47   0.0000       0.015794         0.4298
  48   0.0000       0.027982         0.7614

MULLIKEN ATOMIC CHARGES
-----------------------
   0 C :    0.726288
   1 C :    0.104191
   2 N :    0.036490
   3 C :    0.206148
   4 C :    0.138666
   5 H :    0.024358
   6 C :    0.000677
   7 H :   -0.285650
   8 H :   -0.011573
   9 H :   -0.222804
  10 C :    0.850189
  11 H :   -0.130030
  12 H :   -0.177098
  13 O :   -1.070447
  14 H :    0.004409
  15 H :   -0.227660
  16 C :    1.139628
  17 N :    0.297507
  18 N :    0.017610
  19 H :   -0.071426
  20 H :   -0.136503
  21 H :   -0.602922
  22 H :   -0.143187
  23 H :   -0.263636
  24 H :    0.086562
  25 H :   -0.119295
  26 H :    0.037520
  27 H :   -0.208011
Sum of atomic charges:   -0.0000000

LOEWDIN ATOMIC CHARGES
----------------------
   0 C :    0.052398
   1 C :   -0.019437
   2 N :    0.075523
   3 C :   -0.032689
   4 C :   -0.030066
   5 H :    0.005239
   6 C :   -0.024519
   7 H :    0.015951
   8 H :    0.008389
   9 H :    0.013391
  10 C :   -0.075407
  11 H :    0.011772
  12 H :    0.006385
  13 O :   -0.400525
  14 H :    0.022547
  15 H :    0.024515
  16 C :   -0.066376
  17 N :    0.278865
  18 N :    0.254290
  19 H :   -0.012808
  20 H :    0.005254
  21 H :   -0.105461
  22 H :   -0.105255
  23 H :    0.011399
  24 H :    0.018191
  25 H :    0.023505
  26 H :    0.022264
  27 H :    0.022665

  Mayer bond orders larger than 0.100000
B(  0-C ,  1-C ) :   1.2344 B(  0-C ,  2-N ) :   0.9169 B(  0-C , 14-H ) :   0.7204
B(  0-C , 15-H ) :   0.8202 B(  0-C , 21-H ) :  -0.2069 B(  0-C , 26-H ) :   0.1323
B(  0-C , 27-H ) :   0.2236 B(  1-C ,  2-N ) :   0.1317 B(  1-C ,  3-C ) :   1.2498
B(  1-C , 24-H ) :   0.1719 B(  1-C , 25-H ) :   0.2070 B(  1-C , 26-H ) :   0.7493
B(  1-C , 27-H ) :   0.7628 B(  2-N , 14-H ) :   0.3143 B(  2-N , 15-H ) :   0.1899
B(  2-N , 16-C ) :   1.2451 B(  2-N , 17-N ) :   0.1789 B(  2-N , 18-N ) :   0.1634
B(  2-N , 21-H ) :   0.9904 B(  3-C ,  4-C ) :   1.3031 B(  3-C ,  5-H ) :   0.1647
B(  3-C ,  7-H ) :   0.1457 B(  3-C , 24-H ) :   0.6374 B(  3-C , 25-H ) :   0.8103
B(  3-C , 26-H ) :   0.1637 B(  3-C , 27-H ) :   0.1538 B(  4-C ,  5-H ) :   0.7971
B(  4-C ,  6-C ) :   1.2185 B(  4-C ,  7-H ) :   0.7602 B(  4-C ,  8-H ) :   0.1348
B(  4-C ,  9-H ) :   0.1847 B(  4-C , 10-C ) :   0.1035 B(  4-C , 24-H ) :   0.2301
B(  4-C , 25-H ) :   0.1340 B(  5-H ,  6-C ) :   0.1379 B(  6-C ,  8-H ) :   0.8347
B(  6-C ,  9-H ) :   0.9308 B(  6-C , 10-C ) :   1.0769 B(  6-C , 11-H ) :   0.1025
B(  6-C , 12-H ) :   0.2074 B(  6-C , 13-O ) :   0.1521 B(  8-H ,  9-H ) :  -0.1051
B( 10-C , 11-H ) :   0.8318 B( 10-C , 12-H ) :   0.7776 B( 10-C , 13-O ) :   1.0012
B( 11-H , 13-O ) :   0.2448 B( 13-O , 21-H ) :   0.2676 B( 13-O , 22-H ) :   0.3104
B( 14-H , 25-H ) :  -0.1051 B( 16-C , 17-N ) :   0.8846 B( 16-C , 18-N ) :   0.8626
B( 16-C , 19-H ) :  -0.1130 B( 16-C , 20-H ) :  -0.1215 B( 16-C , 21-H ) :  -0.4967
B( 16-C , 22-H ) :  -0.1426 B( 16-C , 23-H ) :  -0.1610 B( 17-N , 18-N ) :   0.1650
B( 17-N , 22-H ) :   1.0063 B( 17-N , 23-H ) :   1.3259 B( 18-N , 19-H ) :   1.0560
B( 18-N , 20-H ) :   1.2484 B( 19-H , 20-H ) :  -0.1582 B( 22-H , 23-H ) :  -0.2094

Dispersion correction           -0.029107760
FINAL SINGLE POINT ENERGY      -515.493083326511

DIPOLE MOMENT
-------------
                                X             Y             Z
Electronic contribution:      8.34338      -0.86191      -2.16969
Nuclear contribution   :     -7.46499      -1.05836       0.01518
                        -----------------------------------------
Total Dipole Moment    :      0.87839      -1.92027      -2.15452
                        -----------------------------------------
Magnitude (a.u.)       :      3.01678
Magnitude (Debye)      :      7.66804

Rotational constants in cm-1:     0.044680     0.028958     0.019773
Rotational constants in MHz :  1339.486245   868.136755   592.791310

                             ****ORCA TERMINATED NORMALLY****
TOTAL RUN TIME: 0 days 0 hours 0 minutes 27 seconds 847 msec
