                         Program Version 5.0.0 -  RELEASE  -
|  1> !PBE D3BJ RIJCOSX def2-SVPD def2/J TightSCF
|  2> *xyz 0 1
|  3> C         -0.29041        0.95134       -5.15342
|  4> C         -0.05517        1.61942       -3.78858
|  5> H          0.04501        0.86230       -3.00301
|  6> H         -0.92294        2.23033       -3.51703
|  7> C          1.22302        2.46987       -3.75691
|  8> H          1.11470        3.25807       -4.53300
|  9> H          1.23773        3.01124       -2.79216
| 10> F          2.35381        1.71203       -3.93448
| 11> H         -0.38575        1.70447       -5.90748
| 12> H         -1.18723        0.36894       -5.11561
| 13> H          0.53806        0.31571       -5.38692
| 14> *
| 15>
| 16> %MaxCore 64000
| 17>
| 18> %pal nprocs 4
| 19> end
| 20>
| 21> %scf
| 22>   MaxIter 150
| 23> end
| 24>
| 25>
| 26>                          ****END OF INPUT****

CARTESIAN COORDINATES (ANGSTROEM)
---------------------------------
  C     -0.290410    0.951340   -5.153420
  C     -0.055170    1.619420   -3.788580
  H      0.045010    0.862300   -3.003010
  H     -0.922940    2.230330   -3.517030
  C      1.223020    2.469870   -3.756910
  H      1.114700    3.258070   -4.533000
  H      1.237730    3.011240   -2.792160
  F      2.353810    1.712030   -3.934480
  H     -0.385750    1.704470   -5.907480
  H     -1.187230    0.368940   -5.115610
  H      0.538060    0.315710   -5.386920

 Total Charge           Charge          ....    0
 Multiplicity           Mult            ....    1
 Number of Electrons    NEL             ....   34
 Basis Dimension        Dim             ....  139

ORBITAL ENERGIES
----------------

  NO   OCC          E(Eh)            E(eV)
   0   2.0000     -24.264715      -660.2765
   1   2.0000      -9.970996      -271.3246
   2   2.0000      -9.903576      -269.4900
   3   2.0000      -9.884415      -268.9686
   4   2.0000      -1.085048       -29.5257
   5   2.0000      -0.711035       -19.3482
   6   2.0000      -0.618360       -16.8264
   7   2.0000      -0.534644       -14.5484
   8   2.0000      -0.458700       -12.4818
   9   2.0000      -0.438510       -11.9325
  10   2.0000      -0.417349       -11.3566
  11   2.0000      -0.386309       -10.5120
  12   2.0000      -0.350604        -9.5404
  13   2.0000      -0.331457        -9.0194
  14   2.0000      -0.310610        -8.4521
  15   2.0000      -0.282662        -7.6916
  16   2.0000      -0.281979        -7.6730
  17   0.0000       0.003773         0.1027
  18   0.0000       0.030564         0.8317
  19   0.0000       0.038276         1.0415
  20   0.0000       0.044323         1.2061
  21   0.0000       0.068394         1.8611

MULLIKEN ATOMIC CHARGES
-----------------------
   0 C :    0.645962
   1 C :   -0.507700
   2 H :   -0.066292
   3 H :   -0.069049
   4 C :    0.724117
   5 H :   -0.038660
   6 H :   -0.099996
   7 F :   -0.415586
   8 H :   -0.057821
   9 H :   -0.075824
  10 H :   -0.039151
Sum of atomic charges:    0.0000000

LOEWDIN ATOMIC CHARGES
----------------------
   0 C :    0.126023
   1 C :   -0.068434
   2 H :    0.023831
   3 H :    0.025163
   4 C :    0.080316
   5 H :    0.033068
   6 H :    0.027994
   7 F :   -0.191774
   8 H :   -0.018718
   9 H :   -0.020436
  10 H :   -0.017034

  Mayer bond orders larger than 0.100000
B(  0-C ,  1-C ) :   1.3275 B(  0-C ,  8-H ) :   0.8149 B(  0-C ,  9-H ) :   0.8124
B(  0-C , 10-H ) :   0.8272 B(  1-C ,  2-H ) :   0.9575 B(  1-C ,  3-H ) :   0.9587
B(  1-C ,  4-C ) :   1.2035 B(  1-C ,  5-H ) :   0.1040 B(  1-C ,  6-H ) :   0.1214
B(  1-C ,  8-H ) :   0.1824 B(  1-C ,  9-H ) :   0.1916 B(  1-C , 10-H ) :   0.1930
B(  2-H ,  4-C ) :   0.1026 B(  4-C ,  5-H ) :   0.9006 B(  4-C ,  6-H ) :   0.9004
B(  4-C ,  7-F ) :   0.7520

Dispersion correction           -0.006263429
FINAL SINGLE POINT ENERGY      -217.961021610864

DIPOLE MOMENT
-------------
                                X             Y             Z
Electronic contribution:      6.20197       0.36834       1.39984
Nuclear contribution   :     -6.82889      -0.09322      -1.32039
                        -----------------------------------------
Total Dipole Moment    :     -0.62691       0.27512       0.07945
                        -----------------------------------------
Magnitude (a.u.)       :      0.68922
Magnitude (Debye)      :      1.75186

Rotational constants in cm-1:     0.494282     0.164406     0.140369
Rotational constants in MHz : 14818.207649  4928.760399  4208.156468

                             ****ORCA TERMINATED NORMALLY****
TOTAL RUN TIME: 0 days 0 hours 0 minutes 3 seconds 980 msec
