                         Program Version 5.0.0 -  RELEASE  -
|  1> !PBE D3BJ RIJCOSX def2-SVPD def2/J TightSCF
|  2> *xyz 0 1
|  3> C          1.63556       -1.67040       -5.29211
|  4> C          0.33848       -1.50091       -4.50540
|  5> C          2.48451       -0.50741       -5.14039
|  6> C         -0.68487       -0.52803       -5.09989
|  7> H          1.39834       -1.82924       -6.35259
|  8> H          2.15586       -2.56540       -4.93209
|  9> C          3.45115       -0.14953       -5.95259
| 10> N          3.92267        1.08956       -5.85071
| 11> N          3.96616       -1.00618       -6.86788
| 12> H          3.52139       -1.90647       -6.99527
| 13> H          4.44482       -0.62347       -7.67035
| 14> H          2.25200        0.24080       -4.49879
| 15> H          3.46428        1.64078       -5.13639
| 16> H          4.83447        1.31375       -6.22465
| 17> H          0.59489       -1.21158       -3.48231
| 18> H         -0.12653       -2.48766       -4.43418
| 19> H         -0.92267       -0.82721       -6.09931
| 20> H         -0.27317        0.45953       -5.11162
| 21> H         -1.57350       -0.53693       -4.50394
| 22> *
| 23>
| 24> %MaxCore 64000
| 25>
| 26> %pal nprocs 4
| 27> end
| 28>
| 29> %scf
| 30>   MaxIter 150
| 31> end
| 32>
| 33>
| 34>                          ****END OF INPUT****

CARTESIAN COORDINATES (ANGSTROEM)
---------------------------------
  C      1.635560   -1.670400   -5.292110
  C      0.338480   -1.500910   -4.505400
  C      2.484510   -0.507410   -5.140390
  C     -0.684870   -0.528030   -5.099890
  H      1.398340   -1.829240   -6.352590
  H      2.155860   -2.565400   -4.932090
  C      3.451150   -0.149530   -5.952590
  N      3.922670    1.089560   -5.850710
  N      3.966160   -1.006180   -6.867880
  H      3.521390   -1.906470   -6.995270
  H      4.444820   -0.623470   -7.670350
  H      2.252000    0.240800   -4.498790
  H      3.464280    1.640780   -5.136390
  H      4.834470    1.313750   -6.224650
  H      0.594890   -1.211580   -3.482310
  H     -0.126530   -2.487660   -4.434180
  H     -0.922670   -0.827210   -6.099310
  H     -0.273170    0.459530   -5.111620
  H     -1.573500   -0.536930   -4.503940

 Total Charge           Charge          ....    0
 Multiplicity           Mult            ....    1
 Number of Electrons    NEL             ....   56
 Basis Dimension        Dim             ....  236

ORBITAL ENERGIES
----------------

  NO   OCC          E(Eh)            E(eV)
   0   2.0000     -14.002558      -381.0290
   1   2.0000     -13.997495      -380.8912
   2   2.0000      -9.928913      -270.1795
   3   2.0000      -9.877290      -268.7747
   4   2.0000      -9.873747      -268.6783
   5   2.0000      -9.867355      -268.5044
   6   2.0000      -9.821577      -267.2587
   7   2.0000      -0.869145       -23.6506
   8   2.0000      -0.787263       -21.4225
   9   2.0000      -0.709087       -19.2952
  10   2.0000      -0.649475       -17.6731
  11   2.0000      -0.591034       -16.0829
  12   2.0000      -0.534221       -14.5369
  13   2.0000      -0.511955       -13.9310
  14   2.0000      -0.481960       -13.1148
  15   2.0000      -0.460481       -12.5303
  16   2.0000      -0.421710       -11.4753
  17   2.0000      -0.396105       -10.7786
  18   2.0000      -0.388401       -10.5689
  19   2.0000      -0.365742        -9.9524
  20   2.0000      -0.342239        -9.3128
  21   2.0000      -0.329535        -8.9671
  22   2.0000      -0.320293        -8.7156
  23   2.0000      -0.287626        -7.8267
  24   2.0000      -0.277840        -7.5604
  25   2.0000      -0.271591        -7.3904
  26   2.0000      -0.222723        -6.0606
  27   2.0000      -0.134282        -3.6540
  28   0.0000      -0.004189        -0.1140
  29   0.0000       0.019314         0.5256
  30   0.0000       0.023281         0.6335
  31   0.0000       0.037481         1.0199
  32   0.0000       0.047635         1.2962

MULLIKEN ATOMIC CHARGES
-----------------------
   0 C :    0.206463
   1 C :   -0.147635
   2 C :   -0.146414
   3 C :    0.770257
   4 H :   -0.028973
   5 H :   -0.142481
   6 C :    0.589264
   7 N :    0.042528
   8 N :   -0.067099
   9 H :   -0.018485
  10 H :   -0.184360
  11 H :   -0.382054
  12 H :    0.062210
  13 H :   -0.237794
  14 H :   -0.023983
  15 H :   -0.111826
  16 H :   -0.037494
  17 H :   -0.072471
  18 H :   -0.069652
Sum of atomic charges:   -0.0000000

LOEWDIN ATOMIC CHARGES
----------------------
   0 C :   -0.079520
   1 C :   -0.088507
   2 C :   -0.032623
   3 C :    0.125793
   4 H :    0.018734
   5 H :    0.018983
   6 C :   -0.236805
   7 N :    0.187795
   8 N :    0.217573
   9 H :   -0.018303
  10 H :   -0.017223
  11 H :   -0.048964
  12 H :   -0.001293
  13 H :   -0.012328
  14 H :    0.021300
  15 H :    0.012914
  16 H :   -0.020023
  17 H :   -0.025188
  18 H :   -0.022314

  Mayer bond orders larger than 0.100000
B(  0-C ,  1-C ) :   1.2464 B(  0-C ,  2-C ) :   0.9150 B(  0-C ,  4-H ) :   0.7974
B(  0-C ,  5-H ) :   0.7351 B(  0-C , 11-H ) :   0.2978 B(  0-C , 14-H ) :   0.1938
B(  0-C , 15-H ) :   0.2664 B(  1-C ,  2-C ) :   0.1924 B(  1-C ,  3-C ) :   1.3064
B(  1-C , 14-H ) :   0.8322 B(  1-C , 15-H ) :   0.7652 B(  1-C , 16-H ) :   0.2073
B(  1-C , 17-H ) :   0.2437 B(  1-C , 18-H ) :   0.2383 B(  2-C ,  4-H ) :   0.1715
B(  2-C ,  5-H ) :   0.2852 B(  2-C ,  6-C ) :   1.5048 B(  2-C ,  7-N ) :   0.3893
B(  2-C ,  8-N ) :   0.2553 B(  2-C ,  9-H ) :  -0.1276 B(  2-C , 11-H ) :   0.8029
B(  2-C , 12-H ) :  -0.1056 B(  3-C , 16-H ) :   0.8002 B(  3-C , 17-H ) :   0.8089
B(  3-C , 18-H ) :   0.7429 B(  6-C ,  7-N ) :   0.9066 B(  6-C ,  8-N ) :   0.9512
B(  7-N ,  8-N ) :   0.1480 B(  7-N , 12-H ) :   1.0277 B(  7-N , 13-H ) :   1.2490
B(  8-N ,  9-H ) :   1.0360 B(  8-N , 10-H ) :   1.2280 B(  9-H , 10-H ) :  -0.1324
B( 12-H , 13-H ) :  -0.1500

Dispersion correction           -0.015815841
FINAL SINGLE POINT ENERGY      -306.631904968343

DIPOLE MOMENT
-------------
                                X             Y             Z
Electronic contribution:      6.39175       1.43411      -1.64772
Nuclear contribution   :     -5.84539      -1.11717       1.11949
                        -----------------------------------------
Total Dipole Moment    :      0.54636       0.31694      -0.52823
                        -----------------------------------------
Magnitude (a.u.)       :      0.82340
Magnitude (Debye)      :      2.09292

Rotational constants in cm-1:     0.177055     0.043715     0.038831
Rotational constants in MHz :  5307.971484  1310.555422  1164.112547

                             ****ORCA TERMINATED NORMALLY****
TOTAL RUN TIME: 0 days 0 hours 0 minutes 10 seconds 80 msec
