                         Program Version 5.0.0 -  RELEASE  -
|  1> !PBE D3BJ RIJCOSX def2-SVPD def2/J TightSCF
|  2> *xyz 0 1
|  3> C          1.63556       -1.67040       -5.29211
|  4> C          0.33848       -1.50091       -4.50540
|  5> N          2.48451       -0.50741       -5.14039
|  6> C         -0.68487       -0.52803       -5.09989
|  7> H          1.39834       -1.82924       -6.35259
|  8> H          2.15586       -2.56540       -4.93209
|  9> C          3.45115       -0.14953       -5.95259
| 10> C          3.92267        1.08956       -5.85071
| 11> N          3.96616       -1.00618       -6.86788
| 12> H          3.52139       -1.90647       -6.99527
| 13> H          4.44482       -0.62347       -7.67035
| 14> H          2.25200        0.24080       -4.49879
| 15> H          3.46428        1.64078       -5.13639
| 16> H          4.83447        1.31375       -6.22465
| 17> H          0.59489       -1.21158       -3.48231
| 18> H         -0.12653       -2.48766       -4.43418
| 19> H         -0.92267       -0.82721       -6.09931
| 20> H         -0.27317        0.45953       -5.11162
| 21> H         -1.57350       -0.53693       -4.50394
| 22> *
| 23>
| 24> %MaxCore 64000
| 25>
| 26> %pal nprocs 4
| 27> end
| 28>
| 29> %scf
| 30>   MaxIter 150
| 31> end
| 32>
| 33>
| 34>                          ****END OF INPUT****

CARTESIAN COORDINATES (ANGSTROEM)
---------------------------------
  C      1.635560   -1.670400   -5.292110
  C      0.338480   -1.500910   -4.505400
  N      2.484510   -0.507410   -5.140390
  C     -0.684870   -0.528030   -5.099890
  H      1.398340   -1.829240   -6.352590
  H      2.155860   -2.565400   -4.932090
  C      3.451150   -0.149530   -5.952590
  C      3.922670    1.089560   -5.850710
  N      3.966160   -1.006180   -6.867880
  H      3.521390   -1.906470   -6.995270
  H      4.444820   -0.623470   -7.670350
  H      2.252000    0.240800   -4.498790
  H      3.464280    1.640780   -5.136390
  H      4.834470    1.313750   -6.224650
  H      0.594890   -1.211580   -3.482310
  H     -0.126530   -2.487660   -4.434180
  H     -0.922670   -0.827210   -6.099310
  H     -0.273170    0.459530   -5.111620
  H     -1.573500   -0.536930   -4.503940

 Total Charge           Charge          ....    0
 Multiplicity           Mult            ....    1
 Number of Electrons    NEL             ....   56
 Basis Dimension        Dim             ....  236

ORBITAL ENERGIES
----------------

  NO   OCC          E(Eh)            E(eV)
   0   2.0000     -14.002075      -381.0158
   1   2.0000     -13.999753      -380.9526
   2   2.0000      -9.935149      -270.3491
   3   2.0000      -9.931484      -270.2494
   4   2.0000      -9.907210      -269.5889
   5   2.0000      -9.889096      -269.0960
   6   2.0000      -9.806749      -266.8552
   7   2.0000      -0.880590       -23.9621
   8   2.0000      -0.799329       -21.7509
   9   2.0000      -0.718330       -19.5467
  10   2.0000      -0.654629       -17.8133
  11   2.0000      -0.600626       -16.3439
  12   2.0000      -0.546792       -14.8790
  13   2.0000      -0.531563       -14.4646
  14   2.0000      -0.484496       -13.1838
  15   2.0000      -0.449574       -12.2335
  16   2.0000      -0.424661       -11.5556
  17   2.0000      -0.419619       -11.4184
  18   2.0000      -0.398062       -10.8318
  19   2.0000      -0.372121       -10.1259
  20   2.0000      -0.348492        -9.4830
  21   2.0000      -0.337514        -9.1842
  22   2.0000      -0.329698        -8.9715
  23   2.0000      -0.314907        -8.5691
  24   2.0000      -0.309207        -8.4139
  25   2.0000      -0.299771        -8.1572
  26   2.0000      -0.216896        -5.9020
  27   2.0000      -0.130850        -3.5606
  28   0.0000      -0.006049        -0.1646
  29   0.0000       0.010952         0.2980
  30   0.0000       0.017880         0.4865
  31   0.0000       0.032478         0.8838
  32   0.0000       0.037321         1.0156

MULLIKEN ATOMIC CHARGES
-----------------------
   0 C :    0.516999
   1 C :   -0.276342
   2 N :   -0.373533
   3 C :    0.760255
   4 H :   -0.052424
   5 H :   -0.213370
   6 C :    0.558108
   7 C :    0.468295
   8 N :    0.043977
   9 H :   -0.146199
  10 H :   -0.093617
  11 H :   -0.158910
  12 H :   -0.211149
  13 H :   -0.481164
  14 H :   -0.071824
  15 H :   -0.101753
  16 H :   -0.019667
  17 H :   -0.063076
  18 H :   -0.084607
Sum of atomic charges:    0.0000000

LOEWDIN ATOMIC CHARGES
----------------------
   0 C :    0.023427
   1 C :   -0.074139
   2 N :   -0.006498
   3 C :    0.129856
   4 H :    0.022146
   5 H :    0.020203
   6 C :   -0.245745
   7 C :    0.141475
   8 N :    0.213712
   9 H :   -0.031808
  10 H :    0.000491
  11 H :    0.025558
  12 H :   -0.105070
  13 H :   -0.099739
  14 H :    0.021860
  15 H :    0.019883
  16 H :   -0.016683
  17 H :   -0.021329
  18 H :   -0.017600

  Mayer bond orders larger than 0.100000
B(  0-C ,  1-C ) :   1.2125 B(  0-C ,  2-N ) :   0.9455 B(  0-C ,  4-H ) :   0.8137
B(  0-C ,  5-H ) :   0.8875 B(  0-C , 11-H ) :  -0.1450 B(  0-C , 14-H ) :   0.1674
B(  0-C , 15-H ) :   0.2311 B(  1-C ,  2-N ) :   0.1101 B(  1-C ,  3-C ) :   1.2988
B(  1-C , 14-H ) :   0.8542 B(  1-C , 15-H ) :   0.8350 B(  1-C , 16-H ) :   0.2060
B(  1-C , 17-H ) :   0.2392 B(  1-C , 18-H ) :   0.2473 B(  2-N ,  4-H ) :   0.1804
B(  2-N ,  5-H ) :   0.1824 B(  2-N ,  6-C ) :   1.0959 B(  2-N ,  7-C ) :   0.3211
B(  2-N ,  8-N ) :   0.1526 B(  2-N , 11-H ) :   1.1271 B(  3-C , 16-H ) :   0.7980
B(  3-C , 17-H ) :   0.8013 B(  3-C , 18-H ) :   0.7540 B(  6-C ,  7-C ) :   1.5503
B(  6-C ,  8-N ) :   0.8925 B(  6-C , 10-H ) :  -0.1039 B(  6-C , 11-H ) :  -0.2074
B(  6-C , 12-H ) :   0.2579 B(  6-C , 13-H ) :   0.2887 B(  7-C ,  8-N ) :   0.2692
B(  7-C , 12-H ) :   0.8065 B(  7-C , 13-H ) :   0.6368 B(  8-N ,  9-H ) :   1.0404
B(  8-N , 10-H ) :   1.1795 B(  9-H , 10-H ) :  -0.1432

Dispersion correction           -0.015658691
FINAL SINGLE POINT ENERGY      -306.620032266091

DIPOLE MOMENT
-------------
                                X             Y             Z
Electronic contribution:      4.78762      -0.13961      -1.04250
Nuclear contribution   :     -5.53036      -0.76734       0.96389
                        -----------------------------------------
Total Dipole Moment    :     -0.74274      -0.90695      -0.07861
                        -----------------------------------------
Magnitude (a.u.)       :      1.17491
Magnitude (Debye)      :      2.98637

Rotational constants in cm-1:     0.181901     0.044719     0.039941
Rotational constants in MHz :  5453.254735  1340.639344  1197.391002

                             ****ORCA TERMINATED NORMALLY****
TOTAL RUN TIME: 0 days 0 hours 0 minutes 10 seconds 614 msec
