                         Program Version 5.0.0 -  RELEASE  -
|  1> !PBE D3BJ RIJCOSX def2-SVPD def2/J TightSCF
|  2> *xyz 0 1
|  3> C          1.63556       -1.67040       -5.29211
|  4> C          0.33848       -1.50091       -4.50540
|  5> N          2.48451       -0.50741       -5.14039
|  6> C         -0.68487       -0.52803       -5.09989
|  7> H          1.39834       -1.82924       -6.35259
|  8> H          2.15586       -2.56540       -4.93209
|  9> C          3.45115       -0.14953       -5.95259
| 10> N          3.92267        1.08956       -5.85071
| 11> C          3.96616       -1.00618       -6.86788
| 12> H          3.52139       -1.90647       -6.99527
| 13> H          4.44482       -0.62347       -7.67035
| 14> H          2.25200        0.24080       -4.49879
| 15> H          3.46428        1.64078       -5.13639
| 16> H          4.83447        1.31375       -6.22465
| 17> H          0.59489       -1.21158       -3.48231
| 18> H         -0.12653       -2.48766       -4.43418
| 19> H         -0.92267       -0.82721       -6.09931
| 20> H         -0.27317        0.45953       -5.11162
| 21> H         -1.57350       -0.53693       -4.50394
| 22> *
| 23>
| 24> %MaxCore 64000
| 25>
| 26> %pal nprocs 4
| 27> end
| 28>
| 29> %scf
| 30>   MaxIter 150
| 31> end
| 32>
| 33>
| 34>                          ****END OF INPUT****

CARTESIAN COORDINATES (ANGSTROEM)
---------------------------------
  C      1.635560   -1.670400   -5.292110
  C      0.338480   -1.500910   -4.505400
  N      2.484510   -0.507410   -5.140390
  C     -0.684870   -0.528030   -5.099890
  H      1.398340   -1.829240   -6.352590
  H      2.155860   -2.565400   -4.932090
  C      3.451150   -0.149530   -5.952590
  N      3.922670    1.089560   -5.850710
  C      3.966160   -1.006180   -6.867880
  H      3.521390   -1.906470   -6.995270
  H      4.444820   -0.623470   -7.670350
  H      2.252000    0.240800   -4.498790
  H      3.464280    1.640780   -5.136390
  H      4.834470    1.313750   -6.224650
  H      0.594890   -1.211580   -3.482310
  H     -0.126530   -2.487660   -4.434180
  H     -0.922670   -0.827210   -6.099310
  H     -0.273170    0.459530   -5.111620
  H     -1.573500   -0.536930   -4.503940

 Total Charge           Charge          ....    0
 Multiplicity           Mult            ....    1
 Number of Electrons    NEL             ....   56
 Basis Dimension        Dim             ....  236

ORBITAL ENERGIES
----------------

  NO   OCC          E(Eh)            E(eV)
   0   2.0000     -14.008378      -381.1873
   1   2.0000     -14.001916      -381.0115
   2   2.0000      -9.933012      -270.2910
   3   2.0000      -9.928830      -270.1772
   4   2.0000      -9.903827      -269.4968
   5   2.0000      -9.887809      -269.0610
   6   2.0000      -9.809147      -266.9205
   7   2.0000      -0.888914       -24.1886
   8   2.0000      -0.804419       -21.8893
   9   2.0000      -0.710769       -19.3410
  10   2.0000      -0.635274       -17.2867
  11   2.0000      -0.625417       -17.0185
  12   2.0000      -0.547753       -14.9051
  13   2.0000      -0.511408       -13.9161
  14   2.0000      -0.484164       -13.1748
  15   2.0000      -0.472376       -12.8540
  16   2.0000      -0.428536       -11.6610
  17   2.0000      -0.417551       -11.3621
  18   2.0000      -0.389640       -10.6026
  19   2.0000      -0.373559       -10.1651
  20   2.0000      -0.342279        -9.3139
  21   2.0000      -0.339913        -9.2495
  22   2.0000      -0.321784        -8.7562
  23   2.0000      -0.313169        -8.5218
  24   2.0000      -0.305472        -8.3123
  25   2.0000      -0.300325        -8.1722
  26   2.0000      -0.211747        -5.7619
  27   2.0000      -0.135936        -3.6990
  28   0.0000      -0.012690        -0.3453
  29   0.0000       0.008623         0.2346
  30   0.0000       0.024926         0.6783
  31   0.0000       0.032836         0.8935
  32   0.0000       0.040522         1.1027

MULLIKEN ATOMIC CHARGES
-----------------------
   0 C :    0.533451
   1 C :   -0.275749
   2 N :   -0.390100
   3 C :    0.768859
   4 H :    0.007903
   5 H :   -0.187985
   6 C :    0.455409
   7 N :    0.111784
   8 C :    0.463910
   9 H :   -0.071070
  10 H :   -0.502354
  11 H :   -0.286486
  12 H :   -0.127818
  13 H :   -0.139799
  14 H :   -0.079247
  15 H :   -0.112055
  16 H :   -0.016913
  17 H :   -0.071595
  18 H :   -0.080144
Sum of atomic charges:    0.0000000

LOEWDIN ATOMIC CHARGES
----------------------
   0 C :    0.036389
   1 C :   -0.075021
   2 N :   -0.006950
   3 C :    0.127496
   4 H :    0.029759
   5 H :    0.028526
   6 C :   -0.255863
   7 N :    0.198371
   8 C :    0.164192
   9 H :   -0.122913
  10 H :   -0.107955
  11 H :    0.013712
  12 H :   -0.018059
  13 H :    0.008543
  14 H :    0.018616
  15 H :    0.020825
  16 H :   -0.015666
  17 H :   -0.025546
  18 H :   -0.018456

  Mayer bond orders larger than 0.100000
B(  0-C ,  1-C ) :   1.2045 B(  0-C ,  2-N ) :   0.9968 B(  0-C ,  4-H ) :   0.7945
B(  0-C ,  5-H ) :   0.8875 B(  0-C , 11-H ) :  -0.1296 B(  0-C , 14-H ) :   0.1650
B(  0-C , 15-H ) :   0.2176 B(  1-C ,  2-N ) :   0.1051 B(  1-C ,  3-C ) :   1.3021
B(  1-C , 14-H ) :   0.8478 B(  1-C , 15-H ) :   0.8458 B(  1-C , 16-H ) :   0.2065
B(  1-C , 17-H ) :   0.2414 B(  1-C , 18-H ) :   0.2497 B(  2-N ,  4-H ) :   0.1877
B(  2-N ,  5-H ) :   0.1506 B(  2-N ,  6-C ) :   1.0945 B(  2-N ,  7-N ) :   0.2481
B(  2-N ,  8-C ) :   0.3324 B(  2-N , 11-H ) :   1.2042 B(  3-C , 16-H ) :   0.7994
B(  3-C , 17-H ) :   0.8054 B(  3-C , 18-H ) :   0.7475 B(  6-C ,  7-N ) :   0.9179
B(  6-C ,  8-C ) :   1.7048 B(  6-C ,  9-H ) :   0.3247 B(  6-C , 10-H ) :   0.2405
B(  6-C , 11-H ) :  -0.2775 B(  7-N ,  8-C ) :   0.2807 B(  7-N , 12-H ) :   1.0726
B(  7-N , 13-H ) :   1.2235 B(  8-C ,  9-H ) :   0.6229 B(  8-C , 10-H ) :   0.7283
B(  9-H , 10-H ) :   0.1698 B( 12-H , 13-H ) :  -0.1368

Dispersion correction           -0.015699282
FINAL SINGLE POINT ENERGY      -306.620942265597

DIPOLE MOMENT
-------------
                                X             Y             Z
Electronic contribution:      4.85762       1.89214       0.01907
Nuclear contribution   :     -5.52083      -1.22643       0.74108
                        -----------------------------------------
Total Dipole Moment    :     -0.66321       0.66572       0.76015
                        -----------------------------------------
Magnitude (a.u.)       :      1.20866
Magnitude (Debye)      :      3.07217

Rotational constants in cm-1:     0.181479     0.044588     0.039739
Rotational constants in MHz :  5440.604457  1336.706831  1191.355312

                             ****ORCA TERMINATED NORMALLY****
TOTAL RUN TIME: 0 days 0 hours 0 minutes 10 seconds 20 msec
