                         Program Version 5.0.0 -  RELEASE  -
|  1> !BLYP D3BJ RIJCOSX def2-SVPD def2/J TightSCF
|  2> *xyz -1 1
|  3> C         -0.46129        2.23469       -4.98962
|  4> C          0.84888        2.66797       -4.30235
|  5> C          2.09343        1.86104       -4.65684
|  6> H          2.44481        2.04157       -5.67499
|  7> H          2.90175        2.13786       -3.98034
|  8> S          1.87964        0.07859       -4.46297
|  9> O          3.20757       -0.46611       -4.42026
| 10> O          1.07506       -0.05616       -3.26876
| 11> O          1.13166       -0.31996       -5.67903
| 12> H          0.66843        2.55943       -3.23285
| 13> H          1.03407        3.72943       -4.49708
| 14> H         -0.35183        2.31783       -6.05075
| 15> H         -1.26108        2.86600       -4.66300
| 16> H         -0.68032        1.21949       -4.73211
| 17> *
| 18>
| 19> %MaxCore 64000
| 20>
| 21> %pal nprocs 8
| 22> end
| 23>
| 24> %scf
| 25>   MaxIter 150
| 26> end
| 27>
| 28>
| 29>                          ****END OF INPUT****

CARTESIAN COORDINATES (ANGSTROEM)
---------------------------------
  C     -0.461290    2.234690   -4.989620
  C      0.848880    2.667970   -4.302350
  C      2.093430    1.861040   -4.656840
  H      2.444810    2.041570   -5.674990
  H      2.901750    2.137860   -3.980340
  S      1.879640    0.078590   -4.462970
  O      3.207570   -0.466110   -4.420260
  O      1.075060   -0.056160   -3.268760
  O      1.131660   -0.319960   -5.679030
  H      0.668430    2.559430   -3.232850
  H      1.034070    3.729430   -4.497080
  H     -0.351830    2.317830   -6.050750
  H     -1.261080    2.866000   -4.663000
  H     -0.680320    1.219490   -4.732110

 Total Charge           Charge          ....   -1
 Multiplicity           Mult            ....    1
 Number of Electrons    NEL             ....   66
 Basis Dimension        Dim             ....  212

ORBITAL ENERGIES
----------------

  NO   OCC          E(Eh)            E(eV)
   0   2.0000     -88.130833     -2398.1619
   1   2.0000     -18.576114      -505.4818
   2   2.0000     -18.574105      -505.4271
   3   2.0000     -18.561160      -505.0748
   4   2.0000      -9.788186      -266.3501
   5   2.0000      -9.780068      -266.1292
   6   2.0000      -9.768730      -265.8206
   7   2.0000      -7.667422      -208.6412
   8   2.0000      -5.702578      -155.1750
   9   2.0000      -5.702382      -155.1697
  10   2.0000      -5.701670      -155.1503
  11   2.0000      -0.839454       -22.8427
  12   2.0000      -0.707236       -19.2449
  13   2.0000      -0.682016       -18.5586
  14   2.0000      -0.565808       -15.3964
  15   2.0000      -0.483377       -13.1534
  16   2.0000      -0.396057       -10.7773
  17   2.0000      -0.316895        -8.6232
  18   2.0000      -0.274756        -7.4765
  19   2.0000      -0.261925        -7.1273
  20   2.0000      -0.239188        -6.5086
  21   2.0000      -0.226327        -6.1587
  22   2.0000      -0.206791        -5.6271
  23   2.0000      -0.197906        -5.3853
  24   2.0000      -0.176161        -4.7936
  25   2.0000      -0.168631        -4.5887
  26   2.0000      -0.152051        -4.1375
  27   2.0000      -0.104367        -2.8400
  28   2.0000      -0.101672        -2.7666
  29   2.0000      -0.072557        -1.9744
  30   2.0000      -0.066544        -1.8108
  31   2.0000      -0.054027        -1.4702
  32   2.0000      -0.021579        -0.5872
  33   0.0000       0.121577         3.3083
  34   0.0000       0.147184         4.0051
  35   0.0000       0.155321         4.2265
  36   0.0000       0.161840         4.4039
  37   0.0000       0.183214         4.9855

MULLIKEN ATOMIC CHARGES
-----------------------
   0 C :    1.178169
   1 C :    0.027351
   2 C :    0.402052
   3 H :   -0.181119
   4 H :   -0.191359
   5 S :    1.102478
   6 O :   -0.744131
   7 O :   -0.750353
   8 O :   -0.757911
   9 H :   -0.064963
  10 H :   -0.380677
  11 H :   -0.193000
  12 H :   -0.281773
  13 H :   -0.164763
Sum of atomic charges:   -1.0000000

LOEWDIN ATOMIC CHARGES
----------------------
   0 C :    0.131826
   1 C :   -0.086256
   2 C :   -0.086429
   3 H :   -0.000340
   4 H :   -0.008488
   5 S :    0.817133
   6 O :   -0.548714
   7 O :   -0.545040
   8 O :   -0.566447
   9 H :    0.004636
  10 H :   -0.002707
  11 H :   -0.026700
  12 H :   -0.041988
  13 H :   -0.040486

  Mayer bond orders larger than 0.100000
B(  0-C ,  1-C ) :   1.2657 B(  0-C ,  9-H ) :   0.1364 B(  0-C , 11-H ) :   0.6489
B(  0-C , 12-H ) :   0.6213 B(  0-C , 13-H ) :   0.7104 B(  1-C ,  2-C ) :   1.2468
B(  1-C ,  3-H ) :   0.1703 B(  1-C ,  4-H ) :   0.1845 B(  1-C ,  9-H ) :   0.7768
B(  1-C , 10-H ) :   0.7777 B(  1-C , 11-H ) :   0.2712 B(  1-C , 12-H ) :   0.2835
B(  1-C , 13-H ) :   0.2715 B(  2-C ,  3-H ) :   0.8432 B(  2-C ,  4-H ) :   0.8292
B(  2-C ,  5-S ) :   0.8704 B(  2-C ,  9-H ) :   0.1620 B(  2-C , 10-H ) :   0.1733
B(  5-S ,  6-O ) :   1.4195 B(  5-S ,  7-O ) :   1.3147 B(  5-S ,  8-O ) :   1.2927

Dispersion correction           -0.028472656
FINAL SINGLE POINT ENERGY      -741.975704980435

DIPOLE MOMENT
-------------
                                X             Y             Z
Electronic contribution:      4.87393      -9.11573       1.04095
Nuclear contribution   :     -5.21326      11.14780      -1.06438
                        -----------------------------------------
Total Dipole Moment    :     -0.33934       2.03207      -0.02342
                        -----------------------------------------
Magnitude (a.u.)       :      2.06034
Magnitude (Debye)      :      5.23698

Rotational constants in cm-1:     0.135673     0.057896     0.054396
Rotational constants in MHz :  4067.361083  1735.682437  1630.763840

                             ****ORCA TERMINATED NORMALLY****
TOTAL RUN TIME: 0 days 0 hours 0 minutes 6 seconds 124 msec
