                         Program Version 5.0.0 -  RELEASE  -
|  1> !BLYP D3BJ RIJCOSX def2-SVPD def2/J TightSCF
|  2> *xyz 1 1
|  3> C         -0.46129        2.23469       -4.98962
|  4> C          0.84888        2.66797       -4.30235
|  5> C          2.09343        1.86104       -4.65684
|  6> C         -0.42384        2.39877       -6.47432
|  7> N         -0.95947        3.49265       -7.00740
|  8> N          0.14558        1.48689       -7.20399
|  9> H          0.56537        0.69681       -6.72386
| 10> H          0.22068        1.58177       -8.20752
| 11> H         -1.40624        4.18151       -6.40326
| 12> H         -0.93421        3.68160       -7.99947
| 13> H          0.66843        2.55943       -3.23285
| 14> H          1.03407        3.72943       -4.49708
| 15> H         -1.28888        2.82674       -4.59500
| 16> H         -0.65170        1.18634       -4.75655
| 17> H          2.29129        1.95234       -5.70442
| 18> H          1.93270        0.83176       -4.41261
| 19> H          2.92953        2.23285       -4.10223
| 20> *
| 21>
| 22> %MaxCore 64000
| 23>
| 24> %pal nprocs 8
| 25> end
| 26>
| 27> %scf
| 28>   MaxIter 150
| 29> end
| 30>
| 31>
| 32>                          ****END OF INPUT****

CARTESIAN COORDINATES (ANGSTROEM)
---------------------------------
  C     -0.461290    2.234690   -4.989620
  C      0.848880    2.667970   -4.302350
  C      2.093430    1.861040   -4.656840
  C     -0.423840    2.398770   -6.474320
  N     -0.959470    3.492650   -7.007400
  N      0.145580    1.486890   -7.203990
  H      0.565370    0.696810   -6.723860
  H      0.220680    1.581770   -8.207520
  H     -1.406240    4.181510   -6.403260
  H     -0.934210    3.681600   -7.999470
  H      0.668430    2.559430   -3.232850
  H      1.034070    3.729430   -4.497080
  H     -1.288880    2.826740   -4.595000
  H     -0.651700    1.186340   -4.756550
  H      2.291290    1.952340   -5.704420
  H      1.932700    0.831760   -4.412610
  H      2.929530    2.232850   -4.102230

 Total Charge           Charge          ....    1
 Multiplicity           Mult            ....    1
 Number of Electrons    NEL             ....   48
 Basis Dimension        Dim             ....  208

ORBITAL ENERGIES
----------------

  NO   OCC          E(Eh)            E(eV)
   0   2.0000     -14.268046      -388.2533
   1   2.0000     -14.264742      -388.1634
   2   2.0000     -10.231663      -278.4177
   3   2.0000     -10.115019      -275.2437
   4   2.0000     -10.083105      -274.3752
   5   2.0000     -10.052853      -273.5520
   6   2.0000      -1.102745       -30.0072
   7   2.0000      -1.014753       -27.6128
   8   2.0000      -0.887773       -24.1575
   9   2.0000      -0.811473       -22.0813
  10   2.0000      -0.764627       -20.8065
  11   2.0000      -0.723688       -19.6925
  12   2.0000      -0.712864       -19.3980
  13   2.0000      -0.668224       -18.1833
  14   2.0000      -0.647302       -17.6140
  15   2.0000      -0.598777       -16.2936
  16   2.0000      -0.570105       -15.5134
  17   2.0000      -0.555953       -15.1283
  18   2.0000      -0.524876       -14.2826
  19   2.0000      -0.512731       -13.9521
  20   2.0000      -0.465756       -12.6739
  21   2.0000      -0.454730       -12.3738
  22   2.0000      -0.453562       -12.3421
  23   2.0000      -0.442283       -12.0351
  24   0.0000      -0.237145        -6.4531
  25   0.0000      -0.180185        -4.9031
  26   0.0000      -0.139124        -3.7858
  27   0.0000      -0.135934        -3.6990
  28   0.0000      -0.112514        -3.0617

MULLIKEN ATOMIC CHARGES
-----------------------
   0 C :    0.362402
   1 C :   -0.056666
   2 C :    1.190809
   3 C :    0.575419
   4 N :    0.248765
   5 N :    0.329324
   6 H :    0.038469
   7 H :   -0.214381
   8 H :   -0.014464
   9 H :   -0.204825
  10 H :   -0.173414
  11 H :   -0.202453
  12 H :   -0.191426
  13 H :   -0.087328
  14 H :   -0.222632
  15 H :   -0.120051
  16 H :   -0.257549
Sum of atomic charges:    1.0000000

LOEWDIN ATOMIC CHARGES
----------------------
   0 C :    0.054229
   1 C :   -0.029272
   2 C :    0.150351
   3 C :   -0.061919
   4 N :    0.301171
   5 N :    0.307083
   6 H :    0.046102
   7 H :    0.050252
   8 H :    0.049797
   9 H :    0.038768
  10 H :    0.035092
  11 H :    0.029310
  12 H :    0.034795
  13 H :    0.042170
  14 H :   -0.035668
  15 H :   -0.010808
  16 H :   -0.001455

  Mayer bond orders larger than 0.100000
B(  0-C ,  1-C ) :   1.1975 B(  0-C ,  3-C ) :   1.0559 B(  0-C ,  4-N ) :   0.1372
B(  0-C ,  5-N ) :   0.1493 B(  0-C , 10-H ) :   0.1608 B(  0-C , 11-H ) :   0.1192
B(  0-C , 12-H ) :   0.8033 B(  0-C , 13-H ) :   0.7530 B(  1-C ,  2-C ) :   1.2983
B(  1-C ,  3-C ) :   0.1006 B(  1-C , 10-H ) :   0.8048 B(  1-C , 11-H ) :   0.8838
B(  1-C , 12-H ) :   0.1409 B(  1-C , 13-H ) :   0.1655 B(  1-C , 14-H ) :   0.2750
B(  1-C , 15-H ) :   0.2765 B(  1-C , 16-H ) :   0.2846 B(  2-C , 10-H ) :   0.1223
B(  2-C , 11-H ) :   0.1164 B(  2-C , 14-H ) :   0.6939 B(  2-C , 15-H ) :   0.6827
B(  2-C , 16-H ) :   0.6569 B(  3-C ,  4-N ) :   1.1159 B(  3-C ,  5-N ) :   1.2146
B(  3-C ,  7-H ) :  -0.1976 B(  3-C ,  8-H ) :  -0.1050 B(  3-C ,  9-H ) :  -0.1792
B(  3-C , 12-H ) :   0.1312 B(  3-C , 13-H ) :   0.1011 B(  4-N ,  5-N ) :   0.1888
B(  4-N ,  8-H ) :   1.1087 B(  4-N ,  9-H ) :   1.2974 B(  5-N ,  6-H ) :   1.0385
B(  5-N ,  7-H ) :   1.3296 B(  6-H ,  7-H ) :  -0.2052 B(  8-H ,  9-H ) :  -0.1945

Dispersion correction           -0.027755270
FINAL SINGLE POINT ENERGY      -268.056772549092

DIPOLE MOMENT
-------------
                                X             Y             Z
Electronic contribution:     -3.53686       0.63344      -4.29334
Nuclear contribution   :      2.80679      -0.44323       2.95915
                        -----------------------------------------
Total Dipole Moment    :     -0.73007       0.19020      -1.33418
                        -----------------------------------------
Magnitude (a.u.)       :      1.53272
Magnitude (Debye)      :      3.89586

Rotational constants in cm-1:     0.187834     0.079484     0.065778
Rotational constants in MHz :  5631.136036  2382.861517  1971.985559

                             ****ORCA TERMINATED NORMALLY****
TOTAL RUN TIME: 0 days 0 hours 0 minutes 5 seconds 381 msec
