                         Program Version 5.0.0 -  RELEASE  -
|  1> !BLYP D3BJ RIJCOSX def2-SVPD def2/J TightSCF
|  2> *xyz 0 1
|  3> C         -0.46129        2.23469       -4.98962
|  4> C          0.84888        2.66797       -4.30235
|  5> C          2.09343        1.86104       -4.65684
|  6> H          2.44481        2.04157       -5.67499
|  7> H          2.90175        2.13786       -3.98034
|  8> S          1.87964        0.07859       -4.46297
|  9> F          3.20757       -0.46611       -4.42026
| 10> O          1.07506       -0.05616       -3.26876
| 11> O          1.13166       -0.31996       -5.67903
| 12> H          0.66843        2.55943       -3.23285
| 13> H          1.03407        3.72943       -4.49708
| 14> H         -0.35183        2.31783       -6.05075
| 15> H         -1.26108        2.86600       -4.66300
| 16> H         -0.68032        1.21949       -4.73211
| 17> *
| 18>
| 19> %MaxCore 64000
| 20>
| 21> %pal nprocs 8
| 22> end
| 23>
| 24> %scf
| 25>   MaxIter 150
| 26> end
| 27>
| 28>
| 29>                          ****END OF INPUT****

CARTESIAN COORDINATES (ANGSTROEM)
---------------------------------
  C     -0.461290    2.234690   -4.989620
  C      0.848880    2.667970   -4.302350
  C      2.093430    1.861040   -4.656840
  H      2.444810    2.041570   -5.674990
  H      2.901750    2.137860   -3.980340
  S      1.879640    0.078590   -4.462970
  F      3.207570   -0.466110   -4.420260
  O      1.075060   -0.056160   -3.268760
  O      1.131660   -0.319960   -5.679030
  H      0.668430    2.559430   -3.232850
  H      1.034070    3.729430   -4.497080
  H     -0.351830    2.317830   -6.050750
  H     -1.261080    2.866000   -4.663000
  H     -0.680320    1.219490   -4.732110

 Total Charge           Charge          ....    0
 Multiplicity           Mult            ....    1
 Number of Electrons    NEL             ....   66
 Basis Dimension        Dim             ....  212

ORBITAL ENERGIES
----------------

  NO   OCC          E(Eh)            E(eV)
   0   2.0000     -88.383269     -2405.0310
   1   2.0000     -24.421723      -664.5489
   2   2.0000     -18.803006      -511.6558
   3   2.0000     -18.790620      -511.3188
   4   2.0000      -9.978169      -271.5198
   5   2.0000      -9.947068      -270.6735
   6   2.0000      -9.911216      -269.6979
   7   2.0000      -7.920931      -215.5395
   8   2.0000      -5.960203      -162.1854
   9   2.0000      -5.953850      -162.0125
  10   2.0000      -5.952108      -161.9651
  11   2.0000      -1.270389       -34.5691
  12   2.0000      -1.012457       -27.5503
  13   2.0000      -0.911769       -24.8105
  14   2.0000      -0.742323       -20.1996
  15   2.0000      -0.677605       -18.4386
  16   2.0000      -0.634853       -17.2752
  17   2.0000      -0.566254       -15.4085
  18   2.0000      -0.523189       -14.2367
  19   2.0000      -0.514695       -14.0056
  20   2.0000      -0.492380       -13.3983
  21   2.0000      -0.438162       -11.9230
  22   2.0000      -0.428954       -11.6724
  23   2.0000      -0.402420       -10.9504
  24   2.0000      -0.394239       -10.7278
  25   2.0000      -0.373828       -10.1724
  26   2.0000      -0.338291        -9.2054
  27   2.0000      -0.328591        -8.9414
  28   2.0000      -0.321324        -8.7437
  29   2.0000      -0.305981        -8.3262
  30   2.0000      -0.287439        -7.8216
  31   2.0000      -0.271992        -7.4013
  32   2.0000      -0.257931        -7.0187
  33   0.0000      -0.027703        -0.7539
  34   0.0000      -0.005366        -0.1460
  35   0.0000       0.015258         0.4152
  36   0.0000       0.022156         0.6029
  37   0.0000       0.024078         0.6552

MULLIKEN ATOMIC CHARGES
-----------------------
   0 C :    1.201549
   1 C :    0.041680
   2 C :    0.364589
   3 H :   -0.127508
   4 H :   -0.136849
   5 S :    1.315277
   6 F :   -0.398991
   7 O :   -0.608880
   8 O :   -0.616518
   9 H :   -0.049074
  10 H :   -0.352796
  11 H :   -0.179500
  12 H :   -0.264631
  13 H :   -0.188349
Sum of atomic charges:   -0.0000000

LOEWDIN ATOMIC CHARGES
----------------------
   0 C :    0.154743
   1 C :   -0.055531
   2 C :   -0.052348
   3 H :    0.020055
   4 H :    0.009535
   5 S :    1.081280
   6 F :   -0.240013
   7 O :   -0.439335
   8 O :   -0.457004
   9 H :    0.019478
  10 H :    0.026660
  11 H :   -0.014091
  12 H :   -0.018808
  13 H :   -0.034620

  Mayer bond orders larger than 0.100000
B(  0-C ,  1-C ) :   1.2872 B(  0-C ,  9-H ) :   0.1313 B(  0-C , 11-H ) :   0.6531
B(  0-C , 12-H ) :   0.6227 B(  0-C , 13-H ) :   0.7135 B(  1-C ,  2-C ) :   1.2998
B(  1-C ,  3-H ) :   0.1608 B(  1-C ,  4-H ) :   0.1913 B(  1-C ,  9-H ) :   0.7764
B(  1-C , 10-H ) :   0.7722 B(  1-C , 11-H ) :   0.2636 B(  1-C , 12-H ) :   0.2723
B(  1-C , 13-H ) :   0.2590 B(  2-C ,  3-H ) :   0.8526 B(  2-C ,  4-H ) :   0.7983
B(  2-C ,  5-S ) :   0.9132 B(  2-C ,  9-H ) :   0.1584 B(  2-C , 10-H ) :   0.1696
B(  5-S ,  6-F ) :   0.7539 B(  5-S ,  7-O ) :   1.5060 B(  5-S ,  8-O ) :   1.4804
B(  7-O ,  8-O ) :   0.1044

Dispersion correction           -0.027543472
FINAL SINGLE POINT ENERGY      -766.464323341006

DIPOLE MOMENT
-------------
                                X             Y             Z
Electronic contribution:      8.03885     -11.24199       1.23069
Nuclear contribution   :     -7.07796      12.41139      -1.18012
                        -----------------------------------------
Total Dipole Moment    :      0.96089       1.16940       0.05057
                        -----------------------------------------
Magnitude (a.u.)       :      1.51439
Magnitude (Debye)      :      3.84926

Rotational constants in cm-1:     0.134396     0.055628     0.052255
Rotational constants in MHz :  4029.100214  1667.685325  1566.551712

                             ****ORCA TERMINATED NORMALLY****
TOTAL RUN TIME: 0 days 0 hours 0 minutes 5 seconds 894 msec
