                         Program Version 5.0.0 -  RELEASE  -
|  1> !BLYP D3BJ RIJCOSX def2-SVPD def2/J TightSCF
|  2> *xyz 0 1
|  3> C         -0.46129        2.23469       -4.98962
|  4> C          0.84888        2.66797       -4.30235
|  5> C          2.09343        1.86104       -4.65684
|  6> C         -0.42384        2.39877       -6.47432
|  7> C         -0.95947        3.49265       -7.00740
|  8> N          0.14558        1.48689       -7.20399
|  9> H          0.56537        0.69681       -6.72386
| 10> H          0.22068        1.58177       -8.20752
| 11> H         -1.40624        4.18151       -6.40326
| 12> H         -0.93421        3.68160       -7.99947
| 13> H          0.66843        2.55943       -3.23285
| 14> H          1.03407        3.72943       -4.49708
| 15> H         -1.28888        2.82674       -4.59500
| 16> H         -0.65170        1.18634       -4.75655
| 17> H          2.29129        1.95234       -5.70442
| 18> H          1.93270        0.83176       -4.41261
| 19> H          2.92953        2.23285       -4.10223
| 20> *
| 21>
| 22> %MaxCore 64000
| 23>
| 24> %pal nprocs 8
| 25> end
| 26>
| 27> %scf
| 28>   MaxIter 150
| 29> end
| 30>
| 31>
| 32>                          ****END OF INPUT****

CARTESIAN COORDINATES (ANGSTROEM)
---------------------------------
  C     -0.461290    2.234690   -4.989620
  C      0.848880    2.667970   -4.302350
  C      2.093430    1.861040   -4.656840
  C     -0.423840    2.398770   -6.474320
  C     -0.959470    3.492650   -7.007400
  N      0.145580    1.486890   -7.203990
  H      0.565370    0.696810   -6.723860
  H      0.220680    1.581770   -8.207520
  H     -1.406240    4.181510   -6.403260
  H     -0.934210    3.681600   -7.999470
  H      0.668430    2.559430   -3.232850
  H      1.034070    3.729430   -4.497080
  H     -1.288880    2.826740   -4.595000
  H     -0.651700    1.186340   -4.756550
  H      2.291290    1.952340   -5.704420
  H      1.932700    0.831760   -4.412610
  H      2.929530    2.232850   -4.102230

 Total Charge           Charge          ....    0
 Multiplicity           Mult            ....    1
 Number of Electrons    NEL             ....   48
 Basis Dimension        Dim             ....  208

ORBITAL ENERGIES
----------------

  NO   OCC          E(Eh)            E(eV)
   0   2.0000     -14.028464      -381.7339
   1   2.0000      -9.936425      -270.3839
   2   2.0000      -9.919192      -269.9149
   3   2.0000      -9.917790      -269.8768
   4   2.0000      -9.907636      -269.6005
   5   2.0000      -9.854585      -268.1569
   6   2.0000      -0.841238       -22.8912
   7   2.0000      -0.706978       -19.2379
   8   2.0000      -0.652968       -17.7682
   9   2.0000      -0.602641       -16.3987
  10   2.0000      -0.537920       -14.6375
  11   2.0000      -0.502531       -13.6746
  12   2.0000      -0.470842       -12.8123
  13   2.0000      -0.429862       -11.6971
  14   2.0000      -0.397754       -10.8234
  15   2.0000      -0.382028       -10.3955
  16   2.0000      -0.360678        -9.8145
  17   2.0000      -0.341475        -9.2920
  18   2.0000      -0.327023        -8.8988
  19   2.0000      -0.313621        -8.5341
  20   2.0000      -0.294939        -8.0257
  21   2.0000      -0.281072        -7.6484
  22   2.0000      -0.280737        -7.6393
  23   2.0000      -0.152101        -4.1389
  24   0.0000      -0.004884        -0.1329
  25   0.0000       0.015276         0.4157
  26   0.0000       0.026715         0.7270
  27   0.0000       0.031330         0.8525
  28   0.0000       0.046269         1.2590

MULLIKEN ATOMIC CHARGES
-----------------------
   0 C :    0.590862
   1 C :   -0.091116
   2 C :    1.171280
   3 C :   -0.147047
   4 C :    0.691875
   5 N :    0.492179
   6 H :   -0.123070
   7 H :   -0.274786
   8 H :   -0.259389
   9 H :   -0.684935
  10 H :   -0.199130
  11 H :   -0.242867
  12 H :   -0.103800
  13 H :   -0.197188
  14 H :   -0.209065
  15 H :   -0.129751
  16 H :   -0.284051
Sum of atomic charges:    0.0000000

LOEWDIN ATOMIC CHARGES
----------------------
   0 C :    0.013876
   1 C :   -0.052193
   2 C :    0.128513
   3 C :   -0.268897
   4 C :    0.189935
   5 N :    0.195322
   6 H :   -0.004118
   7 H :    0.009910
   8 H :   -0.088425
   9 H :   -0.097693
  10 H :    0.009704
  11 H :    0.019392
  12 H :    0.018140
  13 H :    0.014289
  14 H :   -0.038726
  15 H :   -0.024773
  16 H :   -0.024259

  Mayer bond orders larger than 0.100000
B(  0-C ,  1-C ) :   1.1491 B(  0-C ,  3-C ) :   1.0959 B(  0-C ,  4-C ) :   0.2300
B(  0-C ,  5-N ) :   0.1521 B(  0-C , 10-H ) :   0.1407 B(  0-C , 11-H ) :   0.1476
B(  0-C , 12-H ) :   0.7546 B(  0-C , 13-H ) :   0.6049 B(  1-C ,  2-C ) :   1.2749
B(  1-C , 10-H ) :   0.8010 B(  1-C , 11-H ) :   0.8963 B(  1-C , 12-H ) :   0.1563
B(  1-C , 13-H ) :   0.1990 B(  1-C , 14-H ) :   0.2810 B(  1-C , 15-H ) :   0.2901
B(  1-C , 16-H ) :   0.2959 B(  2-C , 10-H ) :   0.1244 B(  2-C , 11-H ) :   0.1104
B(  2-C , 14-H ) :   0.7230 B(  2-C , 15-H ) :   0.6764 B(  2-C , 16-H ) :   0.6292
B(  3-C ,  4-C ) :   1.4249 B(  3-C ,  5-N ) :   1.2765 B(  3-C ,  7-H ) :  -0.1038
B(  3-C ,  9-H ) :   0.1899 B(  3-C , 12-H ) :   0.2018 B(  3-C , 13-H ) :   0.2276
B(  4-C ,  5-N ) :   0.3365 B(  4-C ,  8-H ) :   0.8595 B(  4-C ,  9-H ) :   0.4807
B(  5-N ,  6-H ) :   0.9896 B(  5-N ,  7-H ) :   1.2720 B(  6-H ,  7-H ) :  -0.1779

Dispersion correction           -0.028698464
FINAL SINGLE POINT ENERGY      -251.586513707390

DIPOLE MOMENT
-------------
                                X             Y             Z
Electronic contribution:     -2.08975      -0.44322      -2.65399
Nuclear contribution   :      2.52905      -0.17478       2.67366
                        -----------------------------------------
Total Dipole Moment    :      0.43931      -0.61800       0.01967
                        -----------------------------------------
Magnitude (a.u.)       :      0.75849
Magnitude (Debye)      :      1.92792

Rotational constants in cm-1:     0.190920     0.082419     0.067855
Rotational constants in MHz :  5723.626725  2470.870287  2034.242308

                             ****ORCA TERMINATED NORMALLY****
TOTAL RUN TIME: 0 days 0 hours 0 minutes 5 seconds 831 msec
