                         Program Version 5.0.0 -  RELEASE  -
|  1> !BLYP D3BJ RIJCOSX def2-SVPD def2/J TightSCF
|  2> *xyz 0 1
|  3> C         -0.46129        2.23469       -4.98962
|  4> C          0.84888        2.66797       -4.30235
|  5> C          2.09343        1.86104       -4.65684
|  6> H          2.44481        2.04157       -5.67499
|  7> H          2.90175        2.13786       -3.98034
|  8> S          1.87964        0.07859       -4.46297
|  9> O          3.20757       -0.46611       -4.42026
| 10> F          1.07506       -0.05616       -3.26876
| 11> O          1.13166       -0.31996       -5.67903
| 12> H          0.66843        2.55943       -3.23285
| 13> H          1.03407        3.72943       -4.49708
| 14> H         -0.35183        2.31783       -6.05075
| 15> H         -1.26108        2.86600       -4.66300
| 16> H         -0.68032        1.21949       -4.73211
| 17> *
| 18>
| 19> %MaxCore 64000
| 20>
| 21> %pal nprocs 8
| 22> end
| 23>
| 24> %scf
| 25>   MaxIter 150
| 26> end
| 27>
| 28>
| 29>                          ****END OF INPUT****

CARTESIAN COORDINATES (ANGSTROEM)
---------------------------------
  C     -0.461290    2.234690   -4.989620
  C      0.848880    2.667970   -4.302350
  C      2.093430    1.861040   -4.656840
  H      2.444810    2.041570   -5.674990
  H      2.901750    2.137860   -3.980340
  S      1.879640    0.078590   -4.462970
  O      3.207570   -0.466110   -4.420260
  F      1.075060   -0.056160   -3.268760
  O      1.131660   -0.319960   -5.679030
  H      0.668430    2.559430   -3.232850
  H      1.034070    3.729430   -4.497080
  H     -0.351830    2.317830   -6.050750
  H     -1.261080    2.866000   -4.663000
  H     -0.680320    1.219490   -4.732110

 Total Charge           Charge          ....    0
 Multiplicity           Mult            ....    1
 Number of Electrons    NEL             ....   66
 Basis Dimension        Dim             ....  212

ORBITAL ENERGIES
----------------

  NO   OCC          E(Eh)            E(eV)
   0   2.0000     -88.382385     -2405.0070
   1   2.0000     -24.417292      -664.4283
   2   2.0000     -18.805357      -511.7198
   3   2.0000     -18.789319      -511.2834
   4   2.0000      -9.977906      -271.5126
   5   2.0000      -9.953107      -270.8378
   6   2.0000      -9.921985      -269.9909
   7   2.0000      -7.919996      -215.5140
   8   2.0000      -5.959486      -162.1659
   9   2.0000      -5.952800      -161.9839
  10   2.0000      -5.951123      -161.9383
  11   2.0000      -1.262676       -34.3592
  12   2.0000      -1.015035       -27.6205
  13   2.0000      -0.913993       -24.8710
  14   2.0000      -0.748463       -20.3667
  15   2.0000      -0.674511       -18.3544
  16   2.0000      -0.638193       -17.3661
  17   2.0000      -0.568217       -15.4620
  18   2.0000      -0.527088       -14.3428
  19   2.0000      -0.518012       -14.0958
  20   2.0000      -0.482548       -13.1308
  21   2.0000      -0.438580       -11.9344
  22   2.0000      -0.427540       -11.6340
  23   2.0000      -0.409546       -11.1443
  24   2.0000      -0.392744       -10.6871
  25   2.0000      -0.384049       -10.4505
  26   2.0000      -0.340058        -9.2534
  27   2.0000      -0.339255        -9.2316
  28   2.0000      -0.332621        -9.0511
  29   2.0000      -0.315211        -8.5773
  30   2.0000      -0.286467        -7.7952
  31   2.0000      -0.272656        -7.4194
  32   2.0000      -0.257830        -7.0159
  33   0.0000      -0.032095        -0.8733
  34   0.0000       0.001020         0.0278
  35   0.0000       0.013530         0.3682
  36   0.0000       0.019032         0.5179
  37   0.0000       0.021097         0.5741

MULLIKEN ATOMIC CHARGES
-----------------------
   0 C :    1.228187
   1 C :    0.053423
   2 C :    0.405382
   3 H :   -0.137595
   4 H :   -0.156379
   5 S :    1.253829
   6 O :   -0.592433
   7 F :   -0.364636
   8 O :   -0.617141
   9 H :   -0.077710
  10 H :   -0.354108
  11 H :   -0.177173
  12 H :   -0.258645
  13 H :   -0.205002
Sum of atomic charges:    0.0000000

LOEWDIN ATOMIC CHARGES
----------------------
   0 C :    0.150344
   1 C :   -0.069251
   2 C :   -0.039760
   3 H :    0.032661
   4 H :    0.013764
   5 S :    1.074124
   6 O :   -0.434500
   7 F :   -0.241407
   8 O :   -0.455292
   9 H :    0.014027
  10 H :    0.024632
  11 H :   -0.010523
  12 H :   -0.018602
  13 H :   -0.040214

  Mayer bond orders larger than 0.100000
B(  0-C ,  1-C ) :   1.2867 B(  0-C ,  9-H ) :   0.1289 B(  0-C , 11-H ) :   0.6523
B(  0-C , 12-H ) :   0.6230 B(  0-C , 13-H ) :   0.7013 B(  1-C ,  2-C ) :   1.2483
B(  1-C ,  3-H ) :   0.1635 B(  1-C ,  4-H ) :   0.1748 B(  1-C ,  9-H ) :   0.7778
B(  1-C , 10-H ) :   0.7798 B(  1-C , 11-H ) :   0.2714 B(  1-C , 12-H ) :   0.2724
B(  1-C , 13-H ) :   0.2674 B(  2-C ,  3-H ) :   0.8456 B(  2-C ,  4-H ) :   0.8402
B(  2-C ,  5-S ) :   0.9398 B(  2-C ,  9-H ) :   0.1510 B(  2-C , 10-H ) :   0.1644
B(  5-S ,  6-O ) :   1.6244 B(  5-S ,  7-F ) :   0.7140 B(  5-S ,  8-O ) :   1.5117
B(  6-O ,  8-O ) :   0.1022 B( 11-H , 13-H ) :   0.1092

Dispersion correction           -0.027285945
FINAL SINGLE POINT ENERGY      -766.467560895751

DIPOLE MOMENT
-------------
                                X             Y             Z
Electronic contribution:      4.41661     -10.49465       3.13436
Nuclear contribution   :     -4.78457      11.97051      -2.41849
                        -----------------------------------------
Total Dipole Moment    :     -0.36796       1.47586       0.71587
                        -----------------------------------------
Magnitude (a.u.)       :      1.68108
Magnitude (Debye)      :      4.27297

Rotational constants in cm-1:     0.129206     0.056639     0.054229
Rotational constants in MHz :  3873.509495  1697.990779  1625.734877

                             ****ORCA TERMINATED NORMALLY****
TOTAL RUN TIME: 0 days 0 hours 0 minutes 5 seconds 937 msec
