                         Program Version 5.0.0 -  RELEASE  -
|  1> !BLYP D3BJ RIJCOSX def2-SVPD def2/J TightSCF
|  2> *xyz 0 1
|  3> C         -0.46129        2.23469       -4.98962
|  4> C          0.84888        2.66797       -4.30235
|  5> C          2.09343        1.86104       -4.65684
|  6> C         -0.42384        2.39877       -6.47432
|  7> N         -0.95947        3.49265       -7.00740
|  8> C          0.14558        1.48689       -7.20399
|  9> H          0.56537        0.69681       -6.72386
| 10> H          0.22068        1.58177       -8.20752
| 11> H         -1.40624        4.18151       -6.40326
| 12> H         -0.93421        3.68160       -7.99947
| 13> H          0.66843        2.55943       -3.23285
| 14> H          1.03407        3.72943       -4.49708
| 15> H         -1.28888        2.82674       -4.59500
| 16> H         -0.65170        1.18634       -4.75655
| 17> H          2.29129        1.95234       -5.70442
| 18> H          1.93270        0.83176       -4.41261
| 19> H          2.92953        2.23285       -4.10223
| 20> *
| 21>
| 22> %MaxCore 64000
| 23>
| 24> %pal nprocs 8
| 25> end
| 26>
| 27> %scf
| 28>   MaxIter 150
| 29> end
| 30>
| 31>
| 32>                          ****END OF INPUT****

CARTESIAN COORDINATES (ANGSTROEM)
---------------------------------
  C     -0.461290    2.234690   -4.989620
  C      0.848880    2.667970   -4.302350
  C      2.093430    1.861040   -4.656840
  C     -0.423840    2.398770   -6.474320
  N     -0.959470    3.492650   -7.007400
  C      0.145580    1.486890   -7.203990
  H      0.565370    0.696810   -6.723860
  H      0.220680    1.581770   -8.207520
  H     -1.406240    4.181510   -6.403260
  H     -0.934210    3.681600   -7.999470
  H      0.668430    2.559430   -3.232850
  H      1.034070    3.729430   -4.497080
  H     -1.288880    2.826740   -4.595000
  H     -0.651700    1.186340   -4.756550
  H      2.291290    1.952340   -5.704420
  H      1.932700    0.831760   -4.412610
  H      2.929530    2.232850   -4.102230

 Total Charge           Charge          ....    0
 Multiplicity           Mult            ....    1
 Number of Electrons    NEL             ....   48
 Basis Dimension        Dim             ....  208

ORBITAL ENERGIES
----------------

  NO   OCC          E(Eh)            E(eV)
   0   2.0000     -14.025638      -381.6570
   1   2.0000      -9.934464      -270.3305
   2   2.0000      -9.918905      -269.9071
   3   2.0000      -9.916570      -269.8436
   4   2.0000      -9.897725      -269.3308
   5   2.0000      -9.853777      -268.1349
   6   2.0000      -0.829209       -22.5639
   7   2.0000      -0.706978       -19.2378
   8   2.0000      -0.649922       -17.6853
   9   2.0000      -0.607709       -16.5366
  10   2.0000      -0.528461       -14.3802
  11   2.0000      -0.501540       -13.6476
  12   2.0000      -0.464372       -12.6362
  13   2.0000      -0.423990       -11.5374
  14   2.0000      -0.398794       -10.8517
  15   2.0000      -0.383039       -10.4230
  16   2.0000      -0.346186        -9.4202
  17   2.0000      -0.343439        -9.3455
  18   2.0000      -0.327024        -8.8988
  19   2.0000      -0.314117        -8.5476
  20   2.0000      -0.290359        -7.9011
  21   2.0000      -0.279982        -7.6187
  22   2.0000      -0.274098        -7.4586
  23   2.0000      -0.156153        -4.2491
  24   0.0000      -0.004472        -0.1217
  25   0.0000       0.015756         0.4287
  26   0.0000       0.026351         0.7171
  27   0.0000       0.033735         0.9180
  28   0.0000       0.048564         1.3215

MULLIKEN ATOMIC CHARGES
-----------------------
   0 C :    0.589591
   1 C :   -0.070506
   2 C :    1.141104
   3 C :   -0.030884
   4 N :    0.349885
   5 C :    0.691433
   6 H :   -0.062461
   7 H :   -0.783615
   8 H :   -0.169471
   9 H :   -0.254874
  10 H :   -0.200443
  11 H :   -0.238745
  12 H :   -0.285043
  13 H :   -0.050676
  14 H :   -0.171762
  15 H :   -0.133305
  16 H :   -0.320227
Sum of atomic charges:   -0.0000000

LOEWDIN ATOMIC CHARGES
----------------------
   0 C :    0.014022
   1 C :   -0.054121
   2 C :    0.132068
   3 C :   -0.257622
   4 N :    0.192256
   5 C :    0.179308
   6 H :   -0.080166
   7 H :   -0.085962
   8 H :   -0.007174
   9 H :   -0.002966
  10 H :    0.009337
  11 H :    0.015338
  12 H :    0.007430
  13 H :    0.022270
  14 H :   -0.037443
  15 H :   -0.020509
  16 H :   -0.026066

  Mayer bond orders larger than 0.100000
B(  0-C ,  1-C ) :   1.1650 B(  0-C ,  3-C ) :   0.9941 B(  0-C ,  4-N ) :   0.1552
B(  0-C ,  5-C ) :   0.2616 B(  0-C , 10-H ) :   0.1685 B(  0-C , 11-H ) :   0.1398
B(  0-C , 12-H ) :   0.6887 B(  0-C , 13-H ) :   0.7105 B(  1-C ,  2-C ) :   1.2896
B(  1-C , 10-H ) :   0.7580 B(  1-C , 11-H ) :   0.8690 B(  1-C , 12-H ) :   0.1766
B(  1-C , 13-H ) :   0.1847 B(  1-C , 14-H ) :   0.2786 B(  1-C , 15-H ) :   0.2858
B(  1-C , 16-H ) :   0.3036 B(  2-C , 10-H ) :   0.1317 B(  2-C , 11-H ) :   0.1146
B(  2-C , 14-H ) :   0.7184 B(  2-C , 15-H ) :   0.6807 B(  2-C , 16-H ) :   0.6450
B(  3-C ,  4-N ) :   1.2324 B(  3-C ,  5-C ) :   1.6395 B(  3-C ,  6-H ) :   0.2417
B(  3-C ,  7-H ) :   0.2478 B(  3-C , 12-H ) :   0.1881 B(  3-C , 13-H ) :   0.1363
B(  4-N ,  5-C ) :   0.3003 B(  4-N ,  8-H ) :   1.1099 B(  4-N ,  9-H ) :   1.2653
B(  5-C ,  6-H ) :   0.6316 B(  5-C ,  7-H ) :   0.5122 B(  6-H ,  7-H ) :  -0.1639
B(  8-H ,  9-H ) :  -0.1722 B( 14-H , 15-H ) :   0.1087

Dispersion correction           -0.028824043
FINAL SINGLE POINT ENERGY      -251.586267367155

DIPOLE MOMENT
-------------
                                X             Y             Z
Electronic contribution:     -3.07971       1.28839      -2.51296
Nuclear contribution   :      2.79043      -0.64920       2.62716
                        -----------------------------------------
Total Dipole Moment    :     -0.28927       0.63919       0.11420
                        -----------------------------------------
Magnitude (a.u.)       :      0.71083
Magnitude (Debye)      :      1.80679

Rotational constants in cm-1:     0.196182     0.080190     0.067215
Rotational constants in MHz :  5881.393438  2404.041106  2015.067205

                             ****ORCA TERMINATED NORMALLY****
TOTAL RUN TIME: 0 days 0 hours 0 minutes 5 seconds 817 msec
