                         Program Version 5.0.0 -  RELEASE  -
|  1> !BLYP D3BJ RIJCOSX def2-SVPD def2/J TightSCF
|  2> *xyz 0 1
|  3> C         -0.46129        2.23469       -4.98962
|  4> C          0.84888        2.66797       -4.30235
|  5> C          2.09343        1.86104       -4.65684
|  6> H          2.44481        2.04157       -5.67499
|  7> H          2.90175        2.13786       -3.98034
|  8> S          1.87964        0.07859       -4.46297
|  9> O          3.20757       -0.46611       -4.42026
| 10> O          1.07506       -0.05616       -3.26876
| 11> F          1.13166       -0.31996       -5.67903
| 12> H          0.66843        2.55943       -3.23285
| 13> H          1.03407        3.72943       -4.49708
| 14> H         -0.35183        2.31783       -6.05075
| 15> H         -1.26108        2.86600       -4.66300
| 16> H         -0.68032        1.21949       -4.73211
| 17> *
| 18>
| 19> %MaxCore 64000
| 20>
| 21> %pal nprocs 8
| 22> end
| 23>
| 24> %scf
| 25>   MaxIter 150
| 26> end
| 27>
| 28>
| 29>                          ****END OF INPUT****

CARTESIAN COORDINATES (ANGSTROEM)
---------------------------------
  C     -0.461290    2.234690   -4.989620
  C      0.848880    2.667970   -4.302350
  C      2.093430    1.861040   -4.656840
  H      2.444810    2.041570   -5.674990
  H      2.901750    2.137860   -3.980340
  S      1.879640    0.078590   -4.462970
  O      3.207570   -0.466110   -4.420260
  O      1.075060   -0.056160   -3.268760
  F      1.131660   -0.319960   -5.679030
  H      0.668430    2.559430   -3.232850
  H      1.034070    3.729430   -4.497080
  H     -0.351830    2.317830   -6.050750
  H     -1.261080    2.866000   -4.663000
  H     -0.680320    1.219490   -4.732110

 Total Charge           Charge          ....    0
 Multiplicity           Mult            ....    1
 Number of Electrons    NEL             ....   66
 Basis Dimension        Dim             ....  212

ORBITAL ENERGIES
----------------

  NO   OCC          E(Eh)            E(eV)
   0   2.0000     -88.380710     -2404.9614
   1   2.0000     -24.398794      -663.9249
   2   2.0000     -18.805292      -511.7180
   3   2.0000     -18.801927      -511.6264
   4   2.0000      -9.977286      -271.4958
   5   2.0000      -9.948424      -270.7104
   6   2.0000      -9.924455      -270.0582
   7   2.0000      -7.918318      -215.4684
   8   2.0000      -5.957504      -162.1119
   9   2.0000      -5.951385      -161.9454
  10   2.0000      -5.949642      -161.8980
  11   2.0000      -1.232380       -33.5348
  12   2.0000      -1.022978       -27.8366
  13   2.0000      -0.932874       -25.3848
  14   2.0000      -0.745523       -20.2867
  15   2.0000      -0.670399       -18.2425
  16   2.0000      -0.628133       -17.0924
  17   2.0000      -0.566360       -15.4114
  18   2.0000      -0.505979       -13.7684
  19   2.0000      -0.497192       -13.5293
  20   2.0000      -0.486651       -13.2424
  21   2.0000      -0.442680       -12.0459
  22   2.0000      -0.424251       -11.5445
  23   2.0000      -0.405845       -11.0436
  24   2.0000      -0.398568       -10.8456
  25   2.0000      -0.385583       -10.4922
  26   2.0000      -0.345847        -9.4110
  27   2.0000      -0.338755        -9.2180
  28   2.0000      -0.328522        -8.9395
  29   2.0000      -0.313437        -8.5291
  30   2.0000      -0.292159        -7.9501
  31   2.0000      -0.284238        -7.7345
  32   2.0000      -0.272975        -7.4280
  33   0.0000      -0.025924        -0.7054
  34   0.0000      -0.001016        -0.0276
  35   0.0000       0.011709         0.3186
  36   0.0000       0.017466         0.4753
  37   0.0000       0.026728         0.7273

MULLIKEN ATOMIC CHARGES
-----------------------
   0 C :    1.188081
   1 C :    0.091204
   2 C :    0.369950
   3 H :   -0.128156
   4 H :   -0.144729
   5 S :    1.263260
   6 O :   -0.598612
   7 O :   -0.621044
   8 F :   -0.362594
   9 H :   -0.047954
  10 H :   -0.350633
  11 H :   -0.185976
  12 H :   -0.253752
  13 H :   -0.219045
Sum of atomic charges:   -0.0000000

LOEWDIN ATOMIC CHARGES
----------------------
   0 C :    0.149769
   1 C :   -0.064139
   2 C :   -0.042086
   3 H :    0.018605
   4 H :    0.024451
   5 S :    1.071985
   6 O :   -0.434917
   7 O :   -0.437073
   8 F :   -0.258578
   9 H :    0.020260
  10 H :    0.024387
  11 H :   -0.017643
  12 H :   -0.016423
  13 H :   -0.038599

  Mayer bond orders larger than 0.100000
B(  0-C ,  1-C ) :   1.2839 B(  0-C ,  9-H ) :   0.1343 B(  0-C , 11-H ) :   0.6518
B(  0-C , 12-H ) :   0.6381 B(  0-C , 13-H ) :   0.7109 B(  1-C ,  2-C ) :   1.2856
B(  1-C ,  3-H ) :   0.1653 B(  1-C ,  4-H ) :   0.1661 B(  1-C ,  9-H ) :   0.7825
B(  1-C , 10-H ) :   0.7652 B(  1-C , 11-H ) :   0.2637 B(  1-C , 12-H ) :   0.2686
B(  1-C , 13-H ) :   0.2554 B(  2-C ,  3-H ) :   0.8532 B(  2-C ,  4-H ) :   0.8268
B(  2-C ,  5-S ) :   0.9338 B(  2-C ,  9-H ) :   0.1629 B(  2-C , 10-H ) :   0.1623
B(  5-S ,  6-O ) :   1.6206 B(  5-S ,  7-O ) :   1.5373 B(  5-S ,  8-F ) :   0.6626
B(  6-O ,  7-O ) :   0.1160

Dispersion correction           -0.027309561
FINAL SINGLE POINT ENERGY      -766.483911097147

DIPOLE MOMENT
-------------
                                X             Y             Z
Electronic contribution:      4.49835     -10.94880      -0.89874
Nuclear contribution   :     -4.84544      12.25421       0.17361
                        -----------------------------------------
Total Dipole Moment    :     -0.34709       1.30542      -0.72513
                        -----------------------------------------
Magnitude (a.u.)       :      1.53310
Magnitude (Debye)      :      3.89683

Rotational constants in cm-1:     0.128954     0.057447     0.053381
Rotational constants in MHz :  3865.954571  1722.226669  1600.330369

                             ****ORCA TERMINATED NORMALLY****
TOTAL RUN TIME: 0 days 0 hours 0 minutes 5 seconds 628 msec
