                         Program Version 5.0.0 -  RELEASE  -
|  1> !BLYP D3BJ RIJCOSX def2-SVPD def2/J TightSCF xyzfile
|  2>
|  3> *xyzfile 0 1 D4.xyz
|  4>
|  5> %MaxCore 64000
|  6>
|  7> %pal nprocs 4
|  8> end
|  9>
| 10> %scf
| 11>   MaxIter 150
| 12> end
| 13>
| 14>
| 15>                          ****END OF INPUT****

CARTESIAN COORDINATES (ANGSTROEM)
---------------------------------
  C     -0.461293    2.234686   -4.989619
  C      0.848883    2.667967   -4.302351
  C      2.093434    1.861037   -4.656845
  H      2.444814    2.041567   -5.674990
  H      2.901748    2.137864   -3.980338
  S      1.879644    0.078594   -4.462965
  C     -0.423841    2.398772   -6.474317
  N     -0.959467    3.492647   -7.007401
  C      0.145585    1.486891   -7.203987
  H      0.565371    0.696807   -6.723858
  H      0.220682    1.581768   -8.207520
  H     -1.406243    4.181507   -6.403261
  H     -0.934215    3.681601   -7.999468
  O      3.207574   -0.466111   -4.420259
  F      1.075064   -0.056160   -3.268758
  O      1.131661   -0.319960   -5.679031
  H      0.668432    2.559427   -3.232850
  H      1.034074    3.729426   -4.497081
  H     -1.288884    2.826737   -4.594997
  H     -0.651696    1.186343   -4.756552

 Total Charge           Charge          ....    0
 Multiplicity           Mult            ....    1
 Number of Electrons    NEL             ....   88
 Basis Dimension        Dim             ....  296

ORBITAL ENERGIES
----------------

  NO   OCC          E(Eh)            E(eV)
   0   2.0000     -88.383871     -2405.0474
   1   2.0000     -24.417376      -664.4306
   2   2.0000     -18.805017      -511.7105
   3   2.0000     -18.791141      -511.3329
   4   2.0000     -14.025101      -381.6424
   5   2.0000      -9.975130      -271.4371
   6   2.0000      -9.952990      -270.8346
   7   2.0000      -9.933346      -270.3001
   8   2.0000      -9.932861      -270.2869
   9   2.0000      -9.836396      -267.6620
  10   2.0000      -7.920953      -215.5401
  11   2.0000      -5.960524      -162.1941
  12   2.0000      -5.954022      -162.0172
  13   2.0000      -5.951857      -161.9583
  14   2.0000      -1.262699       -34.3598
  15   2.0000      -1.016867       -27.6704
  16   2.0000      -0.919727       -25.0271
  17   2.0000      -0.829669       -22.5764
  18   2.0000      -0.749940       -20.4069
  19   2.0000      -0.687770       -18.7152
  20   2.0000      -0.648860       -17.6564
  21   2.0000      -0.628703       -17.1079
  22   2.0000      -0.572373       -15.5751
  23   2.0000      -0.532829       -14.4990
  24   2.0000      -0.520984       -14.1767
  25   2.0000      -0.505956       -13.7678
  26   2.0000      -0.492362       -13.3978
  27   2.0000      -0.461340       -12.5537
  28   2.0000      -0.442177       -12.0323
  29   2.0000      -0.426720       -11.6116
  30   2.0000      -0.424764       -11.5584
  31   2.0000      -0.408079       -11.1044
  32   2.0000      -0.393552       -10.7091
  33   2.0000      -0.363695        -9.8966
  34   2.0000      -0.354925        -9.6580
  35   2.0000      -0.343500        -9.3471
  36   2.0000      -0.330418        -8.9911
  37   2.0000      -0.326356        -8.8806
  38   2.0000      -0.299940        -8.1618
  39   2.0000      -0.287776        -7.8308
  40   2.0000      -0.282009        -7.6739
  41   2.0000      -0.271556        -7.3894
  42   2.0000      -0.245112        -6.6698
  43   2.0000      -0.153320        -4.1720
  44   0.0000      -0.029246        -0.7958
  45   0.0000      -0.006837        -0.1861
  46   0.0000       0.007401         0.2014
  47   0.0000       0.009677         0.2633
  48   0.0000       0.018369         0.4998

MULLIKEN ATOMIC CHARGES
-----------------------
   0 C :    0.752669
   1 C :    0.477475
   2 C :    0.417187
   3 H :    0.062762
   4 H :   -0.370770
   5 S :    1.301433
   6 C :   -0.026291
   7 N :    0.315839
   8 C :    1.108538
   9 H :   -0.250999
  10 H :   -0.885742
  11 H :   -0.196057
  12 H :   -0.282459
  13 O :   -0.578349
  14 F :   -0.392771
  15 O :   -0.692941
  16 H :   -0.006946
  17 H :   -0.380217
  18 H :   -0.359486
  19 H :   -0.012876
Sum of atomic charges:    0.0000000

LOEWDIN ATOMIC CHARGES
----------------------
   0 C :    0.030403
   1 C :   -0.015120
   2 C :   -0.023989
   3 H :    0.028970
   4 H :    0.013227
   5 S :    1.118680
   6 C :   -0.238418
   7 N :    0.186650
   8 C :    0.213250
   9 H :   -0.189276
  10 H :   -0.074720
  11 H :   -0.011758
  12 H :   -0.003061
  13 O :   -0.428176
  14 F :   -0.238115
  15 O :   -0.435631
  16 H :    0.015204
  17 H :    0.028799
  18 H :    0.014964
  19 H :    0.008117

  Mayer bond orders larger than 0.100000
B(  0-C ,  1-C ) :   1.1130 B(  0-C ,  6-C ) :   1.0933 B(  0-C ,  7-N ) :   0.1454
B(  0-C ,  8-C ) :   0.2500 B(  0-C , 16-H ) :   0.1605 B(  0-C , 18-H ) :   0.5348
B(  0-C , 19-H ) :   0.7380 B(  1-C ,  2-C ) :   1.2976 B(  1-C ,  3-H ) :   0.1584
B(  1-C ,  4-H ) :   0.2405 B(  1-C , 16-H ) :   0.6853 B(  1-C , 17-H ) :   0.7113
B(  1-C , 18-H ) :   0.2154 B(  1-C , 19-H ) :   0.1835 B(  2-C ,  3-H ) :   0.8316
B(  2-C ,  4-H ) :   0.7091 B(  2-C ,  5-S ) :   0.9269 B(  2-C ,  9-H ) :   0.1283
B(  2-C , 15-O ) :   0.1417 B(  2-C , 16-H ) :   0.1662 B(  2-C , 17-H ) :   0.1402
B(  3-H ,  4-H ) :  -0.1018 B(  3-H ,  9-H ) :   0.1076 B(  4-H ,  5-S ) :   0.1181
B(  4-H ,  9-H ) :  -0.1591 B(  5-S , 13-O ) :   1.6022 B(  5-S , 14-F ) :   0.7002
B(  5-S , 15-O ) :   1.4810 B(  6-C ,  7-N ) :   1.1046 B(  6-C ,  8-C ) :   1.7034
B(  6-C ,  9-H ) :   0.3359 B(  6-C , 10-H ) :   0.3214 B(  6-C , 12-H ) :  -0.1241
B(  6-C , 18-H ) :   0.2349 B(  6-C , 19-H ) :   0.1233 B(  7-N ,  8-C ) :   0.3814
B(  7-N , 11-H ) :   1.1509 B(  7-N , 12-H ) :   1.3321 B(  8-C ,  9-H ) :   0.4668
B(  8-C , 10-H ) :   0.3961 B(  9-H , 10-H ) :  -0.3409 B(  9-H , 15-O ) :   0.1259
B( 11-H , 12-H ) :  -0.1671 B( 13-O , 15-O ) :   0.1008 B( 16-H , 17-H ) :  -0.1289

Dispersion correction           -0.047202217
FINAL SINGLE POINT ENERGY      -899.056643599443

DIPOLE MOMENT
-------------
                                X             Y             Z
Electronic contribution:      5.53709     -11.69285       7.24835
Nuclear contribution   :     -6.09390      13.51614      -6.45360
                        -----------------------------------------
Total Dipole Moment    :     -0.55681       1.82328       0.79475
                        -----------------------------------------
Magnitude (a.u.)       :      2.06543
Magnitude (Debye)      :      5.24992

Rotational constants in cm-1:     0.081469     0.024519     0.022336
Rotational constants in MHz :  2442.393231   735.066768   669.628729

                             ****ORCA TERMINATED NORMALLY****
TOTAL RUN TIME: 0 days 0 hours 0 minutes 19 seconds 33 msec
