                         Program Version 5.0.0 -  RELEASE  -
|  1> !BLYP D3BJ RIJCOSX def2-SVPD def2/J TightSCF xyzfile
|  2>
|  3> *xyzfile 0 1 D5.xyz
|  4>
|  5> %MaxCore 64000
|  6>
|  7> %pal nprocs 4
|  8> end
|  9>
| 10> %scf
| 11>   MaxIter 150
| 12> end
| 13>
| 14>
| 15>                          ****END OF INPUT****

CARTESIAN COORDINATES (ANGSTROEM)
---------------------------------
  C     -0.461293    2.234686   -4.989619
  C      0.848883    2.667967   -4.302351
  C      2.093434    1.861037   -4.656845
  H      2.444814    2.041567   -5.674990
  H      2.901748    2.137864   -3.980338
  S      1.879644    0.078594   -4.462965
  C     -0.423841    2.398772   -6.474317
  C     -0.959467    3.492647   -7.007401
  N      0.145585    1.486891   -7.203987
  H      0.565371    0.696807   -6.723858
  H      0.220682    1.581768   -8.207520
  H     -1.406243    4.181507   -6.403261
  H     -0.934215    3.681601   -7.999468
  O      3.207574   -0.466111   -4.420259
  O      1.075064   -0.056160   -3.268758
  F      1.131661   -0.319960   -5.679031
  H      0.668432    2.559427   -3.232850
  H      1.034074    3.729426   -4.497081
  H     -1.288884    2.826737   -4.594997
  H     -0.651696    1.186343   -4.756552

 Total Charge           Charge          ....    0
 Multiplicity           Mult            ....    1
 Number of Electrons    NEL             ....   88
 Basis Dimension        Dim             ....  296

ORBITAL ENERGIES
----------------

  NO   OCC          E(Eh)            E(eV)
   0   2.0000     -88.392971     -2405.2950
   1   2.0000     -24.423871      -664.6073
   2   2.0000     -18.816724      -512.0291
   3   2.0000     -18.812892      -511.9248
   4   2.0000     -14.030024      -381.7764
   5   2.0000      -9.983036      -271.6522
   6   2.0000      -9.950541      -270.7680
   7   2.0000      -9.946976      -270.6710
   8   2.0000      -9.936050      -270.3737
   9   2.0000      -9.864688      -268.4318
  10   2.0000      -7.930490      -215.7996
  11   2.0000      -5.970053      -162.4534
  12   2.0000      -5.963405      -162.2725
  13   2.0000      -5.961478      -162.2201
  14   2.0000      -1.260311       -34.2948
  15   2.0000      -1.035958       -28.1898
  16   2.0000      -0.943738       -25.6804
  17   2.0000      -0.851099       -23.1596
  18   2.0000      -0.753099       -20.4929
  19   2.0000      -0.691243       -18.8097
  20   2.0000      -0.673860       -18.3367
  21   2.0000      -0.624377       -16.9902
  22   2.0000      -0.589312       -16.0360
  23   2.0000      -0.539615       -14.6837
  24   2.0000      -0.522998       -14.2315
  25   2.0000      -0.512137       -13.9360
  26   2.0000      -0.497146       -13.5280
  27   2.0000      -0.478766       -13.0279
  28   2.0000      -0.447119       -12.1667
  29   2.0000      -0.437086       -11.8937
  30   2.0000      -0.422125       -11.4866
  31   2.0000      -0.415909       -11.3174
  32   2.0000      -0.399605       -10.8738
  33   2.0000      -0.373765       -10.1707
  34   2.0000      -0.358018        -9.7422
  35   2.0000      -0.349534        -9.5113
  36   2.0000      -0.341133        -9.2827
  37   2.0000      -0.333128        -9.0649
  38   2.0000      -0.305730        -8.3193
  39   2.0000      -0.304736        -8.2923
  40   2.0000      -0.297649        -8.0994
  41   2.0000      -0.290568        -7.9068
  42   2.0000      -0.282422        -7.6851
  43   2.0000      -0.162439        -4.4202
  44   0.0000      -0.036313        -0.9881
  45   0.0000      -0.002936        -0.0799
  46   0.0000      -0.000378        -0.0103
  47   0.0000       0.005843         0.1590
  48   0.0000       0.012853         0.3497

MULLIKEN ATOMIC CHARGES
-----------------------
   0 C :    0.799132
   1 C :    0.468016
   2 C :    0.458391
   3 H :    0.005651
   4 H :   -0.320460
   5 S :    1.290417
   6 C :   -0.147809
   7 C :    0.566061
   8 N :    1.002933
   9 H :   -0.531594
  10 H :   -0.293723
  11 H :   -0.229305
  12 H :   -0.618353
  13 O :   -0.585789
  14 O :   -0.632219
  15 F :   -0.521011
  16 H :    0.041049
  17 H :   -0.363508
  18 H :   -0.132414
  19 H :   -0.255467
Sum of atomic charges:    0.0000000

LOEWDIN ATOMIC CHARGES
----------------------
   0 C :    0.034059
   1 C :   -0.005697
   2 C :   -0.030179
   3 H :    0.015545
   4 H :    0.024956
   5 S :    1.092529
   6 C :   -0.252862
   7 C :    0.192411
   8 N :    0.218087
   9 H :   -0.100817
  10 H :    0.016938
  11 H :   -0.087184
  12 H :   -0.094384
  13 O :   -0.423846
  14 O :   -0.425941
  15 F :   -0.260282
  16 H :    0.022474
  17 H :    0.032127
  18 H :    0.028388
  19 H :    0.003678

  Mayer bond orders larger than 0.100000
B(  0-C ,  1-C ) :   1.1178 B(  0-C ,  6-C ) :   1.0993 B(  0-C ,  8-N ) :   0.1328
B(  0-C , 16-H ) :   0.1851 B(  0-C , 17-H ) :   0.1308 B(  0-C , 18-H ) :   0.6086
B(  0-C , 19-H ) :   0.5599 B(  1-C ,  2-C ) :   1.3144 B(  1-C ,  3-H ) :   0.1678
B(  1-C ,  4-H ) :   0.2390 B(  1-C ,  6-C ) :   0.1070 B(  1-C , 16-H ) :   0.7100
B(  1-C , 17-H ) :   0.7245 B(  1-C , 18-H ) :   0.1717 B(  1-C , 19-H ) :   0.2175
B(  2-C ,  3-H ) :   0.8409 B(  2-C ,  4-H ) :   0.6771 B(  2-C ,  5-S ) :   0.9260
B(  2-C , 15-F ) :   0.1033 B(  2-C , 16-H ) :   0.1801 B(  2-C , 17-H ) :   0.1512
B(  4-H ,  5-S ) :   0.1082 B(  5-S , 13-O ) :   1.6044 B(  5-S , 14-O ) :   1.5592
B(  5-S , 15-F ) :   0.6798 B(  6-C ,  7-C ) :   1.3177 B(  6-C ,  8-N ) :   1.2416
B(  6-C ,  9-H ) :   0.1098 B(  6-C , 10-H ) :  -0.1115 B(  6-C , 12-H ) :   0.1904
B(  6-C , 18-H ) :   0.2395 B(  6-C , 19-H ) :   0.2092 B(  7-C ,  8-N ) :   0.2333
B(  7-C , 11-H ) :   0.8882 B(  7-C , 12-H ) :   0.4556 B(  8-N ,  9-H ) :   0.7886
B(  8-N , 10-H ) :   1.1703 B(  9-H , 10-H ) :  -0.1999 B(  9-H , 15-F ) :   0.1826
B( 13-O , 14-O ) :   0.1339 B( 16-H , 17-H ) :  -0.1262

Dispersion correction           -0.046605108
FINAL SINGLE POINT ENERGY      -899.080619326942

DIPOLE MOMENT
-------------
                                X             Y             Z
Electronic contribution:      6.41818     -13.43079       3.17033
Nuclear contribution   :     -6.26130      13.99605      -3.80018
                        -----------------------------------------
Total Dipole Moment    :      0.15688       0.56527      -0.62985
                        -----------------------------------------
Magnitude (a.u.)       :      0.86072
Magnitude (Debye)      :      2.18778

Rotational constants in cm-1:     0.079895     0.025630     0.022948
Rotational constants in MHz :  2395.188639   768.373696   687.955250

                             ****ORCA TERMINATED NORMALLY****
TOTAL RUN TIME: 0 days 0 hours 0 minutes 18 seconds 304 msec
