                         Program Version 5.0.0 -  RELEASE  -
|  1> !BLYP D3BJ RIJCOSX def2-SVPD def2/J TightSCF xyzfile
|  2>
|  3> *xyzfile 0 1 D6.xyz
|  4>
|  5> %MaxCore 64000
|  6>
|  7> %pal nprocs 4
|  8> end
|  9>
| 10> %scf
| 11>   MaxIter 150
| 12> end
| 13>
| 14>
| 15>                          ****END OF INPUT****

CARTESIAN COORDINATES (ANGSTROEM)
---------------------------------
  C     -0.461293    2.234686   -4.989619
  C      0.848883    2.667967   -4.302351
  C      2.093434    1.861037   -4.656845
  H      2.444814    2.041567   -5.674990
  H      2.901748    2.137864   -3.980338
  S      1.879644    0.078594   -4.462965
  C     -0.423841    2.398772   -6.474317
  N     -0.959467    3.492647   -7.007401
  C      0.145585    1.486891   -7.203987
  H      0.565371    0.696807   -6.723858
  H      0.220682    1.581768   -8.207520
  H     -1.406243    4.181507   -6.403261
  H     -0.934215    3.681601   -7.999468
  O      3.207574   -0.466111   -4.420259
  O      1.075064   -0.056160   -3.268758
  F      1.131661   -0.319960   -5.679031
  H      0.668432    2.559427   -3.232850
  H      1.034074    3.729426   -4.497081
  H     -1.288884    2.826737   -4.594997
  H     -0.651696    1.186343   -4.756552

 Total Charge           Charge          ....    0
 Multiplicity           Mult            ....    1
 Number of Electrons    NEL             ....   88
 Basis Dimension        Dim             ....  296

ORBITAL ENERGIES
----------------

  NO   OCC          E(Eh)            E(eV)
   0   2.0000     -88.380196     -2404.9474
   1   2.0000     -24.398956      -663.9293
   2   2.0000     -18.803720      -511.6752
   3   2.0000     -18.800807      -511.5960
   4   2.0000     -14.036708      -381.9582
   5   2.0000      -9.972801      -271.3737
   6   2.0000      -9.949085      -270.7284
   7   2.0000      -9.947001      -270.6717
   8   2.0000      -9.936649      -270.3900
   9   2.0000      -9.857589      -268.2386
  10   2.0000      -7.917299      -215.4407
  11   2.0000      -5.956635      -162.0883
  12   2.0000      -5.950371      -161.9178
  13   2.0000      -5.948541      -161.8680
  14   2.0000      -1.237169       -33.6651
  15   2.0000      -1.022454       -27.8224
  16   2.0000      -0.931477       -25.3468
  17   2.0000      -0.841037       -22.8858
  18   2.0000      -0.747649       -20.3446
  19   2.0000      -0.691629       -18.8202
  20   2.0000      -0.646130       -17.5821
  21   2.0000      -0.640248       -17.4220
  22   2.0000      -0.571445       -15.5498
  23   2.0000      -0.536371       -14.5954
  24   2.0000      -0.501289       -13.6408
  25   2.0000      -0.496625       -13.5138
  26   2.0000      -0.488995       -13.3062
  27   2.0000      -0.475828       -12.9479
  28   2.0000      -0.444689       -12.1006
  29   2.0000      -0.433833       -11.8052
  30   2.0000      -0.418259       -11.3814
  31   2.0000      -0.404766       -11.0142
  32   2.0000      -0.397095       -10.8055
  33   2.0000      -0.363325        -9.8866
  34   2.0000      -0.355114        -9.6631
  35   2.0000      -0.347370        -9.4524
  36   2.0000      -0.334684        -9.1072
  37   2.0000      -0.325221        -8.8497
  38   2.0000      -0.301422        -8.2021
  39   2.0000      -0.296639        -8.0720
  40   2.0000      -0.289692        -7.8829
  41   2.0000      -0.281975        -7.6729
  42   2.0000      -0.271634        -7.3915
  43   2.0000      -0.168219        -4.5775
  44   0.0000      -0.022435        -0.6105
  45   0.0000      -0.009667        -0.2631
  46   0.0000       0.001022         0.0278
  47   0.0000       0.010943         0.2978
  48   0.0000       0.019381         0.5274

MULLIKEN ATOMIC CHARGES
-----------------------
   0 C :    0.698829
   1 C :    0.491430
   2 C :    0.441754
   3 H :    0.084355
   4 H :   -0.379576
   5 S :    1.277818
   6 C :    0.044635
   7 N :    0.325220
   8 C :    1.223086
   9 H :   -0.344127
  10 H :   -0.878392
  11 H :   -0.188672
  12 H :   -0.284246
  13 O :   -0.598726
  14 O :   -0.649978
  15 F :   -0.537418
  16 H :    0.021143
  17 H :   -0.367291
  18 H :   -0.344979
  19 H :   -0.034866
Sum of atomic charges:    0.0000000

LOEWDIN ATOMIC CHARGES
----------------------
   0 C :    0.034386
   1 C :   -0.008502
   2 C :   -0.029365
   3 H :    0.015241
   4 H :    0.023134
   5 S :    1.092649
   6 C :   -0.237540
   7 N :    0.194298
   8 C :    0.207001
   9 H :   -0.156429
  10 H :   -0.074934
  11 H :   -0.005965
  12 H :   -0.000345
  13 O :   -0.429224
  14 O :   -0.433589
  15 F :   -0.269370
  16 H :    0.021875
  17 H :    0.028214
  18 H :    0.018091
  19 H :    0.010372

  Mayer bond orders larger than 0.100000
B(  0-C ,  1-C ) :   1.1274 B(  0-C ,  6-C ) :   1.0883 B(  0-C ,  7-N ) :   0.1435
B(  0-C ,  8-C ) :   0.2126 B(  0-C , 16-H ) :   0.1610 B(  0-C , 18-H ) :   0.5601
B(  0-C , 19-H ) :   0.7591 B(  1-C ,  2-C ) :   1.3071 B(  1-C ,  3-H ) :   0.1651
B(  1-C ,  4-H ) :   0.2348 B(  1-C , 16-H ) :   0.6903 B(  1-C , 17-H ) :   0.7026
B(  1-C , 18-H ) :   0.2038 B(  1-C , 19-H ) :   0.1906 B(  2-C ,  3-H ) :   0.8331
B(  2-C ,  4-H ) :   0.6786 B(  2-C ,  5-S ) :   0.9364 B(  2-C ,  9-H ) :   0.1214
B(  2-C , 15-F ) :   0.1381 B(  2-C , 16-H ) :   0.1794 B(  2-C , 17-H ) :   0.1334
B(  3-H ,  4-H ) :  -0.1027 B(  4-H ,  5-S ) :   0.1253 B(  4-H ,  9-H ) :  -0.1666
B(  5-S , 13-O ) :   1.5898 B(  5-S , 14-O ) :   1.5424 B(  5-S , 15-F ) :   0.7146
B(  6-C ,  7-N ) :   1.1245 B(  6-C ,  8-C ) :   1.7010 B(  6-C ,  9-H ) :   0.3408
B(  6-C , 10-H ) :   0.3358 B(  6-C , 12-H ) :  -0.1248 B(  6-C , 18-H ) :   0.2375
B(  6-C , 19-H ) :   0.1047 B(  7-N ,  8-C ) :   0.3667 B(  7-N , 11-H ) :   1.1398
B(  7-N , 12-H ) :   1.3321 B(  8-C ,  9-H ) :   0.2541 B(  8-C , 10-H ) :   0.4153
B(  9-H , 10-H ) :  -0.3710 B(  9-H , 15-F ) :   0.1716 B( 11-H , 12-H ) :  -0.1669
B( 13-O , 14-O ) :   0.1277 B( 16-H , 17-H ) :  -0.1145

Dispersion correction           -0.046944170
FINAL SINGLE POINT ENERGY      -899.072500140891

DIPOLE MOMENT
-------------
                                X             Y             Z
Electronic contribution:      5.53574     -11.97418       3.17604
Nuclear contribution   :     -6.15577      13.80449      -3.81895
                        -----------------------------------------
Total Dipole Moment    :     -0.62003       1.83032      -0.64291
                        -----------------------------------------
Magnitude (a.u.)       :      2.03662
Magnitude (Debye)      :      5.17668

Rotational constants in cm-1:     0.081431     0.024887     0.022470
Rotational constants in MHz :  2441.231544   746.086417   673.646914

                             ****ORCA TERMINATED NORMALLY****
TOTAL RUN TIME: 0 days 0 hours 0 minutes 19 seconds 88 msec
