                         Program Version 5.0.0 -  RELEASE  -
|  1> !DLPNO-CCSD(T) aug-cc-pVTZ aug-cc-pVTZ/C TightSCF TightPNO RIJCOSX def2/J
|  2> *xyz -1 1
|  3> C          4.12921        0.89839       -3.41895
|  4> C          5.01734        1.31521       -2.22130
|  5> O          4.73706        0.85411       -1.12283
|  6> O          5.92815        2.16811       -2.49136
|  7> H          4.48610        1.37210       -4.30953
|  8> H          3.11885        1.19903       -3.23540
|  9> H          4.16886       -0.16404       -3.53966
| 10> *
| 11> %MaxCore 64000
| 12>
| 13> %pal nprocs 8
| 14> end
| 15>
| 16> %scf
| 17>   MaxIter 150
| 18> end
| 19>
| 20>
| 21>                          ****END OF INPUT****

CARTESIAN COORDINATES (ANGSTROEM)
---------------------------------
  C      4.129210    0.898390   -3.418950
  C      5.017340    1.315210   -2.221300
  O      4.737060    0.854110   -1.122830
  O      5.928150    2.168110   -2.491360
  H      4.486100    1.372100   -4.309530
  H      3.118850    1.199030   -3.235400
  H      4.168860   -0.164040   -3.539660

 Total Charge           Charge          ....   -1
 Multiplicity           Mult            ....    1
 Number of Electrons    NEL             ....   32
 Basis Dimension        Dim             ....  253

ORBITAL ENERGIES
----------------

  NO   OCC          E(Eh)            E(eV)
   0   2.0000     -20.287165      -552.0418
   1   2.0000     -20.276208      -551.7437
   2   2.0000     -11.124758      -302.7201
   3   2.0000     -11.035542      -300.2924
   4   2.0000      -1.166981       -31.7552
   5   2.0000      -1.055206       -28.7136
   6   2.0000      -0.798053       -21.7161
   7   2.0000      -0.508773       -13.8444
   8   2.0000      -0.419371       -11.4117
   9   2.0000      -0.418555       -11.3895
  10   2.0000      -0.413056       -11.2398
  11   2.0000      -0.359911        -9.7937
  12   2.0000      -0.320778        -8.7288
  13   2.0000      -0.198152        -5.3920
  14   2.0000      -0.190122        -5.1735
  15   2.0000      -0.184401        -5.0178
  16   0.0000       0.132919         3.6169
  17   0.0000       0.143111         3.8942
  18   0.0000       0.146334         3.9819
  19   0.0000       0.184884         5.0309
  20   0.0000       0.220945         6.0122

MULLIKEN ATOMIC CHARGES
-----------------------
   0 C :   -0.662414
   1 C :    0.428360
   2 O :   -0.766666
   3 O :   -0.799202
   4 H :    0.298649
   5 H :    0.252351
   6 H :    0.248922
Sum of atomic charges:   -1.0000000

LOEWDIN ATOMIC CHARGES
----------------------
   0 C :    0.485525
   1 C :   -1.231226
   2 O :    0.251119
   3 O :    0.201412
   4 H :   -0.246693
   5 H :   -0.228545
   6 H :   -0.231592

  Mayer bond orders larger than 0.100000
B(  0-C ,  1-C ) :   0.7372 B(  0-C ,  4-H ) :   0.9095 B(  0-C ,  5-H ) :   0.9516
B(  0-C ,  6-H ) :   0.9528 B(  1-C ,  2-O ) :   1.5090 B(  1-C ,  3-O ) :   1.4461

E(0)                                       ...   -227.327523309
E(0)                                       ...   -227.327523309
E(CORR)(strong-pairs)                      ...     -0.836040352
E(CORR)(weak-pairs)                        ...     -0.000620876
E(CORR)(corrected)                         ...     -0.836661228
E(TOT)                                     ...   -228.164184537
E(CCSD(T))                                 ...   -228.200144162
FINAL SINGLE POINT ENERGY      -228.200144162183

DIPOLE MOMENT
-------------
                                X             Y             Z
Electronic contribution:      1.95444       0.89002       2.78937
Nuclear contribution   :     -2.87913      -1.42371      -3.86600
                        -----------------------------------------
Total Dipole Moment    :     -0.92469      -0.53370      -1.07662
                        -----------------------------------------
Magnitude (a.u.)       :      1.51625
Magnitude (Debye)      :      3.85400

Rotational constants in cm-1:     0.390018     0.334370     0.186171
Rotational constants in MHz : 11692.450907 10024.149143  5581.251544

                             ****ORCA TERMINATED NORMALLY****
TOTAL RUN TIME: 0 days 0 hours 3 minutes 12 seconds 220 msec
