                         Program Version 5.0.0 -  RELEASE  -
|  1> !DLPNO-CCSD(T) aug-cc-pVTZ aug-cc-pVTZ/C TightSCF TightPNO RIJCOSX def2/J
|  2> *xyz 1 1
|  3> C          3.34350        3.35457       -3.59200
|  4> C          4.25587        3.70385       -4.72605
|  5> N          3.73403        4.29378       -5.80077
|  6> N          5.51504        3.40725       -4.63718
|  7> H          6.14919        3.60120       -5.39905
|  8> H          5.81358        2.89950       -3.80879
|  9> H          2.74138        4.51311       -5.82470
| 10> H          4.28755        4.52126       -6.61434
| 11> H          2.34726        3.66659       -3.82664
| 12> H          3.67283        3.85124       -2.70331
| 13> H          3.35820        2.29620       -3.43538
| 14> *
| 15> %MaxCore 64000
| 16>
| 17> %pal nprocs 8
| 18> end
| 19>
| 20> %scf
| 21>   MaxIter 150
| 22> end
| 23>
| 24>
| 25>                          ****END OF INPUT****

CARTESIAN COORDINATES (ANGSTROEM)
---------------------------------
  C      3.343500    3.354570   -3.592000
  C      4.255870    3.703850   -4.726050
  N      3.734030    4.293780   -5.800770
  N      5.515040    3.407250   -4.637180
  H      6.149190    3.601200   -5.399050
  H      5.813580    2.899500   -3.808790
  H      2.741380    4.513110   -5.824700
  H      4.287550    4.521260   -6.614340
  H      2.347260    3.666590   -3.826640
  H      3.672830    3.851240   -2.703310
  H      3.358200    2.296200   -3.435380

 Total Charge           Charge          ....    1
 Multiplicity           Mult            ....    1
 Number of Electrons    NEL             ....   32
 Basis Dimension        Dim             ....  345

ORBITAL ENERGIES
----------------

  NO   OCC          E(Eh)            E(eV)
   0   2.0000     -15.814710      -430.3401
   1   2.0000     -15.810350      -430.2215
   2   2.0000     -11.578882      -315.0774
   3   2.0000     -11.425338      -310.8992
   4   2.0000      -1.529420       -41.6176
   5   2.0000      -1.411329       -38.4042
   6   2.0000      -1.216886       -33.1132
   7   2.0000      -1.053758       -28.6742
   8   2.0000      -0.969056       -26.3693
   9   2.0000      -0.956146       -26.0181
  10   2.0000      -0.876709       -23.8565
  11   2.0000      -0.825552       -22.4644
  12   2.0000      -0.774695       -21.0805
  13   2.0000      -0.762764       -20.7559
  14   2.0000      -0.731334       -19.9006
  15   2.0000      -0.634577       -17.2677
  16   0.0000      -0.101807        -2.7703
  17   0.0000      -0.076853        -2.0913
  18   0.0000      -0.074232        -2.0200
  19   0.0000      -0.071240        -1.9385
  20   0.0000      -0.049961        -1.3595

MULLIKEN ATOMIC CHARGES
-----------------------
   0 C :   -0.571844
   1 C :    0.583753
   2 N :   -0.325085
   3 N :   -0.292922
   4 H :    0.178476
   5 H :    0.111741
   6 H :    0.117908
   7 H :    0.172208
   8 H :    0.325036
   9 H :    0.361271
  10 H :    0.339457
Sum of atomic charges:    1.0000000

LOEWDIN ATOMIC CHARGES
----------------------
   0 C :    0.699262
   1 C :   -0.216802
   2 N :    0.948892
   3 N :    0.940831
   4 H :   -0.222234
   5 H :   -0.221013
   6 H :   -0.235613
   7 H :   -0.233016
   8 H :   -0.164768
   9 H :   -0.147899
  10 H :   -0.147640

  Mayer bond orders larger than 0.100000
B(  0-C ,  1-C ) :   0.4765 B(  0-C ,  8-H ) :   0.9599 B(  0-C ,  9-H ) :   0.8869
B(  0-C , 10-H ) :   0.8995 B(  1-C ,  2-N ) :   0.9774 B(  1-C ,  3-N ) :   1.0761
B(  2-N ,  3-N ) :  -0.1079 B(  2-N ,  6-H ) :   1.1083 B(  2-N ,  7-H ) :   1.0571
B(  3-N ,  4-H ) :   1.0441 B(  3-N ,  5-H ) :   1.1243

E(0)                                       ...   -188.595532372
E(0)                                       ...   -188.595532372
E(CORR)(strong-pairs)                      ...     -0.781994222
E(CORR)(weak-pairs)                        ...     -0.000658151
E(CORR)(corrected)                         ...     -0.782652374
E(TOT)                                     ...   -189.378184745
E(CCSD(T))                                 ...   -189.408892135
FINAL SINGLE POINT ENERGY      -189.408892135001

DIPOLE MOMENT
-------------
                                X             Y             Z
Electronic contribution:      1.37653       0.48115      -1.53895
Nuclear contribution   :     -1.09951      -0.46604       1.22975
                        -----------------------------------------
Total Dipole Moment    :      0.27702       0.01511      -0.30920
                        -----------------------------------------
Magnitude (a.u.)       :      0.41542
Magnitude (Debye)      :      1.05592

Rotational constants in cm-1:     0.329035     0.303839     0.162676
Rotational constants in MHz :  9864.215808  9108.853745  4876.907929

                             ****ORCA TERMINATED NORMALLY****
TOTAL RUN TIME: 0 days 0 hours 4 minutes 52 seconds 174 msec
