                         Program Version 5.0.0 -  RELEASE  -
|  1> !DLPNO-CCSD(T) aug-cc-pVTZ aug-cc-pVTZ/C TightSCF TightPNO RIJCOSX def2/J
|  2> *xyz 0 1
|  3> C          4.12921        0.89839       -3.41895
|  4> C          5.01734        1.31521       -2.22130
|  5> F          4.73706        0.85411       -1.12283
|  6> O          5.92815        2.16811       -2.49136
|  7> H          4.48610        1.37210       -4.30953
|  8> H          3.11885        1.19903       -3.23540
|  9> H          4.16886       -0.16404       -3.53966
| 10> *
| 11> %MaxCore 64000
| 12>
| 13> %pal nprocs 2
| 14> end
| 15>
| 16> %scf
| 17>   MaxIter 150
| 18> end
| 19>
| 20>
| 21>                          ****END OF INPUT****

CARTESIAN COORDINATES (ANGSTROEM)
---------------------------------
  C      4.129210    0.898390   -3.418950
  C      5.017340    1.315210   -2.221300
  F      4.737060    0.854110   -1.122830
  O      5.928150    2.168110   -2.491360
  H      4.486100    1.372100   -4.309530
  H      3.118850    1.199030   -3.235400
  H      4.168860   -0.164040   -3.539660

 Total Charge           Charge          ....    0
 Multiplicity           Mult            ....    1
 Number of Electrons    NEL             ....   32
 Basis Dimension        Dim             ....  253

ORBITAL ENERGIES
----------------

  NO   OCC          E(Eh)            E(eV)
   0   2.0000     -26.393284      -718.1978
   1   2.0000     -20.561593      -559.5094
   2   2.0000     -11.438848      -311.2669
   3   2.0000     -11.255171      -306.2688
   4   2.0000      -1.760371       -47.9021
   5   2.0000      -1.361299       -37.0428
   6   2.0000      -1.037713       -28.2376
   7   2.0000      -0.920252       -25.0413
   8   2.0000      -0.795841       -21.6559
   9   2.0000      -0.790477       -21.5100
  10   2.0000      -0.707519       -19.2526
  11   2.0000      -0.610610       -16.6155
  12   2.0000      -0.599155       -16.3038
  13   2.0000      -0.577281       -15.7086
  14   2.0000      -0.490070       -13.3355
  15   2.0000      -0.462904       -12.5963
  16   0.0000       0.025223         0.6864
  17   0.0000       0.041476         1.1286
  18   0.0000       0.048853         1.3294
  19   0.0000       0.063074         1.7163
  20   0.0000       0.097529         2.6539

MULLIKEN ATOMIC CHARGES
-----------------------
   0 C :   -0.741913
   1 C :    0.563785
   2 F :   -0.204790
   3 O :   -0.582515
   4 H :    0.337149
   5 H :    0.316728
   6 H :    0.311557
Sum of atomic charges:   -0.0000000

LOEWDIN ATOMIC CHARGES
----------------------
   0 C :    0.586916
   1 C :   -0.932570
   2 F :    0.604315
   3 O :    0.348859
   4 H :   -0.204274
   5 H :   -0.200155
   6 H :   -0.203092

  Mayer bond orders larger than 0.100000
B(  0-C ,  1-C ) :   0.8615 B(  0-C ,  4-H ) :   0.8932 B(  0-C ,  5-H ) :   0.9038
B(  0-C ,  6-H ) :   0.9086 B(  1-C ,  2-F ) :   0.9782 B(  1-C ,  3-O ) :   1.7118

E(0)                                       ...   -251.869223884
E(0)                                       ...   -251.869223884
E(CORR)(strong-pairs)                      ...     -0.838332303
E(CORR)(weak-pairs)                        ...     -0.000611067
E(CORR)(corrected)                         ...     -0.838943370
E(TOT)                                     ...   -252.708167254
E(CCSD(T))                                 ...   -252.740988136
FINAL SINGLE POINT ENERGY      -252.740988135769

DIPOLE MOMENT
-------------
                                X             Y             Z
Electronic contribution:      1.60982       0.13047       4.80817
Nuclear contribution   :     -2.65749      -0.95231      -5.09883
                        -----------------------------------------
Total Dipole Moment    :     -1.04767      -0.82185      -0.29066
                        -----------------------------------------
Magnitude (a.u.)       :      1.36291
Magnitude (Debye)      :      3.46424

Rotational constants in cm-1:     0.365278     0.322469     0.176821
Rotational constants in MHz : 10950.755781  9667.377070  5300.957073

                             ****ORCA TERMINATED NORMALLY****
TOTAL RUN TIME: 0 days 0 hours 17 minutes 27 seconds 404 msec
