                         Program Version 5.0.0 -  RELEASE  -
|  1> !DLPNO-CCSD(T) aug-cc-pVTZ aug-cc-pVTZ/C TightSCF TightPNO RIJCOSX def2/J
|  2> *xyz 0 1
|  3> C          3.34350        3.35457       -3.59200
|  4> C          4.25587        3.70385       -4.72605
|  5> C          3.73403        4.29378       -5.80077
|  6> N          5.51504        3.40725       -4.63718
|  7> H          6.14919        3.60120       -5.39905
|  8> H          5.81358        2.89950       -3.80879
|  9> H          2.74138        4.51311       -5.82470
| 10> H          4.28755        4.52126       -6.61434
| 11> H          2.34726        3.66659       -3.82664
| 12> H          3.67283        3.85124       -2.70331
| 13> H          3.35820        2.29620       -3.43538
| 14> *
| 15> %MaxCore 64000
| 16>
| 17> %pal nprocs 2
| 18> end
| 19>
| 20> %scf
| 21>   MaxIter 150
| 22> end
| 23>
| 24>
| 25>                          ****END OF INPUT****

CARTESIAN COORDINATES (ANGSTROEM)
---------------------------------
  C      3.343500    3.354570   -3.592000
  C      4.255870    3.703850   -4.726050
  C      3.734030    4.293780   -5.800770
  N      5.515040    3.407250   -4.637180
  H      6.149190    3.601200   -5.399050
  H      5.813580    2.899500   -3.808790
  H      2.741380    4.513110   -5.824700
  H      4.287550    4.521260   -6.614340
  H      2.347260    3.666590   -3.826640
  H      3.672830    3.851240   -2.703310
  H      3.358200    2.296200   -3.435380

 Total Charge           Charge          ....    0
 Multiplicity           Mult            ....    1
 Number of Electrons    NEL             ....   32
 Basis Dimension        Dim             ....  345

ORBITAL ENERGIES
----------------

  NO   OCC          E(Eh)            E(eV)
   0   2.0000     -15.563978      -423.5174
   1   2.0000     -11.257460      -306.3311
   2   2.0000     -11.214975      -305.1750
   3   2.0000     -11.151243      -303.4408
   4   2.0000      -1.248674       -33.9781
   5   2.0000      -1.025289       -27.8995
   6   2.0000      -0.937937       -25.5226
   7   2.0000      -0.777044       -21.1444
   8   2.0000      -0.712618       -19.3913
   9   2.0000      -0.651037       -17.7156
  10   2.0000      -0.596376       -16.2282
  11   2.0000      -0.556447       -15.1417
  12   2.0000      -0.551109       -14.9964
  13   2.0000      -0.501444       -13.6450
  14   2.0000      -0.490373       -13.3437
  15   2.0000      -0.288080        -7.8390
  16   0.0000       0.026173         0.7122
  17   0.0000       0.037310         1.0152
  18   0.0000       0.042033         1.1438
  19   0.0000       0.047467         1.2916
  20   0.0000       0.057696         1.5700

MULLIKEN ATOMIC CHARGES
-----------------------
   0 C :   -0.620517
   1 C :    0.742691
   2 C :   -1.351837
   3 N :   -0.526550
   4 H :    0.066181
   5 H :    0.060605
   6 H :    0.117962
   7 H :    0.598533
   8 H :    0.309710
   9 H :    0.310295
  10 H :    0.292927
Sum of atomic charges:    0.0000000

LOEWDIN ATOMIC CHARGES
----------------------
   0 C :    0.605619
   1 C :   -0.324521
   2 C :    0.558098
   3 N :    0.829648
   4 H :   -0.261576
   5 H :   -0.268846
   6 H :   -0.302674
   7 H :   -0.295046
   8 H :   -0.188461
   9 H :   -0.176366
  10 H :   -0.175875

  Mayer bond orders larger than 0.100000
B(  0-C ,  1-C ) :   0.4899 B(  0-C ,  8-H ) :   0.9934 B(  0-C ,  9-H ) :   0.9589
B(  0-C , 10-H ) :   0.9612 B(  1-C ,  2-C ) :   1.1593 B(  1-C ,  3-N ) :   0.8782
B(  2-C ,  3-N ) :  -0.2516 B(  2-C ,  6-H ) :   1.4755 B(  2-C ,  7-H ) :   0.4773
B(  3-N ,  4-H ) :   1.1494 B(  3-N ,  5-H ) :   1.1695

E(0)                                       ...   -172.160524510
E(0)                                       ...   -172.160524510
E(CORR)(strong-pairs)                      ...     -0.762152024
E(CORR)(weak-pairs)                        ...     -0.000648626
E(CORR)(corrected)                         ...     -0.762800650
E(TOT)                                     ...   -172.923325160
E(CCSD(T))                                 ...   -172.954220628
FINAL SINGLE POINT ENERGY      -172.954220628029

DIPOLE MOMENT
-------------
                                X             Y             Z
Electronic contribution:      1.75507      -0.06968      -0.50152
Nuclear contribution   :     -1.20871      -0.33119       0.98382
                        -----------------------------------------
Total Dipole Moment    :      0.54636      -0.40087       0.48229
                        -----------------------------------------
Magnitude (a.u.)       :      0.83175
Magnitude (Debye)      :      2.11415

Rotational constants in cm-1:     0.348453     0.308655     0.168735
Rotational constants in MHz : 10446.369928  9253.232733  5058.539653

                             ****ORCA TERMINATED NORMALLY****
TOTAL RUN TIME: 0 days 0 hours 52 minutes 21 seconds 383 msec
