                         Program Version 5.0.0 -  RELEASE  -
|  1> !DLPNO-CCSD(T) aug-cc-pVTZ aug-cc-pVTZ/C TightSCF TightPNO RIJCOSX def2/J
|  2> *xyz 0 1
|  3> C          4.12921        0.89839       -3.41895
|  4> C          5.01734        1.31521       -2.22130
|  5> O          4.73706        0.85411       -1.12283
|  6> F          5.92815        2.16811       -2.49136
|  7> H          4.48610        1.37210       -4.30953
|  8> H          3.11885        1.19903       -3.23540
|  9> H          4.16886       -0.16404       -3.53966
| 10> *
| 11> %MaxCore 64000
| 12>
| 13> %pal nprocs 8
| 14> end
| 15>
| 16> %scf
| 17>   MaxIter 150
| 18> end
| 19>
| 20>
| 21>                          ****END OF INPUT****

CARTESIAN COORDINATES (ANGSTROEM)
---------------------------------
  C      4.129210    0.898390   -3.418950
  C      5.017340    1.315210   -2.221300
  O      4.737060    0.854110   -1.122830
  F      5.928150    2.168110   -2.491360
  H      4.486100    1.372100   -4.309530
  H      3.118850    1.199030   -3.235400
  H      4.168860   -0.164040   -3.539660

 Total Charge           Charge          ....    0
 Multiplicity           Mult            ....    1
 Number of Electrons    NEL             ....   32
 Basis Dimension        Dim             ....  253

ORBITAL ENERGIES
----------------

  NO   OCC          E(Eh)            E(eV)
   0   2.0000     -26.370777      -717.5853
   1   2.0000     -20.571176      -559.7702
   2   2.0000     -11.433393      -311.1184
   3   2.0000     -11.254721      -306.2565
   4   2.0000      -1.716190       -46.6999
   5   2.0000      -1.400760       -38.1166
   6   2.0000      -1.034810       -28.1586
   7   2.0000      -0.891688       -24.2641
   8   2.0000      -0.770725       -20.9725
   9   2.0000      -0.761971       -20.7343
  10   2.0000      -0.714839       -19.4517
  11   2.0000      -0.612912       -16.6782
  12   2.0000      -0.606403       -16.5011
  13   2.0000      -0.587005       -15.9732
  14   2.0000      -0.511376       -13.9152
  15   2.0000      -0.473064       -12.8727
  16   0.0000       0.026162         0.7119
  17   0.0000       0.044698         1.2163
  18   0.0000       0.045108         1.2274
  19   0.0000       0.063209         1.7200
  20   0.0000       0.097663         2.6576

MULLIKEN ATOMIC CHARGES
-----------------------
   0 C :   -0.704664
   1 C :    0.571507
   2 O :   -0.566661
   3 F :   -0.257122
   4 H :    0.327249
   5 H :    0.315850
   6 H :    0.313840
Sum of atomic charges:    0.0000000

LOEWDIN ATOMIC CHARGES
----------------------
   0 C :    0.589638
   1 C :   -0.923815
   2 O :    0.391323
   3 F :    0.547910
   4 H :   -0.214349
   5 H :   -0.194464
   6 H :   -0.196244

  Mayer bond orders larger than 0.100000
B(  0-C ,  1-C ) :   0.8133 B(  0-C ,  4-H ) :   0.8955 B(  0-C ,  5-H ) :   0.9007
B(  0-C ,  6-H ) :   0.9046 B(  1-C ,  2-O ) :   1.7545 B(  1-C ,  3-F ) :   0.9094

E(0)                                       ...   -251.886024955
E(0)                                       ...   -251.886024955
E(CORR)(strong-pairs)                      ...     -0.836867109
E(CORR)(weak-pairs)                        ...     -0.000610671
E(CORR)(corrected)                         ...     -0.837477780
E(TOT)                                     ...   -252.723502735
E(CCSD(T))                                 ...   -252.755843650
FINAL SINGLE POINT ENERGY      -252.755843650478

DIPOLE MOMENT
-------------
                                X             Y             Z
Electronic contribution:      3.63021       2.35684       2.48965
Nuclear contribution   :     -3.88824      -2.31007      -3.68473
                        -----------------------------------------
Total Dipole Moment    :     -0.25803       0.04677      -1.19508
                        -----------------------------------------
Magnitude (a.u.)       :      1.22351
Magnitude (Debye)      :      3.10992

Rotational constants in cm-1:     0.367620     0.319924     0.176595
Rotational constants in MHz : 11020.955969  9591.092757  5294.190719

                             ****ORCA TERMINATED NORMALLY****
TOTAL RUN TIME: 0 days 0 hours 2 minutes 25 seconds 713 msec
