                         Program Version 5.0.0 -  RELEASE  -
|  1> !DLPNO-CCSD(T) aug-cc-pVTZ aug-cc-pVTZ/C TightSCF TightPNO RIJCOSX def2/J
|  2> *xyz 0 1
|  3> C          3.34350        3.35457       -3.59200
|  4> C          4.25587        3.70385       -4.72605
|  5> N          3.73403        4.29378       -5.80077
|  6> C          5.51504        3.40725       -4.63718
|  7> H          6.14919        3.60120       -5.39905
|  8> H          5.81358        2.89950       -3.80879
|  9> H          2.74138        4.51311       -5.82470
| 10> H          4.28755        4.52126       -6.61434
| 11> H          2.34726        3.66659       -3.82664
| 12> H          3.67283        3.85124       -2.70331
| 13> H          3.35820        2.29620       -3.43538
| 14> *
| 15> %MaxCore 64000
| 16>
| 17> %pal nprocs 8
| 18> end
| 19>
| 20> %scf
| 21>   MaxIter 150
| 22> end
| 23>
| 24>
| 25>                          ****END OF INPUT****

CARTESIAN COORDINATES (ANGSTROEM)
---------------------------------
  C      3.343500    3.354570   -3.592000
  C      4.255870    3.703850   -4.726050
  N      3.734030    4.293780   -5.800770
  C      5.515040    3.407250   -4.637180
  H      6.149190    3.601200   -5.399050
  H      5.813580    2.899500   -3.808790
  H      2.741380    4.513110   -5.824700
  H      4.287550    4.521260   -6.614340
  H      2.347260    3.666590   -3.826640
  H      3.672830    3.851240   -2.703310
  H      3.358200    2.296200   -3.435380

 Total Charge           Charge          ....    0
 Multiplicity           Mult            ....    1
 Number of Electrons    NEL             ....   32
 Basis Dimension        Dim             ....  345

ORBITAL ENERGIES
----------------

  NO   OCC          E(Eh)            E(eV)
   0   2.0000     -15.560131      -423.4127
   1   2.0000     -11.253290      -306.2176
   2   2.0000     -11.214093      -305.1510
   3   2.0000     -11.146912      -303.3229
   4   2.0000      -1.231080       -33.4994
   5   2.0000      -1.031659       -28.0729
   6   2.0000      -0.942694       -25.6520
   7   2.0000      -0.769396       -20.9363
   8   2.0000      -0.699851       -19.0439
   9   2.0000      -0.652092       -17.7443
  10   2.0000      -0.592123       -16.1125
  11   2.0000      -0.557963       -15.1829
  12   2.0000      -0.550885       -14.9904
  13   2.0000      -0.505042       -13.7429
  14   2.0000      -0.484459       -13.1828
  15   2.0000      -0.294167        -8.0047
  16   0.0000       0.027002         0.7348
  17   0.0000       0.037468         1.0196
  18   0.0000       0.041706         1.1349
  19   0.0000       0.050599         1.3769
  20   0.0000       0.057708         1.5703

MULLIKEN ATOMIC CHARGES
-----------------------
   0 C :   -0.676873
   1 C :    0.665927
   2 N :   -0.527524
   3 C :   -1.311962
   4 H :    0.616799
   5 H :    0.226662
   6 H :    0.055968
   7 H :    0.062516
   8 H :    0.299472
   9 H :    0.303842
  10 H :    0.285172
Sum of atomic charges:    0.0000000

LOEWDIN ATOMIC CHARGES
----------------------
   0 C :    0.609083
   1 C :   -0.318447
   2 N :    0.839550
   3 C :    0.540731
   4 H :   -0.287270
   5 H :   -0.288968
   6 H :   -0.285200
   7 H :   -0.272236
   8 H :   -0.193492
   9 H :   -0.172054
  10 H :   -0.171698

  Mayer bond orders larger than 0.100000
B(  0-C ,  1-C ) :   0.6894 B(  0-C ,  8-H ) :   0.9740 B(  0-C ,  9-H ) :   0.9603
B(  0-C , 10-H ) :   0.9664 B(  1-C ,  2-N ) :   0.7824 B(  1-C ,  3-C ) :   1.2482
B(  2-N ,  3-C ) :  -0.2467 B(  2-N ,  6-H ) :   1.1698 B(  2-N ,  7-H ) :   1.1634
B(  3-C ,  4-H ) :   0.5139 B(  3-C ,  5-H ) :   1.2868

E(0)                                       ...   -172.159360810
E(0)                                       ...   -172.159360810
E(CORR)(strong-pairs)                      ...     -0.762176896
E(CORR)(weak-pairs)                        ...     -0.000638543
E(CORR)(corrected)                         ...     -0.762815439
E(TOT)                                     ...   -172.922176249
E(CCSD(T))                                 ...   -172.952935247
FINAL SINGLE POINT ENERGY      -172.952935247221

DIPOLE MOMENT
-------------
                                X             Y             Z
Electronic contribution:      0.15428       0.73044      -1.51785
Nuclear contribution   :     -0.80929      -0.53001       1.24477
                        -----------------------------------------
Total Dipole Moment    :     -0.65501       0.20043      -0.27308
                        -----------------------------------------
Magnitude (a.u.)       :      0.73741
Magnitude (Debye)      :      1.87435

Rotational constants in cm-1:     0.352070     0.305406     0.168593
Rotational constants in MHz : 10554.792117  9155.853997  5054.288053

                             ****ORCA TERMINATED NORMALLY****
TOTAL RUN TIME: 0 days 0 hours 5 minutes 45 seconds 399 msec
