                         Program Version 5.0.0 -  RELEASE  -
|  1> !DLPNO-CCSD(T) aug-cc-pVTZ aug-cc-pVTZ/C TightSCF TightPNO RIJCOSX def2/J
|  2>
|  3> *xyzfile 0 1 D1.xyz
|  4>
|  5> %MaxCore 64000
|  6>
|  7> %pal nprocs 18
|  8> end
|  9>
| 10> %scf
| 11>   MaxIter 150
| 12> end
| 13>
| 14>
| 15>                          ****END OF INPUT****

CARTESIAN COORDINATES (ANGSTROEM)
---------------------------------
  C      3.343500    3.354571   -3.591998
  C      2.952633    1.863077   -3.574849
  C      4.129209    0.898394   -3.418950
  H      3.733687   -0.100605   -3.237633
  H      4.719095    0.862556   -4.339005
  C      5.017344    1.315212   -2.221305
  C      4.255868    3.703851   -4.726054
  C      3.734032    4.293783   -5.800770
  N      5.515039    3.407255   -4.637185
  H      6.149187    3.601203   -5.399053
  H      5.813584    2.899504   -3.808785
  H      2.741380    4.513109   -5.824701
  H      4.287548    4.521260   -6.614341
  H      2.278938    1.735250   -2.725496
  H      2.377466    1.625787   -4.475869
  F      4.737055    0.854112   -1.122825
  O      5.928146    2.168108   -2.491365
  H      3.861246    3.597252   -2.662979
  H      2.446493    3.973461   -3.656556

 Total Charge           Charge          ....    0
 Multiplicity           Mult            ....    1
 Number of Electrons    NEL             ....   70
 Basis Dimension        Dim             ....  644

ORBITAL ENERGIES
----------------

  NO   OCC          E(Eh)            E(eV)
   0   2.0000     -26.414062      -718.7632
   1   2.0000     -20.584783      -560.1404
   2   2.0000     -15.521455      -422.3603
   3   2.0000     -11.463684      -311.9427
   4   2.0000     -11.271537      -306.7141
   5   2.0000     -11.251838      -306.1781
   6   2.0000     -11.244847      -305.9879
   7   2.0000     -11.229074      -305.5586
   8   2.0000     -11.139651      -303.1253
   9   2.0000      -1.780401       -48.4472
  10   2.0000      -1.400590       -38.1120
  11   2.0000      -1.226445       -33.3733
  12   2.0000      -1.105048       -30.0699
  13   2.0000      -1.018767       -27.7221
  14   2.0000      -0.969398       -26.3787
  15   2.0000      -0.927511       -25.2389
  16   2.0000      -0.861102       -23.4318
  17   2.0000      -0.813187       -22.1279
  18   2.0000      -0.805911       -21.9299
  19   2.0000      -0.752335       -20.4721
  20   2.0000      -0.747081       -20.3291
  21   2.0000      -0.696066       -18.9409
  22   2.0000      -0.662704       -18.0331
  23   2.0000      -0.632723       -17.2173
  24   2.0000      -0.617281       -16.7971
  25   2.0000      -0.600274       -16.3343
  26   2.0000      -0.552505       -15.0344
  27   2.0000      -0.542251       -14.7554
  28   2.0000      -0.529423       -14.4063
  29   2.0000      -0.524391       -14.2694
  30   2.0000      -0.504641       -13.7320
  31   2.0000      -0.483177       -13.1479
  32   2.0000      -0.468061       -12.7366
  33   2.0000      -0.458441       -12.4748
  34   2.0000      -0.271354        -7.3839
  35   0.0000       0.023589         0.6419
  36   0.0000       0.033925         0.9232
  37   0.0000       0.038728         1.0539
  38   0.0000       0.040506         1.1022
  39   0.0000       0.053019         1.4427

MULLIKEN ATOMIC CHARGES
-----------------------
   0 C :    0.075352
   1 C :   -0.525478
   2 C :   -0.266756
   3 H :    0.321624
   4 H :    0.259299
   5 C :    0.655989
   6 C :    1.002371
   7 C :   -1.729439
   8 N :   -0.713180
   9 H :   -0.026195
  10 H :    0.249599
  11 H :    0.142876
  12 H :    0.506229
  13 H :    0.181483
  14 H :    0.286705
  15 F :   -0.365043
  16 O :   -0.535837
  17 H :    0.098865
  18 H :    0.381537
Sum of atomic charges:    0.0000000

LOEWDIN ATOMIC CHARGES
----------------------
   0 C :    0.292943
   1 C :    0.298531
   2 C :    0.301445
   3 H :   -0.163646
   4 H :   -0.152806
   5 C :   -0.792947
   6 C :   -0.304969
   7 C :    0.560511
   8 N :    0.850406
   9 H :   -0.243716
  10 H :   -0.685511
  11 H :   -0.302859
  12 H :   -0.294576
  13 H :   -0.149050
  14 H :   -0.127113
  15 F :    0.644569
  16 O :    0.576783
  17 H :   -0.166135
  18 H :   -0.141861

  Mayer bond orders larger than 0.100000
B(  0-C ,  1-C ) :   0.7712 B(  0-C ,  6-C ) :   0.3921 B(  0-C , 17-H ) :   1.0538
B(  0-C , 18-H ) :   0.9572 B(  1-C ,  2-C ) :   0.8371 B(  1-C ,  5-C ) :   0.1927
B(  1-C ,  6-C ) :   0.1466 B(  1-C , 13-H ) :   1.0235 B(  1-C , 14-H ) :   0.8862
B(  2-C ,  3-H ) :   0.9329 B(  2-C ,  4-H ) :   0.9515 B(  2-C ,  5-C ) :   0.7167
B(  5-C , 15-F ) :   0.6956 B(  5-C , 16-O ) :   1.6363 B(  6-C ,  7-C ) :   0.5732
B(  6-C ,  8-N ) :   0.5230 B(  6-C ,  9-H ) :  -0.1586 B(  6-C , 10-H ) :  -0.1084
B(  6-C , 11-H ) :  -0.1823 B(  6-C , 18-H ) :  -0.1085 B(  7-C ,  8-N ) :  -0.1709
B(  7-C , 11-H ) :   1.5551 B(  7-C , 12-H ) :   0.6035 B(  7-C , 18-H ) :  -0.1192
B(  8-N ,  9-H ) :   1.2836 B(  8-N , 10-H ) :   0.9872

E(0)                                       ...   -461.895293992
E(0)                                       ...   -461.895293992
E(CORR)(strong-pairs)                      ...     -1.763811919
E(CORR)(weak-pairs)                        ...     -0.002297972
E(CORR)(corrected)                         ...     -1.766109891
E(TOT)                                     ...   -463.661403883
E(CCSD(T))                                 ...   -463.735910855
FINAL SINGLE POINT ENERGY      -463.735910855093

DIPOLE MOMENT
-------------
                                X             Y             Z
Electronic contribution:      5.42229      -6.07226      10.58111
Nuclear contribution   :     -5.86483       4.68058     -10.07545
                        -----------------------------------------
Total Dipole Moment    :     -0.44254      -1.39167       0.50566
                        -----------------------------------------
Magnitude (a.u.)       :      1.54541
Magnitude (Debye)      :      3.92812

Rotational constants in cm-1:     0.107256     0.035474     0.030113
Rotational constants in MHz :  3215.453922  1063.481574   902.777619

                             ****ORCA TERMINATED NORMALLY****
TOTAL RUN TIME: 0 days 1 hours 3 minutes 16 seconds 228 msec
