                         Program Version 5.0.0 -  RELEASE  -
|  1> !DLPNO-CCSD(T) aug-cc-pVTZ aug-cc-pVTZ/C TightSCF TightPNO RIJCOSX def2/J
|  2>
|  3> *xyzfile 0 1 D3.xyz
|  4>
|  5> %MaxCore 64000
|  6>
|  7> %pal nprocs 18
|  8> end
|  9>
| 10> %scf
| 11>   MaxIter 150
| 12> end
| 13>
| 14>
| 15>                          ****END OF INPUT****

CARTESIAN COORDINATES (ANGSTROEM)
---------------------------------
  C      3.343500    3.354571   -3.591998
  C      2.952633    1.863077   -3.574849
  C      4.129209    0.898394   -3.418950
  H      3.733687   -0.100605   -3.237633
  H      4.719095    0.862556   -4.339005
  C      5.017344    1.315212   -2.221305
  C      4.255868    3.703851   -4.726054
  C      3.734032    4.293783   -5.800770
  N      5.515039    3.407255   -4.637185
  H      6.149187    3.601203   -5.399053
  H      5.813584    2.899504   -3.808785
  H      2.741380    4.513109   -5.824701
  H      4.287548    4.521260   -6.614341
  H      2.278938    1.735250   -2.725496
  H      2.377466    1.625787   -4.475869
  O      4.737055    0.854112   -1.122825
  F      5.928146    2.168108   -2.491365
  H      3.861246    3.597252   -2.662979
  H      2.446493    3.973461   -3.656556

 Total Charge           Charge          ....    0
 Multiplicity           Mult            ....    1
 Number of Electrons    NEL             ....   70
 Basis Dimension        Dim             ....  644

ORBITAL ENERGIES
----------------

  NO   OCC          E(Eh)            E(eV)
   0   2.0000     -26.399468      -718.3660
   1   2.0000     -20.586910      -560.1983
   2   2.0000     -15.552019      -423.1919
   3   2.0000     -11.445103      -311.4371
   4   2.0000     -11.266704      -306.5826
   5   2.0000     -11.259421      -306.3844
   6   2.0000     -11.249982      -306.1276
   7   2.0000     -11.238747      -305.8219
   8   2.0000     -11.154874      -303.5395
   9   2.0000      -1.753708       -47.7208
  10   2.0000      -1.415818       -38.5264
  11   2.0000      -1.251141       -34.0453
  12   2.0000      -1.104589       -30.0574
  13   2.0000      -1.026207       -27.9245
  14   2.0000      -0.973023       -26.4773
  15   2.0000      -0.923866       -25.1397
  16   2.0000      -0.868718       -23.6390
  17   2.0000      -0.813384       -22.1333
  18   2.0000      -0.794836       -21.6286
  19   2.0000      -0.763975       -20.7888
  20   2.0000      -0.725140       -19.7321
  21   2.0000      -0.701051       -19.0766
  22   2.0000      -0.669044       -18.2056
  23   2.0000      -0.638912       -17.3857
  24   2.0000      -0.621083       -16.9005
  25   2.0000      -0.600589       -16.3428
  26   2.0000      -0.565741       -15.3946
  27   2.0000      -0.549953       -14.9650
  28   2.0000      -0.539709       -14.6862
  29   2.0000      -0.537274       -14.6200
  30   2.0000      -0.506145       -13.7729
  31   2.0000      -0.488562       -13.2944
  32   2.0000      -0.479346       -13.0437
  33   2.0000      -0.471161       -12.8209
  34   2.0000      -0.289169        -7.8687
  35   0.0000       0.026028         0.7083
  36   0.0000       0.033547         0.9129
  37   0.0000       0.036863         1.0031
  38   0.0000       0.039040         1.0623
  39   0.0000       0.052544         1.4298

MULLIKEN ATOMIC CHARGES
-----------------------
   0 C :    0.039449
   1 C :   -0.481701
   2 C :   -0.291626
   3 H :    0.332614
   4 H :    0.237376
   5 C :    0.734543
   6 C :    1.024980
   7 C :   -1.712443
   8 N :   -0.732348
   9 H :   -0.045841
  10 H :    0.334750
  11 H :    0.152671
  12 H :    0.509502
  13 H :    0.209856
  14 H :    0.286098
  15 O :   -0.821215
  16 F :   -0.237567
  17 H :    0.076690
  18 H :    0.384210
Sum of atomic charges:    0.0000000

LOEWDIN ATOMIC CHARGES
----------------------
   0 C :    0.296159
   1 C :    0.298288
   2 C :    0.286554
   3 H :   -0.155540
   4 H :   -0.163885
   5 C :   -0.839891
   6 C :   -0.305110
   7 C :    0.569757
   8 N :    0.851526
   9 H :   -0.241487
  10 H :   -0.610790
  11 H :   -0.296439
  12 H :   -0.290985
  13 H :   -0.144913
  14 H :   -0.128528
  15 O :    0.434928
  16 F :    0.736534
  17 H :   -0.157624
  18 H :   -0.138553

  Mayer bond orders larger than 0.100000
B(  0-C ,  1-C ) :   0.7826 B(  0-C ,  6-C ) :   0.4089 B(  0-C , 17-H ) :   1.0385
B(  0-C , 18-H ) :   0.9760 B(  1-C ,  2-C ) :   0.8526 B(  1-C ,  5-C ) :   0.1682
B(  1-C ,  6-C ) :   0.1352 B(  1-C , 13-H ) :   1.0080 B(  1-C , 14-H ) :   0.8830
B(  2-C ,  3-H ) :   0.9147 B(  2-C ,  4-H ) :   0.9791 B(  2-C ,  5-C ) :   0.7484
B(  5-C , 15-O ) :   1.4747 B(  5-C , 16-F ) :   0.8173 B(  6-C ,  7-C ) :   0.6239
B(  6-C ,  8-N ) :   0.5158 B(  6-C ,  9-H ) :  -0.1738 B(  6-C , 11-H ) :  -0.1736
B(  6-C , 18-H ) :  -0.1112 B(  7-C ,  8-N ) :  -0.1651 B(  7-C , 11-H ) :   1.5447
B(  7-C , 12-H ) :   0.5936 B(  7-C , 18-H ) :  -0.1147 B(  8-N ,  9-H ) :   1.3342
B(  8-N , 10-H ) :   0.9841 B( 10-H , 16-F ) :  -0.1804

E(0)                                       ...   -461.903571734
E(0)                                       ...   -461.903571734
E(CORR)(strong-pairs)                      ...     -1.762839337
E(CORR)(weak-pairs)                        ...     -0.002225550
E(CORR)(corrected)                         ...     -1.765064887
E(TOT)                                     ...   -463.668636621
E(CCSD(T))                                 ...   -463.742483529
FINAL SINGLE POINT ENERGY      -463.742483529128

DIPOLE MOMENT
-------------
                                X             Y             Z
Electronic contribution:      7.41763      -3.59995       7.96760
Nuclear contribution   :     -7.21688       3.18902      -8.52197
                        -----------------------------------------
Total Dipole Moment    :      0.20075      -0.41093      -0.55437
                        -----------------------------------------
Magnitude (a.u.)       :      0.71867
Magnitude (Debye)      :      1.82672

Rotational constants in cm-1:     0.103917     0.036987     0.030872
Rotational constants in MHz :  3115.342573  1108.839114   925.506342

                             ****ORCA TERMINATED NORMALLY****
TOTAL RUN TIME: 0 days 1 hours 3 minutes 13 seconds 144 msec
