                         Program Version 5.0.0 -  RELEASE  -
|  1> !PBE D3BJ RIJCOSX def2-SVPD def2/J TightSCF
|  2> *xyz -1 1
|  3> C          4.26524        2.50052       -0.79589
|  4> C          4.98224        1.65026        0.24742
|  5> O          4.36806        1.38927        1.31371
|  6> O          6.12892        1.23351       -0.04562
|  7> H          4.90412        2.63966       -1.64287
|  8> H          4.02079        3.45265       -0.37328
|  9> H          3.36773        2.00584       -1.10356
| 10> *
| 11> %MaxCore 64000
| 12> %pal nprocs 8
| 13> end
| 14> %scf
| 15>   MaxIter 150
| 16> end
| 17>
| 18>
| 19>                          ****END OF INPUT****

CARTESIAN COORDINATES (ANGSTROEM)
---------------------------------
  C      4.265240    2.500520   -0.795890
  C      4.982240    1.650260    0.247420
  O      4.368060    1.389270    1.313710
  O      6.128920    1.233510   -0.045620
  H      4.904120    2.639660   -1.642870
  H      4.020790    3.452650   -0.373280
  H      3.367730    2.005840   -1.103560

 Total Charge           Charge          ....   -1
 Multiplicity           Mult            ....    1
 Number of Electrons    NEL             ....   32
 Basis Dimension        Dim             ....  110

ORBITAL ENERGIES
----------------

  NO   OCC          E(Eh)            E(eV)
   0   2.0000     -18.501846      -503.4608
   1   2.0000     -18.501004      -503.4379
   2   2.0000      -9.770751      -265.8757
   3   2.0000      -9.706735      -264.1337
   4   2.0000      -0.721496       -19.6329
   5   2.0000      -0.632317       -17.2062
   6   2.0000      -0.468603       -12.7513
   7   2.0000      -0.245861        -6.6902
   8   2.0000      -0.212369        -5.7789
   9   2.0000      -0.196310        -5.3419
  10   2.0000      -0.170248        -4.6327
  11   2.0000      -0.133615        -3.6358
  12   2.0000      -0.121354        -3.3022
  13   2.0000      -0.010647        -0.2897
  14   2.0000       0.002516         0.0685
  15   2.0000       0.021827         0.5939
  16   0.0000       0.156546         4.2598
  17   0.0000       0.197726         5.3804
  18   0.0000       0.199686         5.4337
  19   0.0000       0.224740         6.1155
  20   0.0000       0.242274         6.5926

MULLIKEN ATOMIC CHARGES
-----------------------
   0 C :    0.470423
   1 C :   -0.044316
   2 O :   -0.630737
   3 O :   -0.602901
   4 H :   -0.076241
   5 H :   -0.057583
   6 H :   -0.058645
Sum of atomic charges:   -1.0000000

LOEWDIN ATOMIC CHARGES
----------------------
   0 C :    0.139287
   1 C :   -0.358888
   2 O :   -0.327560
   3 O :   -0.323455
   4 H :   -0.047956
   5 H :   -0.041372
   6 H :   -0.040056

  Mayer bond orders larger than 0.100000
B(  0-C ,  1-C ) :   1.2801 B(  0-C ,  4-H ) :   0.8729 B(  0-C ,  5-H ) :   0.8186
B(  0-C ,  6-H ) :   0.8239 B(  1-C ,  2-O ) :   1.4948 B(  1-C ,  3-O ) :   1.4761
B(  1-C ,  4-H ) :   0.2552 B(  1-C ,  5-H ) :   0.1776 B(  1-C ,  6-H ) :   0.1722

Dispersion correction           -0.003679930
FINAL SINGLE POINT ENERGY      -228.123625325877

DIPOLE MOMENT
-------------
                                X             Y             Z
Electronic contribution:      1.73583      -2.05975       2.49922
Nuclear contribution   :     -2.34880       2.82033      -3.41655
                        -----------------------------------------
Total Dipole Moment    :     -0.61297       0.76058      -0.91733
                        -----------------------------------------
Magnitude (a.u.)       :      1.34004
Magnitude (Debye)      :      3.40611

Rotational constants in cm-1:     0.393413     0.334516     0.186969
Rotational constants in MHz : 11794.232386 10028.538646  5605.197050

                             ****ORCA TERMINATED NORMALLY****
TOTAL RUN TIME: 0 days 0 hours 0 minutes 2 seconds 751 msec
