                         Program Version 5.0.0 -  RELEASE  -
|  1> !PBE D3BJ RIJCOSX def2-SVPD def2/J TightSCF
|  2> *xyz 1 1
|  3> C          3.91385       -1.65829        3.01513
|  4> N          5.03927       -0.90115        2.49282
|  5> C          6.21038       -1.41726        2.17824
|  6> N          6.53591       -2.67712        2.55608
|  7> N          7.07675       -0.70082        1.47891
|  8> H          7.95464       -1.12155        1.20755
|  9> H          6.75616        0.10664        0.96028
| 10> H          4.84217        0.01761        2.11519
| 11> H          5.99388       -3.12692        3.28278
| 12> H          7.49844       -2.97548        2.46878
| 13> H          3.08844       -0.99893        3.18495
| 14> H          4.19412       -2.12366        3.93697
| 15> H          3.63051       -2.40965        2.30798
| 16> *
| 17> %MaxCore 64000
| 18> %pal nprocs 8
| 19> end
| 20> %scf
| 21>   MaxIter 150
| 22> end
| 23>
| 24>
| 25>                          ****END OF INPUT****

CARTESIAN COORDINATES (ANGSTROEM)
---------------------------------
  C      3.913850   -1.658290    3.015130
  N      5.039270   -0.901150    2.492820
  C      6.210380   -1.417260    2.178240
  N      6.535910   -2.677120    2.556080
  N      7.076750   -0.700820    1.478910
  H      7.954640   -1.121550    1.207550
  H      6.756160    0.106640    0.960280
  H      4.842170    0.017610    2.115190
  H      5.993880   -3.126920    3.282780
  H      7.498440   -2.975480    2.468780
  H      3.088440   -0.998930    3.184950
  H      4.194120   -2.123660    3.936970
  H      3.630510   -2.409650    2.307980

 Total Charge           Charge          ....    1
 Multiplicity           Mult            ....    1
 Number of Electrons    NEL             ....   40
 Basis Dimension        Dim             ....  164

ORBITAL ENERGIES
----------------

  NO   OCC          E(Eh)            E(eV)
   0   2.0000     -14.233268      -387.3069
   1   2.0000     -14.226995      -387.1362
   2   2.0000     -14.226265      -387.1164
   3   2.0000     -10.223745      -278.2023
   4   2.0000     -10.102164      -274.8938
   5   2.0000      -1.129772       -30.7427
   6   2.0000      -1.027139       -27.9499
   7   2.0000      -1.011274       -27.5182
   8   2.0000      -0.842088       -22.9144
   9   2.0000      -0.770946       -20.9785
  10   2.0000      -0.737665       -20.0729
  11   2.0000      -0.705430       -19.1957
  12   2.0000      -0.648876       -17.6568
  13   2.0000      -0.643743       -17.5171
  14   2.0000      -0.607341       -16.5266
  15   2.0000      -0.603994       -16.4355
  16   2.0000      -0.548767       -14.9327
  17   2.0000      -0.536839       -14.6081
  18   2.0000      -0.442767       -12.0483
  19   2.0000      -0.422638       -11.5006
  20   0.0000      -0.209053        -5.6886
  21   0.0000      -0.181267        -4.9325
  22   0.0000      -0.144023        -3.9191
  23   0.0000      -0.139524        -3.7966
  24   0.0000      -0.117718        -3.2033

MULLIKEN ATOMIC CHARGES
-----------------------
   0 C :    1.143946
   1 N :   -0.513566
   2 C :    1.343866
   3 N :   -0.024298
   4 N :   -0.020578
   5 H :   -0.051014
   6 H :   -0.058613
   7 H :   -0.239581
   8 H :   -0.066091
   9 H :   -0.111605
  10 H :   -0.331925
  11 H :   -0.048592
  12 H :   -0.021949
Sum of atomic charges:    1.0000000

LOEWDIN ATOMIC CHARGES
----------------------
   0 C :    0.253000
   1 N :    0.026745
   2 C :   -0.059780
   3 N :    0.294136
   4 N :    0.273520
   5 H :    0.038171
   6 H :    0.039864
   7 H :    0.057884
   8 H :    0.015954
   9 H :    0.033799
  10 H :    0.015097
  11 H :    0.000206
  12 H :    0.011405

  Mayer bond orders larger than 0.100000
B(  0-C ,  1-N ) :   0.9691 B(  0-C ,  7-H ) :  -0.1161 B(  0-C , 10-H ) :   0.8053
B(  0-C , 11-H ) :   0.8034 B(  0-C , 12-H ) :   0.8157 B(  1-N ,  2-C ) :   1.0071
B(  1-N ,  3-N ) :   0.2698 B(  1-N ,  4-N ) :   0.2668 B(  1-N ,  7-H ) :   1.2888
B(  1-N , 10-H ) :   0.1889 B(  1-N , 11-H ) :   0.1674 B(  1-N , 12-H ) :   0.1354
B(  2-C ,  3-N ) :   0.9126 B(  2-C ,  4-N ) :   0.8228 B(  2-C ,  5-H ) :  -0.1133
B(  2-C ,  6-H ) :  -0.1536 B(  2-C ,  7-H ) :  -0.2386 B(  2-C ,  8-H ) :  -0.1430
B(  2-C ,  9-H ) :  -0.1202 B(  3-N ,  4-N ) :   0.1800 B(  3-N ,  8-H ) :   1.0936
B(  3-N ,  9-H ) :   1.2049 B(  4-N ,  5-H ) :   1.1617 B(  4-N ,  6-H ) :   1.1778
B(  5-H ,  6-H ) :  -0.1592 B(  8-H ,  9-H ) :  -0.1711

Dispersion correction           -0.009126013
FINAL SINGLE POINT ENERGY      -244.628075877514

DIPOLE MOMENT
-------------
                                X             Y             Z
Electronic contribution:      2.42013       0.85041      -0.95890
Nuclear contribution   :     -2.01473      -0.74897       0.69347
                        -----------------------------------------
Total Dipole Moment    :      0.40540       0.10144      -0.26543
                        -----------------------------------------
Magnitude (a.u.)       :      0.49507
Magnitude (Debye)      :      1.25836

Rotational constants in cm-1:     0.313249     0.134439     0.096258
Rotational constants in MHz :  9390.961986  4030.377472  2885.728233

                             ****ORCA TERMINATED NORMALLY****
TOTAL RUN TIME: 0 days 0 hours 0 minutes 4 seconds 376 msec
