                         Program Version 5.0.0 -  RELEASE  -
|  1> !PBE D3BJ RIJCOSX def2-SVPD def2/J TightSCF
|  2> *xyz 0 1
|  3> C          4.26524        2.50052       -0.79589
|  4> C          4.98224        1.65026        0.24742
|  5> F          4.36806        1.38927        1.31371
|  6> O          6.12892        1.23351       -0.04562
|  7> H          4.90412        2.63966       -1.64287
|  8> H          4.02079        3.45265       -0.37328
|  9> H          3.36773        2.00584       -1.10356
| 10> *
| 11> %MaxCore 64000
| 12> %pal nprocs 8
| 13> end
| 14> %scf
| 15>   MaxIter 150
| 16> end
| 17>
| 18>
| 19>                          ****END OF INPUT****

CARTESIAN COORDINATES (ANGSTROEM)
---------------------------------
  C      4.265240    2.500520   -0.795890
  C      4.982240    1.650260    0.247420
  F      4.368060    1.389270    1.313710
  O      6.128920    1.233510   -0.045620
  H      4.904120    2.639660   -1.642870
  H      4.020790    3.452650   -0.373280
  H      3.367730    2.005840   -1.103560

 Total Charge           Charge          ....    0
 Multiplicity           Mult            ....    1
 Number of Electrons    NEL             ....   32
 Basis Dimension        Dim             ....  110

ORBITAL ENERGIES
----------------

  NO   OCC          E(Eh)            E(eV)
   0   2.0000     -24.347203      -662.5211
   1   2.0000     -18.774249      -510.8733
   2   2.0000     -10.072127      -274.0765
   3   2.0000      -9.922758      -270.0120
   4   2.0000      -1.205969       -32.8161
   5   2.0000      -0.941576       -25.6216
   6   2.0000      -0.698519       -19.0077
   7   2.0000      -0.595717       -16.2103
   8   2.0000      -0.493786       -13.4366
   9   2.0000      -0.486395       -13.2355
  10   2.0000      -0.446791       -12.1578
  11   2.0000      -0.399619       -10.8742
  12   2.0000      -0.388039       -10.5591
  13   2.0000      -0.353774        -9.6267
  14   2.0000      -0.320355        -8.7173
  15   2.0000      -0.247685        -6.7398
  16   0.0000      -0.070790        -1.9263
  17   0.0000      -0.005504        -0.1498
  18   0.0000       0.043292         1.1780
  19   0.0000       0.066166         1.8005
  20   0.0000       0.073486         1.9996

MULLIKEN ATOMIC CHARGES
-----------------------
   0 C :    0.444915
   1 C :    0.352526
   2 F :   -0.325605
   3 O :   -0.429026
   4 H :   -0.060929
   5 H :    0.008258
   6 H :    0.009861
Sum of atomic charges:    0.0000000

LOEWDIN ATOMIC CHARGES
----------------------
   0 C :    0.212094
   1 C :   -0.065350
   2 F :   -0.019156
   3 O :   -0.121305
   4 H :   -0.001381
   5 H :   -0.003187
   6 H :   -0.001715

  Mayer bond orders larger than 0.100000
B(  0-C ,  1-C ) :   1.2700 B(  0-C ,  4-H ) :   0.8797 B(  0-C ,  5-H ) :   0.7989
B(  0-C ,  6-H ) :   0.8019 B(  1-C ,  2-F ) :   0.7940 B(  1-C ,  3-O ) :   1.8221
B(  1-C ,  4-H ) :   0.2180 B(  1-C ,  5-H ) :   0.1386 B(  1-C ,  6-H ) :   0.1352

Dispersion correction           -0.003401061
FINAL SINGLE POINT ENERGY      -252.642273232447

DIPOLE MOMENT
-------------
                                X             Y             Z
Electronic contribution:      0.80339      -2.54264       4.33520
Nuclear contribution   :     -1.76261       3.13449      -4.58927
                        -----------------------------------------
Total Dipole Moment    :     -0.95922       0.59185      -0.25408
                        -----------------------------------------
Magnitude (a.u.)       :      1.15539
Magnitude (Debye)      :      2.93678

Rotational constants in cm-1:     0.370628     0.320375     0.177409
Rotational constants in MHz : 11111.155899  9604.607061  5318.597912

                             ****ORCA TERMINATED NORMALLY****
TOTAL RUN TIME: 0 days 0 hours 0 minutes 2 seconds 768 msec
