                         Program Version 5.0.0 -  RELEASE  -
|  1> !PBE D3BJ RIJCOSX def2-SVPD def2/J TightSCF
|  2> *xyz 0 1
|  3> C          3.91385       -1.65829        3.01513
|  4> C          5.03927       -0.90115        2.49282
|  5> C          6.21038       -1.41726        2.17824
|  6> N          6.53591       -2.67712        2.55608
|  7> N          7.07675       -0.70082        1.47891
|  8> H          7.95464       -1.12155        1.20755
|  9> H          6.75616        0.10664        0.96028
| 10> H          4.84217        0.01761        2.11519
| 11> H          5.99388       -3.12692        3.28278
| 12> H          7.49844       -2.97548        2.46878
| 13> H          3.08844       -0.99893        3.18495
| 14> H          4.19412       -2.12366        3.93697
| 15> H          3.63051       -2.40965        2.30798
| 16> *
| 17> %MaxCore 64000
| 18> %pal nprocs 8
| 19> end
| 20> %scf
| 21>   MaxIter 150
| 22> end
| 23>
| 24>
| 25>                          ****END OF INPUT****

CARTESIAN COORDINATES (ANGSTROEM)
---------------------------------
  C      3.913850   -1.658290    3.015130
  C      5.039270   -0.901150    2.492820
  C      6.210380   -1.417260    2.178240
  N      6.535910   -2.677120    2.556080
  N      7.076750   -0.700820    1.478910
  H      7.954640   -1.121550    1.207550
  H      6.756160    0.106640    0.960280
  H      4.842170    0.017610    2.115190
  H      5.993880   -3.126920    3.282780
  H      7.498440   -2.975480    2.468780
  H      3.088440   -0.998930    3.184950
  H      4.194120   -2.123660    3.936970
  H      3.630510   -2.409650    2.307980

 Total Charge           Charge          ....    0
 Multiplicity           Mult            ....    1
 Number of Electrons    NEL             ....   40
 Basis Dimension        Dim             ....  164

ORBITAL ENERGIES
----------------

  NO   OCC          E(Eh)            E(eV)
   0   2.0000     -14.002154      -381.0180
   1   2.0000     -13.998237      -380.9114
   2   2.0000      -9.928772      -270.1756
   3   2.0000      -9.860411      -268.3154
   4   2.0000      -9.819619      -267.2054
   5   2.0000      -0.869675       -23.6651
   6   2.0000      -0.785506       -21.3747
   7   2.0000      -0.676316       -18.4035
   8   2.0000      -0.588429       -16.0120
   9   2.0000      -0.526788       -14.3346
  10   2.0000      -0.488057       -13.2807
  11   2.0000      -0.456123       -12.4117
  12   2.0000      -0.425533       -11.5793
  13   2.0000      -0.377917       -10.2837
  14   2.0000      -0.363115        -9.8809
  15   2.0000      -0.329055        -8.9540
  16   2.0000      -0.316232        -8.6051
  17   2.0000      -0.295981        -8.0541
  18   2.0000      -0.223660        -6.0861
  19   2.0000      -0.129260        -3.5173
  20   0.0000      -0.005861        -0.1595
  21   0.0000       0.022395         0.6094
  22   0.0000       0.034882         0.9492
  23   0.0000       0.046579         1.2675
  24   0.0000       0.063114         1.7174

MULLIKEN ATOMIC CHARGES
-----------------------
   0 C :    0.848427
   1 C :   -0.715610
   2 C :    0.900082
   3 N :   -0.032202
   4 N :    0.067229
   5 H :   -0.172620
   6 H :   -0.074677
   7 H :   -0.299603
   8 H :   -0.066329
   9 H :   -0.259294
  10 H :   -0.116614
  11 H :   -0.017260
  12 H :   -0.061529
Sum of atomic charges:   -0.0000000

LOEWDIN ATOMIC CHARGES
----------------------
   0 C :    0.083813
   1 C :   -0.070138
   2 C :   -0.243502
   3 N :    0.214643
   4 N :    0.185608
   5 H :   -0.015203
   6 H :    0.003702
   7 H :   -0.052697
   8 H :   -0.016932
   9 H :   -0.018420
  10 H :   -0.018783
  11 H :   -0.031786
  12 H :   -0.020305

  Mayer bond orders larger than 0.100000
B(  0-C ,  1-C ) :   1.2223 B(  0-C ,  7-H ) :   0.2213 B(  0-C , 10-H ) :   0.7483
B(  0-C , 11-H ) :   0.6851 B(  0-C , 12-H ) :   0.7317 B(  1-C ,  2-C ) :   1.4506
B(  1-C ,  3-N ) :   0.2973 B(  1-C ,  4-N ) :   0.3630 B(  1-C ,  7-H ) :   1.0164
B(  1-C , 10-H ) :   0.3011 B(  1-C , 11-H ) :   0.3007 B(  1-C , 12-H ) :   0.1781
B(  2-C ,  3-N ) :   0.8712 B(  2-C ,  4-N ) :   0.8371 B(  2-C ,  6-H ) :  -0.1031
B(  2-C ,  7-H ) :   0.1463 B(  2-C ,  9-H ) :  -0.1434 B(  3-N ,  4-N ) :   0.1185
B(  3-N ,  8-H ) :   1.0504 B(  3-N ,  9-H ) :   1.2868 B(  4-N ,  5-H ) :   1.1369
B(  4-N ,  6-H ) :   1.1654 B(  5-H ,  6-H ) :  -0.1519 B(  7-H , 10-H ) :  -0.1010
B(  8-H ,  9-H ) :  -0.1611 B( 10-H , 11-H ) :   0.1069

Dispersion correction           -0.009513793
FINAL SINGLE POINT ENERGY      -228.167217116733

DIPOLE MOMENT
-------------
                                X             Y             Z
Electronic contribution:      2.97374       0.37198      -1.01580
Nuclear contribution   :     -2.16157      -0.63191       0.72436
                        -----------------------------------------
Total Dipole Moment    :      0.81218      -0.25993      -0.29145
                        -----------------------------------------
Magnitude (a.u.)       :      0.90119
Magnitude (Debye)      :      2.29063

Rotational constants in cm-1:     0.318470     0.135474     0.097247
Rotational constants in MHz :  9547.495553  4061.405016  2915.385882

                             ****ORCA TERMINATED NORMALLY****
TOTAL RUN TIME: 0 days 0 hours 0 minutes 4 seconds 539 msec
