                         Program Version 5.0.0 -  RELEASE  -
|  1> !PBE D3BJ RIJCOSX def2-SVPD def2/J TightSCF
|  2> *xyz 0 1
|  3> C          4.26524        2.50052       -0.79589
|  4> C          4.98224        1.65026        0.24742
|  5> O          4.36806        1.38927        1.31371
|  6> F          6.12892        1.23351       -0.04562
|  7> H          4.90412        2.63966       -1.64287
|  8> H          4.02079        3.45265       -0.37328
|  9> H          3.36773        2.00584       -1.10356
| 10> *
| 11> %MaxCore 64000
| 12> %pal nprocs 8
| 13> end
| 14> %scf
| 15>   MaxIter 150
| 16> end
| 17>
| 18>
| 19>                          ****END OF INPUT****

CARTESIAN COORDINATES (ANGSTROEM)
---------------------------------
  C      4.265240    2.500520   -0.795890
  C      4.982240    1.650260    0.247420
  O      4.368060    1.389270    1.313710
  F      6.128920    1.233510   -0.045620
  H      4.904120    2.639660   -1.642870
  H      4.020790    3.452650   -0.373280
  H      3.367730    2.005840   -1.103560

 Total Charge           Charge          ....    0
 Multiplicity           Mult            ....    1
 Number of Electrons    NEL             ....   32
 Basis Dimension        Dim             ....  110

ORBITAL ENERGIES
----------------

  NO   OCC          E(Eh)            E(eV)
   0   2.0000     -24.347721      -662.5352
   1   2.0000     -18.774244      -510.8731
   2   2.0000     -10.072625      -274.0901
   3   2.0000      -9.922995      -270.0184
   4   2.0000      -1.208120       -32.8746
   5   2.0000      -0.939665       -25.5696
   6   2.0000      -0.698983       -19.0203
   7   2.0000      -0.596790       -16.2395
   8   2.0000      -0.494464       -13.4550
   9   2.0000      -0.487533       -13.2664
  10   2.0000      -0.447634       -12.1807
  11   2.0000      -0.400561       -10.8998
  12   2.0000      -0.387272       -10.5382
  13   2.0000      -0.353412        -9.6168
  14   2.0000      -0.316632        -8.6160
  15   2.0000      -0.249544        -6.7904
  16   0.0000      -0.073628        -2.0035
  17   0.0000      -0.005575        -0.1517
  18   0.0000       0.043342         1.1794
  19   0.0000       0.066613         1.8126
  20   0.0000       0.070753         1.9253

MULLIKEN ATOMIC CHARGES
-----------------------
   0 C :    0.431511
   1 C :    0.334824
   2 O :   -0.449952
   3 F :   -0.299228
   4 H :   -0.042633
   5 H :    0.011667
   6 H :    0.013811
Sum of atomic charges:    0.0000000

LOEWDIN ATOMIC CHARGES
----------------------
   0 C :    0.212726
   1 C :   -0.064436
   2 O :   -0.122758
   3 F :   -0.019053
   4 H :   -0.015030
   5 H :    0.003920
   6 H :    0.004631

  Mayer bond orders larger than 0.100000
B(  0-C ,  1-C ) :   1.2873 B(  0-C ,  4-H ) :   0.8761 B(  0-C ,  5-H ) :   0.7967
B(  0-C ,  6-H ) :   0.8018 B(  1-C ,  2-O ) :   1.8026 B(  1-C ,  3-F ) :   0.8375
B(  1-C ,  4-H ) :   0.1673 B(  1-C ,  5-H ) :   0.1532 B(  1-C ,  6-H ) :   0.1464

Dispersion correction           -0.003400962
FINAL SINGLE POINT ENERGY      -252.641485719516

DIPOLE MOMENT
-------------
                                X             Y             Z
Electronic contribution:      3.64153      -2.79471       2.14711
Nuclear contribution   :     -3.58210       3.29544      -3.18468
                        -----------------------------------------
Total Dipole Moment    :      0.05943       0.50073      -1.03757
                        -----------------------------------------
Magnitude (a.u.)       :      1.15361
Magnitude (Debye)      :      2.93224

Rotational constants in cm-1:     0.368075     0.322590     0.177495
Rotational constants in MHz : 11034.605942  9670.991558  5321.154504

                             ****ORCA TERMINATED NORMALLY****
TOTAL RUN TIME: 0 days 0 hours 0 minutes 2 seconds 753 msec
