                         Program Version 5.0.0 -  RELEASE  -
|  1> !PBE D3BJ RIJCOSX def2-SVPD def2/J TightSCF
|  2> *xyz 0 1
|  3> C          3.91385       -1.65829        3.01513
|  4> N          5.03927       -0.90115        2.49282
|  5> C          6.21038       -1.41726        2.17824
|  6> C          6.53591       -2.67712        2.55608
|  7> N          7.07675       -0.70082        1.47891
|  8> H          7.95464       -1.12155        1.20755
|  9> H          6.75616        0.10664        0.96028
| 10> H          4.84217        0.01761        2.11519
| 11> H          5.99388       -3.12692        3.28278
| 12> H          7.49844       -2.97548        2.46878
| 13> H          3.08844       -0.99893        3.18495
| 14> H          4.19412       -2.12366        3.93697
| 15> H          3.63051       -2.40965        2.30798
| 16> *
| 17> %MaxCore 64000
| 18> %pal nprocs 8
| 19> end
| 20> %scf
| 21>   MaxIter 150
| 22> end
| 23>
| 24>
| 25>                          ****END OF INPUT****

CARTESIAN COORDINATES (ANGSTROEM)
---------------------------------
  C      3.913850   -1.658290    3.015130
  N      5.039270   -0.901150    2.492820
  C      6.210380   -1.417260    2.178240
  C      6.535910   -2.677120    2.556080
  N      7.076750   -0.700820    1.478910
  H      7.954640   -1.121550    1.207550
  H      6.756160    0.106640    0.960280
  H      4.842170    0.017610    2.115190
  H      5.993880   -3.126920    3.282780
  H      7.498440   -2.975480    2.468780
  H      3.088440   -0.998930    3.184950
  H      4.194120   -2.123660    3.936970
  H      3.630510   -2.409650    2.307980

 Total Charge           Charge          ....    0
 Multiplicity           Mult            ....    1
 Number of Electrons    NEL             ....   40
 Basis Dimension        Dim             ....  164

ORBITAL ENERGIES
----------------

  NO   OCC          E(Eh)            E(eV)
   0   2.0000     -14.008919      -381.2021
   1   2.0000     -14.002201      -381.0193
   2   2.0000      -9.936277      -270.3798
   3   2.0000      -9.919538      -269.9244
   4   2.0000      -9.810974      -266.9702
   5   2.0000      -0.883546       -24.0425
   6   2.0000      -0.803830       -21.8733
   7   2.0000      -0.647362       -17.6156
   8   2.0000      -0.624862       -17.0034
   9   2.0000      -0.514009       -13.9869
  10   2.0000      -0.500277       -13.6132
  11   2.0000      -0.469298       -12.7703
  12   2.0000      -0.406032       -11.0487
  13   2.0000      -0.400699       -10.9036
  14   2.0000      -0.368749       -10.0342
  15   2.0000      -0.340114        -9.2550
  16   2.0000      -0.326144        -8.8748
  17   2.0000      -0.318650        -8.6709
  18   2.0000      -0.211665        -5.7597
  19   2.0000      -0.136193        -3.7060
  20   0.0000      -0.006815        -0.1855
  21   0.0000       0.019095         0.5196
  22   0.0000       0.032864         0.8943
  23   0.0000       0.042901         1.1674
  24   0.0000       0.062265         1.6943

MULLIKEN ATOMIC CHARGES
-----------------------
   0 C :    1.118149
   1 N :   -0.472934
   2 C :    0.618049
   3 C :    0.428182
   4 N :    0.030363
   5 H :   -0.053475
   6 H :   -0.180247
   7 H :   -0.384344
   8 H :   -0.138191
   9 H :   -0.552312
  10 H :   -0.408867
  11 H :    0.039697
  12 H :   -0.044072
Sum of atomic charges:   -0.0000000

LOEWDIN ATOMIC CHARGES
----------------------
   0 C :    0.203365
   1 N :   -0.040655
   2 C :   -0.257796
   3 C :    0.163318
   4 N :    0.191142
   5 H :    0.005242
   6 H :   -0.012111
   7 H :    0.015144
   8 H :   -0.119529
   9 H :   -0.107872
  10 H :   -0.013683
  11 H :   -0.016093
  12 H :   -0.010472

  Mayer bond orders larger than 0.100000
B(  0-C ,  1-N ) :   0.9515 B(  0-C ,  7-H ) :  -0.1327 B(  0-C , 10-H ) :   0.8319
B(  0-C , 11-H ) :   0.7961 B(  0-C , 12-H ) :   0.8140 B(  1-N ,  2-C ) :   1.0074
B(  1-N ,  3-C ) :   0.3870 B(  1-N ,  4-N ) :   0.1673 B(  1-N ,  7-H ) :   1.3714
B(  1-N , 10-H ) :   0.1767 B(  1-N , 11-H ) :   0.1170 B(  1-N , 12-H ) :   0.1612
B(  2-C ,  3-C ) :   1.6444 B(  2-C ,  4-N ) :   0.8685 B(  2-C ,  7-H ) :  -0.2503
B(  2-C ,  8-H ) :   0.2830 B(  2-C ,  9-H ) :   0.1994 B(  3-C ,  4-N ) :   0.2627
B(  3-C ,  8-H ) :   0.7052 B(  3-C ,  9-H ) :   0.8284 B(  4-N ,  5-H ) :   1.1328
B(  4-N ,  6-H ) :   1.2109 B(  5-H ,  6-H ) :  -0.1527 B(  8-H ,  9-H ) :   0.1197

Dispersion correction           -0.009496819
FINAL SINGLE POINT ENERGY      -228.156507599858

DIPOLE MOMENT
-------------
                                X             Y             Z
Electronic contribution:      1.49772       1.99189      -1.14637
Nuclear contribution   :     -1.85843      -0.99162       0.73717
                        -----------------------------------------
Total Dipole Moment    :     -0.36071       1.00027      -0.40920
                        -----------------------------------------
Magnitude (a.u.)       :      1.13934
Magnitude (Debye)      :      2.89597

Rotational constants in cm-1:     0.336495     0.135025     0.098658
Rotational constants in MHz : 10087.870488  4047.943278  2957.678786

                             ****ORCA TERMINATED NORMALLY****
TOTAL RUN TIME: 0 days 0 hours 0 minutes 4 seconds 521 msec
