                         Program Version 5.0.0 -  RELEASE  -
|  1> !PBE D3BJ RIJCOSX def2-SVPD def2/J TightSCF
|  2> *xyz 0 1
|  3> C          3.91385       -1.65829        3.01513
|  4> N          5.03927       -0.90115        2.49282
|  5> C          6.21038       -1.41726        2.17824
|  6> N          6.53591       -2.67712        2.55608
|  7> C          7.07675       -0.70082        1.47891
|  8> H          7.95464       -1.12155        1.20755
|  9> H          6.75616        0.10664        0.96028
| 10> H          4.84217        0.01761        2.11519
| 11> H          5.99388       -3.12692        3.28278
| 12> H          7.49844       -2.97548        2.46878
| 13> H          3.08844       -0.99893        3.18495
| 14> H          4.19412       -2.12366        3.93697
| 15> H          3.63051       -2.40965        2.30798
| 16> *
| 17> %MaxCore 64000
| 18> %pal nprocs 8
| 19> end
| 20> %scf
| 21>   MaxIter 150
| 22> end
| 23>
| 24>
| 25>                          ****END OF INPUT****

CARTESIAN COORDINATES (ANGSTROEM)
---------------------------------
  C      3.913850   -1.658290    3.015130
  N      5.039270   -0.901150    2.492820
  C      6.210380   -1.417260    2.178240
  N      6.535910   -2.677120    2.556080
  C      7.076750   -0.700820    1.478910
  H      7.954640   -1.121550    1.207550
  H      6.756160    0.106640    0.960280
  H      4.842170    0.017610    2.115190
  H      5.993880   -3.126920    3.282780
  H      7.498440   -2.975480    2.468780
  H      3.088440   -0.998930    3.184950
  H      4.194120   -2.123660    3.936970
  H      3.630510   -2.409650    2.307980

 Total Charge           Charge          ....    0
 Multiplicity           Mult            ....    1
 Number of Electrons    NEL             ....   40
 Basis Dimension        Dim             ....  164

ORBITAL ENERGIES
----------------

  NO   OCC          E(Eh)            E(eV)
   0   2.0000     -14.004354      -381.0778
   1   2.0000     -14.001016      -380.9870
   2   2.0000      -9.933824      -270.3131
   3   2.0000      -9.927353      -270.1370
   4   2.0000      -9.807109      -266.8650
   5   2.0000      -0.878723       -23.9113
   6   2.0000      -0.797449       -21.6997
   7   2.0000      -0.671361       -18.2687
   8   2.0000      -0.597404       -16.2562
   9   2.0000      -0.544438       -14.8149
  10   2.0000      -0.481960       -13.1148
  11   2.0000      -0.443879       -12.0786
  12   2.0000      -0.429014       -11.6741
  13   2.0000      -0.407815       -11.0972
  14   2.0000      -0.362746        -9.8708
  15   2.0000      -0.346194        -9.4204
  16   2.0000      -0.333923        -9.0865
  17   2.0000      -0.314739        -8.5645
  18   2.0000      -0.216483        -5.8908
  19   2.0000      -0.132006        -3.5921
  20   0.0000      -0.007191        -0.1957
  21   0.0000       0.025599         0.6966
  22   0.0000       0.029643         0.8066
  23   0.0000       0.040425         1.1000
  24   0.0000       0.063744         1.7346

MULLIKEN ATOMIC CHARGES
-----------------------
   0 C :    1.135564
   1 N :   -0.472729
   2 C :    0.786089
   3 N :    0.027986
   4 C :    0.307107
   5 H :   -0.350335
   6 H :   -0.318706
   7 H :   -0.285372
   8 H :   -0.179994
   9 H :   -0.111481
  10 H :   -0.377817
  11 H :   -0.105484
  12 H :   -0.054828
Sum of atomic charges:    0.0000000

LOEWDIN ATOMIC CHARGES
----------------------
   0 C :    0.196707
   1 N :   -0.035626
   2 C :   -0.251163
   3 N :    0.211860
   4 C :    0.136532
   5 H :   -0.102938
   6 H :   -0.101366
   7 H :    0.030270
   8 H :   -0.031246
   9 H :    0.000637
  10 H :   -0.012010
  11 H :   -0.024808
  12 H :   -0.016850

  Mayer bond orders larger than 0.100000
B(  0-C ,  1-N ) :   0.9691 B(  0-C ,  7-H ) :  -0.1236 B(  0-C , 10-H ) :   0.7965
B(  0-C , 11-H ) :   0.8042 B(  0-C , 12-H ) :   0.8178 B(  1-N ,  2-C ) :   1.0348
B(  1-N ,  3-N ) :   0.1933 B(  1-N ,  4-C ) :   0.2688 B(  1-N ,  7-H ) :   1.2600
B(  1-N , 10-H ) :   0.1849 B(  1-N , 11-H ) :   0.1882 B(  1-N , 12-H ) :   0.1549
B(  2-C ,  3-N ) :   0.8760 B(  2-C ,  4-C ) :   1.3808 B(  2-C ,  5-H ) :   0.1784
B(  2-C ,  6-H ) :   0.1158 B(  2-C ,  7-H ) :  -0.1845 B(  3-N ,  4-C ) :   0.2413
B(  3-N ,  8-H ) :   1.1030 B(  3-N ,  9-H ) :   1.1698 B(  4-C ,  5-H ) :   0.7860
B(  4-C ,  6-H ) :   0.8587 B(  5-H ,  6-H ) :   0.1259 B(  8-H ,  9-H ) :  -0.1680

Dispersion correction           -0.009455520
FINAL SINGLE POINT ENERGY      -228.154324618578

DIPOLE MOMENT
-------------
                                X             Y             Z
Electronic contribution:      0.96622       0.11608       0.01156
Nuclear contribution   :     -1.74889      -0.59133       0.51900
                        -----------------------------------------
Total Dipole Moment    :     -0.78267      -0.47526       0.53055
                        -----------------------------------------
Magnitude (a.u.)       :      1.05826
Magnitude (Debye)      :      2.68989

Rotational constants in cm-1:     0.319878     0.140238     0.099847
Rotational constants in MHz :  9589.703832  4204.215525  2993.343846

                             ****ORCA TERMINATED NORMALLY****
TOTAL RUN TIME: 0 days 0 hours 0 minutes 4 seconds 552 msec
