                         Program Version 5.0.0 -  RELEASE  -
|  1> !PBE D3BJ RIJCOSX def2-SVPD def2/J TightSCF xyzfile
|  2>
|  3> *xyzfile 0 1 D4.xyz
|  4>
|  5> %MaxCore 64000
|  6>
|  7> %pal nprocs 4
|  8> end
|  9>
| 10> %scf
| 11>   MaxIter 150
| 12> end
| 13>
| 14>
| 15>                          ****END OF INPUT****

CARTESIAN COORDINATES (ANGSTROEM)
---------------------------------
  C      3.913853   -1.658291    3.015134
  C      5.039266   -0.901154    2.492821
  C      4.084215    1.742081   -2.114724
  C      4.265245    2.500518   -0.795890
  H      4.868534    3.392674   -0.981134
  H      3.307640    2.824571   -0.387809
  C      4.982240    1.650257    0.247422
  C      6.210384   -1.417261    2.178244
  N      6.535913   -2.677122    2.556078
  N      7.076754   -0.700820    1.478906
  H      7.954643   -1.121554    1.207554
  H      6.756161    0.106637    0.960278
  H      4.842168    0.017609    2.115191
  H      5.993876   -3.126918    3.282784
  H      7.498441   -2.975482    2.468776
  O      4.368065    1.389270    1.313706
  F      6.128919    1.233512   -0.045620
  C      3.139159   -2.376572    1.910609
  H      3.267235   -0.939401    3.520693
  H      4.247195   -2.355095    3.790065
  C      1.997274    0.430918   -1.399218
  C      3.412746    0.376886   -1.965497
  H      4.047407   -0.246590   -1.326706
  H      3.390774   -0.118719   -2.942839
  H      5.068475    1.598504   -2.565728
  H      3.503356    2.363939   -2.804565
  C      2.399946   -1.389579    1.009490
  H      2.440750   -3.087118    2.362976
  H      3.844475   -2.970462    1.318677
  C      2.070177   -1.936705   -0.372401
  H      1.481611   -1.061542    1.509912
  H      3.008628   -0.490001    0.897451
  C      1.322238   -0.935775   -1.256413
  H      1.472747   -2.850902   -0.283997
  H      3.003539   -2.234041   -0.862535
  H      1.376444    1.058920   -2.047420
  H      2.015341    0.929780   -0.426535
  H      0.316648   -0.787213   -0.848278
  H      1.185611   -1.379252   -2.248613

 Total Charge           Charge          ....    0
 Multiplicity           Mult            ....    1
 Number of Electrons    NEL             ....  126
 Basis Dimension        Dim             ....  510

ORBITAL ENERGIES
----------------

  NO   OCC          E(Eh)            E(eV)
   0   2.0000     -24.370802      -663.1632
   1   2.0000     -18.783492      -511.1248
   2   2.0000     -13.987706      -380.6248
   3   2.0000     -13.977981      -380.3602
   4   2.0000     -10.078029      -274.2371
   5   2.0000      -9.930635      -270.2263
   6   2.0000      -9.916777      -269.8492
   7   2.0000      -9.913367      -269.7564
   8   2.0000      -9.900617      -269.4095
   9   2.0000      -9.890639      -269.1380
  10   2.0000      -9.884891      -268.9816
  11   2.0000      -9.876590      -268.7557
  12   2.0000      -9.865955      -268.4663
  13   2.0000      -9.861865      -268.3550
  14   2.0000      -9.856161      -268.1998
  15   2.0000      -9.789582      -266.3881
  16   2.0000      -1.232294       -33.5324
  17   2.0000      -0.953936       -25.9579
  18   2.0000      -0.854584       -23.2544
  19   2.0000      -0.771697       -20.9990
  20   2.0000      -0.752981       -20.4896
  21   2.0000      -0.720997       -19.6193
  22   2.0000      -0.694052       -18.8861
  23   2.0000      -0.667459       -18.1625
  24   2.0000      -0.638430       -17.3726
  25   2.0000      -0.617796       -16.8111
  26   2.0000      -0.599024       -16.3003
  27   2.0000      -0.566758       -15.4223
  28   2.0000      -0.540841       -14.7170
  29   2.0000      -0.529221       -14.4008
  30   2.0000      -0.515316       -14.0225
  31   2.0000      -0.508117       -13.8266
  32   2.0000      -0.494226       -13.4486
  33   2.0000      -0.481605       -13.1051
  34   2.0000      -0.477658       -12.9977
  35   2.0000      -0.459709       -12.5093
  36   2.0000      -0.434411       -11.8209
  37   2.0000      -0.430550       -11.7159
  38   2.0000      -0.428599       -11.6628
  39   2.0000      -0.409569       -11.1449
  40   2.0000      -0.401719       -10.9313
  41   2.0000      -0.390605       -10.6289
  42   2.0000      -0.380649       -10.3580
  43   2.0000      -0.365159        -9.9365
  44   2.0000      -0.363445        -9.8898
  45   2.0000      -0.356756        -9.7078
  46   2.0000      -0.348863        -9.4930
  47   2.0000      -0.341948        -9.3049
  48   2.0000      -0.334585        -9.1045
  49   2.0000      -0.328334        -8.9344
  50   2.0000      -0.319690        -8.6992
  51   2.0000      -0.317557        -8.6412
  52   2.0000      -0.300261        -8.1705
  53   2.0000      -0.293436        -7.9848
  54   2.0000      -0.292111        -7.9487
  55   2.0000      -0.285249        -7.7620
  56   2.0000      -0.269068        -7.3217
  57   2.0000      -0.263178        -7.1614
  58   2.0000      -0.258713        -7.0399
  59   2.0000      -0.254671        -6.9299
  60   2.0000      -0.221975        -6.0402
  61   2.0000      -0.209286        -5.6950
  62   2.0000      -0.114220        -3.1081
  63   0.0000      -0.083441        -2.2705
  64   0.0000      -0.010605        -0.2886
  65   0.0000       0.005331         0.1451
  66   0.0000       0.014033         0.3819
  67   0.0000       0.015341         0.4175

MULLIKEN ATOMIC CHARGES
-----------------------
   0 C :    0.603165
   1 C :    0.032524
   2 C :    0.424510
   3 C :    0.291358
   4 H :   -0.121539
   5 H :    0.137887
   6 C :    0.544583
   7 C :    0.773249
   8 N :   -0.019802
   9 N :    0.382789
  10 H :   -0.206110
  11 H :   -0.341668
  12 H :   -0.530068
  13 H :   -0.046216
  14 H :   -0.308231
  15 O :   -0.562248
  16 F :   -0.419990
  17 C :    0.385161
  18 H :    0.018191
  19 H :   -0.251670
  20 C :   -0.157824
  21 C :   -0.132727
  22 H :    0.028362
  23 H :   -0.171292
  24 H :   -0.012143
  25 H :   -0.122191
  26 C :    0.581233
  27 H :   -0.095896
  28 H :   -0.055976
  29 C :   -0.023145
  30 H :    0.050034
  31 H :   -0.938988
  32 C :    0.723943
  33 H :   -0.443452
  34 H :    0.165182
  35 H :   -0.437122
  36 H :    0.238979
  37 H :    0.023396
  38 H :   -0.006246
Sum of atomic charges:   -0.0000000

LOEWDIN ATOMIC CHARGES
----------------------
   0 C :   -0.046668
   1 C :   -0.010759
   2 C :   -0.023300
   3 C :    0.058000
   4 H :    0.037914
   5 H :    0.033185
   6 C :    0.018238
   7 C :   -0.210106
   8 N :    0.213102
   9 N :    0.213950
  10 H :   -0.012331
  11 H :   -0.084559
  12 H :   -0.138235
  13 H :   -0.022157
  14 H :   -0.022181
  15 O :   -0.093508
  16 F :   -0.002501
  17 C :   -0.028889
  18 H :    0.021602
  19 H :   -0.002767
  20 C :   -0.033655
  21 C :   -0.030539
  22 H :    0.016013
  23 H :    0.032628
  24 H :    0.024219
  25 H :    0.029444
  26 C :   -0.031226
  27 H :    0.015980
  28 H :    0.018508
  29 C :   -0.042595
  30 H :    0.036823
  31 H :   -0.020973
  32 C :   -0.033649
  33 H :    0.024051
  34 H :    0.017140
  35 H :    0.025497
  36 H :    0.010332
  37 H :    0.023721
  38 H :    0.020247

  Mayer bond orders larger than 0.100000
B(  0-C ,  1-C ) :   0.9138 B(  0-C ,  7-C ) :   0.1228 B(  0-C , 12-H ) :   0.7809
B(  0-C , 17-C ) :   1.0423 B(  0-C , 18-H ) :   0.6582 B(  0-C , 19-H ) :   0.5715
B(  0-C , 28-H ) :   0.1174 B(  1-C ,  7-C ) :   1.7777 B(  1-C ,  8-N ) :   0.2915
B(  1-C ,  9-N ) :   0.2888 B(  1-C , 13-H ) :  -0.1194 B(  1-C , 18-H ) :   0.3207
B(  1-C , 19-H ) :   0.3445 B(  2-C ,  3-C ) :   1.1804 B(  2-C ,  4-H ) :   0.1772
B(  2-C ,  6-C ) :   0.1055 B(  2-C , 21-C ) :   1.2494 B(  2-C , 22-H ) :   0.1092
B(  2-C , 24-H ) :   0.6447 B(  2-C , 25-H ) :   0.8021 B(  3-C ,  4-H ) :   0.6303
B(  3-C ,  5-H ) :   0.7543 B(  3-C ,  6-C ) :   1.1880 B(  3-C , 21-C ) :   0.1137
B(  3-C , 24-H ) :   0.1169 B(  3-C , 25-H ) :   0.1625 B(  4-H ,  6-C ) :   0.2789
B(  5-H ,  6-C ) :   0.1896 B(  6-C , 15-O ) :   1.7837 B(  6-C , 16-F ) :   0.5208
B(  7-C ,  8-N ) :   0.7754 B(  7-C ,  9-N ) :   0.7739 B(  7-C , 11-H ) :  -0.2967
B(  7-C , 12-H ) :   0.2913 B(  7-C , 14-H ) :  -0.1924 B(  7-C , 19-H ) :  -0.1204
B(  8-N ,  9-N ) :   0.1224 B(  8-N , 13-H ) :   1.0202 B(  8-N , 14-H ) :   1.3284
B(  9-N , 10-H ) :   1.1663 B(  9-N , 11-H ) :   1.1923 B( 10-H , 11-H ) :  -0.2026
B( 10-H , 12-H ) :  -0.1064 B( 12-H , 19-H ) :   0.1002 B( 12-H , 31-H ) :   0.1035
B( 13-H , 14-H ) :  -0.1972 B( 15-O , 16-F ) :   0.1486 B( 17-C , 19-H ) :   0.1187
B( 17-C , 26-C ) :   1.1281 B( 17-C , 27-H ) :   0.8238 B( 17-C , 28-H ) :   0.8815
B( 17-C , 30-H ) :   0.1700 B( 18-H , 19-H ) :  -0.1290 B( 20-C , 21-C ) :   1.2597
B( 20-C , 22-H ) :   0.1213 B( 20-C , 23-H ) :   0.1580 B( 20-C , 29-C ) :   0.1486
B( 20-C , 32-C ) :   1.1437 B( 20-C , 35-H ) :   1.0422 B( 20-C , 36-H ) :   0.7799
B( 20-C , 37-H ) :   0.2858 B( 20-C , 38-H ) :   0.1436 B( 21-C , 22-H ) :   0.8753
B( 21-C , 23-H ) :   0.8633 B( 21-C , 24-H ) :   0.2571 B( 21-C , 25-H ) :   0.1765
B( 21-C , 35-H ) :   0.1208 B( 21-C , 36-H ) :   0.1138 B( 24-H , 25-H ) :  -0.1256
B( 26-C , 27-H ) :   0.1966 B( 26-C , 28-H ) :   0.1296 B( 26-C , 29-C ) :   1.2581
B( 26-C , 30-H ) :   0.6048 B( 26-C , 31-H ) :   0.3088 B( 26-C , 33-H ) :   0.1318
B( 26-C , 34-H ) :   0.1392 B( 27-H , 31-H ) :   0.1033 B( 28-H , 33-H ) :  -0.1142
B( 29-C , 30-H ) :   0.1047 B( 29-C , 31-H ) :   0.1435 B( 29-C , 32-C ) :   1.1136
B( 29-C , 33-H ) :   1.0202 B( 29-C , 34-H ) :   0.8009 B( 29-C , 37-H ) :   0.1241
B( 29-C , 38-H ) :   0.2530 B( 30-H , 31-H ) :   0.2283 B( 31-H , 36-H ) :   0.1102
B( 32-C , 37-H ) :   0.6331 B( 32-C , 38-H ) :   0.6417 B( 37-H , 38-H ) :  -0.1159

Dispersion correction           -0.044806316
FINAL SINGLE POINT ENERGY      -754.240850389144

DIPOLE MOMENT
-------------
                                X             Y             Z
Electronic contribution:     14.31874       8.70233       3.75596
Nuclear contribution   :    -13.61164      -8.17416      -5.14068
                        -----------------------------------------
Total Dipole Moment    :      0.70710       0.52817      -1.38472
                        -----------------------------------------
Magnitude (a.u.)       :      1.64207
Magnitude (Debye)      :      4.17381

Rotational constants in cm-1:     0.019858     0.013613     0.009401
Rotational constants in MHz :   595.331791   408.100423   281.843625

                             ****ORCA TERMINATED NORMALLY****
TOTAL RUN TIME: 0 days 0 hours 1 minutes 4 seconds 929 msec
