                         Program Version 5.0.0 -  RELEASE  -
|  1> !PBE D3BJ RIJCOSX def2-SVPD def2/J TightSCF xyzfile
|  2>
|  3> *xyzfile 0 1 D5.xyz
|  4>
|  5> %MaxCore 64000
|  6>
|  7> %pal nprocs 4
|  8> end
|  9>
| 10> %scf
| 11>   MaxIter 150
| 12> end
| 13>
| 14>
| 15>                          ****END OF INPUT****

CARTESIAN COORDINATES (ANGSTROEM)
---------------------------------
  C      3.913853   -1.658291    3.015134
  N      5.039266   -0.901154    2.492821
  C      4.084215    1.742081   -2.114724
  C      4.265245    2.500518   -0.795890
  H      4.868534    3.392674   -0.981134
  H      3.307640    2.824571   -0.387809
  C      4.982240    1.650257    0.247422
  C      6.210384   -1.417261    2.178244
  C      6.535913   -2.677122    2.556078
  N      7.076754   -0.700820    1.478906
  H      7.954643   -1.121554    1.207554
  H      6.756161    0.106637    0.960278
  H      4.842168    0.017609    2.115191
  H      5.993876   -3.126918    3.282784
  H      7.498441   -2.975482    2.468776
  O      4.368065    1.389270    1.313706
  F      6.128919    1.233512   -0.045620
  C      3.139159   -2.376572    1.910609
  H      3.267235   -0.939401    3.520693
  H      4.247195   -2.355095    3.790065
  C      1.997274    0.430918   -1.399218
  C      3.412746    0.376886   -1.965497
  H      4.047407   -0.246590   -1.326706
  H      3.390774   -0.118719   -2.942839
  H      5.068475    1.598504   -2.565728
  H      3.503356    2.363939   -2.804565
  C      2.399946   -1.389579    1.009490
  H      2.440750   -3.087118    2.362976
  H      3.844475   -2.970462    1.318677
  C      2.070177   -1.936705   -0.372401
  H      1.481611   -1.061542    1.509912
  H      3.008628   -0.490001    0.897451
  C      1.322238   -0.935775   -1.256413
  H      1.472747   -2.850902   -0.283997
  H      3.003539   -2.234041   -0.862535
  H      1.376444    1.058920   -2.047420
  H      2.015341    0.929780   -0.426535
  H      0.316648   -0.787213   -0.848278
  H      1.185611   -1.379252   -2.248613

 Total Charge           Charge          ....    0
 Multiplicity           Mult            ....    1
 Number of Electrons    NEL             ....  126
 Basis Dimension        Dim             ....  510

ORBITAL ENERGIES
----------------

  NO   OCC          E(Eh)            E(eV)
   0   2.0000     -24.382727      -663.4877
   1   2.0000     -18.804104      -511.6857
   2   2.0000     -13.980972      -380.4416
   3   2.0000     -13.973159      -380.2290
   4   2.0000     -10.091758      -274.6107
   5   2.0000      -9.940780      -270.5024
   6   2.0000      -9.925126      -270.0764
   7   2.0000      -9.919675      -269.9281
   8   2.0000      -9.908927      -269.6356
   9   2.0000      -9.908900      -269.6349
  10   2.0000      -9.899170      -269.3701
  11   2.0000      -9.893272      -269.2096
  12   2.0000      -9.886489      -269.0251
  13   2.0000      -9.880230      -268.8547
  14   2.0000      -9.876312      -268.7481
  15   2.0000      -9.797510      -266.6038
  16   2.0000      -1.243910       -33.8485
  17   2.0000      -0.973150       -26.4808
  18   2.0000      -0.863261       -23.4905
  19   2.0000      -0.786891       -21.4124
  20   2.0000      -0.762428       -20.7467
  21   2.0000      -0.729474       -19.8500
  22   2.0000      -0.696029       -18.9399
  23   2.0000      -0.668892       -18.2015
  24   2.0000      -0.637496       -17.3471
  25   2.0000      -0.624645       -16.9975
  26   2.0000      -0.612443       -16.6654
  27   2.0000      -0.583873       -15.8880
  28   2.0000      -0.554506       -15.0889
  29   2.0000      -0.532701       -14.4955
  30   2.0000      -0.527190       -14.3456
  31   2.0000      -0.525100       -14.2887
  32   2.0000      -0.495791       -13.4912
  33   2.0000      -0.493010       -13.4155
  34   2.0000      -0.481913       -13.1135
  35   2.0000      -0.454432       -12.3657
  36   2.0000      -0.450906       -12.2698
  37   2.0000      -0.439415       -11.9571
  38   2.0000      -0.436117       -11.8674
  39   2.0000      -0.418159       -11.3787
  40   2.0000      -0.401899       -10.9362
  41   2.0000      -0.398331       -10.8391
  42   2.0000      -0.384346       -10.4586
  43   2.0000      -0.377385       -10.2692
  44   2.0000      -0.370114       -10.0713
  45   2.0000      -0.368092       -10.0163
  46   2.0000      -0.357043        -9.7156
  47   2.0000      -0.347353        -9.4520
  48   2.0000      -0.343687        -9.3522
  49   2.0000      -0.334174        -9.0933
  50   2.0000      -0.325724        -8.8634
  51   2.0000      -0.318691        -8.6720
  52   2.0000      -0.314638        -8.5617
  53   2.0000      -0.309027        -8.4091
  54   2.0000      -0.300952        -8.1893
  55   2.0000      -0.297703        -8.1009
  56   2.0000      -0.285410        -7.7664
  57   2.0000      -0.276592        -7.5265
  58   2.0000      -0.273095        -7.4313
  59   2.0000      -0.270002        -7.3471
  60   2.0000      -0.261507        -7.1160
  61   2.0000      -0.192172        -5.2293
  62   2.0000      -0.121153        -3.2967
  63   0.0000      -0.097856        -2.6628
  64   0.0000      -0.016749        -0.4558
  65   0.0000       0.005560         0.1513
  66   0.0000       0.007838         0.2133
  67   0.0000       0.013390         0.3644

MULLIKEN ATOMIC CHARGES
-----------------------
   0 C :    1.196414
   1 N :    0.276178
   2 C :    0.417759
   3 C :    0.266911
   4 H :   -0.119464
   5 H :    0.137046
   6 C :    0.608166
   7 C :    0.638378
   8 C :    0.576704
   9 N :    0.506833
  10 H :   -0.114670
  11 H :   -0.519085
  12 H :   -1.160599
  13 H :   -0.047644
  14 H :   -0.639415
  15 O :   -0.609695
  16 F :   -0.434166
  17 C :    0.315179
  18 H :   -0.371496
  19 H :   -0.144446
  20 C :   -0.136271
  21 C :   -0.131334
  22 H :    0.017428
  23 H :   -0.172246
  24 H :   -0.009587
  25 H :   -0.120317
  26 C :    0.570351
  27 H :   -0.147242
  28 H :   -0.024250
  29 C :    0.017522
  30 H :   -0.042124
  31 H :   -0.841387
  32 C :    0.720152
  33 H :   -0.429847
  34 H :    0.148714
  35 H :   -0.421982
  36 H :    0.218333
  37 H :    0.019427
  38 H :   -0.014227
Sum of atomic charges:    0.0000000

LOEWDIN ATOMIC CHARGES
----------------------
   0 C :    0.062649
   1 N :    0.027144
   2 C :   -0.020878
   3 C :    0.059395
   4 H :    0.039393
   5 H :    0.033903
   6 C :    0.012879
   7 C :   -0.227936
   8 C :    0.163495
   9 N :    0.224533
  10 H :    0.007632
  11 H :   -0.094901
  12 H :   -0.099310
  13 H :   -0.120710
  14 H :   -0.108964
  15 O :   -0.095076
  16 F :   -0.002839
  17 C :   -0.013493
  18 H :    0.026292
  19 H :    0.010953
  20 C :   -0.033575
  21 C :   -0.029873
  22 H :    0.015582
  23 H :    0.034187
  24 H :    0.025723
  25 H :    0.031052
  26 C :   -0.037190
  27 H :    0.023679
  28 H :    0.019018
  29 C :   -0.039996
  30 H :    0.036085
  31 H :   -0.025468
  32 C :   -0.031873
  33 H :    0.026309
  34 H :    0.019711
  35 H :    0.026647
  36 H :    0.009366
  37 H :    0.024491
  38 H :    0.021964

  Mayer bond orders larger than 0.100000
B(  0-C ,  1-N ) :   0.9225 B(  0-C , 12-H ) :  -0.5161 B(  0-C , 17-C ) :   1.0297
B(  0-C , 18-H ) :   0.6588 B(  0-C , 19-H ) :   0.7162 B(  0-C , 26-C ) :   0.1609
B(  1-N ,  7-C ) :   0.8731 B(  1-N ,  8-C ) :   0.4718 B(  1-N ,  9-N ) :   0.1030
B(  1-N , 12-H ) :   0.8372 B(  1-N , 18-H ) :   0.2351 B(  2-C ,  3-C ) :   1.1857
B(  2-C ,  4-H ) :   0.1801 B(  2-C ,  6-C ) :   0.1021 B(  2-C , 21-C ) :   1.2543
B(  2-C , 22-H ) :   0.1054 B(  2-C , 24-H ) :   0.6498 B(  2-C , 25-H ) :   0.8046
B(  3-C ,  4-H ) :   0.6555 B(  3-C ,  5-H ) :   0.7514 B(  3-C ,  6-C ) :   1.1855
B(  3-C , 21-C ) :   0.1087 B(  3-C , 24-H ) :   0.1126 B(  3-C , 25-H ) :   0.1568
B(  4-H ,  6-C ) :   0.2567 B(  5-H ,  6-C ) :   0.1866 B(  6-C , 15-O ) :   1.6516
B(  6-C , 16-F ) :   0.5295 B(  7-C ,  8-C ) :   1.4846 B(  7-C ,  9-N ) :   0.9075
B(  7-C , 11-H ) :  -0.1406 B(  7-C , 12-H ) :  -0.5928 B(  7-C , 13-H ) :   0.3633
B(  7-C , 14-H ) :   0.4060 B(  8-C ,  9-N ) :   0.2852 B(  8-C , 12-H ) :  -0.1066
B(  8-C , 13-H ) :   0.5615 B(  8-C , 14-H ) :   0.5771 B(  9-N , 10-H ) :   1.1528
B(  9-N , 11-H ) :   1.0016 B( 10-H , 11-H ) :  -0.2507 B( 11-H , 12-H ) :   0.1010
B( 11-H , 16-F ) :   0.1398 B( 12-H , 15-O ) :   0.2370 B( 12-H , 18-H ) :   0.1357
B( 13-H , 18-H ) :  -0.1067 B( 13-H , 19-H ) :   0.1552 B( 15-O , 16-F ) :   0.1062
B( 17-C , 19-H ) :   0.1548 B( 17-C , 26-C ) :   1.1524 B( 17-C , 27-H ) :   0.8890
B( 17-C , 28-H ) :   0.9019 B( 17-C , 29-C ) :   0.1036 B( 17-C , 30-H ) :   0.1407
B( 18-H , 19-H ) :  -0.2748 B( 20-C , 21-C ) :   1.2527 B( 20-C , 22-H ) :   0.1206
B( 20-C , 23-H ) :   0.1570 B( 20-C , 29-C ) :   0.1460 B( 20-C , 32-C ) :   1.1613
B( 20-C , 35-H ) :   1.0138 B( 20-C , 36-H ) :   0.7869 B( 20-C , 37-H ) :   0.2858
B( 20-C , 38-H ) :   0.1501 B( 21-C , 22-H ) :   0.8808 B( 21-C , 23-H ) :   0.8665
B( 21-C , 24-H ) :   0.2520 B( 21-C , 25-H ) :   0.1791 B( 21-C , 35-H ) :   0.1272
B( 21-C , 36-H ) :   0.1146 B( 24-H , 25-H ) :  -0.1256 B( 26-C , 27-H ) :   0.1837
B( 26-C , 29-C ) :   1.2706 B( 26-C , 30-H ) :   0.5947 B( 26-C , 31-H ) :   0.3320
B( 26-C , 33-H ) :   0.1051 B( 26-C , 34-H ) :   0.1613 B( 27-H , 31-H ) :   0.1066
B( 28-H , 33-H ) :  -0.1039 B( 29-C , 31-H ) :   0.1386 B( 29-C , 32-C ) :   1.1163
B( 29-C , 33-H ) :   1.0226 B( 29-C , 34-H ) :   0.7948 B( 29-C , 37-H ) :   0.1214
B( 29-C , 38-H ) :   0.2396 B( 30-H , 31-H ) :   0.2936 B( 31-H , 36-H ) :   0.1106
B( 32-C , 37-H ) :   0.6304 B( 32-C , 38-H ) :   0.6580 B( 37-H , 38-H ) :  -0.1184

Dispersion correction           -0.044594106
FINAL SINGLE POINT ENERGY      -754.249315758753

DIPOLE MOMENT
-------------
                                X             Y             Z
Electronic contribution:     12.88234      10.12077       3.43195
Nuclear contribution   :    -13.35170      -8.48261      -5.12969
                        -----------------------------------------
Total Dipole Moment    :     -0.46936       1.63815      -1.69774
                        -----------------------------------------
Magnitude (a.u.)       :      2.40545
Magnitude (Debye)      :      6.11416

Rotational constants in cm-1:     0.019886     0.013843     0.009504
Rotational constants in MHz :   596.157485   415.004628   284.931121

                             ****ORCA TERMINATED NORMALLY****
TOTAL RUN TIME: 0 days 0 hours 1 minutes 15 seconds 736 msec
