                         Program Version 5.0.0 -  RELEASE  -
|  1> !wB97X-D3 RIJCOSX def2-SVP def2/J TightSCF
|  2> *xyz -1 1
|  3> C          3.76678       -2.26611       -6.51175
|  4> C          2.49670       -1.84416       -5.73570
|  5> H          1.62642       -2.21743       -6.30895
|  6> H          2.48182       -2.45607       -4.79341
|  7> O          2.45973       -0.50920       -5.50576
|  8> H          3.82914       -1.70941       -7.42340
|  9> H          3.71764       -3.31144       -6.73483
| 10> H          4.63199       -2.06931       -5.91377
| 11> *
| 12>
| 13> %MaxCore 64000
| 14>
| 15> %pal nprocs 4
| 16> end
| 17>
| 18> %scf
| 19>   MaxIter 150
| 20> end
| 21>
| 22>
| 23>                          ****END OF INPUT****

CARTESIAN COORDINATES (ANGSTROEM)
---------------------------------
  C      3.766780   -2.266110   -6.511750
  C      2.496700   -1.844160   -5.735700
  H      1.626420   -2.217430   -6.308950
  H      2.481820   -2.456070   -4.793410
  O      2.459730   -0.509200   -5.505760
  H      3.829140   -1.709410   -7.423400
  H      3.717640   -3.311440   -6.734830
  H      4.631990   -2.069310   -5.913770

 Total Charge           Charge          ....   -1
 Multiplicity           Mult            ....    1
 Number of Electrons    NEL             ....   26
 Basis Dimension        Dim             ....   67

ORBITAL ENERGIES
----------------

  NO   OCC          E(Eh)            E(eV)
   0   2.0000     -18.847606      -512.8694
   1   2.0000     -10.078829      -274.2589
   2   2.0000     -10.064517      -273.8694
   3   2.0000      -0.745863       -20.2960
   4   2.0000      -0.611720       -16.6458
   5   2.0000      -0.452510       -12.3134
   6   2.0000      -0.332240        -9.0407
   7   2.0000      -0.308528        -8.3955
   8   2.0000      -0.249183        -6.7806
   9   2.0000      -0.231470        -6.2986
  10   2.0000      -0.166792        -4.5386
  11   2.0000      -0.014535        -0.3955
  12   2.0000      -0.012889        -0.3507
  13   0.0000       0.336194         9.1483
  14   0.0000       0.380043        10.3415
  15   0.0000       0.394032        10.7222
  16   0.0000       0.404025        10.9941
  17   0.0000       0.446574        12.1519

MULLIKEN ATOMIC CHARGES
-----------------------
   0 C :    0.004745
   1 C :    0.252104
   2 H :   -0.167207
   3 H :   -0.174258
   4 O :   -0.720345
   5 H :   -0.047135
   6 H :   -0.102042
   7 H :   -0.045861
Sum of atomic charges:   -1.0000000

LOEWDIN ATOMIC CHARGES
----------------------
   0 C :   -0.114898
   1 C :    0.008343
   2 H :   -0.084003
   3 H :   -0.086540
   4 O :   -0.669305
   5 H :   -0.011277
   6 H :   -0.031564
   7 H :   -0.010757

  Mayer bond orders larger than 0.100000
B(  0-C ,  1-C ) :   0.9921 B(  0-C ,  5-H ) :   0.9646 B(  0-C ,  6-H ) :   0.9336
B(  0-C ,  7-H ) :   0.9681 B(  1-C ,  2-H ) :   0.8771 B(  1-C ,  3-H ) :   0.8662
B(  1-C ,  4-O ) :   1.5046

Dispersion correction           -0.000860927
FINAL SINGLE POINT ENERGY      -154.232686440206

DIPOLE MOMENT
-------------
                                X             Y             Z
Electronic contribution:     -1.04462       2.80031       0.98654
Nuclear contribution   :      1.63615      -3.79938      -1.48621
                        -----------------------------------------
Total Dipole Moment    :      0.59153      -0.99907      -0.49967
                        -----------------------------------------
Magnitude (a.u.)       :      1.26401
Magnitude (Debye)      :      3.21286

Rotational constants in cm-1:     1.265582     0.329289     0.289024
Rotational constants in MHz : 37941.194363  9871.829581  8664.719106

                             ****ORCA TERMINATED NORMALLY****
TOTAL RUN TIME: 0 days 0 hours 0 minutes 9 seconds 230 msec
