                         Program Version 5.0.0 -  RELEASE  -
|  1> !wB97X-D3 RIJCOSX def2-SVP def2/J TightSCF
|  2> *xyz 1 1
|  3> C          4.99986       -1.59613       -5.92488
|  4> N          5.28156       -1.97413       -4.53576
|  5> C          3.76678       -2.26611       -6.51175
|  6> C          4.79250       -1.36132       -3.45730
|  7> N          3.93990       -0.37492       -3.55736
|  8> N          5.25986       -1.75422       -2.23913
|  9> H          5.92282       -2.52145       -2.18672
| 10> H          4.65468       -1.64040       -1.44202
| 11> H          5.70914       -2.87560       -4.38702
| 12> H          3.33010       -0.31764       -4.36125
| 13> H          3.69849        0.11447       -2.70833
| 14> H          4.84333       -0.51793       -5.94302
| 15> H          5.90170       -1.82250       -6.49647
| 16> H          3.63046       -1.94025       -7.52177
| 17> H          2.90710       -2.00116       -5.93240
| 18> H          3.89538       -3.32820       -6.49392
| 19> *
| 20>
| 21> %MaxCore 64000
| 22>
| 23> %pal nprocs 4
| 24> end
| 25>
| 26> %scf
| 27>   MaxIter 150
| 28> end
| 29>
| 30>
| 31>                          ****END OF INPUT****

CARTESIAN COORDINATES (ANGSTROEM)
---------------------------------
  C      4.999860   -1.596130   -5.924880
  N      5.281560   -1.974130   -4.535760
  C      3.766780   -2.266110   -6.511750
  C      4.792500   -1.361320   -3.457300
  N      3.939900   -0.374920   -3.557360
  N      5.259860   -1.754220   -2.239130
  H      5.922820   -2.521450   -2.186720
  H      4.654680   -1.640400   -1.442020
  H      5.709140   -2.875600   -4.387020
  H      3.330100   -0.317640   -4.361250
  H      3.698490    0.114470   -2.708330
  H      4.843330   -0.517930   -5.943020
  H      5.901700   -1.822500   -6.496470
  H      3.630460   -1.940250   -7.521770
  H      2.907100   -2.001160   -5.932400
  H      3.895380   -3.328200   -6.493920

 Total Charge           Charge          ....    1
 Multiplicity           Mult            ....    1
 Number of Electrons    NEL             ....   48
 Basis Dimension        Dim             ....  134

ORBITAL ENERGIES
----------------

  NO   OCC          E(Eh)            E(eV)
   0   2.0000     -14.664956      -399.0538
   1   2.0000     -14.659042      -398.8928
   2   2.0000     -14.654642      -398.7731
   3   2.0000     -10.628079      -289.2047
   4   2.0000     -10.494515      -285.5703
   5   2.0000     -10.428201      -283.7658
   6   2.0000      -1.326826       -36.1048
   7   2.0000      -1.214116       -33.0378
   8   2.0000      -1.198136       -32.6029
   9   2.0000      -1.040433       -28.3116
  10   2.0000      -0.946498       -25.7555
  11   2.0000      -0.908516       -24.7220
  12   2.0000      -0.893563       -24.3151
  13   2.0000      -0.842386       -22.9225
  14   2.0000      -0.796810       -21.6823
  15   2.0000      -0.792594       -21.5676
  16   2.0000      -0.741468       -20.1764
  17   2.0000      -0.733479       -19.9590
  18   2.0000      -0.705717       -19.2035
  19   2.0000      -0.659220       -17.9383
  20   2.0000      -0.628695       -17.1077
  21   2.0000      -0.608791       -16.5660
  22   2.0000      -0.573933       -15.6175
  23   2.0000      -0.542628       -14.7657
  24   0.0000      -0.085474        -2.3259
  25   0.0000      -0.045485        -1.2377
  26   0.0000      -0.014750        -0.4014
  27   0.0000      -0.001182        -0.0322
  28   0.0000       0.013973         0.3802

MULLIKEN ATOMIC CHARGES
-----------------------
   0 C :   -0.015188
   1 N :   -0.179529
   2 C :   -0.024509
   3 C :    0.106898
   4 N :   -0.047103
   5 N :   -0.101470
   6 H :    0.180418
   7 H :    0.181543
   8 H :    0.176674
   9 H :    0.189502
  10 H :    0.185919
  11 H :    0.070794
  12 H :    0.096442
  13 H :    0.088202
  14 H :    0.028789
  15 H :    0.062618
Sum of atomic charges:    1.0000000

LOEWDIN ATOMIC CHARGES
----------------------
   0 C :    0.039952
   1 N :    0.020448
   2 C :   -0.051113
   3 C :    0.159011
   4 N :    0.060812
   5 N :    0.019056
   6 H :    0.111616
   7 H :    0.105971
   8 H :    0.104799
   9 H :    0.113637
  10 H :    0.116572
  11 H :    0.035879
  12 H :    0.051685
  13 H :    0.052247
  14 H :    0.021926
  15 H :    0.037504

  Mayer bond orders larger than 0.100000
B(  0-C ,  1-N ) :   0.9128 B(  0-C ,  2-C ) :   1.0828 B(  0-C , 11-H ) :   0.9596
B(  0-C , 12-H ) :   0.9521 B(  1-N ,  3-C ) :   1.3746 B(  1-N ,  8-H ) :   0.9113
B(  2-C , 13-H ) :   0.9664 B(  2-C , 14-H ) :   0.9673 B(  2-C , 15-H ) :   0.9698
B(  3-C ,  4-N ) :   1.4209 B(  3-C ,  5-N ) :   1.3547 B(  4-N ,  9-H ) :   0.9170
B(  4-N , 10-H ) :   0.9222 B(  5-N ,  6-H ) :   0.9259 B(  5-N ,  7-H ) :   0.9307

Dispersion correction           -0.003771172
FINAL SINGLE POINT ENERGY      -284.117515859466

DIPOLE MOMENT
-------------
                                X             Y             Z
Electronic contribution:      1.72852       1.08258       4.81977
Nuclear contribution   :     -1.95709      -1.20097      -3.70214
                        -----------------------------------------
Total Dipole Moment    :     -0.22857      -0.11839       1.11764
                        -----------------------------------------
Magnitude (a.u.)       :      1.14690
Magnitude (Debye)      :      2.91518

Rotational constants in cm-1:     0.241661     0.071598     0.061743
Rotational constants in MHz :  7244.800091  2146.442409  1851.001864

                             ****ORCA TERMINATED NORMALLY****
TOTAL RUN TIME: 0 days 0 hours 0 minutes 24 seconds 95 msec
