                         Program Version 5.0.0 -  RELEASE  -
|  1> !wB97X-D3 RIJCOSX def2-SVP def2/J TightSCF xyzfile
|  2>
|  3> *xyzfile 0 1 B.xyz
|  4>
|  5> %MaxCore 64000
|  6>
|  7> %pal nprocs 18
|  8> end
|  9>
| 10> %scf
| 11>   MaxIter 150
| 12> end
| 13>
| 14>
| 15>                          ****END OF INPUT****

CARTESIAN COORDINATES (ANGSTROEM)
---------------------------------
  C      4.999862   -1.596133   -5.924876
  N      5.281560   -1.974132   -4.535764
  C      3.766779   -2.266110   -6.511752
  C      2.496702   -1.844161   -5.735704
  H      1.626416   -2.217434   -6.308950
  H      2.481824   -2.456069   -4.793414
  O      2.459729   -0.509204   -5.505757
  C      4.792500   -1.361316   -3.457295
  N      3.939898   -0.374925   -3.557359
  N      5.259860   -1.754224   -2.239133
  H      5.922824   -2.521451   -2.186720
  H      4.654678   -1.640404   -1.442016
  H      5.709139   -2.875599   -4.387021
  H      3.330101   -0.317639   -4.361247
  H      3.698494    0.114468   -2.708333
  H      4.843333   -0.517930   -5.943019
  H      5.901695   -1.822503   -6.496467
  H      3.886191   -3.357076   -6.533604
  H      3.685602   -1.922168   -7.547128

 Total Charge           Charge          ....    0
 Multiplicity           Mult            ....    1
 Number of Electrons    NEL             ....   64
 Basis Dimension        Dim             ....  167

ORBITAL ENERGIES
----------------

  NO   OCC          E(Eh)            E(eV)
   0   2.0000     -19.067913      -518.8643
   1   2.0000     -14.498173      -394.5153
   2   2.0000     -14.487585      -394.2272
   3   2.0000     -14.443101      -393.0167
   4   2.0000     -10.447810      -284.2994
   5   2.0000     -10.317724      -280.7595
   6   2.0000     -10.261714      -279.2354
   7   2.0000     -10.249825      -278.9119
   8   2.0000      -1.148893       -31.2630
   9   2.0000      -1.039971       -28.2991
  10   2.0000      -1.020341       -27.7649
  11   2.0000      -0.967501       -26.3270
  12   2.0000      -0.859387       -23.3851
  13   2.0000      -0.777138       -21.1470
  14   2.0000      -0.732537       -19.9333
  15   2.0000      -0.713029       -19.4025
  16   2.0000      -0.685140       -18.6436
  17   2.0000      -0.638144       -17.3648
  18   2.0000      -0.618169       -16.8212
  19   2.0000      -0.599329       -16.3086
  20   2.0000      -0.564968       -15.3736
  21   2.0000      -0.556672       -15.1478
  22   2.0000      -0.529317       -14.4035
  23   2.0000      -0.497952       -13.5500
  24   2.0000      -0.451096       -12.2750
  25   2.0000      -0.429149       -11.6777
  26   2.0000      -0.417707       -11.3664
  27   2.0000      -0.396736       -10.7957
  28   2.0000      -0.377038       -10.2597
  29   2.0000      -0.362440        -9.8625
  30   2.0000      -0.237472        -6.4619
  31   2.0000      -0.232072        -6.3150
  32   0.0000       0.086533         2.3547
  33   0.0000       0.103532         2.8173
  34   0.0000       0.135685         3.6922
  35   0.0000       0.153291         4.1713
  36   0.0000       0.187746         5.1088

MULLIKEN ATOMIC CHARGES
-----------------------
   0 C :    0.065469
   1 N :   -0.191496
   2 C :   -0.043546
   3 C :    0.219332
   4 H :   -0.033968
   5 H :   -0.096817
   6 O :   -0.617542
   7 C :    0.048177
   8 N :   -0.001111
   9 N :   -0.125988
  10 H :    0.143596
  11 H :    0.155401
  12 H :    0.139003
  13 H :    0.122393
  14 H :    0.128317
  15 H :    0.055170
  16 H :    0.027767
  17 H :   -0.018604
  18 H :    0.024447
Sum of atomic charges:    0.0000000

LOEWDIN ATOMIC CHARGES
----------------------
   0 C :    0.036401
   1 N :    0.002618
   2 C :   -0.083346
   3 C :    0.018847
   4 H :   -0.014774
   5 H :   -0.054866
   6 O :   -0.497393
   7 C :    0.133548
   8 N :    0.072295
   9 N :   -0.021418
  10 H :    0.087746
  11 H :    0.089004
  12 H :    0.082860
  13 H :   -0.017709
  14 H :    0.083334
  15 H :    0.033426
  16 H :    0.020215
  17 H :    0.002962
  18 H :    0.026247

  Mayer bond orders larger than 0.100000
B(  0-C ,  1-N ) :   0.9144 B(  0-C ,  2-C ) :   1.0571 B(  0-C , 15-H ) :   0.9333
B(  0-C , 16-H ) :   0.9598 B(  1-N ,  7-C ) :   1.3225 B(  1-N , 12-H ) :   0.9228
B(  2-C ,  3-C ) :   0.9807 B(  2-C , 17-H ) :   0.9354 B(  2-C , 18-H ) :   0.9391
B(  3-C ,  4-H ) :   0.9376 B(  3-C ,  5-H ) :   0.8976 B(  3-C ,  6-O ) :   1.2692
B(  6-O , 13-H ) :   0.3843 B(  7-C ,  8-N ) :   1.5735 B(  7-C ,  9-N ) :   1.2596
B(  8-N , 13-H ) :   0.7213 B(  8-N , 14-H ) :   0.9313 B(  9-N , 10-H ) :   0.9379
B(  9-N , 11-H ) :   0.9439

Dispersion correction           -0.006193557
FINAL SINGLE POINT ENERGY      -398.091019800828

DIPOLE MOMENT
-------------
                                X             Y             Z
Electronic contribution:      1.91189       2.01293       3.82672
Nuclear contribution   :      0.51577      -3.31768      -1.36804
                        -----------------------------------------
Total Dipole Moment    :      2.42766      -1.30475       2.45869
                        -----------------------------------------
Magnitude (a.u.)       :      3.69338
Magnitude (Debye)      :      9.38782

Rotational constants in cm-1:     0.111492     0.050787     0.040163
Rotational constants in MHz :  3342.457536  1522.560798  1204.057148

                             ****ORCA TERMINATED NORMALLY****
TOTAL RUN TIME: 0 days 0 hours 0 minutes 15 seconds 711 msec
