                         Program Version 5.0.0 -  RELEASE  -
|  1> !wB97X-D3 RIJCOSX def2-SVP def2/J TightSCF
|  2> *xyz 0 1
|  3> C          3.76678       -2.26611       -6.51175
|  4> C          2.49670       -1.84416       -5.73570
|  5> H          1.62642       -2.21743       -6.30895
|  6> H          2.48182       -2.45607       -4.79341
|  7> F          2.45973       -0.50920       -5.50576
|  8> H          3.82914       -1.70941       -7.42340
|  9> H          3.71764       -3.31144       -6.73483
| 10> H          4.63199       -2.06931       -5.91377
| 11> *
| 12>
| 13> %MaxCore 64000
| 14>
| 15> %pal nprocs 4
| 16> end
| 17>
| 18> %scf
| 19>   MaxIter 150
| 20> end
| 21>
| 22>
| 23>                          ****END OF INPUT****

CARTESIAN COORDINATES (ANGSTROEM)
---------------------------------
  C      3.766780   -2.266110   -6.511750
  C      2.496700   -1.844160   -5.735700
  H      1.626420   -2.217430   -6.308950
  H      2.481820   -2.456070   -4.793410
  F      2.459730   -0.509200   -5.505760
  H      3.829140   -1.709410   -7.423400
  H      3.717640   -3.311440   -6.734830
  H      4.631990   -2.069310   -5.913770

 Total Charge           Charge          ....    0
 Multiplicity           Mult            ....    1
 Number of Electrons    NEL             ....   26
 Basis Dimension        Dim             ....   67

ORBITAL ENERGIES
----------------

  NO   OCC          E(Eh)            E(eV)
   0   2.0000     -24.771032      -674.0540
   1   2.0000     -10.364654      -282.0366
   2   2.0000     -10.282018      -279.7879
   3   2.0000      -1.292583       -35.1730
   4   2.0000      -0.867985       -23.6191
   5   2.0000      -0.732191       -19.9239
   6   2.0000      -0.606818       -16.5124
   7   2.0000      -0.594638       -16.1809
   8   2.0000      -0.555621       -15.1192
   9   2.0000      -0.499354       -13.5881
  10   2.0000      -0.495130       -13.4732
  11   2.0000      -0.423486       -11.5236
  12   2.0000      -0.419191       -11.4068
  13   0.0000       0.151905         4.1336
  14   0.0000       0.197838         5.3834
  15   0.0000       0.203864         5.5474
  16   0.0000       0.224064         6.0971
  17   0.0000       0.242208         6.5908

MULLIKEN ATOMIC CHARGES
-----------------------
   0 C :   -0.097770
   1 C :    0.198712
   2 H :    0.021397
   3 H :    0.022040
   4 F :   -0.261471
   5 H :    0.043401
   6 H :    0.030988
   7 H :    0.042704
Sum of atomic charges:    0.0000000

LOEWDIN ATOMIC CHARGES
----------------------
   0 C :   -0.078359
   1 C :    0.102387
   2 H :    0.009330
   3 H :    0.011734
   4 F :   -0.127688
   5 H :    0.026787
   6 H :    0.029766
   7 H :    0.026042

  Mayer bond orders larger than 0.100000
B(  0-C ,  1-C ) :   1.0794 B(  0-C ,  5-H ) :   0.9742 B(  0-C ,  6-H ) :   0.9662
B(  0-C ,  7-H ) :   0.9759 B(  1-C ,  2-H ) :   0.9619 B(  1-C ,  3-H ) :   0.9596
B(  1-C ,  4-F ) :   0.9985

Dispersion correction           -0.000877181
FINAL SINGLE POINT ENERGY      -178.872780530261

DIPOLE MOMENT
-------------
                                X             Y             Z
Electronic contribution:     -2.09105       4.36324       1.82333
Nuclear contribution   :      2.16248      -5.01128      -1.96962
                        -----------------------------------------
Total Dipole Moment    :      0.07142      -0.64805      -0.14629
                        -----------------------------------------
Magnitude (a.u.)       :      0.66818
Magnitude (Debye)      :      1.69838

Rotational constants in cm-1:     1.244010     0.306580     0.270375
Rotational constants in MHz : 37294.476802  9191.037795  8105.639967

                             ****ORCA TERMINATED NORMALLY****
TOTAL RUN TIME: 0 days 0 hours 0 minutes 8 seconds 651 msec
