                         Program Version 5.0.0 -  RELEASE  -
|  1> !wB97X-D3 RIJCOSX def2-SVP def2/J TightSCF
|  2> *xyz 0 1
|  3> C          4.99986       -1.59613       -5.92488
|  4> C          5.28156       -1.97413       -4.53576
|  5> C          3.76678       -2.26611       -6.51175
|  6> C          4.79250       -1.36132       -3.45730
|  7> N          3.93990       -0.37492       -3.55736
|  8> N          5.25986       -1.75422       -2.23913
|  9> H          5.92282       -2.52145       -2.18672
| 10> H          4.65468       -1.64040       -1.44202
| 11> H          5.70914       -2.87560       -4.38702
| 12> H          3.33010       -0.31764       -4.36125
| 13> H          3.69849        0.11447       -2.70833
| 14> H          4.84333       -0.51793       -5.94302
| 15> H          5.90170       -1.82250       -6.49647
| 16> H          3.63046       -1.94025       -7.52177
| 17> H          2.90710       -2.00116       -5.93240
| 18> H          3.89538       -3.32820       -6.49392
| 19> *
| 20>
| 21> %MaxCore 64000
| 22>
| 23> %pal nprocs 4
| 24> end
| 25>
| 26> %scf
| 27>   MaxIter 150
| 28> end
| 29>
| 30>
| 31>                          ****END OF INPUT****

CARTESIAN COORDINATES (ANGSTROEM)
---------------------------------
  C      4.999860   -1.596130   -5.924880
  C      5.281560   -1.974130   -4.535760
  C      3.766780   -2.266110   -6.511750
  C      4.792500   -1.361320   -3.457300
  N      3.939900   -0.374920   -3.557360
  N      5.259860   -1.754220   -2.239130
  H      5.922820   -2.521450   -2.186720
  H      4.654680   -1.640400   -1.442020
  H      5.709140   -2.875600   -4.387020
  H      3.330100   -0.317640   -4.361250
  H      3.698490    0.114470   -2.708330
  H      4.843330   -0.517930   -5.943020
  H      5.901700   -1.822500   -6.496470
  H      3.630460   -1.940250   -7.521770
  H      2.907100   -2.001160   -5.932400
  H      3.895380   -3.328200   -6.493920

 Total Charge           Charge          ....    0
 Multiplicity           Mult            ....    1
 Number of Electrons    NEL             ....   48
 Basis Dimension        Dim             ....  134

ORBITAL ENERGIES
----------------

  NO   OCC          E(Eh)            E(eV)
   0   2.0000     -14.433635      -392.7592
   1   2.0000     -14.424089      -392.4994
   2   2.0000     -10.326272      -280.9921
   3   2.0000     -10.256341      -279.0892
   4   2.0000     -10.254459      -279.0380
   5   2.0000     -10.202424      -277.6221
   6   2.0000      -1.064606       -28.9694
   7   2.0000      -0.969873       -26.3916
   8   2.0000      -0.877029       -23.8652
   9   2.0000      -0.795678       -21.6515
  10   2.0000      -0.714107       -19.4318
  11   2.0000      -0.675390       -18.3783
  12   2.0000      -0.642512       -17.4836
  13   2.0000      -0.599226       -16.3058
  14   2.0000      -0.570820       -15.5328
  15   2.0000      -0.537987       -14.6394
  16   2.0000      -0.509678       -13.8690
  17   2.0000      -0.488829       -13.3017
  18   2.0000      -0.475071       -12.9273
  19   2.0000      -0.442961       -12.0536
  20   2.0000      -0.415033       -11.2936
  21   2.0000      -0.406731       -11.0677
  22   2.0000      -0.352570        -9.5939
  23   2.0000      -0.239195        -6.5088
  24   0.0000       0.128900         3.5076
  25   0.0000       0.161432         4.3928
  26   0.0000       0.178163         4.8481
  27   0.0000       0.188584         5.1316
  28   0.0000       0.200353         5.4519

MULLIKEN ATOMIC CHARGES
-----------------------
   0 C :   -0.006494
   1 C :   -0.213517
   2 C :    0.018309
   3 C :   -0.014836
   4 N :   -0.089977
   5 N :   -0.136332
   6 H :    0.127620
   7 H :    0.104730
   8 H :   -0.073343
   9 H :    0.139438
  10 H :    0.115515
  11 H :   -0.005136
  12 H :    0.012549
  13 H :    0.014946
  14 H :   -0.006976
  15 H :    0.013504
Sum of atomic charges:   -0.0000000

LOEWDIN ATOMIC CHARGES
----------------------
   0 C :   -0.046792
   1 C :   -0.219679
   2 C :   -0.057767
   3 C :    0.026266
   4 N :   -0.011114
   5 N :   -0.049269
   6 H :    0.082931
   7 H :    0.056632
   8 H :   -0.012591
   9 H :    0.083060
  10 H :    0.070009
  11 H :    0.011341
  12 H :    0.023902
  13 H :    0.015016
  14 H :    0.008917
  15 H :    0.019141

  Mayer bond orders larger than 0.100000
B(  0-C ,  1-C ) :   1.0652 B(  0-C ,  2-C ) :   1.0776 B(  0-C , 11-H ) :   0.9484
B(  0-C , 12-H ) :   0.9345 B(  1-C ,  3-C ) :   1.6959 B(  1-C ,  8-H ) :   0.9581
B(  2-C , 13-H ) :   0.9709 B(  2-C , 14-H ) :   0.9719 B(  2-C , 15-H ) :   0.9713
B(  3-C ,  4-N ) :   1.2524 B(  3-C ,  5-N ) :   1.2046 B(  4-N ,  9-H ) :   0.9363
B(  4-N , 10-H ) :   0.9480 B(  5-N ,  6-H ) :   0.9453 B(  5-N ,  7-H ) :   0.9514

Dispersion correction           -0.003764804
FINAL SINGLE POINT ENERGY      -267.645665152233

DIPOLE MOMENT
-------------
                                X             Y             Z
Electronic contribution:      1.15680       1.43628       4.65582
Nuclear contribution   :     -1.82485      -1.28952      -3.74132
                        -----------------------------------------
Total Dipole Moment    :     -0.66805       0.14676       0.91450
                        -----------------------------------------
Magnitude (a.u.)       :      1.14199
Magnitude (Debye)      :      2.90271

Rotational constants in cm-1:     0.245790     0.071632     0.062004
Rotational constants in MHz :  7368.599517  2147.482078  1858.844841

                             ****ORCA TERMINATED NORMALLY****
TOTAL RUN TIME: 0 days 0 hours 0 minutes 24 seconds 300 msec
