                         Program Version 5.0.0 -  RELEASE  -
|  1> !wB97X-D3 RIJCOSX def2-SVP def2/J TightSCF
|  2> *xyz 0 1
|  3> C          4.99986       -1.59613       -5.92488
|  4> N          5.28156       -1.97413       -4.53576
|  5> C          3.76678       -2.26611       -6.51175
|  6> C          4.79250       -1.36132       -3.45730
|  7> C          3.93990       -0.37492       -3.55736
|  8> N          5.25986       -1.75422       -2.23913
|  9> H          5.92282       -2.52145       -2.18672
| 10> H          4.65468       -1.64040       -1.44202
| 11> H          5.70914       -2.87560       -4.38702
| 12> H          3.33010       -0.31764       -4.36125
| 13> H          3.69849        0.11447       -2.70833
| 14> H          4.84333       -0.51793       -5.94302
| 15> H          5.90170       -1.82250       -6.49647
| 16> H          3.63046       -1.94025       -7.52177
| 17> H          2.90710       -2.00116       -5.93240
| 18> H          3.89538       -3.32820       -6.49392
| 19> *
| 20>
| 21> %MaxCore 64000
| 22>
| 23> %pal nprocs 4
| 24> end
| 25>
| 26> %scf
| 27>   MaxIter 150
| 28> end
| 29>
| 30>
| 31>                          ****END OF INPUT****

CARTESIAN COORDINATES (ANGSTROEM)
---------------------------------
  C      4.999860   -1.596130   -5.924880
  N      5.281560   -1.974130   -4.535760
  C      3.766780   -2.266110   -6.511750
  C      4.792500   -1.361320   -3.457300
  C      3.939900   -0.374920   -3.557360
  N      5.259860   -1.754220   -2.239130
  H      5.922820   -2.521450   -2.186720
  H      4.654680   -1.640400   -1.442020
  H      5.709140   -2.875600   -4.387020
  H      3.330100   -0.317640   -4.361250
  H      3.698490    0.114470   -2.708330
  H      4.843330   -0.517930   -5.943020
  H      5.901700   -1.822500   -6.496470
  H      3.630460   -1.940250   -7.521770
  H      2.907100   -2.001160   -5.932400
  H      3.895380   -3.328200   -6.493920

 Total Charge           Charge          ....    0
 Multiplicity           Mult            ....    1
 Number of Electrons    NEL             ....   48
 Basis Dimension        Dim             ....  134

ORBITAL ENERGIES
----------------

  NO   OCC          E(Eh)            E(eV)
   0   2.0000     -14.429928      -392.6583
   1   2.0000     -14.425829      -392.5468
   2   2.0000     -10.328700      -281.0582
   3   2.0000     -10.316713      -280.7320
   4   2.0000     -10.272060      -279.5170
   5   2.0000     -10.195008      -277.4203
   6   2.0000      -1.065396       -28.9909
   7   2.0000      -0.979937       -26.6654
   8   2.0000      -0.861021       -23.4296
   9   2.0000      -0.817725       -22.2514
  10   2.0000      -0.739245       -20.1159
  11   2.0000      -0.661673       -18.0050
  12   2.0000      -0.640359       -17.4251
  13   2.0000      -0.607182       -16.5223
  14   2.0000      -0.552247       -15.0274
  15   2.0000      -0.542351       -14.7581
  16   2.0000      -0.521553       -14.1922
  17   2.0000      -0.490995       -13.3607
  18   2.0000      -0.475324       -12.9342
  19   2.0000      -0.463041       -12.6000
  20   2.0000      -0.445210       -12.1148
  21   2.0000      -0.437518       -11.9055
  22   2.0000      -0.336691        -9.1618
  23   2.0000      -0.252208        -6.8629
  24   0.0000       0.133640         3.6365
  25   0.0000       0.163644         4.4530
  26   0.0000       0.172080         4.6825
  27   0.0000       0.188153         5.1199
  28   0.0000       0.204022         5.5517

MULLIKEN ATOMIC CHARGES
-----------------------
   0 C :    0.052267
   1 N :   -0.222334
   2 C :   -0.012445
   3 C :    0.054428
   4 C :   -0.145362
   5 N :   -0.155801
   6 H :    0.107749
   7 H :    0.134211
   8 H :    0.107283
   9 H :   -0.028547
  10 H :   -0.044009
  11 H :    0.044815
  12 H :    0.027394
  13 H :    0.028465
  14 H :    0.036177
  15 H :    0.015710
Sum of atomic charges:    0.0000000

LOEWDIN ATOMIC CHARGES
----------------------
   0 C :    0.040966
   1 N :   -0.042009
   2 C :   -0.064914
   3 C :    0.048826
   4 C :   -0.250367
   5 N :   -0.046316
   6 H :    0.064357
   7 H :    0.077427
   8 H :    0.061404
   9 H :   -0.005211
  10 H :   -0.004948
  11 H :    0.030416
  12 H :    0.020264
  13 H :    0.025792
  14 H :    0.026370
  15 H :    0.017943

  Mayer bond orders larger than 0.100000
B(  0-C ,  1-N ) :   0.9823 B(  0-C ,  2-C ) :   1.0899 B(  0-C , 11-H ) :   0.9450
B(  0-C , 12-H ) :   0.9645 B(  1-N ,  3-C ) :   1.1593 B(  1-N ,  8-H ) :   0.9366
B(  2-C , 13-H ) :   0.9691 B(  2-C , 14-H ) :   0.9694 B(  2-C , 15-H ) :   0.9704
B(  3-C ,  4-C ) :   1.7762 B(  3-C ,  5-N ) :   1.1848 B(  4-C ,  9-H ) :   0.9414
B(  4-C , 10-H ) :   0.9467 B(  5-N ,  6-H ) :   0.9561 B(  5-N ,  7-H ) :   0.9521

Dispersion correction           -0.003763430
FINAL SINGLE POINT ENERGY      -267.638895826295

DIPOLE MOMENT
-------------
                                X             Y             Z
Electronic contribution:      2.45850      -0.17664       3.56392
Nuclear contribution   :     -2.10948      -0.95026      -3.53375
                        -----------------------------------------
Total Dipole Moment    :      0.34902      -1.12690       0.03016
                        -----------------------------------------
Magnitude (a.u.)       :      1.18010
Magnitude (Debye)      :      2.99956

Rotational constants in cm-1:     0.255209     0.072067     0.062929
Rotational constants in MHz :  7650.964615  2160.525743  1886.569524

                             ****ORCA TERMINATED NORMALLY****
TOTAL RUN TIME: 0 days 0 hours 0 minutes 24 seconds 464 msec
