                         Program Version 5.0.0 -  RELEASE  -
|  1> !wB97X-D3 RIJCOSX def2-SVP def2/J TightSCF
|  2> *xyz 0 1
|  3> C          4.99986       -1.59613       -5.92488
|  4> N          5.28156       -1.97413       -4.53576
|  5> C          3.76678       -2.26611       -6.51175
|  6> C          4.79250       -1.36132       -3.45730
|  7> N          3.93990       -0.37492       -3.55736
|  8> C          5.25986       -1.75422       -2.23913
|  9> H          5.92282       -2.52145       -2.18672
| 10> H          4.65468       -1.64040       -1.44202
| 11> H          5.70914       -2.87560       -4.38702
| 12> H          3.33010       -0.31764       -4.36125
| 13> H          3.69849        0.11447       -2.70833
| 14> H          4.84333       -0.51793       -5.94302
| 15> H          5.90170       -1.82250       -6.49647
| 16> H          3.63046       -1.94025       -7.52177
| 17> H          2.90710       -2.00116       -5.93240
| 18> H          3.89538       -3.32820       -6.49392
| 19> *
| 20>
| 21> %MaxCore 64000
| 22>
| 23> %pal nprocs 4
| 24> end
| 25>
| 26> %scf
| 27>   MaxIter 150
| 28> end
| 29>
| 30>
| 31>                          ****END OF INPUT****

CARTESIAN COORDINATES (ANGSTROEM)
---------------------------------
  C      4.999860   -1.596130   -5.924880
  N      5.281560   -1.974130   -4.535760
  C      3.766780   -2.266110   -6.511750
  C      4.792500   -1.361320   -3.457300
  N      3.939900   -0.374920   -3.557360
  C      5.259860   -1.754220   -2.239130
  H      5.922820   -2.521450   -2.186720
  H      4.654680   -1.640400   -1.442020
  H      5.709140   -2.875600   -4.387020
  H      3.330100   -0.317640   -4.361250
  H      3.698490    0.114470   -2.708330
  H      4.843330   -0.517930   -5.943020
  H      5.901700   -1.822500   -6.496470
  H      3.630460   -1.940250   -7.521770
  H      2.907100   -2.001160   -5.932400
  H      3.895380   -3.328200   -6.493920

 Total Charge           Charge          ....    0
 Multiplicity           Mult            ....    1
 Number of Electrons    NEL             ....   48
 Basis Dimension        Dim             ....  134

ORBITAL ENERGIES
----------------

  NO   OCC          E(Eh)            E(eV)
   0   2.0000     -14.435084      -392.7986
   1   2.0000     -14.430214      -392.6661
   2   2.0000     -10.332969      -281.1744
   3   2.0000     -10.326845      -281.0077
   4   2.0000     -10.284200      -279.8473
   5   2.0000     -10.190761      -277.3047
   6   2.0000      -1.076255       -29.2864
   7   2.0000      -0.991491       -26.9799
   8   2.0000      -0.879674       -23.9371
   9   2.0000      -0.798924       -21.7398
  10   2.0000      -0.730559       -19.8795
  11   2.0000      -0.702703       -19.1215
  12   2.0000      -0.643724       -17.5166
  13   2.0000      -0.596929       -16.2433
  14   2.0000      -0.579283       -15.7631
  15   2.0000      -0.542415       -14.7599
  16   2.0000      -0.528011       -14.3679
  17   2.0000      -0.499434       -13.5903
  18   2.0000      -0.479484       -13.0474
  19   2.0000      -0.459014       -12.4904
  20   2.0000      -0.456618       -12.4252
  21   2.0000      -0.438837       -11.9414
  22   2.0000      -0.344127        -9.3642
  23   2.0000      -0.238436        -6.4882
  24   0.0000       0.124646         3.3918
  25   0.0000       0.162470         4.4210
  26   0.0000       0.170403         4.6369
  27   0.0000       0.179796         4.8925
  28   0.0000       0.195346         5.3156

MULLIKEN ATOMIC CHARGES
-----------------------
   0 C :    0.023518
   1 N :   -0.206891
   2 C :   -0.007899
   3 C :   -0.020924
   4 N :   -0.092114
   5 C :   -0.141417
   6 H :   -0.050011
   7 H :   -0.036426
   8 H :    0.134563
   9 H :    0.117100
  10 H :    0.137487
  11 H :    0.029887
  12 H :    0.037161
  13 H :    0.031360
  14 H :    0.015642
  15 H :    0.028964
Sum of atomic charges:    0.0000000

LOEWDIN ATOMIC CHARGES
----------------------
   0 C :    0.027780
   1 N :   -0.035903
   2 C :   -0.067414
   3 C :    0.042235
   4 N :   -0.007866
   5 C :   -0.284352
   6 H :   -0.011665
   7 H :   -0.013304
   8 H :    0.081682
   9 H :    0.066868
  10 H :    0.089217
  11 H :    0.020654
  12 H :    0.025016
  13 H :    0.026342
  14 H :    0.017131
  15 H :    0.023578

  Mayer bond orders larger than 0.100000
B(  0-C ,  1-N ) :   0.9960 B(  0-C ,  2-C ) :   1.0771 B(  0-C , 11-H ) :   0.9585
B(  0-C , 12-H ) :   0.9615 B(  1-N ,  3-C ) :   1.1819 B(  1-N ,  8-H ) :   0.9324
B(  2-C , 13-H ) :   0.9678 B(  2-C , 14-H ) :   0.9680 B(  2-C , 15-H ) :   0.9704
B(  3-C ,  4-N ) :   1.2495 B(  3-C ,  5-C ) :   1.7045 B(  4-N ,  9-H ) :   0.9440
B(  4-N , 10-H ) :   0.9418 B(  5-C ,  6-H ) :   0.9522 B(  5-C ,  7-H ) :   0.9568

Dispersion correction           -0.003798810
FINAL SINGLE POINT ENERGY      -267.634212659992

DIPOLE MOMENT
-------------
                                X             Y             Z
Electronic contribution:      1.09911       1.28865       2.13221
Nuclear contribution   :     -1.82946      -1.24287      -3.25410
                        -----------------------------------------
Total Dipole Moment    :     -0.73034       0.04579      -1.12189
                        -----------------------------------------
Magnitude (a.u.)       :      1.33945
Magnitude (Debye)      :      3.40462

Rotational constants in cm-1:     0.244672     0.074506     0.064043
Rotational constants in MHz :  7335.067153  2233.624025  1919.970379

                             ****ORCA TERMINATED NORMALLY****
TOTAL RUN TIME: 0 days 0 hours 0 minutes 24 seconds 298 msec
