                         Program Version 5.0.0 -  RELEASE  -
|  1> !wB97X-D3 RIJCOSX def2-SVP def2/J TightSCF xyzfile
|  2>
|  3> *xyzfile 0 1 D1.xyz
|  4>
|  5> %MaxCore 64000
|  6>
|  7> %pal nprocs 18
|  8> end
|  9>
| 10> %scf
| 11>   MaxIter 150
| 12> end
| 13>
| 14>
| 15>                          ****END OF INPUT****

CARTESIAN COORDINATES (ANGSTROEM)
---------------------------------
  C      4.999862   -1.596133   -5.924876
  C      5.281560   -1.974132   -4.535764
  C      3.766779   -2.266110   -6.511752
  C      2.496702   -1.844161   -5.735704
  H      1.626416   -2.217434   -6.308950
  H      2.481824   -2.456069   -4.793414
  F      2.459729   -0.509204   -5.505757
  C      4.792500   -1.361316   -3.457295
  N      3.939898   -0.374925   -3.557359
  N      5.259860   -1.754224   -2.239133
  H      5.922824   -2.521451   -2.186720
  H      4.654678   -1.640404   -1.442016
  H      5.709139   -2.875599   -4.387021
  H      3.330101   -0.317639   -4.361247
  H      3.698494    0.114468   -2.708333
  H      4.843333   -0.517930   -5.943019
  H      5.901695   -1.822503   -6.496467
  H      3.886191   -3.357076   -6.533604
  H      3.685602   -1.922168   -7.547128

 Total Charge           Charge          ....    0
 Multiplicity           Mult            ....    1
 Number of Electrons    NEL             ....   64
 Basis Dimension        Dim             ....  167

ORBITAL ENERGIES
----------------

  NO   OCC          E(Eh)            E(eV)
   0   2.0000     -24.810864      -675.1379
   1   2.0000     -14.418707      -392.3530
   2   2.0000     -14.403537      -391.9402
   3   2.0000     -10.369442      -282.1669
   4   2.0000     -10.320142      -280.8254
   5   2.0000     -10.279936      -279.7313
   6   2.0000     -10.258393      -279.1451
   7   2.0000     -10.197660      -277.4924
   8   2.0000      -1.339169       -36.4406
   9   2.0000      -1.052697       -28.6453
  10   2.0000      -0.959380       -26.1061
  11   2.0000      -0.900406       -24.5013
  12   2.0000      -0.825837       -22.4722
  13   2.0000      -0.772597       -21.0234
  14   2.0000      -0.699485       -19.0340
  15   2.0000      -0.687502       -18.7079
  16   2.0000      -0.641399       -17.4534
  17   2.0000      -0.626592       -17.0504
  18   2.0000      -0.612522       -16.6676
  19   2.0000      -0.592224       -16.1152
  20   2.0000      -0.586662       -15.9639
  21   2.0000      -0.548595       -14.9280
  22   2.0000      -0.517190       -14.0735
  23   2.0000      -0.499676       -13.5969
  24   2.0000      -0.486828       -13.2473
  25   2.0000      -0.463681       -12.6174
  26   2.0000      -0.442285       -12.0352
  27   2.0000      -0.426941       -11.6177
  28   2.0000      -0.412713       -11.2305
  29   2.0000      -0.403259       -10.9732
  30   2.0000      -0.340286        -9.2597
  31   2.0000      -0.234619        -6.3843
  32   0.0000       0.142921         3.8891
  33   0.0000       0.161501         4.3947
  34   0.0000       0.181086         4.9276
  35   0.0000       0.186669         5.0795
  36   0.0000       0.192517         5.2387

MULLIKEN ATOMIC CHARGES
-----------------------
   0 C :    0.021597
   1 C :   -0.236198
   2 C :   -0.061945
   3 C :    0.207336
   4 H :    0.039606
   5 H :    0.049497
   6 F :   -0.236838
   7 C :   -0.020513
   8 N :   -0.104479
   9 N :   -0.128165
  10 H :    0.123370
  11 H :    0.103765
  12 H :   -0.081643
  13 H :    0.137878
  14 H :    0.105168
  15 H :    0.013872
  16 H :    0.015474
  17 H :    0.027507
  18 H :    0.024709
Sum of atomic charges:    0.0000000

LOEWDIN ATOMIC CHARGES
----------------------
   0 C :   -0.046278
   1 C :   -0.239432
   2 C :   -0.060855
   3 C :    0.101117
   4 H :    0.019753
   5 H :    0.022242
   6 F :   -0.047031
   7 C :    0.029528
   8 N :   -0.018157
   9 N :   -0.049698
  10 H :    0.080223
  11 H :    0.056375
  12 H :   -0.015894
  13 H :    0.012354
  14 H :    0.063308
  15 H :    0.017815
  16 H :    0.026346
  17 H :    0.029963
  18 H :    0.018320

  Mayer bond orders larger than 0.100000
B(  0-C ,  1-C ) :   1.0650 B(  0-C ,  2-C ) :   1.0545 B(  0-C , 15-H ) :   0.9455
B(  0-C , 16-H ) :   0.9316 B(  1-C ,  7-C ) :   1.6536 B(  1-C , 12-H ) :   0.9583
B(  2-C ,  3-C ) :   1.0580 B(  2-C , 17-H ) :   0.9424 B(  2-C , 18-H ) :   0.9484
B(  3-C ,  4-H ) :   0.9620 B(  3-C ,  5-H ) :   0.9551 B(  3-C ,  6-F ) :   0.9043
B(  6-F , 13-H ) :   0.1333 B(  7-C ,  8-N ) :   1.3042 B(  7-C ,  9-N ) :   1.2081
B(  8-N , 13-H ) :   0.8827 B(  8-N , 14-H ) :   0.9453 B(  9-N , 10-H ) :   0.9449
B(  9-N , 11-H ) :   0.9518

Dispersion correction           -0.006125443
FINAL SINGLE POINT ENERGY      -406.044455110750

DIPOLE MOMENT
-------------
                                X             Y             Z
Electronic contribution:     -3.43116       4.03153       0.94438
Nuclear contribution   :      2.63975      -4.51113      -0.34926
                        -----------------------------------------
Total Dipole Moment    :     -0.79142      -0.47960       0.59512
                        -----------------------------------------
Magnitude (a.u.)       :      1.10024
Magnitude (Debye)      :      2.79658

Rotational constants in cm-1:     0.109429     0.049838     0.039337
Rotational constants in MHz :  3280.611039  1494.113088  1179.280063

                             ****ORCA TERMINATED NORMALLY****
TOTAL RUN TIME: 0 days 0 hours 0 minutes 15 seconds 789 msec
