                         Program Version 5.0.0 -  RELEASE  -
|  1> !wB97X-D3 RIJCOSX def2-SVP def2/J TightSCF xyzfile
|  2>
|  3> *xyzfile 0 1 D3.xyz
|  4>
|  5> %MaxCore 64000
|  6>
|  7> %pal nprocs 18
|  8> end
|  9>
| 10> %scf
| 11>   MaxIter 150
| 12> end
| 13>
| 14>
| 15>                          ****END OF INPUT****

CARTESIAN COORDINATES (ANGSTROEM)
---------------------------------
  C      4.999862   -1.596133   -5.924876
  N      5.281560   -1.974132   -4.535764
  C      3.766779   -2.266110   -6.511752
  C      2.496702   -1.844161   -5.735704
  H      1.626416   -2.217434   -6.308950
  H      2.481824   -2.456069   -4.793414
  F      2.459729   -0.509204   -5.505757
  C      4.792500   -1.361316   -3.457295
  N      3.939898   -0.374925   -3.557359
  C      5.259860   -1.754224   -2.239133
  H      5.922824   -2.521451   -2.186720
  H      4.654678   -1.640404   -1.442016
  H      5.709139   -2.875599   -4.387021
  H      3.330101   -0.317639   -4.361247
  H      3.698494    0.114468   -2.708333
  H      4.843333   -0.517930   -5.943019
  H      5.901695   -1.822503   -6.496467
  H      3.886191   -3.357076   -6.533604
  H      3.685602   -1.922168   -7.547128

 Total Charge           Charge          ....    0
 Multiplicity           Mult            ....    1
 Number of Electrons    NEL             ....   64
 Basis Dimension        Dim             ....  167

ORBITAL ENERGIES
----------------

  NO   OCC          E(Eh)            E(eV)
   0   2.0000     -24.826902      -675.5744
   1   2.0000     -14.428275      -392.6133
   2   2.0000     -14.402738      -391.9184
   3   2.0000     -10.390321      -282.7350
   4   2.0000     -10.329102      -281.0692
   5   2.0000     -10.322825      -280.8984
   6   2.0000     -10.309387      -280.5327
   7   2.0000     -10.181241      -277.0457
   8   2.0000      -1.355629       -36.8885
   9   2.0000      -1.067215       -29.0404
  10   2.0000      -0.982513       -26.7355
  11   2.0000      -0.907237       -24.6872
  12   2.0000      -0.833310       -22.6755
  13   2.0000      -0.772775       -21.0283
  14   2.0000      -0.722728       -19.6664
  15   2.0000      -0.695878       -18.9358
  16   2.0000      -0.676263       -18.4021
  17   2.0000      -0.645673       -17.5696
  18   2.0000      -0.616224       -16.7683
  19   2.0000      -0.603081       -16.4107
  20   2.0000      -0.568658       -15.4740
  21   2.0000      -0.565486       -15.3876
  22   2.0000      -0.533754       -14.5242
  23   2.0000      -0.521355       -14.1868
  24   2.0000      -0.481427       -13.1003
  25   2.0000      -0.471843       -12.8395
  26   2.0000      -0.463803       -12.6207
  27   2.0000      -0.449297       -12.2260
  28   2.0000      -0.436254       -11.8711
  29   2.0000      -0.430510       -11.7148
  30   2.0000      -0.333908        -9.0861
  31   2.0000      -0.229514        -6.2454
  32   0.0000       0.129783         3.5316
  33   0.0000       0.164264         4.4699
  34   0.0000       0.167794         4.5659
  35   0.0000       0.176670         4.8074
  36   0.0000       0.187972         5.1150

MULLIKEN ATOMIC CHARGES
-----------------------
   0 C :    0.056689
   1 N :   -0.210650
   2 C :   -0.090319
   3 C :    0.198126
   4 H :    0.050879
   5 H :    0.065517
   6 F :   -0.231633
   7 C :   -0.035701
   8 N :   -0.112888
   9 C :   -0.144452
  10 H :   -0.059041
  11 H :   -0.041497
  12 H :    0.131120
  13 H :    0.125256
  14 H :    0.127292
  15 H :    0.045469
  16 H :    0.040978
  17 H :    0.043220
  18 H :    0.041635
Sum of atomic charges:   -0.0000000

LOEWDIN ATOMIC CHARGES
----------------------
   0 C :    0.027597
   1 N :   -0.039551
   2 C :   -0.073485
   3 C :    0.101803
   4 H :    0.025374
   5 H :    0.028510
   6 F :   -0.044249
   7 C :    0.036227
   8 N :   -0.017883
   9 C :   -0.295111
  10 H :   -0.015856
  11 H :   -0.014992
  12 H :    0.079616
  13 H :    0.002175
  14 H :    0.082434
  15 H :    0.026425
  16 H :    0.027603
  17 H :    0.034389
  18 H :    0.028973

  Mayer bond orders larger than 0.100000
B(  0-C ,  1-N ) :   1.0082 B(  0-C ,  2-C ) :   1.0453 B(  0-C , 15-H ) :   0.9527
B(  0-C , 16-H ) :   0.9613 B(  1-N ,  7-C ) :   1.1550 B(  1-N , 12-H ) :   0.9331
B(  2-C ,  3-C ) :   1.0540 B(  2-C , 17-H ) :   0.9427 B(  2-C , 18-H ) :   0.9463
B(  3-C ,  4-H ) :   0.9627 B(  3-C ,  5-H ) :   0.9536 B(  3-C ,  6-F ) :   0.9114
B(  6-F , 13-H ) :   0.1249 B(  7-C ,  8-N ) :   1.2862 B(  7-C ,  9-C ) :   1.7056
B(  8-N , 13-H ) :   0.8982 B(  8-N , 14-H ) :   0.9418 B(  9-C , 10-H ) :   0.9493
B(  9-C , 11-H ) :   0.9576

Dispersion correction           -0.006195385
FINAL SINGLE POINT ENERGY      -406.028955125938

DIPOLE MOMENT
-------------
                                X             Y             Z
Electronic contribution:     -3.55485       3.88904      -1.51111
Nuclear contribution   :      2.63642      -4.47741       0.00296
                        -----------------------------------------
Total Dipole Moment    :     -0.91843      -0.58837      -1.50815
                        -----------------------------------------
Magnitude (a.u.)       :      1.86124
Magnitude (Debye)      :      4.73090

Rotational constants in cm-1:     0.108041     0.051979     0.040387
Rotational constants in MHz :  3238.993235  1558.297571  1210.782552

                             ****ORCA TERMINATED NORMALLY****
TOTAL RUN TIME: 0 days 0 hours 0 minutes 16 seconds 194 msec
