                         Program Version 5.0.0 -  RELEASE  -
|  1> !LC-PBE RIJCOSX def2-TZVPD def2/J TightSCF
|  2> *xyz -1 1
|  3> C         -0.77894        0.17197        1.80496
|  4> C         -0.60249       -0.63071        0.49224
|  5> H          0.31389       -1.24035        0.60350
|  6> H         -0.36383        0.11332       -0.30117
|  7> O         -1.71206       -1.37684        0.20253
|  8> H         -1.65864        0.77733        1.73736
|  9> H          0.07466        0.79896        1.95712
| 10> H         -0.87474       -0.50584        2.62734
| 11> *
| 12> %MaxCore 64000
| 13>
| 14> %pal nprocs 4
| 15> end
| 16>
| 17> %scf
| 18>   MaxIter 150
| 19> end
| 20>
| 21>
| 22>                          ****END OF INPUT****

CARTESIAN COORDINATES (ANGSTROEM)
---------------------------------
  C     -0.778940    0.171970    1.804960
  C     -0.602490   -0.630710    0.492240
  H      0.313890   -1.240350    0.603500
  H     -0.363830    0.113320   -0.301170
  O     -1.712060   -1.376840    0.202530
  H     -1.658640    0.777330    1.737360
  H      0.074660    0.798960    1.957120
  H     -0.874740   -0.505840    2.627340

 Total Charge           Charge          ....   -1
 Multiplicity           Mult            ....    1
 Number of Electrons    NEL             ....   26
 Basis Dimension        Dim             ....  159

ORBITAL ENERGIES
----------------

  NO   OCC          E(Eh)            E(eV)
   0   2.0000     -18.632014      -507.0029
   1   2.0000      -9.926680      -270.1187
   2   2.0000      -9.901630      -269.4371
   3   2.0000      -0.842414       -22.9233
   4   2.0000      -0.692631       -18.8475
   5   2.0000      -0.528797       -14.3893
   6   2.0000      -0.393592       -10.7102
   7   2.0000      -0.365460        -9.9447
   8   2.0000      -0.306345        -8.3361
   9   2.0000      -0.288640        -7.8543
  10   2.0000      -0.242322        -6.5939
  11   2.0000      -0.091723        -2.4959
  12   2.0000      -0.090539        -2.4637
  13   0.0000       0.209945         5.7129
  14   0.0000       0.230382         6.2690
  15   0.0000       0.261622         7.1191
  16   0.0000       0.262324         7.1382
  17   0.0000       0.285993         7.7823

MULLIKEN ATOMIC CHARGES
-----------------------
   0 C :   -1.008120
   1 C :   -0.382375
   2 H :    0.213397
   3 H :    0.207900
   4 O :   -0.918987
   5 H :    0.271580
   6 H :    0.348764
   7 H :    0.267841
Sum of atomic charges:   -1.0000000

LOEWDIN ATOMIC CHARGES
----------------------
   0 C :   -0.189477
   1 C :   -0.638492
   2 H :    0.065655
   3 H :    0.067251
   4 O :   -0.436511
   5 H :    0.048159
   6 H :    0.036539
   7 H :    0.046876

  Mayer bond orders larger than 0.100000
B(  0-C ,  1-C ) :   0.7606 B(  0-C ,  4-O ) :   0.1904 B(  0-C ,  5-H ) :   0.9731
B(  0-C ,  6-H ) :   0.9284 B(  0-C ,  7-H ) :   0.9694 B(  1-C ,  2-H ) :   1.0362
B(  1-C ,  3-H ) :   1.0407 B(  1-C ,  4-O ) :   0.9999

FINAL SINGLE POINT ENERGY      -154.010412786666

DIPOLE MOMENT
-------------
                                X             Y             Z
Electronic contribution:     -1.50474      -1.74179      -1.43317
Nuclear contribution   :      2.47835       2.80827       2.30058
                        -----------------------------------------
Total Dipole Moment    :      0.97361       1.06648       0.86742
                        -----------------------------------------
Magnitude (a.u.)       :      1.68455
Magnitude (Debye)      :      4.28178

Rotational constants in cm-1:     1.255775     0.327783     0.287473
Rotational constants in MHz : 37647.186859  9826.677683  8618.224821

                             ****ORCA TERMINATED NORMALLY****
TOTAL RUN TIME: 0 days 0 hours 0 minutes 15 seconds 554 msec
