                         Program Version 5.0.0 -  RELEASE  -
|  1> !LC-PBE RIJCOSX def2-TZVPD def2/J TightSCF
|  2> *xyz 1 1
|  3> C         -2.12050        0.88520        1.78951
|  4> C         -0.77894        0.17197        1.80496
|  5> H         -2.32419        1.47265        2.68608
|  6> H         -2.18770        1.54127        0.91948
|  7> N         -3.17690       -0.15948        1.61070
|  8> H         -4.06474        0.23127        1.28675
|  9> H         -3.34407       -0.67151        2.48493
| 10> H         -2.71686       -0.78189        0.93588
| 11> H         -0.65708       -0.37837        0.89547
| 12> H         -0.74207       -0.50050        2.63642
| 13> H          0.00707        0.89251        1.89389
| 14> *
| 15> %MaxCore 64000
| 16>
| 17> %pal nprocs 4
| 18> end
| 19>
| 20> %scf
| 21>   MaxIter 150
| 22> end
| 23>
| 24>
| 25>                          ****END OF INPUT****

CARTESIAN COORDINATES (ANGSTROEM)
---------------------------------
  C     -2.120500    0.885200    1.789510
  C     -0.778940    0.171970    1.804960
  H     -2.324190    1.472650    2.686080
  H     -2.187700    1.541270    0.919480
  N     -3.176900   -0.159480    1.610700
  H     -4.064740    0.231270    1.286750
  H     -3.344070   -0.671510    2.484930
  H     -2.716860   -0.781890    0.935880
  H     -0.657080   -0.378370    0.895470
  H     -0.742070   -0.500500    2.636420
  H      0.007070    0.892510    1.893890

 Total Charge           Charge          ....    1
 Multiplicity           Mult            ....    1
 Number of Electrons    NEL             ....   26
 Basis Dimension        Dim             ....  183

ORBITAL ENERGIES
----------------

  NO   OCC          E(Eh)            E(eV)
   0   2.0000     -14.547120      -395.8473
   1   2.0000     -10.371699      -282.2283
   2   2.0000     -10.292285      -280.0673
   3   2.0000      -1.390959       -37.8499
   4   2.0000      -1.142000       -31.0754
   5   2.0000      -1.008151       -27.4332
   6   2.0000      -0.952332       -25.9143
   7   2.0000      -0.941137       -25.6096
   8   2.0000      -0.833323       -22.6759
   9   2.0000      -0.785628       -21.3780
  10   2.0000      -0.719272       -19.5724
  11   2.0000      -0.710877       -19.3439
  12   2.0000      -0.686517       -18.6811
  13   0.0000      -0.118816        -3.2331
  14   0.0000      -0.067032        -1.8240
  15   0.0000      -0.063398        -1.7251
  16   0.0000      -0.060517        -1.6468
  17   0.0000      -0.027137        -0.7384

MULLIKEN ATOMIC CHARGES
-----------------------
   0 C :   -0.371443
   1 C :   -1.390457
   2 H :    0.383491
   3 H :    0.361440
   4 N :   -0.421428
   5 H :    0.382032
   6 H :    0.377474
   7 H :    0.394481
   8 H :    0.505236
   9 H :    0.420482
  10 H :    0.358693
Sum of atomic charges:    1.0000000

LOEWDIN ATOMIC CHARGES
----------------------
   0 C :   -0.213784
   1 C :   -0.084050
   2 H :    0.144833
   3 H :    0.143672
   4 N :    0.174275
   5 H :    0.185035
   6 H :    0.187785
   7 H :    0.173130
   8 H :    0.092197
   9 H :    0.094822
  10 H :    0.102085

  Mayer bond orders larger than 0.100000
B(  0-C ,  1-C ) :   0.5372 B(  0-C ,  2-H ) :   0.8864 B(  0-C ,  3-H ) :   0.9094
B(  0-C ,  4-N ) :   0.8587 B(  1-C ,  8-H ) :   0.7758 B(  1-C ,  9-H ) :   0.8838
B(  1-C , 10-H ) :   0.9565 B(  4-N ,  5-H ) :   0.8513 B(  4-N ,  6-H ) :   0.8548
B(  4-N ,  7-H ) :   0.8263

FINAL SINGLE POINT ENERGY      -135.128564395329

DIPOLE MOMENT
-------------
                                X             Y             Z
Electronic contribution:     -1.82914      -0.15808      -0.05905
Nuclear contribution   :      0.50278      -0.30871      -0.06979
                        -----------------------------------------
Total Dipole Moment    :     -1.32636      -0.46679      -0.12884
                        -----------------------------------------
Magnitude (a.u.)       :      1.41199
Magnitude (Debye)      :      3.58899

Rotational constants in cm-1:     0.963746     0.295157     0.256910
Rotational constants in MHz : 28892.375247  8848.576767  7701.963879

                             ****ORCA TERMINATED NORMALLY****
TOTAL RUN TIME: 0 days 0 hours 0 minutes 18 seconds 654 msec
