                         Program Version 5.0.0 -  RELEASE  -
|  1> !LC-PBE RIJCOSX def2-TZVPD def2/J TightSCF xyzfile
|  2>
|  3> *xyzfile 0 1 B.xyz
|  4>
|  5> %MaxCore 64000
|  6>
|  7> %pal nprocs 4
|  8> end
|  9>
| 10> %scf
| 11>   MaxIter 150
| 12> end
| 13>
| 14>
| 15>                          ****END OF INPUT****

CARTESIAN COORDINATES (ANGSTROEM)
---------------------------------
  C     -2.120502    0.885196    1.789506
  C     -0.778939    0.171966    1.804965
  H     -2.324193    1.472649    2.686078
  H     -2.187698    1.541272    0.919482
  N     -3.176900   -0.159484    1.610700
  H      0.015695    0.910767    1.939153
  H     -0.743553   -0.506827    2.665420
  C     -0.602493   -0.630712    0.492240
  H      0.313894   -1.240346    0.603498
  H     -0.363829    0.113322   -0.301169
  O     -1.712061   -1.376836    0.202535
  H     -4.064736    0.231272    1.286754
  H     -3.344073   -0.671511    2.484928
  H     -2.716861   -0.781886    0.935880

 Total Charge           Charge          ....    0
 Multiplicity           Mult            ....    1
 Number of Electrons    NEL             ....   42
 Basis Dimension        Dim             ....  269

ORBITAL ENERGIES
----------------

  NO   OCC          E(Eh)            E(eV)
   0   2.0000     -18.843673      -512.7624
   1   2.0000     -14.294735      -388.9795
   2   2.0000     -10.180343      -277.0212
   3   2.0000     -10.111421      -275.1458
   4   2.0000     -10.109294      -275.0879
   5   2.0000      -1.167781       -31.7769
   6   2.0000      -1.059894       -28.8412
   7   2.0000      -0.945343       -25.7241
   8   2.0000      -0.819429       -22.2978
   9   2.0000      -0.749724       -20.4010
  10   2.0000      -0.722797       -19.6683
  11   2.0000      -0.695130       -18.9155
  12   2.0000      -0.630301       -17.1514
  13   2.0000      -0.577660       -15.7189
  14   2.0000      -0.543360       -14.7856
  15   2.0000      -0.538463       -14.6523
  16   2.0000      -0.495681       -13.4882
  17   2.0000      -0.472384       -12.8542
  18   2.0000      -0.449857       -12.2412
  19   2.0000      -0.310707        -8.4548
  20   2.0000      -0.304631        -8.2894
  21   0.0000       0.042781         1.1641
  22   0.0000       0.073983         2.0132
  23   0.0000       0.076685         2.0867
  24   0.0000       0.094505         2.5716
  25   0.0000       0.118270         3.2183

MULLIKEN ATOMIC CHARGES
-----------------------
   0 C :   -0.542828
   1 C :   -0.856802
   2 H :    0.347556
   3 H :    0.341604
   4 N :   -0.325204
   5 H :    0.348954
   6 H :    0.355826
   7 C :   -0.332893
   8 H :    0.304272
   9 H :    0.275781
  10 O :   -0.859239
  11 H :    0.337244
  12 H :    0.345391
  13 H :    0.260336
Sum of atomic charges:    0.0000000

LOEWDIN ATOMIC CHARGES
----------------------
   0 C :   -0.194026
   1 C :   -0.210574
   2 H :    0.122879
   3 H :    0.136707
   4 N :    0.123536
   5 H :    0.118604
   6 H :    0.119665
   7 C :   -0.440692
   8 H :    0.107094
   9 H :    0.109141
  10 O :   -0.291513
  11 H :    0.162256
  12 H :    0.167212
  13 H :   -0.030288

  Mayer bond orders larger than 0.100000
B(  0-C ,  1-C ) :   0.7742 B(  0-C ,  2-H ) :   0.9606 B(  0-C ,  3-H ) :   0.8902
B(  0-C ,  4-N ) :   0.8816 B(  1-C ,  5-H ) :   0.9628 B(  1-C ,  6-H ) :   0.8965
B(  1-C ,  7-C ) :   0.9246 B(  1-C , 10-O ) :   0.1900 B(  4-N , 10-O ) :  -0.1515
B(  4-N , 11-H ) :   0.8952 B(  4-N , 12-H ) :   0.8715 B(  4-N , 13-H ) :   0.6353
B(  7-C ,  8-H ) :   1.0118 B(  7-C ,  9-H ) :   1.0097 B(  7-C , 10-O ) :   0.7298
B( 10-O , 13-H ) :   0.4297

FINAL SINGLE POINT ENERGY      -248.987125852858

DIPOLE MOMENT
-------------
                                X             Y             Z
Electronic contribution:     -1.48794      -1.38433      -0.74815
Nuclear contribution   :      0.08650       3.01678       2.47433
                        -----------------------------------------
Total Dipole Moment    :     -1.40144       1.63245       1.72618
                        -----------------------------------------
Magnitude (a.u.)       :      2.75837
Magnitude (Debye)      :      7.01123

Rotational constants in cm-1:     0.238796     0.156489     0.106146
Rotational constants in MHz :  7158.916762  4691.413084  3182.185740

                             ****ORCA TERMINATED NORMALLY****
TOTAL RUN TIME: 0 days 0 hours 0 minutes 46 seconds 654 msec
