                         Program Version 5.0.0 -  RELEASE  -
|  1> !LC-PBE RIJCOSX def2-TZVPD def2/J TightSCF
|  2> *xyz 0 1
|  3> C         -0.77894        0.17197        1.80496
|  4> C         -0.60249       -0.63071        0.49224
|  5> H          0.31389       -1.24035        0.60350
|  6> H         -0.36383        0.11332       -0.30117
|  7> F         -1.71206       -1.37684        0.20253
|  8> H         -1.65864        0.77733        1.73736
|  9> H          0.07466        0.79896        1.95712
| 10> H         -0.87474       -0.50584        2.62734
| 11> *
| 12> %MaxCore 64000
| 13>
| 14> %pal nprocs 4
| 15> end
| 16>
| 17> %scf
| 18>   MaxIter 150
| 19> end
| 20>
| 21>
| 22>                          ****END OF INPUT****

CARTESIAN COORDINATES (ANGSTROEM)
---------------------------------
  C     -0.778940    0.171970    1.804960
  C     -0.602490   -0.630710    0.492240
  H      0.313890   -1.240350    0.603500
  H     -0.363830    0.113320   -0.301170
  F     -1.712060   -1.376840    0.202530
  H     -1.658640    0.777330    1.737360
  H      0.074660    0.798960    1.957120
  H     -0.874740   -0.505840    2.627340

 Total Charge           Charge          ....    0
 Multiplicity           Mult            ....    1
 Number of Electrons    NEL             ....   26
 Basis Dimension        Dim             ....  159

ORBITAL ENERGIES
----------------

  NO   OCC          E(Eh)            E(eV)
   0   2.0000     -24.476653      -666.0436
   1   2.0000     -10.196199      -277.4527
   2   2.0000     -10.108404      -275.0637
   3   2.0000      -1.355652       -36.8892
   4   2.0000      -0.938904       -25.5489
   5   2.0000      -0.795141       -21.6369
   6   2.0000      -0.657804       -17.8998
   7   2.0000      -0.648927       -17.6582
   8   2.0000      -0.606563       -16.5054
   9   2.0000      -0.545873       -14.8540
  10   2.0000      -0.536703       -14.6044
  11   2.0000      -0.468524       -12.7492
  12   2.0000      -0.463429       -12.6105
  13   0.0000       0.069121         1.8809
  14   0.0000       0.091063         2.4779
  15   0.0000       0.114463         3.1147
  16   0.0000       0.116703         3.1757
  17   0.0000       0.145765         3.9665

MULLIKEN ATOMIC CHARGES
-----------------------
   0 C :   -1.095806
   1 C :   -0.204043
   2 H :    0.274817
   3 H :    0.271250
   4 F :   -0.267921
   5 H :    0.331663
   6 H :    0.368184
   7 H :    0.321855
Sum of atomic charges:    0.0000000

LOEWDIN ATOMIC CHARGES
----------------------
   0 C :   -0.107739
   1 C :   -0.308865
   2 H :    0.118407
   3 H :    0.120986
   4 F :   -0.040014
   5 H :    0.072492
   6 H :    0.073427
   7 H :    0.071306

  Mayer bond orders larger than 0.100000
B(  0-C ,  1-C ) :   0.7723 B(  0-C ,  5-H ) :   0.9233 B(  0-C ,  6-H ) :   0.9046
B(  0-C ,  7-H ) :   0.9284 B(  1-C ,  2-H ) :   0.9601 B(  1-C ,  3-H ) :   0.9649
B(  1-C ,  4-F ) :   0.7994

FINAL SINGLE POINT ENERGY      -178.632509831642

DIPOLE MOMENT
-------------
                                X             Y             Z
Electronic contribution:     -2.69837      -3.26590      -2.81564
Nuclear contribution   :      3.27800       3.70743       3.04146
                        -----------------------------------------
Total Dipole Moment    :      0.57964       0.44153       0.22582
                        -----------------------------------------
Magnitude (a.u.)       :      0.76284
Magnitude (Debye)      :      1.93899

Rotational constants in cm-1:     1.234437     0.305084     0.268865
Rotational constants in MHz : 37007.496448  9146.194083  8060.380630

                             ****ORCA TERMINATED NORMALLY****
TOTAL RUN TIME: 0 days 0 hours 0 minutes 14 seconds 542 msec
