                         Program Version 5.0.0 -  RELEASE  -
|  1> !LC-PBE RIJCOSX def2-TZVPD def2/J TightSCF
|  2> *xyz 0 1
|  3> C         -2.12050        0.88520        1.78951
|  4> C         -0.77894        0.17197        1.80496
|  5> H         -2.32419        1.47265        2.68608
|  6> H         -2.18770        1.54127        0.91948
|  7> C         -3.17690       -0.15948        1.61070
|  8> H         -4.06474        0.23127        1.28675
|  9> H         -3.34407       -0.67151        2.48493
| 10> H         -2.71686       -0.78189        0.93588
| 11> H         -0.65708       -0.37837        0.89547
| 12> H         -0.74207       -0.50050        2.63642
| 13> H          0.00707        0.89251        1.89389
| 14> *
| 15> %MaxCore 64000
| 16>
| 17> %pal nprocs 4
| 18> end
| 19>
| 20> %scf
| 21>   MaxIter 150
| 22> end
| 23>
| 24>
| 25>                          ****END OF INPUT****

CARTESIAN COORDINATES (ANGSTROEM)
---------------------------------
  C     -2.120500    0.885200    1.789510
  C     -0.778940    0.171970    1.804960
  H     -2.324190    1.472650    2.686080
  H     -2.187700    1.541270    0.919480
  C     -3.176900   -0.159480    1.610700
  H     -4.064740    0.231270    1.286750
  H     -3.344070   -0.671510    2.484930
  H     -2.716860   -0.781890    0.935880
  H     -0.657080   -0.378370    0.895470
  H     -0.742070   -0.500500    2.636420
  H      0.007070    0.892510    1.893890

 Total Charge           Charge          ....    0
 Multiplicity           Mult            ....    1
 Number of Electrons    NEL             ....   26
 Basis Dimension        Dim             ....  183

ORBITAL ENERGIES
----------------

  NO   OCC          E(Eh)            E(eV)
   0   2.0000     -10.100556      -274.8501
   1   2.0000     -10.090206      -274.5685
   2   2.0000     -10.069934      -274.0168
   3   2.0000      -0.976366       -26.5683
   4   2.0000      -0.855270       -23.2731
   5   2.0000      -0.745711       -20.2918
   6   2.0000      -0.620032       -16.8719
   7   2.0000      -0.598519       -16.2865
   8   2.0000      -0.537260       -14.6196
   9   2.0000      -0.519401       -14.1336
  10   2.0000      -0.469330       -12.7711
  11   2.0000      -0.460731       -12.5371
  12   2.0000      -0.454539       -12.3686
  13   0.0000       0.074824         2.0361
  14   0.0000       0.091865         2.4998
  15   0.0000       0.094067         2.5597
  16   0.0000       0.125584         3.4173
  17   0.0000       0.146087         3.9752

MULLIKEN ATOMIC CHARGES
-----------------------
   0 C :   -0.297683
   1 C :   -1.262145
   2 H :    0.325574
   3 H :    0.311234
   4 C :   -1.285274
   5 H :    0.359377
   6 H :    0.373876
   7 H :    0.376972
   8 H :    0.413209
   9 H :    0.346947
  10 H :    0.337913
Sum of atomic charges:   -0.0000000

LOEWDIN ATOMIC CHARGES
----------------------
   0 C :   -0.334994
   1 C :   -0.147183
   2 H :    0.112036
   3 H :    0.111970
   4 C :   -0.146220
   5 H :    0.058688
   6 H :    0.064924
   7 H :    0.055668
   8 H :    0.075351
   9 H :    0.079400
  10 H :    0.070360

  Mayer bond orders larger than 0.100000
B(  0-C ,  1-C ) :   0.5776 B(  0-C ,  2-H ) :   0.8904 B(  0-C ,  3-H ) :   0.9376
B(  0-C ,  4-C ) :   0.5829 B(  1-C ,  8-H ) :   0.8819 B(  1-C ,  9-H ) :   0.9464
B(  1-C , 10-H ) :   0.9735 B(  4-C ,  5-H ) :   0.9378 B(  4-C ,  6-H ) :   0.9338
B(  4-C ,  7-H ) :   0.8980

FINAL SINGLE POINT ENERGY      -118.732824817519

DIPOLE MOMENT
-------------
                                X             Y             Z
Electronic contribution:     -0.13913       0.47217       0.11280
Nuclear contribution   :      0.13334      -0.45108      -0.10852
                        -----------------------------------------
Total Dipole Moment    :     -0.00579       0.02109       0.00428
                        -----------------------------------------
Magnitude (a.u.)       :      0.02229
Magnitude (Debye)      :      0.05665

Rotational constants in cm-1:     0.972269     0.310387     0.269029
Rotational constants in MHz : 29147.878530  9305.178981  8065.286472

                             ****ORCA TERMINATED NORMALLY****
TOTAL RUN TIME: 0 days 0 hours 0 minutes 19 seconds 27 msec
