                         Program Version 5.0.0 -  RELEASE  -
|  1> !LC-PBE RIJCOSX def2-TZVPD def2/J TightSCF xyzfile
|  2>
|  3> *xyzfile 0 1 D.xyz
|  4>
|  5> %MaxCore 64000
|  6>
|  7> %pal nprocs 4
|  8> end
|  9>
| 10> %scf
| 11>   MaxIter 150
| 12> end
| 13>
| 14>
| 15>                          ****END OF INPUT****

CARTESIAN COORDINATES (ANGSTROEM)
---------------------------------
  C     -2.120502    0.885196    1.789506
  C     -0.778939    0.171966    1.804965
  H     -2.324193    1.472649    2.686078
  H     -2.187698    1.541272    0.919482
  C     -3.176900   -0.159484    1.610700
  H      0.015695    0.910767    1.939153
  H     -0.743553   -0.506827    2.665420
  C     -0.602493   -0.630712    0.492240
  H      0.313894   -1.240346    0.603498
  H     -0.363829    0.113322   -0.301169
  F     -1.712061   -1.376836    0.202535
  H     -4.064736    0.231272    1.286754
  H     -3.344073   -0.671511    2.484928
  H     -2.716861   -0.781886    0.935880

 Total Charge           Charge          ....    0
 Multiplicity           Mult            ....    1
 Number of Electrons    NEL             ....   42
 Basis Dimension        Dim             ....  269

ORBITAL ENERGIES
----------------

  NO   OCC          E(Eh)            E(eV)
   0   2.0000     -24.494829      -666.5382
   1   2.0000     -10.203443      -277.6498
   2   2.0000     -10.120031      -275.3800
   3   2.0000     -10.099106      -274.8107
   4   2.0000     -10.034539      -273.0537
   5   2.0000      -1.388235       -37.7758
   6   2.0000      -0.987685       -26.8763
   7   2.0000      -0.908162       -24.7123
   8   2.0000      -0.801279       -21.8039
   9   2.0000      -0.753166       -20.4947
  10   2.0000      -0.685441       -18.6518
  11   2.0000      -0.677292       -18.4300
  12   2.0000      -0.637904       -17.3582
  13   2.0000      -0.583545       -15.8791
  14   2.0000      -0.554794       -15.0967
  15   2.0000      -0.544569       -14.8185
  16   2.0000      -0.513914       -13.9843
  17   2.0000      -0.477405       -12.9908
  18   2.0000      -0.457461       -12.4481
  19   2.0000      -0.449952       -12.2438
  20   2.0000      -0.401923       -10.9369
  21   0.0000       0.068683         1.8690
  22   0.0000       0.087552         2.3824
  23   0.0000       0.089201         2.4273
  24   0.0000       0.091000         2.4762
  25   0.0000       0.122203         3.3253

MULLIKEN ATOMIC CHARGES
-----------------------
   0 C :   -0.513333
   1 C :   -0.814142
   2 H :    0.306070
   3 H :    0.319863
   4 C :   -1.268671
   5 H :    0.328711
   6 H :    0.357934
   7 C :   -0.279248
   8 H :    0.338440
   9 H :    0.313181
  10 F :   -0.265560
  11 H :    0.379684
  12 H :    0.397334
  13 H :    0.399738
Sum of atomic charges:    0.0000000

LOEWDIN ATOMIC CHARGES
----------------------
   0 C :   -0.275636
   1 C :   -0.207644
   2 H :    0.114477
   3 H :    0.120227
   4 C :   -0.126473
   5 H :    0.120953
   6 H :    0.125094
   7 C :   -0.219155
   8 H :    0.128747
   9 H :    0.137067
  10 F :   -0.032605
  11 H :    0.064705
  12 H :    0.070897
  13 H :   -0.020653

  Mayer bond orders larger than 0.100000
B(  0-C ,  1-C ) :   0.7481 B(  0-C ,  2-H ) :   0.9467 B(  0-C ,  3-H ) :   0.9394
B(  0-C ,  4-C ) :   0.6120 B(  1-C ,  5-H ) :   0.9601 B(  1-C ,  6-H ) :   0.9258
B(  1-C ,  7-C ) :   0.8724 B(  4-C , 11-H ) :   0.9537 B(  4-C , 12-H ) :   0.9402
B(  4-C , 13-H ) :   0.9588 B(  7-C ,  8-H ) :   0.9453 B(  7-C ,  9-H ) :   0.9630
B(  7-C , 10-F ) :   0.7895 B( 10-F , 13-H ) :  -0.1597

FINAL SINGLE POINT ENERGY      -256.951869224810

DIPOLE MOMENT
-------------
                                X             Y             Z
Electronic contribution:      0.92663      -4.17494      -3.72702
Nuclear contribution   :     -0.20666       4.43855       3.76066
                        -----------------------------------------
Total Dipole Moment    :      0.71996       0.26360       0.03364
                        -----------------------------------------
Magnitude (a.u.)       :      0.76744
Magnitude (Debye)      :      1.95068

Rotational constants in cm-1:     0.236353     0.155239     0.105045
Rotational constants in MHz :  7085.692869  4653.957069  3149.180346

                             ****ORCA TERMINATED NORMALLY****
TOTAL RUN TIME: 0 days 0 hours 0 minutes 47 seconds 141 msec
