                         Program Version 5.0.0 -  RELEASE  -
|  1> !LC-BLYP RIJCOSX def2-TZVPD def2/J TightSCF
|  2> *xyz -1 1
|  3> C         -0.05517        1.61942       -3.78858
|  4> C          1.22302        2.46987       -3.75691
|  5> H          1.11470        3.25807       -4.53300
|  6> H          1.23773        3.01124       -2.79216
|  7> O          2.35381        1.71203       -3.93448
|  8> H         -0.10198        1.08015       -4.71156
|  9> H         -0.91014        2.25726       -3.70441
| 10> H         -0.04403        0.92826       -2.97183
| 11> *
| 12>
| 13> %MaxCore 64000
| 14>
| 15> %pal nprocs 4
| 16> end
| 17>
| 18> %scf
| 19>   MaxIter 150
| 20> end
| 21>
| 22>
| 23>                          ****END OF INPUT****

CARTESIAN COORDINATES (ANGSTROEM)
---------------------------------
  C     -0.055170    1.619420   -3.788580
  C      1.223020    2.469870   -3.756910
  H      1.114700    3.258070   -4.533000
  H      1.237730    3.011240   -2.792160
  O      2.353810    1.712030   -3.934480
  H     -0.101980    1.080150   -4.711560
  H     -0.910140    2.257260   -3.704410
  H     -0.044030    0.928260   -2.971830

 Total Charge           Charge          ....   -1
 Multiplicity           Mult            ....    1
 Number of Electrons    NEL             ....   26
 Basis Dimension        Dim             ....  159

ORBITAL ENERGIES
----------------

  NO   OCC          E(Eh)            E(eV)
   0   2.0000     -18.605168      -506.2724
   1   2.0000      -9.883393      -268.9408
   2   2.0000      -9.859178      -268.2819
   3   2.0000      -0.776327       -21.1249
   4   2.0000      -0.634702       -17.2711
   5   2.0000      -0.481200       -13.0941
   6   2.0000      -0.359041        -9.7700
   7   2.0000      -0.332872        -9.0579
   8   2.0000      -0.276982        -7.5371
   9   2.0000      -0.258001        -7.0206
  10   2.0000      -0.211748        -5.7619
  11   2.0000      -0.066800        -1.8177
  12   2.0000      -0.065151        -1.7729
  13   0.0000       0.198206         5.3934
  14   0.0000       0.219351         5.9688
  15   0.0000       0.249397         6.7864
  16   0.0000       0.249987         6.8025
  17   0.0000       0.273487         7.4419

MULLIKEN ATOMIC CHARGES
-----------------------
   0 C :   -1.183205
   1 C :   -0.510494
   2 H :    0.291379
   3 H :    0.290812
   4 O :   -0.911466
   5 H :    0.317191
   6 H :    0.396998
   7 H :    0.308786
Sum of atomic charges:   -1.0000000

LOEWDIN ATOMIC CHARGES
----------------------
   0 C :   -0.185448
   1 C :   -0.643320
   2 H :    0.063654
   3 H :    0.062313
   4 O :   -0.419260
   5 H :    0.044736
   6 H :    0.033370
   7 H :    0.043955

  Mayer bond orders larger than 0.100000
B(  0-C ,  1-C ) :   0.6494 B(  0-C ,  4-O ) :   0.2632 B(  0-C ,  5-H ) :   0.9596
B(  0-C ,  6-H ) :   0.9106 B(  0-C ,  7-H ) :   0.9631 B(  1-C ,  2-H ) :   1.0027
B(  1-C ,  3-H ) :   1.0051 B(  1-C ,  4-O ) :   0.9385 B(  2-H ,  3-H ) :   0.1036

FINAL SINGLE POINT ENERGY      -154.111283839436

DIPOLE MOMENT
-------------
                                X             Y             Z
Electronic contribution:      2.67701      -0.47186      -0.23850
Nuclear contribution   :     -4.28298       0.81046       0.39340
                        -----------------------------------------
Total Dipole Moment    :     -1.60597       0.33860       0.15491
                        -----------------------------------------
Magnitude (a.u.)       :      1.64857
Magnitude (Debye)      :      4.19034

Rotational constants in cm-1:     1.266793     0.328147     0.288309
Rotational constants in MHz : 37977.512300  9837.594308  8643.275638

                             ****ORCA TERMINATED NORMALLY****
TOTAL RUN TIME: 0 days 0 hours 0 minutes 17 seconds 854 msec
