                         Program Version 5.0.0 -  RELEASE  -
|  1> !LC-BLYP RIJCOSX def2-TZVPD def2/J TightSCF
|  2> *xyz 1 1
|  3> C          1.63556       -1.67040       -5.29211
|  4> C          0.33848       -1.50091       -4.50540
|  5> N          2.48451       -0.50741       -5.14039
|  6> H          1.39834       -1.82924       -6.35259
|  7> H          2.15586       -2.56540       -4.93209
|  8> C          3.45115       -0.14953       -5.95259
|  9> N          3.92267        1.08956       -5.85071
| 10> N          3.96616       -1.00618       -6.86788
| 11> H          3.52139       -1.90647       -6.99527
| 12> H          4.44482       -0.62347       -7.67035
| 13> H          2.25200        0.24080       -4.49879
| 14> H          3.46428        1.64078       -5.13639
| 15> H          4.83447        1.31375       -6.22465
| 16> H         -0.17658       -0.62881       -4.85045
| 17> H          0.56384       -1.39374       -3.46490
| 18> H         -0.28102       -2.36136       -4.64938
| 19> *
| 20>
| 21> %MaxCore 64000
| 22>
| 23> %pal nprocs 4
| 24> end
| 25>
| 26> %scf
| 27>   MaxIter 150
| 28> end
| 29>
| 30>
| 31>                          ****END OF INPUT****

CARTESIAN COORDINATES (ANGSTROEM)
---------------------------------
  C      1.635560   -1.670400   -5.292110
  C      0.338480   -1.500910   -4.505400
  N      2.484510   -0.507410   -5.140390
  H      1.398340   -1.829240   -6.352590
  H      2.155860   -2.565400   -4.932090
  C      3.451150   -0.149530   -5.952590
  N      3.922670    1.089560   -5.850710
  N      3.966160   -1.006180   -6.867880
  H      3.521390   -1.906470   -6.995270
  H      4.444820   -0.623470   -7.670350
  H      2.252000    0.240800   -4.498790
  H      3.464280    1.640780   -5.136390
  H      4.834470    1.313750   -6.224650
  H     -0.176580   -0.628810   -4.850450
  H      0.563840   -1.393740   -3.464900
  H     -0.281020   -2.361360   -4.649380

 Total Charge           Charge          ....    1
 Multiplicity           Mult            ....    1
 Number of Electrons    NEL             ....   48
 Basis Dimension        Dim             ....  312

ORBITAL ENERGIES
----------------

  NO   OCC          E(Eh)            E(eV)
   0   2.0000     -14.398173      -391.7942
   1   2.0000     -14.392867      -391.6498
   2   2.0000     -14.391421      -391.6105
   3   2.0000     -10.405198      -283.1398
   4   2.0000     -10.278443      -279.6907
   5   2.0000     -10.206623      -277.7363
   6   2.0000      -1.321529       -35.9606
   7   2.0000      -1.208699       -32.8904
   8   2.0000      -1.194863       -32.5139
   9   2.0000      -1.045483       -28.4490
  10   2.0000      -0.937581       -25.5129
  11   2.0000      -0.922824       -25.1113
  12   2.0000      -0.882840       -24.0233
  13   2.0000      -0.850300       -23.1378
  14   2.0000      -0.791372       -21.5343
  15   2.0000      -0.787185       -21.4204
  16   2.0000      -0.771497       -20.9935
  17   2.0000      -0.744874       -20.2691
  18   2.0000      -0.710582       -19.3359
  19   2.0000      -0.648716       -17.6525
  20   2.0000      -0.631510       -17.1843
  21   2.0000      -0.621171       -16.9029
  22   2.0000      -0.578678       -15.7466
  23   2.0000      -0.550813       -14.9884
  24   0.0000      -0.107531        -2.9261
  25   0.0000      -0.094678        -2.5763
  26   0.0000      -0.078851        -2.1457
  27   0.0000      -0.065981        -1.7954
  28   0.0000      -0.045219        -1.2305

MULLIKEN ATOMIC CHARGES
-----------------------
   0 C :   -0.537323
   1 C :   -1.615787
   2 N :   -0.140690
   3 H :    0.458106
   4 H :    0.417955
   5 C :    0.612654
   6 N :   -0.317522
   7 N :   -0.374659
   8 H :    0.254786
   9 H :    0.234436
  10 H :    0.164432
  11 H :    0.211130
  12 H :    0.245996
  13 H :    0.472460
  14 H :    0.448598
  15 H :    0.465429
Sum of atomic charges:    1.0000000

LOEWDIN ATOMIC CHARGES
----------------------
   0 C :   -0.231471
   1 C :   -0.071601
   2 N :    0.086298
   3 H :    0.134699
   4 H :    0.138365
   5 C :   -0.448812
   6 N :    0.209945
   7 N :    0.220731
   8 H :    0.120434
   9 H :    0.136519
  10 H :    0.165400
  11 H :    0.136417
  12 H :    0.143363
  13 H :    0.084834
  14 H :    0.084961
  15 H :    0.089919

  Mayer bond orders larger than 0.100000
B(  0-C ,  1-C ) :   0.3834 B(  0-C ,  2-N ) :   0.7517 B(  0-C ,  3-H ) :   0.7877
B(  0-C ,  4-H ) :   0.8604 B(  1-C , 13-H ) :   0.8685 B(  1-C , 14-H ) :   0.8896
B(  1-C , 15-H ) :   0.8561 B(  2-N ,  5-C ) :   1.2569 B(  2-N , 10-H ) :   1.0337
B(  5-C ,  6-N ) :   1.0861 B(  5-C ,  7-N ) :   1.1143 B(  6-N , 11-H ) :   0.9617
B(  6-N , 12-H ) :   0.9626 B(  7-N ,  8-H ) :   0.9309 B(  7-N ,  9-H ) :   0.9762

FINAL SINGLE POINT ENERGY      -283.779018176264

DIPOLE MOMENT
-------------
                                X             Y             Z
Electronic contribution:      4.69499       2.46939      -1.70331
Nuclear contribution   :     -3.96322      -1.85512       1.24891
                        -----------------------------------------
Total Dipole Moment    :      0.73178       0.61427      -0.45441
                        -----------------------------------------
Magnitude (a.u.)       :      1.05797
Magnitude (Debye)      :      2.68916

Rotational constants in cm-1:     0.261404     0.067000     0.054949
Rotational constants in MHz :  7836.702504  2008.609425  1647.329138

                             ****ORCA TERMINATED NORMALLY****
TOTAL RUN TIME: 0 days 0 hours 1 minutes 1 seconds 341 msec
