                         Program Version 5.0.0 -  RELEASE  -
|  1> !LC-BLYP RIJCOSX def2-TZVPD def2/J TightSCF xyzfile
|  2>
|  3> *xyzfile 0 1 B.xyz
|  4>
|  5> %MaxCore 64000
|  6>
|  7> %pal nprocs 4
|  8> end
|  9>
| 10> %scf
| 11>   MaxIter 150
| 12> end
| 13>
| 14>
| 15>                          ****END OF INPUT****

CARTESIAN COORDINATES (ANGSTROEM)
---------------------------------
  C      1.635557   -1.670396   -5.292109
  C      0.338484   -1.500907   -4.505398
  N      2.484511   -0.507410   -5.140392
  C     -0.684873   -0.528026   -5.099889
  C     -0.290406    0.951335   -5.153423
  H      0.607991    1.070692   -5.764412
  C     -0.055168    1.619420   -3.788577
  H     -1.080912    1.483775   -5.689436
  H      0.045006    0.862302   -3.003015
  H     -0.922936    2.230329   -3.517028
  C      1.223022    2.469865   -3.756911
  H      1.114701    3.258074   -4.532999
  H      1.237732    3.011242   -2.792157
  O      2.353815    1.712032   -3.934477
  H      1.398337   -1.829239   -6.352591
  H      2.155864   -2.565398   -4.932091
  C      3.451149   -0.149530   -5.952589
  N      3.922667    1.089559   -5.850711
  N      3.966162   -1.006183   -6.867880
  H      3.521391   -1.906467   -6.995270
  H      4.444824   -0.623472   -7.670348
  H      2.251995    0.240804   -4.498792
  H      3.464277    1.640782   -5.136392
  H      4.834470    1.313745   -6.224653
  H     -0.937999   -0.869056   -6.110838
  H     -1.604638   -0.622496   -4.513132
  H      0.594887   -1.211578   -3.482312
  H     -0.126530   -2.487656   -4.434176

 Total Charge           Charge          ....    0
 Multiplicity           Mult            ....    1
 Number of Electrons    NEL             ....   88
 Basis Dimension        Dim             ....  563

ORBITAL ENERGIES
----------------

  NO   OCC          E(Eh)            E(eV)
   0   2.0000     -18.804235      -511.6893
   1   2.0000     -14.228387      -387.1741
   2   2.0000     -14.186597      -386.0369
   3   2.0000     -14.183595      -385.9552
   4   2.0000     -10.217125      -278.0221
   5   2.0000     -10.120820      -275.4015
   6   2.0000     -10.071933      -274.0712
   7   2.0000     -10.058874      -273.7159
   8   2.0000     -10.046409      -273.3767
   9   2.0000     -10.040338      -273.2115
  10   2.0000     -10.022527      -272.7268
  11   2.0000      -1.133638       -30.8479
  12   2.0000      -1.029253       -28.0074
  13   2.0000      -1.009228       -27.4625
  14   2.0000      -0.978198       -26.6181
  15   2.0000      -0.910182       -24.7673
  16   2.0000      -0.855803       -23.2876
  17   2.0000      -0.799627       -21.7590
  18   2.0000      -0.759884       -20.6775
  19   2.0000      -0.735053       -20.0018
  20   2.0000      -0.705230       -19.1903
  21   2.0000      -0.685560       -18.6550
  22   2.0000      -0.668334       -18.1863
  23   2.0000      -0.635135       -17.2829
  24   2.0000      -0.611015       -16.6266
  25   2.0000      -0.604809       -16.4577
  26   2.0000      -0.593877       -16.1602
  27   2.0000      -0.582540       -15.8517
  28   2.0000      -0.547652       -14.9024
  29   2.0000      -0.531506       -14.4630
  30   2.0000      -0.521763       -14.1979
  31   2.0000      -0.514643       -14.0042
  32   2.0000      -0.487408       -13.2630
  33   2.0000      -0.467119       -12.7110
  34   2.0000      -0.459148       -12.4940
  35   2.0000      -0.437445       -11.9035
  36   2.0000      -0.418430       -11.3861
  37   2.0000      -0.411328       -11.1928
  38   2.0000      -0.402858       -10.9623
  39   2.0000      -0.393925       -10.7192
  40   2.0000      -0.387323       -10.5396
  41   2.0000      -0.358596        -9.7579
  42   2.0000      -0.275190        -7.4883
  43   2.0000      -0.267937        -7.2909
  44   0.0000       0.026053         0.7089
  45   0.0000       0.051882         1.4118
  46   0.0000       0.066584         1.8118
  47   0.0000       0.072015         1.9596
  48   0.0000       0.076819         2.0904

MULLIKEN ATOMIC CHARGES
-----------------------
   0 C :   -0.967814
   1 C :   -0.960171
   2 N :   -0.193597
   3 C :   -0.771471
   4 C :   -0.873874
   5 H :    0.392680
   6 C :   -0.737912
   7 H :    0.447732
   8 H :    0.276214
   9 H :    0.466729
  10 C :   -0.699251
  11 H :    0.340156
  12 H :    0.420363
  13 O :   -1.025015
  14 H :    0.499328
  15 H :    0.461782
  16 C :    0.561038
  17 N :   -0.299469
  18 N :   -0.410377
  19 H :    0.234171
  20 H :    0.202529
  21 H :    0.512108
  22 H :    0.336963
  23 H :    0.158503
  24 H :    0.419222
  25 H :    0.374945
  26 H :    0.405919
  27 H :    0.428569
Sum of atomic charges:    0.0000000

LOEWDIN ATOMIC CHARGES
----------------------
   0 C :   -0.193072
   1 C :   -0.201852
   2 N :    0.088918
   3 C :   -0.220734
   4 C :   -0.224201
   5 H :    0.105596
   6 C :   -0.211666
   7 H :    0.112005
   8 H :    0.105214
   9 H :    0.109733
  10 C :   -0.422875
  11 H :    0.109437
  12 H :    0.102068
  13 O :   -0.313862
  14 H :    0.126237
  15 H :    0.126657
  16 C :   -0.466103
  17 N :    0.189925
  18 N :    0.179830
  19 H :    0.099940
  20 H :    0.114136
  21 H :    0.054208
  22 H :    0.045203
  23 H :    0.121151
  24 H :    0.112473
  25 H :    0.117086
  26 H :    0.118153
  27 H :    0.116394

  Mayer bond orders larger than 0.100000
B(  0-C ,  1-C ) :   0.5918 B(  0-C ,  2-N ) :   0.8061 B(  0-C , 14-H ) :   0.7780
B(  0-C , 15-H ) :   0.8653 B(  0-C , 16-C ) :  -0.1985 B(  0-C , 18-N ) :   0.1147
B(  1-C ,  3-C ) :   0.5905 B(  1-C , 26-H ) :   0.8973 B(  1-C , 27-H ) :   0.9359
B(  2-N , 16-C ) :   1.4143 B(  2-N , 21-H ) :   0.6797 B(  3-C ,  4-C ) :   0.5835
B(  3-C , 24-H ) :   0.9169 B(  3-C , 25-H ) :   0.9551 B(  4-C ,  5-H ) :   0.9615
B(  4-C ,  6-C ) :   0.4948 B(  4-C ,  7-H ) :   0.8725 B(  6-C ,  8-H ) :   0.9956
B(  6-C ,  9-H ) :   0.8867 B(  6-C , 10-C ) :   0.7270 B( 10-C , 11-H ) :   1.0060
B( 10-C , 12-H ) :   0.8839 B( 10-C , 13-O ) :   0.8633 B( 13-O , 16-C ) :  -0.1304
B( 13-O , 22-H ) :   0.2083 B( 16-C , 17-N ) :   1.2090 B( 16-C , 18-N ) :   1.0005
B( 17-N , 22-H ) :   0.7278 B( 17-N , 23-H ) :   1.0387 B( 18-N , 19-H ) :   0.9524
B( 18-N , 20-H ) :   1.0022

FINAL SINGLE POINT ENERGY      -515.342985938311

DIPOLE MOMENT
-------------
                                X             Y             Z
Electronic contribution:      8.31021      -0.92093      -2.24391
Nuclear contribution   :     -7.46499      -1.05836       0.01518
                        -----------------------------------------
Total Dipole Moment    :      0.84522      -1.97930      -2.22874
                        -----------------------------------------
Magnitude (a.u.)       :      3.09827
Magnitude (Debye)      :      7.87518

Rotational constants in cm-1:     0.044680     0.028958     0.019773
Rotational constants in MHz :  1339.486245   868.136755   592.791310

                             ****ORCA TERMINATED NORMALLY****
TOTAL RUN TIME: 0 days 0 hours 4 minutes 54 seconds 207 msec
