                         Program Version 5.0.0 -  RELEASE  -
|  1> !LC-BLYP RIJCOSX def2-TZVPD def2/J TightSCF
|  2> *xyz 0 1
|  3> C         -0.05517        1.61942       -3.78858
|  4> C          1.22302        2.46987       -3.75691
|  5> H          1.11470        3.25807       -4.53300
|  6> H          1.23773        3.01124       -2.79216
|  7> F          2.35381        1.71203       -3.93448
|  8> H         -0.10198        1.08015       -4.71156
|  9> H         -0.91014        2.25726       -3.70441
| 10> H         -0.04403        0.92826       -2.97183
| 11> *
| 12>
| 13> %MaxCore 64000
| 14>
| 15> %pal nprocs 4
| 16> end
| 17>
| 18> %scf
| 19>   MaxIter 150
| 20> end
| 21>
| 22>
| 23>                          ****END OF INPUT****

CARTESIAN COORDINATES (ANGSTROEM)
---------------------------------
  C     -0.055170    1.619420   -3.788580
  C      1.223020    2.469870   -3.756910
  H      1.114700    3.258070   -4.533000
  H      1.237730    3.011240   -2.792160
  F      2.353810    1.712030   -3.934480
  H     -0.101980    1.080150   -4.711560
  H     -0.910140    2.257260   -3.704410
  H     -0.044030    0.928260   -2.971830

 Total Charge           Charge          ....    0
 Multiplicity           Mult            ....    1
 Number of Electrons    NEL             ....   26
 Basis Dimension        Dim             ....  159

ORBITAL ENERGIES
----------------

  NO   OCC          E(Eh)            E(eV)
   0   2.0000     -24.441702      -665.0925
   1   2.0000     -10.147935      -276.1394
   2   2.0000     -10.063222      -273.8342
   3   2.0000      -1.278164       -34.7806
   4   2.0000      -0.875352       -23.8195
   5   2.0000      -0.740057       -20.1380
   6   2.0000      -0.613403       -16.6915
   7   2.0000      -0.603975       -16.4350
   8   2.0000      -0.561849       -15.2887
   9   2.0000      -0.506647       -13.7866
  10   2.0000      -0.502128       -13.6636
  11   2.0000      -0.436136       -11.8679
  12   2.0000      -0.429816       -11.6959
  13   0.0000       0.055507         1.5104
  14   0.0000       0.078947         2.1483
  15   0.0000       0.100460         2.7337
  16   0.0000       0.103290         2.8107
  17   0.0000       0.132159         3.5962

MULLIKEN ATOMIC CHARGES
-----------------------
   0 C :   -1.164516
   1 C :   -0.293312
   2 H :    0.312985
   3 H :    0.313130
   4 F :   -0.278192
   5 H :    0.362719
   6 H :    0.392526
   7 H :    0.354660
Sum of atomic charges:   -0.0000000

LOEWDIN ATOMIC CHARGES
----------------------
   0 C :   -0.098807
   1 C :   -0.314325
   2 H :    0.118521
   3 H :    0.116444
   4 F :   -0.034050
   5 H :    0.070522
   6 H :    0.071999
   7 H :    0.069696

  Mayer bond orders larger than 0.100000
B(  0-C ,  1-C ) :   0.6389 B(  0-C ,  5-H ) :   0.9103 B(  0-C ,  6-H ) :   0.8989
B(  0-C ,  7-H ) :   0.9166 B(  1-C ,  2-H ) :   0.9436 B(  1-C ,  3-H ) :   0.9446
B(  1-C ,  4-F ) :   0.8276

FINAL SINGLE POINT ENERGY      -178.742246911104

DIPOLE MOMENT
-------------
                                X             Y             Z
Electronic contribution:      5.00243      -0.72335      -0.42904
Nuclear contribution   :     -5.66833       1.07099       0.52006
                        -----------------------------------------
Total Dipole Moment    :     -0.66590       0.34764       0.09102
                        -----------------------------------------
Magnitude (a.u.)       :      0.75668
Magnitude (Debye)      :      1.92332

Rotational constants in cm-1:     1.245689     0.305293     0.269541
Rotational constants in MHz : 37344.801915  9152.442838  8080.640229

                             ****ORCA TERMINATED NORMALLY****
TOTAL RUN TIME: 0 days 0 hours 0 minutes 14 seconds 847 msec
