                         Program Version 5.0.0 -  RELEASE  -
|  1> !LC-BLYP RIJCOSX def2-TZVPD def2/J TightSCF
|  2> *xyz 0 1
|  3> C          1.63556       -1.67040       -5.29211
|  4> C          0.33848       -1.50091       -4.50540
|  5> C          2.48451       -0.50741       -5.14039
|  6> H          1.39834       -1.82924       -6.35259
|  7> H          2.15586       -2.56540       -4.93209
|  8> C          3.45115       -0.14953       -5.95259
|  9> N          3.92267        1.08956       -5.85071
| 10> N          3.96616       -1.00618       -6.86788
| 11> H          3.52139       -1.90647       -6.99527
| 12> H          4.44482       -0.62347       -7.67035
| 13> H          2.25200        0.24080       -4.49879
| 14> H          3.46428        1.64078       -5.13639
| 15> H          4.83447        1.31375       -6.22465
| 16> H         -0.17658       -0.62881       -4.85045
| 17> H          0.56384       -1.39374       -3.46490
| 18> H         -0.28102       -2.36136       -4.64938
| 19> *
| 20>
| 21> %MaxCore 64000
| 22>
| 23> %pal nprocs 4
| 24> end
| 25>
| 26> %scf
| 27>   MaxIter 150
| 28> end
| 29>
| 30>
| 31>                          ****END OF INPUT****

CARTESIAN COORDINATES (ANGSTROEM)
---------------------------------
  C      1.635560   -1.670400   -5.292110
  C      0.338480   -1.500910   -4.505400
  C      2.484510   -0.507410   -5.140390
  H      1.398340   -1.829240   -6.352590
  H      2.155860   -2.565400   -4.932090
  C      3.451150   -0.149530   -5.952590
  N      3.922670    1.089560   -5.850710
  N      3.966160   -1.006180   -6.867880
  H      3.521390   -1.906470   -6.995270
  H      4.444820   -0.623470   -7.670350
  H      2.252000    0.240800   -4.498790
  H      3.464280    1.640780   -5.136390
  H      4.834470    1.313750   -6.224650
  H     -0.176580   -0.628810   -4.850450
  H      0.563840   -1.393740   -3.464900
  H     -0.281020   -2.361360   -4.649380

 Total Charge           Charge          ....    0
 Multiplicity           Mult            ....    1
 Number of Electrons    NEL             ....   48
 Basis Dimension        Dim             ....  312

ORBITAL ENERGIES
----------------

  NO   OCC          E(Eh)            E(eV)
   0   2.0000     -14.171335      -385.6216
   1   2.0000     -14.165893      -385.4735
   2   2.0000     -10.110052      -275.1085
   3   2.0000     -10.046087      -273.3679
   4   2.0000     -10.035970      -273.0926
   5   2.0000      -9.992434      -271.9080
   6   2.0000      -1.060268       -28.8514
   7   2.0000      -0.971864       -26.4458
   8   2.0000      -0.886539       -24.1239
   9   2.0000      -0.806177       -21.9372
  10   2.0000      -0.719253       -19.5719
  11   2.0000      -0.687183       -18.6992
  12   2.0000      -0.639033       -17.3890
  13   2.0000      -0.618170       -16.8213
  14   2.0000      -0.566936       -15.4271
  15   2.0000      -0.549699       -14.9581
  16   2.0000      -0.532068       -14.4783
  17   2.0000      -0.502140       -13.6639
  18   2.0000      -0.482562       -13.1312
  19   2.0000      -0.441448       -12.0124
  20   2.0000      -0.430514       -11.7149
  21   2.0000      -0.429287       -11.6815
  22   2.0000      -0.365409        -9.9433
  23   2.0000      -0.257730        -7.0132
  24   0.0000       0.048993         1.3332
  25   0.0000       0.070191         1.9100
  26   0.0000       0.073029         1.9872
  27   0.0000       0.094923         2.5830
  28   0.0000       0.102957         2.8016

MULLIKEN ATOMIC CHARGES
-----------------------
   0 C :   -0.606807
   1 C :   -1.570717
   2 C :   -0.428166
   3 H :    0.406846
   4 H :    0.321762
   5 C :    0.471345
   6 N :   -0.389996
   7 N :   -0.427836
   8 H :    0.198320
   9 H :    0.176529
  10 H :    0.232545
  11 H :    0.173443
  12 H :    0.177843
  13 H :    0.426308
  14 H :    0.391309
  15 H :    0.447271
Sum of atomic charges:    0.0000000

LOEWDIN ATOMIC CHARGES
----------------------
   0 C :   -0.305383
   1 C :   -0.125360
   2 C :   -0.158897
   3 H :    0.113190
   4 H :    0.114417
   5 C :   -0.557686
   6 N :    0.107673
   7 N :    0.135449
   8 H :    0.091990
   9 H :    0.095602
  10 H :    0.072764
  11 H :    0.106250
  12 H :    0.099843
  13 H :    0.072898
  14 H :    0.072109
  15 H :    0.065143

  Mayer bond orders larger than 0.100000
B(  0-C ,  1-C ) :   0.3913 B(  0-C ,  2-C ) :   0.4271 B(  0-C ,  3-H ) :   0.8003
B(  0-C ,  4-H ) :   1.0213 B(  0-C , 14-H ) :  -0.1024 B(  1-C , 13-H ) :   0.9270
B(  1-C , 14-H ) :   0.9669 B(  1-C , 15-H ) :   0.8731 B(  2-C ,  4-H ) :  -0.1161
B(  2-C ,  5-C ) :   1.1169 B(  2-C , 10-H ) :   1.2314 B(  5-C ,  6-N ) :   1.0497
B(  5-C ,  7-N ) :   0.8511 B(  5-C , 10-H ) :  -0.3148 B(  6-N , 11-H ) :   0.9788
B(  6-N , 12-H ) :   1.0435 B(  7-N ,  8-H ) :   0.9617 B(  7-N ,  9-H ) :   1.0362

FINAL SINGLE POINT ENERGY      -267.302410884504

DIPOLE MOMENT
-------------
                                X             Y             Z
Electronic contribution:      4.49409       2.13925      -1.88972
Nuclear contribution   :     -3.99655      -1.83277       1.34879
                        -----------------------------------------
Total Dipole Moment    :      0.49754       0.30648      -0.54093
                        -----------------------------------------
Magnitude (a.u.)       :      0.79629
Magnitude (Debye)      :      2.02401

Rotational constants in cm-1:     0.262971     0.067064     0.055026
Rotational constants in MHz :  7883.664566  2010.513309  1649.636654

                             ****ORCA TERMINATED NORMALLY****
TOTAL RUN TIME: 0 days 0 hours 1 minutes 7 seconds 518 msec
