                         Program Version 5.0.0 -  RELEASE  -
|  1> !LC-BLYP RIJCOSX def2-TZVPD def2/J TightSCF
|  2> *xyz 0 1
|  3> C          1.63556       -1.67040       -5.29211
|  4> C          0.33848       -1.50091       -4.50540
|  5> N          2.48451       -0.50741       -5.14039
|  6> H          1.39834       -1.82924       -6.35259
|  7> H          2.15586       -2.56540       -4.93209
|  8> C          3.45115       -0.14953       -5.95259
|  9> C          3.92267        1.08956       -5.85071
| 10> N          3.96616       -1.00618       -6.86788
| 11> H          3.52139       -1.90647       -6.99527
| 12> H          4.44482       -0.62347       -7.67035
| 13> H          2.25200        0.24080       -4.49879
| 14> H          3.46428        1.64078       -5.13639
| 15> H          4.83447        1.31375       -6.22465
| 16> H         -0.17658       -0.62881       -4.85045
| 17> H          0.56384       -1.39374       -3.46490
| 18> H         -0.28102       -2.36136       -4.64938
| 19> *
| 20>
| 21> %MaxCore 64000
| 22>
| 23> %pal nprocs 4
| 24> end
| 25>
| 26> %scf
| 27>   MaxIter 150
| 28> end
| 29>
| 30>
| 31>                          ****END OF INPUT****

CARTESIAN COORDINATES (ANGSTROEM)
---------------------------------
  C      1.635560   -1.670400   -5.292110
  C      0.338480   -1.500910   -4.505400
  N      2.484510   -0.507410   -5.140390
  H      1.398340   -1.829240   -6.352590
  H      2.155860   -2.565400   -4.932090
  C      3.451150   -0.149530   -5.952590
  C      3.922670    1.089560   -5.850710
  N      3.966160   -1.006180   -6.867880
  H      3.521390   -1.906470   -6.995270
  H      4.444820   -0.623470   -7.670350
  H      2.252000    0.240800   -4.498790
  H      3.464280    1.640780   -5.136390
  H      4.834470    1.313750   -6.224650
  H     -0.176580   -0.628810   -4.850450
  H      0.563840   -1.393740   -3.464900
  H     -0.281020   -2.361360   -4.649380

 Total Charge           Charge          ....    0
 Multiplicity           Mult            ....    1
 Number of Electrons    NEL             ....   48
 Basis Dimension        Dim             ....  312

ORBITAL ENERGIES
----------------

  NO   OCC          E(Eh)            E(eV)
   0   2.0000     -14.171104      -385.6153
   1   2.0000     -14.169964      -385.5843
   2   2.0000     -10.115345      -275.2525
   3   2.0000     -10.111494      -275.1477
   4   2.0000     -10.067939      -273.9625
   5   2.0000      -9.977849      -271.5111
   6   2.0000      -1.073042       -29.1989
   7   2.0000      -0.985884       -26.8273
   8   2.0000      -0.888538       -24.1784
   9   2.0000      -0.811430       -22.0801
  10   2.0000      -0.736891       -20.0518
  11   2.0000      -0.703588       -19.1456
  12   2.0000      -0.641550       -17.4575
  13   2.0000      -0.601514       -16.3680
  14   2.0000      -0.589966       -16.0538
  15   2.0000      -0.565148       -15.3784
  16   2.0000      -0.523051       -14.2329
  17   2.0000      -0.502168       -13.6647
  18   2.0000      -0.481280       -13.0963
  19   2.0000      -0.477148       -12.9839
  20   2.0000      -0.475020       -12.9259
  21   2.0000      -0.451632       -12.2895
  22   2.0000      -0.358148        -9.7457
  23   2.0000      -0.256551        -6.9811
  24   0.0000       0.046016         1.2522
  25   0.0000       0.063726         1.7341
  26   0.0000       0.073399         1.9973
  27   0.0000       0.097014         2.6399
  28   0.0000       0.105636         2.8745

MULLIKEN ATOMIC CHARGES
-----------------------
   0 C :   -0.501473
   1 C :   -1.573095
   2 N :   -0.197103
   3 H :    0.433215
   4 H :    0.357299
   5 C :    0.547135
   6 C :   -1.129063
   7 N :   -0.419659
   8 H :    0.208664
   9 H :    0.203785
  10 H :    0.125979
  11 H :    0.311928
  12 H :    0.326931
  13 H :    0.437695
  14 H :    0.413130
  15 H :    0.454631
Sum of atomic charges:   -0.0000000

LOEWDIN ATOMIC CHARGES
----------------------
   0 C :   -0.269353
   1 C :   -0.100517
   2 N :    0.014380
   3 H :    0.119575
   4 H :    0.119312
   5 C :   -0.573787
   6 C :   -0.013919
   7 N :    0.129348
   8 H :    0.084259
   9 H :    0.106666
  10 H :    0.141892
  11 H :    0.009498
  12 H :    0.011565
  13 H :    0.075568
  14 H :    0.073448
  15 H :    0.072064

  Mayer bond orders larger than 0.100000
B(  0-C ,  1-C ) :   0.3525 B(  0-C ,  2-N ) :   0.7100 B(  0-C ,  3-H ) :   0.8327
B(  0-C ,  4-H ) :   0.9350 B(  0-C ,  5-C ) :  -0.1153 B(  1-C , 13-H ) :   0.9185
B(  1-C , 14-H ) :   0.9244 B(  1-C , 15-H ) :   0.8593 B(  2-N ,  5-C ) :   1.0740
B(  2-N ,  6-C ) :   0.1037 B(  2-N , 10-H ) :   1.0105 B(  5-C ,  6-C ) :   0.9562
B(  5-C ,  7-N ) :   0.9509 B(  5-C , 11-H ) :  -0.1227 B(  5-C , 12-H ) :  -0.1050
B(  6-C , 11-H ) :   1.0089 B(  6-C , 12-H ) :   1.0469 B(  7-N ,  8-H ) :   0.9835
B(  7-N ,  9-H ) :   0.9902

FINAL SINGLE POINT ENERGY      -267.291177122630

DIPOLE MOMENT
-------------
                                X             Y             Z
Electronic contribution:      2.94687       0.54640      -1.28277
Nuclear contribution   :     -3.69145      -1.49398       1.19810
                        -----------------------------------------
Total Dipole Moment    :     -0.74458      -0.94758      -0.08467
                        -----------------------------------------
Magnitude (a.u.)       :      1.20809
Magnitude (Debye)      :      3.07071

Rotational constants in cm-1:     0.270790     0.068966     0.056679
Rotational constants in MHz :  8118.084803  2067.559423  1699.196934

                             ****ORCA TERMINATED NORMALLY****
TOTAL RUN TIME: 0 days 0 hours 1 minutes 4 seconds 866 msec
