                         Program Version 5.0.0 -  RELEASE  -
|  1> !LC-BLYP RIJCOSX def2-TZVPD def2/J TightSCF
|  2> *xyz 0 1
|  3> C          1.63556       -1.67040       -5.29211
|  4> C          0.33848       -1.50091       -4.50540
|  5> N          2.48451       -0.50741       -5.14039
|  6> H          1.39834       -1.82924       -6.35259
|  7> H          2.15586       -2.56540       -4.93209
|  8> C          3.45115       -0.14953       -5.95259
|  9> N          3.92267        1.08956       -5.85071
| 10> C          3.96616       -1.00618       -6.86788
| 11> H          3.52139       -1.90647       -6.99527
| 12> H          4.44482       -0.62347       -7.67035
| 13> H          2.25200        0.24080       -4.49879
| 14> H          3.46428        1.64078       -5.13639
| 15> H          4.83447        1.31375       -6.22465
| 16> H         -0.17658       -0.62881       -4.85045
| 17> H          0.56384       -1.39374       -3.46490
| 18> H         -0.28102       -2.36136       -4.64938
| 19> *
| 20>
| 21> %MaxCore 64000
| 22>
| 23> %pal nprocs 4
| 24> end
| 25>
| 26> %scf
| 27>   MaxIter 150
| 28> end
| 29>
| 30>
| 31>                          ****END OF INPUT****

CARTESIAN COORDINATES (ANGSTROEM)
---------------------------------
  C      1.635560   -1.670400   -5.292110
  C      0.338480   -1.500910   -4.505400
  N      2.484510   -0.507410   -5.140390
  H      1.398340   -1.829240   -6.352590
  H      2.155860   -2.565400   -4.932090
  C      3.451150   -0.149530   -5.952590
  N      3.922670    1.089560   -5.850710
  C      3.966160   -1.006180   -6.867880
  H      3.521390   -1.906470   -6.995270
  H      4.444820   -0.623470   -7.670350
  H      2.252000    0.240800   -4.498790
  H      3.464280    1.640780   -5.136390
  H      4.834470    1.313750   -6.224650
  H     -0.176580   -0.628810   -4.850450
  H      0.563840   -1.393740   -3.464900
  H     -0.281020   -2.361360   -4.649380

 Total Charge           Charge          ....    0
 Multiplicity           Mult            ....    1
 Number of Electrons    NEL             ....   48
 Basis Dimension        Dim             ....  312

ORBITAL ENERGIES
----------------

  NO   OCC          E(Eh)            E(eV)
   0   2.0000     -14.177890      -385.8000
   1   2.0000     -14.172038      -385.6408
   2   2.0000     -10.117150      -275.3016
   3   2.0000     -10.104708      -274.9631
   4   2.0000     -10.064126      -273.8588
   5   2.0000      -9.980276      -271.5771
   6   2.0000      -1.081345       -29.4249
   7   2.0000      -0.991298       -26.9746
   8   2.0000      -0.874191       -23.7880
   9   2.0000      -0.812687       -22.1143
  10   2.0000      -0.754371       -20.5275
  11   2.0000      -0.675082       -18.3699
  12   2.0000      -0.642102       -17.4725
  13   2.0000      -0.629374       -17.1262
  14   2.0000      -0.584441       -15.9034
  15   2.0000      -0.570399       -15.5214
  16   2.0000      -0.508438       -13.8353
  17   2.0000      -0.497065       -13.5258
  18   2.0000      -0.495486       -13.4829
  19   2.0000      -0.472392       -12.8544
  20   2.0000      -0.462550       -12.5866
  21   2.0000      -0.451729       -12.2922
  22   2.0000      -0.351015        -9.5516
  23   2.0000      -0.261767        -7.1231
  24   0.0000       0.046539         1.2664
  25   0.0000       0.062873         1.7109
  26   0.0000       0.074121         2.0169
  27   0.0000       0.095214         2.5909
  28   0.0000       0.106347         2.8939

MULLIKEN ATOMIC CHARGES
-----------------------
   0 C :   -0.547340
   1 C :   -1.537735
   2 N :   -0.203736
   3 H :    0.429048
   4 H :    0.401404
   5 C :    0.499320
   6 N :   -0.363764
   7 C :   -1.138813
   8 H :    0.383049
   9 H :    0.277472
  10 H :    0.134117
  11 H :    0.158259
  12 H :    0.206747
  13 H :    0.435411
  14 H :    0.413176
  15 H :    0.453388
Sum of atomic charges:    0.0000000

LOEWDIN ATOMIC CHARGES
----------------------
   0 C :   -0.261714
   1 C :   -0.102646
   2 N :    0.015091
   3 H :    0.124538
   4 H :    0.125642
   5 C :   -0.584187
   6 N :    0.120046
   7 C :   -0.000366
   8 H :   -0.006433
   9 H :    0.006450
  10 H :    0.136363
  11 H :    0.097471
  12 H :    0.113406
  13 H :    0.072923
  14 H :    0.070926
  15 H :    0.072489

  Mayer bond orders larger than 0.100000
B(  0-C ,  1-C ) :   0.2962 B(  0-C ,  2-N ) :   0.7609 B(  0-C ,  3-H ) :   0.8683
B(  0-C ,  4-H ) :   0.8979 B(  0-C ,  7-C ) :   0.1417 B(  1-C , 13-H ) :   0.9193
B(  1-C , 14-H ) :   0.9248 B(  1-C , 15-H ) :   0.8590 B(  2-N ,  5-C ) :   1.0136
B(  2-N , 10-H ) :   1.0758 B(  5-C ,  6-N ) :   0.9197 B(  5-C ,  7-C ) :   1.2207
B(  5-C ,  9-H ) :  -0.1208 B(  6-N , 11-H ) :   1.0255 B(  6-N , 12-H ) :   0.9903
B(  7-C ,  8-H ) :   0.8929 B(  7-C ,  9-H ) :   1.1387

FINAL SINGLE POINT ENERGY      -267.292135841022

DIPOLE MOMENT
-------------
                                X             Y             Z
Electronic contribution:      3.01246       2.60200      -0.21386
Nuclear contribution   :     -3.68222      -1.93858       0.98231
                        -----------------------------------------
Total Dipole Moment    :     -0.66977       0.66342       0.76845
                        -----------------------------------------
Magnitude (a.u.)       :      1.21624
Magnitude (Debye)      :      3.09143

Rotational constants in cm-1:     0.275407     0.068040     0.056255
Rotational constants in MHz :  8256.498401  2039.796466  1686.484500

                             ****ORCA TERMINATED NORMALLY****
TOTAL RUN TIME: 0 days 0 hours 1 minutes 8 seconds 442 msec
