                         Program Version 5.0.0 -  RELEASE  -
|  1> !LC-BLYP RIJCOSX def2-TZVPD def2/J TightSCF xyzfile
|  2>
|  3> *xyzfile 0 1 D1.xyz
|  4>
|  5> %MaxCore 64000
|  6>
|  7> %pal nprocs 4
|  8> end
|  9>
| 10> %scf
| 11>   MaxIter 150
| 12> end
| 13>
| 14>
| 15>                          ****END OF INPUT****

CARTESIAN COORDINATES (ANGSTROEM)
---------------------------------
  C      1.635557   -1.670396   -5.292109
  C      0.338484   -1.500907   -4.505398
  C      2.484511   -0.507410   -5.140392
  C     -0.684873   -0.528026   -5.099889
  C     -0.290406    0.951335   -5.153423
  H      0.607991    1.070692   -5.764412
  C     -0.055168    1.619420   -3.788577
  H     -1.080912    1.483775   -5.689436
  H      0.045006    0.862302   -3.003015
  H     -0.922936    2.230329   -3.517028
  C      1.223022    2.469865   -3.756911
  H      1.114701    3.258074   -4.532999
  H      1.237732    3.011242   -2.792157
  F      2.353815    1.712032   -3.934477
  H      1.398337   -1.829239   -6.352591
  H      2.155864   -2.565398   -4.932091
  C      3.451149   -0.149530   -5.952589
  N      3.922667    1.089559   -5.850711
  N      3.966162   -1.006183   -6.867880
  H      3.521391   -1.906467   -6.995270
  H      4.444824   -0.623472   -7.670348
  H      2.251995    0.240804   -4.498792
  H      3.464277    1.640782   -5.136392
  H      4.834470    1.313745   -6.224653
  H     -0.937999   -0.869056   -6.110838
  H     -1.604638   -0.622496   -4.513132
  H      0.594887   -1.211578   -3.482312
  H     -0.126530   -2.487656   -4.434176

 Total Charge           Charge          ....    0
 Multiplicity           Mult            ....    1
 Number of Electrons    NEL             ....   88
 Basis Dimension        Dim             ....  563

ORBITAL ENERGIES
----------------

  NO   OCC          E(Eh)            E(eV)
   0   2.0000     -24.468173      -665.8128
   1   2.0000     -14.156634      -385.2216
   2   2.0000     -14.140433      -384.7807
   3   2.0000     -10.157269      -276.3933
   4   2.0000     -10.091044      -274.5913
   5   2.0000     -10.075196      -274.1600
   6   2.0000     -10.057486      -273.6781
   7   2.0000     -10.054769      -273.6042
   8   2.0000     -10.045243      -273.3450
   9   2.0000     -10.035014      -273.0666
  10   2.0000      -9.964356      -271.1439
  11   2.0000      -1.315010       -35.7832
  12   2.0000      -1.042283       -28.3620
  13   2.0000      -0.955030       -25.9877
  14   2.0000      -0.920346       -25.0439
  15   2.0000      -0.885948       -24.1079
  16   2.0000      -0.835612       -22.7382
  17   2.0000      -0.800736       -21.7891
  18   2.0000      -0.748321       -20.3629
  19   2.0000      -0.717014       -19.5109
  20   2.0000      -0.685079       -18.6420
  21   2.0000      -0.663893       -18.0654
  22   2.0000      -0.642834       -17.4924
  23   2.0000      -0.627295       -17.0696
  24   2.0000      -0.611172       -16.6308
  25   2.0000      -0.607221       -16.5233
  26   2.0000      -0.590107       -16.0576
  27   2.0000      -0.563493       -15.3334
  28   2.0000      -0.545749       -14.8506
  29   2.0000      -0.539866       -14.6905
  30   2.0000      -0.519939       -14.1483
  31   2.0000      -0.505098       -13.7444
  32   2.0000      -0.493586       -13.4311
  33   2.0000      -0.482407       -13.1270
  34   2.0000      -0.462076       -12.5737
  35   2.0000      -0.458467       -12.4755
  36   2.0000      -0.449843       -12.2408
  37   2.0000      -0.435670       -11.8552
  38   2.0000      -0.416656       -11.3378
  39   2.0000      -0.405258       -11.0276
  40   2.0000      -0.399791       -10.8789
  41   2.0000      -0.387199       -10.5362
  42   2.0000      -0.348305        -9.4778
  43   2.0000      -0.238787        -6.4977
  44   0.0000       0.050486         1.3738
  45   0.0000       0.058745         1.5985
  46   0.0000       0.065687         1.7874
  47   0.0000       0.072105         1.9621
  48   0.0000       0.082394         2.2420

MULLIKEN ATOMIC CHARGES
-----------------------
   0 C :   -0.899215
   1 C :   -0.992755
   2 C :   -0.753994
   3 C :   -0.827345
   4 C :   -0.878155
   5 H :    0.534333
   6 C :   -0.792977
   7 H :    0.441287
   8 H :    0.343018
   9 H :    0.481386
  10 C :   -0.545843
  11 H :    0.355994
  12 H :    0.418361
  13 F :   -0.471334
  14 H :    0.473542
  15 H :    0.408449
  16 C :   -0.258495
  17 N :   -0.407087
  18 N :   -0.445196
  19 H :    0.204807
  20 H :    0.175377
  21 H :    1.410629
  22 H :    0.332124
  23 H :    0.096338
  24 H :    0.438343
  25 H :    0.370696
  26 H :    0.350739
  27 H :    0.436971
Sum of atomic charges:    0.0000000

LOEWDIN ATOMIC CHARGES
----------------------
   0 C :   -0.237622
   1 C :   -0.225449
   2 C :   -0.150276
   3 C :   -0.215445
   4 C :   -0.218876
   5 H :    0.110476
   6 C :   -0.183871
   7 H :    0.113330
   8 H :    0.114114
   9 H :    0.122215
  10 C :   -0.213838
  11 H :    0.137444
  12 H :    0.127310
  13 F :   -0.065250
  14 H :    0.118197
  15 H :    0.116925
  16 C :   -0.541471
  17 N :    0.120090
  18 N :    0.134349
  19 H :    0.089225
  20 H :    0.092087
  21 H :    0.035470
  22 H :    0.067005
  23 H :    0.100393
  24 H :    0.117092
  25 H :    0.114194
  26 H :    0.111228
  27 H :    0.110956

  Mayer bond orders larger than 0.100000
B(  0-C ,  1-C ) :   0.6520 B(  0-C , 14-H ) :   0.6855 B(  0-C , 15-H ) :   1.1075
B(  1-C ,  2-C ) :   0.1266 B(  1-C ,  3-C ) :   0.5810 B(  1-C , 26-H ) :   0.9338
B(  1-C , 27-H ) :   0.9557 B(  2-C ,  5-H ) :  -0.1544 B(  2-C , 13-F ) :   0.3201
B(  2-C , 15-H ) :  -0.2103 B(  2-C , 16-C ) :   2.1807 B(  2-C , 21-H ) :  -0.1758
B(  3-C ,  4-C ) :   0.5918 B(  3-C , 24-H ) :   0.9075 B(  3-C , 25-H ) :   0.9724
B(  4-C ,  5-H ) :   0.8955 B(  4-C ,  6-C ) :   0.4287 B(  4-C ,  7-H ) :   0.8944
B(  6-C ,  8-H ) :   0.9779 B(  6-C ,  9-H ) :   0.8437 B(  6-C , 10-C ) :   0.7173
B( 10-C , 11-H ) :   0.9531 B( 10-C , 12-H ) :   0.8751 B( 10-C , 13-F ) :   0.7518
B( 13-F , 16-C ) :   0.1418 B( 13-F , 21-H ) :  -0.5849 B( 14-H , 15-H ) :   0.1154
B( 16-C , 17-N ) :   0.9772 B( 16-C , 18-N ) :   0.8142 B( 16-C , 21-H ) :  -0.5085
B( 17-N , 22-H ) :   0.8320 B( 17-N , 23-H ) :   1.1255 B( 18-N , 19-H ) :   0.9681
B( 18-N , 20-H ) :   1.0375

FINAL SINGLE POINT ENERGY      -523.260899510010

DIPOLE MOMENT
-------------
                                X             Y             Z
Electronic contribution:      7.78400       3.82397       1.16702
Nuclear contribution   :     -8.11591      -2.99033      -1.35383
                        -----------------------------------------
Total Dipole Moment    :     -0.33190       0.83365      -0.18681
                        -----------------------------------------
Magnitude (a.u.)       :      0.91653
Magnitude (Debye)      :      2.32963

Rotational constants in cm-1:     0.043530     0.028984     0.019589
Rotational constants in MHz :  1305.007140   868.923804   587.262638

                             ****ORCA TERMINATED NORMALLY****
TOTAL RUN TIME: 0 days 0 hours 7 minutes 7 seconds 636 msec
