                         Program Version 5.0.0 -  RELEASE  -
|  1> !LC-BLYP RIJCOSX def2-TZVPD def2/J TightSCF xyzfile
|  2>
|  3> *xyzfile 0 1 D2.xyz
|  4>
|  5> %MaxCore 64000
|  6>
|  7> %pal nprocs 4
|  8> end
|  9>
| 10> %scf
| 11>   MaxIter 150
| 12> end
| 13>
| 14>
| 15>                          ****END OF INPUT****

CARTESIAN COORDINATES (ANGSTROEM)
---------------------------------
  C      1.635557   -1.670396   -5.292109
  C      0.338484   -1.500907   -4.505398
  N      2.484511   -0.507410   -5.140392
  C     -0.684873   -0.528026   -5.099889
  C     -0.290406    0.951335   -5.153423
  H      0.607991    1.070692   -5.764412
  C     -0.055168    1.619420   -3.788577
  H     -1.080912    1.483775   -5.689436
  H      0.045006    0.862302   -3.003015
  H     -0.922936    2.230329   -3.517028
  C      1.223022    2.469865   -3.756911
  H      1.114701    3.258074   -4.532999
  H      1.237732    3.011242   -2.792157
  F      2.353815    1.712032   -3.934477
  H      1.398337   -1.829239   -6.352591
  H      2.155864   -2.565398   -4.932091
  C      3.451149   -0.149530   -5.952589
  C      3.922667    1.089559   -5.850711
  N      3.966162   -1.006183   -6.867880
  H      3.521391   -1.906467   -6.995270
  H      4.444824   -0.623472   -7.670348
  H      2.251995    0.240804   -4.498792
  H      3.464277    1.640782   -5.136392
  H      4.834470    1.313745   -6.224653
  H     -0.937999   -0.869056   -6.110838
  H     -1.604638   -0.622496   -4.513132
  H      0.594887   -1.211578   -3.482312
  H     -0.126530   -2.487656   -4.434176

 Total Charge           Charge          ....    0
 Multiplicity           Mult            ....    1
 Number of Electrons    NEL             ....   88
 Basis Dimension        Dim             ....  563

ORBITAL ENERGIES
----------------

  NO   OCC          E(Eh)            E(eV)
   0   2.0000     -24.469384      -665.8458
   1   2.0000     -14.155109      -385.1801
   2   2.0000     -14.143304      -384.8589
   3   2.0000     -10.158887      -276.4374
   4   2.0000     -10.097706      -274.7725
   5   2.0000     -10.096878      -274.7500
   6   2.0000     -10.083685      -274.3910
   7   2.0000     -10.072461      -274.0856
   8   2.0000     -10.071976      -274.0724
   9   2.0000     -10.069877      -274.0153
  10   2.0000      -9.952380      -270.8180
  11   2.0000      -1.315757       -35.8036
  12   2.0000      -1.055245       -28.7147
  13   2.0000      -0.971891       -26.4465
  14   2.0000      -0.929587       -25.2954
  15   2.0000      -0.886919       -24.1343
  16   2.0000      -0.847660       -23.0660
  17   2.0000      -0.793731       -21.5985
  18   2.0000      -0.760273       -20.6881
  19   2.0000      -0.731408       -19.9026
  20   2.0000      -0.692937       -18.8558
  21   2.0000      -0.675875       -18.3915
  22   2.0000      -0.651561       -17.7299
  23   2.0000      -0.624010       -16.9802
  24   2.0000      -0.615482       -16.7481
  25   2.0000      -0.608739       -16.5646
  26   2.0000      -0.590795       -16.0763
  27   2.0000      -0.580660       -15.8006
  28   2.0000      -0.554985       -15.1019
  29   2.0000      -0.544157       -14.8073
  30   2.0000      -0.526790       -14.3347
  31   2.0000      -0.513334       -13.9685
  32   2.0000      -0.501423       -13.6444
  33   2.0000      -0.483488       -13.1564
  34   2.0000      -0.470570       -12.8049
  35   2.0000      -0.464324       -12.6349
  36   2.0000      -0.454473       -12.3668
  37   2.0000      -0.446789       -12.1577
  38   2.0000      -0.430971       -11.7273
  39   2.0000      -0.421139       -11.4598
  40   2.0000      -0.419434       -11.4134
  41   2.0000      -0.416465       -11.3326
  42   2.0000      -0.339181        -9.2296
  43   2.0000      -0.238173        -6.4810
  44   0.0000       0.047016         1.2794
  45   0.0000       0.055929         1.5219
  46   0.0000       0.063099         1.7170
  47   0.0000       0.066142         1.7998
  48   0.0000       0.083346         2.2679

MULLIKEN ATOMIC CHARGES
-----------------------
   0 C :   -0.936542
   1 C :   -0.991027
   2 N :   -0.313269
   3 C :   -0.734181
   4 C :   -0.949788
   5 H :    0.505385
   6 C :   -0.808126
   7 H :    0.433824
   8 H :    0.334979
   9 H :    0.458885
  10 C :   -0.508629
  11 H :    0.360166
  12 H :    0.413804
  13 F :   -0.490605
  14 H :    0.498912
  15 H :    0.453213
  16 C :    0.493167
  17 C :   -1.187135
  18 N :   -0.445823
  19 H :    0.214892
  20 H :    0.206578
  21 H :    0.460727
  22 H :    0.592445
  23 H :    0.334251
  24 H :    0.436690
  25 H :    0.372883
  26 H :    0.375369
  27 H :    0.418958
Sum of atomic charges:   -0.0000000

LOEWDIN ATOMIC CHARGES
----------------------
   0 C :   -0.209288
   1 C :   -0.207252
   2 N :    0.029445
   3 C :   -0.216193
   4 C :   -0.217115
   5 H :    0.111203
   6 C :   -0.184977
   7 H :    0.116199
   8 H :    0.112374
   9 H :    0.123235
  10 C :   -0.212267
  11 H :    0.140302
  12 H :    0.128735
  13 F :   -0.063849
  14 H :    0.124131
  15 H :    0.121295
  16 C :   -0.557308
  17 C :   -0.001012
  18 N :    0.128431
  19 H :    0.081720
  20 H :    0.103655
  21 H :    0.084544
  22 H :   -0.013263
  23 H :    0.014625
  24 H :    0.117871
  25 H :    0.116497
  26 H :    0.112280
  27 H :    0.115983

  Mayer bond orders larger than 0.100000
B(  0-C ,  1-C ) :   0.5872 B(  0-C ,  2-N ) :   0.8426 B(  0-C , 14-H ) :   0.7754
B(  0-C , 15-H ) :   0.8715 B(  0-C , 16-C ) :  -0.2107 B(  0-C , 18-N ) :   0.1098
B(  1-C ,  3-C ) :   0.5819 B(  1-C , 26-H ) :   0.9218 B(  1-C , 27-H ) :   0.9566
B(  2-N , 16-C ) :   1.0195 B(  2-N , 21-H ) :   0.7731 B(  3-C ,  4-C ) :   0.6181
B(  3-C , 24-H ) :   0.9006 B(  3-C , 25-H ) :   0.9608 B(  4-C ,  5-H ) :   0.8517
B(  4-C ,  6-C ) :   0.4486 B(  4-C ,  7-H ) :   0.8999 B(  6-C ,  8-H ) :   0.9834
B(  6-C ,  9-H ) :   0.8712 B(  6-C , 10-C ) :   0.7300 B( 10-C , 11-H ) :   0.9525
B( 10-C , 12-H ) :   0.8798 B( 10-C , 13-F ) :   0.7408 B( 13-F , 17-C ) :   0.1432
B( 13-F , 22-H ) :  -0.1314 B( 16-C , 17-C ) :   1.0528 B( 16-C , 18-N ) :   0.8476
B( 16-C , 22-H ) :  -0.1191 B( 16-C , 23-H ) :  -0.1130 B( 17-C , 18-N ) :   0.1202
B( 17-C , 22-H ) :   0.7473 B( 17-C , 23-H ) :   1.0887 B( 18-N , 19-H ) :   0.9827
B( 18-N , 20-H ) :   0.9933

FINAL SINGLE POINT ENERGY      -523.252198264335

DIPOLE MOMENT
-------------
                                X             Y             Z
Electronic contribution:      6.31632       2.44526       1.72406
Nuclear contribution   :     -7.85451      -2.70006      -1.48294
                        -----------------------------------------
Total Dipole Moment    :     -1.53818      -0.25481       0.24112
                        -----------------------------------------
Magnitude (a.u.)       :      1.57768
Magnitude (Debye)      :      4.01014

Rotational constants in cm-1:     0.044065     0.029250     0.019826
Rotational constants in MHz :  1321.026981   876.903192   594.367265

                             ****ORCA TERMINATED NORMALLY****
TOTAL RUN TIME: 0 days 0 hours 5 minutes 5 seconds 208 msec
