                         Program Version 5.0.0 -  RELEASE  -
|  1> !LC-BLYP RIJCOSX def2-TZVPD def2/J TightSCF xyzfile
|  2>
|  3> *xyzfile 0 1 D3.xyz
|  4>
|  5> %MaxCore 64000
|  6>
|  7> %pal nprocs 4
|  8> end
|  9>
| 10> %scf
| 11>   MaxIter 150
| 12> end
| 13>
| 14>
| 15>                          ****END OF INPUT****

CARTESIAN COORDINATES (ANGSTROEM)
---------------------------------
  C      1.635557   -1.670396   -5.292109
  C      0.338484   -1.500907   -4.505398
  N      2.484511   -0.507410   -5.140392
  C     -0.684873   -0.528026   -5.099889
  C     -0.290406    0.951335   -5.153423
  H      0.607991    1.070692   -5.764412
  C     -0.055168    1.619420   -3.788577
  H     -1.080912    1.483775   -5.689436
  H      0.045006    0.862302   -3.003015
  H     -0.922936    2.230329   -3.517028
  C      1.223022    2.469865   -3.756911
  H      1.114701    3.258074   -4.532999
  H      1.237732    3.011242   -2.792157
  F      2.353815    1.712032   -3.934477
  H      1.398337   -1.829239   -6.352591
  H      2.155864   -2.565398   -4.932091
  C      3.451149   -0.149530   -5.952589
  N      3.922667    1.089559   -5.850711
  C      3.966162   -1.006183   -6.867880
  H      3.521391   -1.906467   -6.995270
  H      4.444824   -0.623472   -7.670348
  H      2.251995    0.240804   -4.498792
  H      3.464277    1.640782   -5.136392
  H      4.834470    1.313745   -6.224653
  H     -0.937999   -0.869056   -6.110838
  H     -1.604638   -0.622496   -4.513132
  H      0.594887   -1.211578   -3.482312
  H     -0.126530   -2.487656   -4.434176

 Total Charge           Charge          ....    0
 Multiplicity           Mult            ....    1
 Number of Electrons    NEL             ....   88
 Basis Dimension        Dim             ....  563

ORBITAL ENERGIES
----------------

  NO   OCC          E(Eh)            E(eV)
   0   2.0000     -24.497798      -666.6190
   1   2.0000     -14.147396      -384.9702
   2   2.0000     -14.143714      -384.8700
   3   2.0000     -10.176125      -276.9064
   4   2.0000     -10.097972      -274.7798
   5   2.0000     -10.093554      -274.6596
   6   2.0000     -10.090503      -274.5766
   7   2.0000     -10.075984      -274.1815
   8   2.0000     -10.072995      -274.1001
   9   2.0000     -10.070026      -274.0193
  10   2.0000      -9.962720      -271.0994
  11   2.0000      -1.342962       -36.5439
  12   2.0000      -1.060060       -28.8457
  13   2.0000      -0.973069       -26.4785
  14   2.0000      -0.934268       -25.4227
  15   2.0000      -0.890560       -24.2334
  16   2.0000      -0.839587       -22.8463
  17   2.0000      -0.802996       -21.8506
  18   2.0000      -0.769429       -20.9372
  19   2.0000      -0.744397       -20.2561
  20   2.0000      -0.688468       -18.7342
  21   2.0000      -0.678087       -18.4517
  22   2.0000      -0.665705       -18.1147
  23   2.0000      -0.639080       -17.3903
  24   2.0000      -0.635427       -17.2909
  25   2.0000      -0.602776       -16.4024
  26   2.0000      -0.594945       -16.1893
  27   2.0000      -0.581594       -15.8260
  28   2.0000      -0.569092       -15.4858
  29   2.0000      -0.538395       -14.6505
  30   2.0000      -0.532461       -14.4890
  31   2.0000      -0.521581       -14.1929
  32   2.0000      -0.504843       -13.7375
  33   2.0000      -0.479880       -13.0582
  34   2.0000      -0.477472       -12.9927
  35   2.0000      -0.463659       -12.6168
  36   2.0000      -0.462349       -12.5812
  37   2.0000      -0.454102       -12.3567
  38   2.0000      -0.442043       -12.0286
  39   2.0000      -0.430677       -11.7193
  40   2.0000      -0.421510       -11.4699
  41   2.0000      -0.419423       -11.4131
  42   2.0000      -0.328119        -8.9286
  43   2.0000      -0.243443        -6.6244
  44   0.0000       0.041727         1.1354
  45   0.0000       0.056175         1.5286
  46   0.0000       0.060194         1.6380
  47   0.0000       0.065859         1.7921
  48   0.0000       0.079281         2.1573

MULLIKEN ATOMIC CHARGES
-----------------------
   0 C :   -1.008355
   1 C :   -0.958354
   2 N :   -0.286933
   3 C :   -0.750615
   4 C :   -0.935112
   5 H :    0.484334
   6 C :   -0.808576
   7 H :    0.433069
   8 H :    0.342891
   9 H :    0.468105
  10 C :   -0.496509
  11 H :    0.370587
  12 H :    0.418871
  13 F :   -0.482468
  14 H :    0.494627
  15 H :    0.501278
  16 C :    0.333815
  17 N :   -0.362704
  18 C :   -1.139450
  19 H :    0.442100
  20 H :    0.300995
  21 H :    0.523239
  22 H :    0.366167
  23 H :    0.139028
  24 H :    0.441851
  25 H :    0.371906
  26 H :    0.375942
  27 H :    0.420272
Sum of atomic charges:   -0.0000000

LOEWDIN ATOMIC CHARGES
----------------------
   0 C :   -0.202348
   1 C :   -0.207122
   2 N :    0.029711
   3 C :   -0.215061
   4 C :   -0.217928
   5 H :    0.111142
   6 C :   -0.183699
   7 H :    0.116499
   8 H :    0.113721
   9 H :    0.125051
  10 C :   -0.208950
  11 H :    0.140814
  12 H :    0.130702
  13 F :   -0.053462
  14 H :    0.128347
  15 H :    0.127445
  16 C :   -0.572360
  17 N :    0.128907
  18 C :   -0.003329
  19 H :   -0.010246
  20 H :    0.002026
  21 H :    0.081672
  22 H :    0.061184
  23 H :    0.113838
  24 H :    0.119621
  25 H :    0.116494
  26 H :    0.110419
  27 H :    0.116912

  Mayer bond orders larger than 0.100000
B(  0-C ,  1-C ) :   0.5185 B(  0-C ,  2-N ) :   0.9236 B(  0-C , 14-H ) :   0.8329
B(  0-C , 15-H ) :   0.8243 B(  0-C , 18-C ) :   0.2315 B(  1-C ,  3-C ) :   0.5793
B(  1-C , 26-H ) :   0.9268 B(  1-C , 27-H ) :   0.9532 B(  2-N , 16-C ) :   1.0825
B(  2-N , 18-C ) :   0.1158 B(  2-N , 21-H ) :   0.7334 B(  3-C ,  4-C ) :   0.6348
B(  3-C , 24-H ) :   0.8946 B(  3-C , 25-H ) :   0.9643 B(  4-C ,  5-H ) :   0.8728
B(  4-C ,  6-C ) :   0.4372 B(  4-C ,  7-H ) :   0.9050 B(  6-C ,  8-H ) :   0.9802
B(  6-C ,  9-H ) :   0.8617 B(  6-C , 10-C ) :   0.7337 B( 10-C , 11-H ) :   0.9379
B( 10-C , 12-H ) :   0.8711 B( 10-C , 13-F ) :   0.7241 B( 16-C , 17-N ) :   0.9646
B( 16-C , 18-C ) :   1.1828 B( 16-C , 20-H ) :  -0.1450 B( 17-N , 22-H ) :   0.8163
B( 17-N , 23-H ) :   1.0533 B( 18-C , 19-H ) :   0.8408 B( 18-C , 20-H ) :   1.1641

FINAL SINGLE POINT ENERGY      -523.263874157781

DIPOLE MOMENT
-------------
                                X             Y             Z
Electronic contribution:      6.22184       4.44712       2.81854
Nuclear contribution   :     -7.84660      -3.08098      -1.66782
                        -----------------------------------------
Total Dipole Moment    :     -1.62476       1.36613       1.15072
                        -----------------------------------------
Magnitude (a.u.)       :      2.41461
Magnitude (Debye)      :      6.13745

Rotational constants in cm-1:     0.043547     0.029898     0.020008
Rotational constants in MHz :  1305.520367   896.323854   599.829375

                             ****ORCA TERMINATED NORMALLY****
TOTAL RUN TIME: 0 days 0 hours 4 minutes 19 seconds 276 msec
