                         Program Version 5.0.0 -  RELEASE  -
|  1> !CAM-B3LYP RIJCOSX def2-SVPD def2/J TightSCF
|  2> *xyz -1 1
|  3> C          3.84189       -6.95161       -3.63283
|  4> S          4.31812       -6.91593       -5.36869
|  5> O          5.40615       -5.89948       -5.51297
|  6> O          3.11191       -6.44508       -6.04379
|  7> O          4.76340       -8.23942       -5.69863
|  8> H          3.06224       -7.67071       -3.49159
|  9> H          3.49217       -5.98401       -3.33897
| 10> H          4.68822       -7.22131       -3.03626
| 11> *
| 12>
| 13> %MaxCore 64000
| 14>
| 15> %pal nprocs 8
| 16> end
| 17>
| 18> %scf
| 19>   MaxIter 150
| 20> end
| 21>
| 22>
| 23>                          ****END OF INPUT****

CARTESIAN COORDINATES (ANGSTROEM)
---------------------------------
  C      3.841890   -6.951610   -3.632830
  S      4.318120   -6.915930   -5.368690
  O      5.406150   -5.899480   -5.512970
  O      3.111910   -6.445080   -6.043790
  O      4.763400   -8.239420   -5.698630
  H      3.062240   -7.670710   -3.491590
  H      3.492170   -5.984010   -3.338970
  H      4.688220   -7.221310   -3.036260

 Total Charge           Charge          ....   -1
 Multiplicity           Mult            ....    1
 Number of Electrons    NEL             ....   50
 Basis Dimension        Dim             ....  140

ORBITAL ENERGIES
----------------

  NO   OCC          E(Eh)            E(eV)
   0   2.0000     -88.964853     -2420.8567
   1   2.0000     -18.999767      -517.0099
   2   2.0000     -18.989343      -516.7263
   3   2.0000     -18.982863      -516.5500
   4   2.0000     -10.116960      -275.2965
   5   2.0000      -8.017679      -218.1721
   6   2.0000      -5.987593      -162.9307
   7   2.0000      -5.987489      -162.9279
   8   2.0000      -5.987181      -162.9195
   9   2.0000      -1.014381       -27.6027
  10   2.0000      -0.873444       -23.7676
  11   2.0000      -0.842824       -22.9344
  12   2.0000      -0.665429       -18.1073
  13   2.0000      -0.465198       -12.6587
  14   2.0000      -0.376563       -10.2468
  15   2.0000      -0.364912        -9.9298
  16   2.0000      -0.362616        -9.8673
  17   2.0000      -0.320683        -8.7262
  18   2.0000      -0.317571        -8.6415
  19   2.0000      -0.221372        -6.0238
  20   2.0000      -0.219295        -5.9673
  21   2.0000      -0.184815        -5.0291
  22   2.0000      -0.175468        -4.7747
  23   2.0000      -0.166893        -4.5414
  24   2.0000      -0.129827        -3.5328
  25   0.0000       0.175781         4.7832
  26   0.0000       0.206303         5.6138
  27   0.0000       0.206608         5.6221
  28   0.0000       0.211635         5.7589
  29   0.0000       0.238155         6.4805

MULLIKEN ATOMIC CHARGES
-----------------------
   0 C :    0.687934
   1 S :    1.085181
   2 O :   -0.807000
   3 O :   -0.778382
   4 O :   -0.745120
   5 H :   -0.140449
   6 H :   -0.142690
   7 H :   -0.159475
Sum of atomic charges:   -1.0000000

LOEWDIN ATOMIC CHARGES
----------------------
   0 C :    0.058921
   1 S :    0.839377
   2 O :   -0.608689
   3 O :   -0.597810
   4 O :   -0.580243
   5 H :   -0.037123
   6 H :   -0.035915
   7 H :   -0.038517

  Mayer bond orders larger than 0.100000
B(  0-C ,  1-S ) :   0.9314 B(  0-C ,  5-H ) :   0.8806 B(  0-C ,  6-H ) :   0.8858
B(  0-C ,  7-H ) :   0.8855 B(  1-S ,  2-O ) :   1.2918 B(  1-S ,  3-O ) :   1.3267
B(  1-S ,  4-O ) :   1.3500 B(  1-S ,  5-H ) :   0.1206 B(  1-S ,  6-H ) :   0.1328
B(  1-S ,  7-H ) :   0.1271

FINAL SINGLE POINT ENERGY      -663.407403746704

DIPOLE MOMENT
-------------
                                X             Y             Z
Electronic contribution:      1.06934      -0.06886      -4.05835
Nuclear contribution   :     -1.53523      -0.17928       5.57610
                        -----------------------------------------
Total Dipole Moment    :     -0.46589      -0.24814       1.51775
                        -----------------------------------------
Magnitude (a.u.)       :      1.60692
Magnitude (Debye)      :      4.08447

Rotational constants in cm-1:     0.172657     0.156250     0.152500
Rotational constants in MHz :  5176.120042  4684.252187  4571.835124

                             ****ORCA TERMINATED NORMALLY****
TOTAL RUN TIME: 0 days 0 hours 0 minutes 9 seconds 976 msec
