                         Program Version 5.0.0 -  RELEASE  -
|  1> !CAM-B3LYP RIJCOSX def2-SVPD def2/J TightSCF
|  2> *xyz 1 1
|  3> C          5.55821       -1.99291       -6.21505
|  4> C          4.18188       -2.58967       -6.29891
|  5> N          3.14587       -1.76843       -6.48675
|  6> N          4.01910       -3.86431       -6.22743
|  7> H          4.76849       -4.59115       -5.99077
|  8> H          3.12241       -4.33339       -6.31462
|  9> H          3.28164       -0.77779       -6.56655
| 10> H          2.21255       -2.13419       -6.56225
| 11> H          5.49055       -0.92791       -6.29315
| 12> H          6.16046       -2.37160       -7.01429
| 13> H          6.00378       -2.25423       -5.27799
| 14> *
| 15>
| 16> %MaxCore 64000
| 17>
| 18> %pal nprocs 8
| 19> end
| 20>
| 21> %scf
| 22>   MaxIter 150
| 23> end
| 24>
| 25>
| 26>                          ****END OF INPUT****

CARTESIAN COORDINATES (ANGSTROEM)
---------------------------------
  C      5.558210   -1.992910   -6.215050
  C      4.181880   -2.589670   -6.298910
  N      3.145870   -1.768430   -6.486750
  N      4.019100   -3.864310   -6.227430
  H      4.768490   -4.591150   -5.990770
  H      3.122410   -4.333390   -6.314620
  H      3.281640   -0.777790   -6.566550
  H      2.212550   -2.134190   -6.562250
  H      5.490550   -0.927910   -6.293150
  H      6.160460   -2.371600   -7.014290
  H      6.003780   -2.254230   -5.277990

 Total Charge           Charge          ....    1
 Multiplicity           Mult            ....    1
 Number of Electrons    NEL             ....   32
 Basis Dimension        Dim             ....  136

ORBITAL ENERGIES
----------------

  NO   OCC          E(Eh)            E(eV)
   0   2.0000     -14.664156      -399.0320
   1   2.0000     -14.653278      -398.7360
   2   2.0000     -10.596965      -288.3581
   3   2.0000     -10.457497      -284.5630
   4   2.0000      -1.287056       -35.0226
   5   2.0000      -1.186263       -32.2798
   6   2.0000      -1.030831       -28.0503
   7   2.0000      -0.923214       -25.1219
   8   2.0000      -0.856926       -23.3181
   9   2.0000      -0.837523       -22.7902
  10   2.0000      -0.772627       -21.0243
  11   2.0000      -0.734771       -19.9941
  12   2.0000      -0.683652       -18.6031
  13   2.0000      -0.669126       -18.2078
  14   2.0000      -0.645737       -17.5714
  15   2.0000      -0.564099       -15.3499
  16   0.0000      -0.167441        -4.5563
  17   0.0000      -0.130191        -3.5427
  18   0.0000      -0.086485        -2.3534
  19   0.0000      -0.083647        -2.2762
  20   0.0000      -0.061102        -1.6627

MULLIKEN ATOMIC CHARGES
-----------------------
   0 C :    0.759731
   1 C :    0.341538
   2 N :    0.123628
   3 N :    0.201071
   4 H :    0.044367
   5 H :   -0.176638
   6 H :   -0.016510
   7 H :   -0.152274
   8 H :   -0.039372
   9 H :   -0.050184
  10 H :   -0.035357
Sum of atomic charges:    1.0000000

LOEWDIN ATOMIC CHARGES
----------------------
   0 C :    0.235044
   1 C :   -0.068840
   2 N :    0.287654
   3 N :    0.254591
   4 H :    0.112518
   5 H :    0.049340
   6 H :    0.040803
   7 H :    0.040563
   8 H :    0.005472
   9 H :    0.022176
  10 H :    0.020680

  Mayer bond orders larger than 0.100000
B(  0-C ,  1-C ) :   1.2778 B(  0-C ,  8-H ) :   0.7551 B(  0-C ,  9-H ) :   0.7436
B(  0-C , 10-H ) :   0.7252 B(  1-C ,  2-N ) :   1.0155 B(  1-C ,  3-N ) :   1.1935
B(  1-C ,  4-H ) :  -0.1041 B(  1-C ,  5-H ) :  -0.2052 B(  1-C ,  7-H ) :  -0.2383
B(  1-C ,  8-H ) :   0.2648 B(  1-C ,  9-H ) :   0.1852 B(  1-C , 10-H ) :   0.1959
B(  2-N ,  3-N ) :   0.1433 B(  2-N ,  6-H ) :   1.1275 B(  2-N ,  7-H ) :   1.3294
B(  3-N ,  4-H ) :   1.1516 B(  3-N ,  5-H ) :   1.2548 B(  4-H ,  5-H ) :  -0.1631
B(  6-H ,  7-H ) :  -0.1898 B(  8-H , 10-H ) :   0.1158

FINAL SINGLE POINT ENERGY      -189.488528673828

DIPOLE MOMENT
-------------
                                X             Y             Z
Electronic contribution:     -1.91100      -0.89568      -0.11518
Nuclear contribution   :      1.48163       0.51565       0.12876
                        -----------------------------------------
Total Dipole Moment    :     -0.42937      -0.38003       0.01358
                        -----------------------------------------
Magnitude (a.u.)       :      0.57355
Magnitude (Debye)      :      1.45785

Rotational constants in cm-1:     0.329497     0.300036     0.161709
Rotational constants in MHz :  9878.065920  8994.849253  4847.907140

                             ****ORCA TERMINATED NORMALLY****
TOTAL RUN TIME: 0 days 0 hours 0 minutes 9 seconds 373 msec
