                         Program Version 5.0.0 -  RELEASE  -
|  1> !CAM-B3LYP RIJCOSX def2-SVPD def2/J TightSCF xyzfile
|  2>
|  3> *xyzfile 0 1 B.xyz
|  4>
|  5> %MaxCore 64000
|  6>
|  7> %pal nprocs 4
|  8> end
|  9>
| 10> %scf
| 11>   MaxIter 150
| 12> end
| 13>
| 14>
| 15>                          ****END OF INPUT****

CARTESIAN COORDINATES (ANGSTROEM)
---------------------------------
  C      5.558206   -1.992914   -6.215054
  C      4.930199   -7.375319   -2.649623
  C      3.841892   -6.951611   -3.632829
  H      3.458144   -5.954425   -3.407121
  H      2.988484   -7.643606   -3.567078
  S      4.318115   -6.915930   -5.368692
  C      4.181880   -2.589671   -6.298911
  N      3.145873   -1.768431   -6.486753
  N      4.019102   -3.864307   -6.227427
  H      4.768490   -4.591153   -5.990773
  H      3.122405   -4.333392   -6.314620
  H      3.281635   -0.777786   -6.566549
  H      2.212549   -2.134193   -6.562246
  O      5.406154   -5.899480   -5.512972
  O      3.111910   -6.445079   -6.043792
  C      6.419260   -2.542944   -5.077630
  C      5.872267   -5.002756   -2.427819
  C      6.173994   -6.485522   -2.606315
  H      6.734852   -6.613767   -3.534015
  H      6.821463   -6.831018   -1.793617
  H      4.469612   -7.406168   -1.655876
  H      5.230134   -8.398678   -2.885906
  C      5.896512   -2.169314   -3.694552
  H      7.428880   -2.143665   -5.208078
  H      6.505894   -3.627541   -5.175502
  C      6.807804   -2.623428   -2.551019
  H      4.894708   -2.589732   -3.557501
  H      5.778823   -1.081255   -3.635790
  C      7.111544   -4.122463   -2.520363
  H      7.751615   -2.071393   -2.614406
  H      6.345837   -2.326401   -1.604086
  H      5.362882   -4.828697   -1.471335
  H      5.174429   -4.702577   -3.211298
  H      7.778329   -4.329347   -1.677651
  H      7.673189   -4.402845   -3.417586
  O      4.763396   -8.239424   -5.698629
  H      6.036826   -2.198189   -7.176852
  H      5.467610   -0.907371   -6.127968

 Total Charge           Charge          ....    0
 Multiplicity           Mult            ....    1
 Number of Electrons    NEL             ....  136
 Basis Dimension        Dim             ....  512

ORBITAL ENERGIES
----------------

  NO   OCC          E(Eh)            E(eV)
   0   2.0000     -89.119093     -2425.0538
   1   2.0000     -19.159534      -521.3574
   2   2.0000     -19.148727      -521.0634
   3   2.0000     -19.142193      -520.8856
   4   2.0000     -14.497936      -394.5089
   5   2.0000     -14.458196      -393.4275
   6   2.0000     -10.422051      -283.5984
   7   2.0000     -10.317296      -280.7479
   8   2.0000     -10.283871      -279.8383
   9   2.0000     -10.272172      -279.5200
  10   2.0000     -10.260463      -279.2014
  11   2.0000     -10.256360      -279.0898
  12   2.0000     -10.248209      -278.8679
  13   2.0000     -10.242930      -278.7243
  14   2.0000     -10.240308      -278.6530
  15   2.0000     -10.233042      -278.4552
  16   2.0000      -8.171094      -222.3468
  17   2.0000      -6.141936      -167.1306
  18   2.0000      -6.140798      -167.0996
  19   2.0000      -6.139796      -167.0723
  20   2.0000      -1.173367       -31.9289
  21   2.0000      -1.116959       -30.3940
  22   2.0000      -1.028982       -28.0000
  23   2.0000      -1.020364       -27.7655
  24   2.0000      -1.009805       -27.4782
  25   2.0000      -0.920550       -25.0495
  26   2.0000      -0.885316       -24.0907
  27   2.0000      -0.862130       -23.4598
  28   2.0000      -0.821071       -22.3425
  29   2.0000      -0.785448       -21.3731
  30   2.0000      -0.752356       -20.4727
  31   2.0000      -0.731619       -19.9084
  32   2.0000      -0.703762       -19.1503
  33   2.0000      -0.684397       -18.6234
  34   2.0000      -0.671349       -18.2683
  35   2.0000      -0.651872       -17.7383
  36   2.0000      -0.634560       -17.2673
  37   2.0000      -0.615380       -16.7453
  38   2.0000      -0.588025       -16.0010
  39   2.0000      -0.577049       -15.7023
  40   2.0000      -0.561888       -15.2898
  41   2.0000      -0.545915       -14.8551
  42   2.0000      -0.541991       -14.7483
  43   2.0000      -0.527037       -14.3414
  44   2.0000      -0.519431       -14.1344
  45   2.0000      -0.511326       -13.9139
  46   2.0000      -0.502324       -13.6689
  47   2.0000      -0.497450       -13.5363
  48   2.0000      -0.483727       -13.1629
  49   2.0000      -0.470311       -12.7978
  50   2.0000      -0.465953       -12.6792
  51   2.0000      -0.463601       -12.6152
  52   2.0000      -0.442857       -12.0508
  53   2.0000      -0.436030       -11.8650
  54   2.0000      -0.429814       -11.6958
  55   2.0000      -0.411445       -11.1960
  56   2.0000      -0.402861       -10.9624
  57   2.0000      -0.395869       -10.7721
  58   2.0000      -0.393629       -10.7112
  59   2.0000      -0.384565       -10.4646
  60   2.0000      -0.379557       -10.3283
  61   2.0000      -0.376413       -10.2427
  62   2.0000      -0.368880       -10.0377
  63   2.0000      -0.366608        -9.9759
  64   2.0000      -0.334358        -9.0984
  65   2.0000      -0.331569        -9.0225
  66   2.0000      -0.318186        -8.6583
  67   2.0000      -0.298366        -8.1190
  68   0.0000      -0.005464        -0.1487
  69   0.0000       0.006627         0.1803
  70   0.0000       0.040279         1.0960
  71   0.0000       0.050029         1.3614
  72   0.0000       0.056190         1.5290

MULLIKEN ATOMIC CHARGES
-----------------------
   0 C :    0.626441
   1 C :    0.636118
   2 C :    0.182594
   3 H :    0.117992
   4 H :   -0.330103
   5 S :    1.373629
   6 C :    0.508893
   7 N :    0.247484
   8 N :    0.736509
   9 H :   -0.115725
  10 H :   -0.296195
  11 H :   -0.118311
  12 H :   -0.195670
  13 O :   -1.028085
  14 O :   -0.848565
  15 C :    0.588969
  16 C :    0.149453
  17 C :    0.389207
  18 H :    0.028670
  19 H :   -0.418747
  20 H :   -0.010304
  21 H :   -0.086438
  22 C :    0.060716
  23 H :   -0.199325
  24 H :   -0.689187
  25 C :    0.760407
  26 H :    0.067376
  27 H :   -0.424927
  28 C :    0.264467
  29 H :   -0.043066
  30 H :   -0.122555
  31 H :   -0.049208
  32 H :   -0.442439
  33 H :   -0.395240
  34 H :    0.032292
  35 O :   -0.819164
  36 H :   -0.162525
  37 H :    0.024560
Sum of atomic charges:   -0.0000000

LOEWDIN ATOMIC CHARGES
----------------------
   0 C :    0.043906
   1 C :   -0.029899
   2 C :   -0.069532
   3 H :    0.002602
   4 H :    0.027092
   5 S :    0.952830
   6 C :   -0.051637
   7 N :    0.254662
   8 N :    0.304046
   9 H :   -0.089187
  10 H :    0.000669
  11 H :    0.015208
  12 H :    0.024115
  13 O :   -0.521247
  14 O :   -0.544021
  15 C :   -0.007449
  16 C :   -0.036409
  17 C :   -0.028195
  18 H :    0.015006
  19 H :    0.025392
  20 H :    0.025127
  21 H :    0.028577
  22 C :   -0.034507
  23 H :    0.038285
  24 H :    0.002272
  25 C :   -0.028572
  26 H :    0.013163
  27 H :    0.021322
  28 C :   -0.030267
  29 H :    0.022212
  30 H :    0.023554
  31 H :    0.035745
  32 H :   -0.020402
  33 H :    0.025569
  34 H :    0.021448
  35 O :   -0.504575
  36 H :    0.048130
  37 H :    0.024967

  Mayer bond orders larger than 0.100000
B(  0-C ,  6-C ) :   1.0052 B(  0-C , 15-C ) :   1.1810 B(  0-C , 24-H ) :   0.1433
B(  0-C , 36-H ) :   0.5768 B(  0-C , 37-H ) :   0.7073 B(  1-C ,  2-C ) :   1.2040
B(  1-C ,  3-H ) :   0.1094 B(  1-C ,  4-H ) :   0.1665 B(  1-C , 17-C ) :   1.2054
B(  1-C , 20-H ) :   0.6651 B(  1-C , 21-H ) :   0.6175 B(  2-C ,  3-H ) :   0.8148
B(  2-C ,  4-H ) :   0.7994 B(  2-C ,  5-S ) :   0.9498 B(  2-C , 20-H ) :   0.2072
B(  2-C , 21-H ) :   0.1271 B(  2-C , 35-O ) :   0.1341 B(  3-H , 17-C ) :  -0.1085
B(  4-H ,  5-S ) :   0.1470 B(  5-S , 13-O ) :   0.9863 B(  5-S , 14-O ) :   1.2543
B(  5-S , 35-O ) :   1.3535 B(  6-C ,  7-N ) :   0.9900 B(  6-C ,  8-N ) :   1.3445
B(  6-C ,  9-H ) :  -0.2533 B(  6-C , 10-H ) :  -0.3514 B(  6-C , 12-H ) :  -0.1814
B(  6-C , 36-H ) :   0.2206 B(  6-C , 37-H ) :   0.1807 B(  7-N ,  8-N ) :   0.1425
B(  7-N , 11-H ) :   1.1911 B(  7-N , 12-H ) :   1.3134 B(  8-N ,  9-H ) :   0.9373
B(  8-N , 10-H ) :   1.1409 B(  8-N , 24-H ) :   0.1105 B(  9-H , 10-H ) :  -0.2396
B(  9-H , 13-O ) :   0.2236 B( 10-H , 14-O ) :   0.1811 B( 11-H , 12-H ) :  -0.1831
B( 13-O , 14-O ) :   0.1440 B( 13-O , 18-H ) :   0.1046 B( 13-O , 24-H ) :   0.2074
B( 15-C , 22-C ) :   1.1699 B( 15-C , 23-H ) :   0.7016 B( 15-C , 24-H ) :   0.4939
B( 15-C , 26-H ) :   0.1426 B( 15-C , 27-H ) :   0.1765 B( 15-C , 36-H ) :   0.3188
B( 15-C , 37-H ) :   0.1823 B( 16-C , 17-C ) :   1.1961 B( 16-C , 18-H ) :   0.1453
B( 16-C , 19-H ) :   0.1798 B( 16-C , 28-C ) :   1.1985 B( 16-C , 31-H ) :   0.7376
B( 16-C , 32-H ) :   0.9206 B( 16-C , 33-H ) :   0.2205 B( 16-C , 34-H ) :   0.1481
B( 17-C , 18-H ) :   0.8093 B( 17-C , 19-H ) :   0.7815 B( 17-C , 20-H ) :   0.1064
B( 17-C , 21-H ) :   0.2713 B( 17-C , 28-C ) :   0.1579 B( 17-C , 31-H ) :   0.1023
B( 17-C , 32-H ) :   0.1066 B( 20-H , 21-H ) :  -0.1169 B( 22-C , 23-H ) :   0.1600
B( 22-C , 24-H ) :   0.2338 B( 22-C , 25-C ) :   1.0686 B( 22-C , 26-H ) :   0.8274
B( 22-C , 27-H ) :   0.9819 B( 22-C , 28-C ) :   0.1433 B( 22-C , 29-H ) :   0.1481
B( 22-C , 30-H ) :   0.2728 B( 23-H , 27-H ) :   0.1045 B( 24-H , 34-H ) :   0.1046
B( 25-C , 28-C ) :   1.1051 B( 25-C , 29-H ) :   0.6303 B( 25-C , 30-H ) :   0.6509
B( 26-H , 32-H ) :   0.1591 B( 28-C , 29-H ) :   0.2456 B( 28-C , 30-H ) :   0.1312
B( 28-C , 31-H ) :   0.1159 B( 28-C , 33-H ) :   0.8976 B( 28-C , 34-H ) :   0.7982
B( 29-H , 30-H ) :  -0.1273 B( 31-H , 32-H ) :   0.1275

FINAL SINGLE POINT ENERGY     -1126.712645689419

DIPOLE MOMENT
-------------
                                X             Y             Z
Electronic contribution:     -9.20442     -11.38692     -14.10475
Nuclear contribution   :      8.53517      16.50844      14.36520
                        -----------------------------------------
Total Dipole Moment    :     -0.66925       5.12152       0.26045
                        -----------------------------------------
Magnitude (a.u.)       :      5.17163
Magnitude (Debye)      :     13.14523

Rotational constants in cm-1:     0.017951     0.012436     0.008288
Rotational constants in MHz :   538.163255   372.824050   248.467077

                             ****ORCA TERMINATED NORMALLY****
TOTAL RUN TIME: 0 days 0 hours 7 minutes 14 seconds 613 msec
