                         Program Version 5.0.0 -  RELEASE  -
|  1> !CAM-B3LYP RIJCOSX def2-SVPD def2/J TightSCF
|  2> *xyz 0 1
|  3> C          3.84189       -6.95161       -3.63283
|  4> S          4.31812       -6.91593       -5.36869
|  5> F          5.40615       -5.89948       -5.51297
|  6> O          3.11191       -6.44508       -6.04379
|  7> O          4.76340       -8.23942       -5.69863
|  8> H          3.06224       -7.67071       -3.49159
|  9> H          3.49217       -5.98401       -3.33897
| 10> H          4.68822       -7.22131       -3.03626
| 11> *
| 12>
| 13> %MaxCore 64000
| 14>
| 15> %pal nprocs 8
| 16> end
| 17>
| 18> %scf
| 19>   MaxIter 150
| 20> end
| 21>
| 22>
| 23>                          ****END OF INPUT****

CARTESIAN COORDINATES (ANGSTROEM)
---------------------------------
  C      3.841890   -6.951610   -3.632830
  S      4.318120   -6.915930   -5.368690
  F      5.406150   -5.899480   -5.512970
  O      3.111910   -6.445080   -6.043790
  O      4.763400   -8.239420   -5.698630
  H      3.062240   -7.670710   -3.491590
  H      3.492170   -5.984010   -3.338970
  H      4.688220   -7.221310   -3.036260

 Total Charge           Charge          ....    0
 Multiplicity           Mult            ....    1
 Number of Electrons    NEL             ....   50
 Basis Dimension        Dim             ....  140

ORBITAL ENERGIES
----------------

  NO   OCC          E(Eh)            E(eV)
   0   2.0000     -89.228302     -2428.0255
   1   2.0000     -24.877676      -676.9560
   2   2.0000     -19.239102      -523.5226
   3   2.0000     -19.228236      -523.2269
   4   2.0000     -10.325988      -280.9844
   5   2.0000      -8.281682      -225.3560
   6   2.0000      -6.255547      -170.2221
   7   2.0000      -6.249342      -170.0533
   8   2.0000      -6.248508      -170.0305
   9   2.0000      -1.426155       -38.8077
  10   2.0000      -1.206902       -32.8415
  11   2.0000      -1.107462       -30.1356
  12   2.0000      -0.884988       -24.0817
  13   2.0000      -0.783414       -21.3178
  14   2.0000      -0.670231       -18.2379
  15   2.0000      -0.644115       -17.5273
  16   2.0000      -0.631416       -17.1817
  17   2.0000      -0.556040       -15.1306
  18   2.0000      -0.555231       -15.1086
  19   2.0000      -0.543706       -14.7950
  20   2.0000      -0.519116       -14.1259
  21   2.0000      -0.466850       -12.7036
  22   2.0000      -0.418357       -11.3841
  23   2.0000      -0.406812       -11.0699
  24   2.0000      -0.392976       -10.6934
  25   0.0000       0.019729         0.5369
  26   0.0000       0.060146         1.6367
  27   0.0000       0.063193         1.7196
  28   0.0000       0.067656         1.8410
  29   0.0000       0.069164         1.8820

MULLIKEN ATOMIC CHARGES
-----------------------
   0 C :    0.652055
   1 S :    1.246807
   2 F :   -0.394681
   3 O :   -0.643336
   4 O :   -0.612556
   5 H :   -0.079166
   6 H :   -0.076326
   7 H :   -0.092796
Sum of atomic charges:   -0.0000000

LOEWDIN ATOMIC CHARGES
----------------------
   0 C :    0.128151
   1 S :    1.108974
   2 F :   -0.275701
   3 O :   -0.479053
   4 O :   -0.462203
   5 H :    0.002406
   6 H :   -0.010000
   7 H :   -0.012573

  Mayer bond orders larger than 0.100000
B(  0-C ,  1-S ) :   0.9858 B(  0-C ,  5-H ) :   0.8796 B(  0-C ,  6-H ) :   0.8887
B(  0-C ,  7-H ) :   0.8886 B(  1-S ,  2-F ) :   0.6579 B(  1-S ,  3-O ) :   1.5344
B(  1-S ,  4-O ) :   1.5563 B(  1-S ,  5-H ) :   0.1217 B(  1-S ,  6-H ) :   0.1062
B(  1-S ,  7-H ) :   0.1007

FINAL SINGLE POINT ENERGY      -687.909414955533

DIPOLE MOMENT
-------------
                                X             Y             Z
Electronic contribution:      2.89445       1.61200      -4.24814
Nuclear contribution   :     -2.64549      -1.17311       5.81218
                        -----------------------------------------
Total Dipole Moment    :      0.24897       0.43889       1.56404
                        -----------------------------------------
Magnitude (a.u.)       :      1.64342
Magnitude (Debye)      :      4.17725

Rotational constants in cm-1:     0.165958     0.149400     0.146699
Rotational constants in MHz :  4975.281722  4478.884828  4397.931002

                             ****ORCA TERMINATED NORMALLY****
TOTAL RUN TIME: 0 days 0 hours 0 minutes 9 seconds 879 msec
