                         Program Version 5.0.0 -  RELEASE  -
|  1> !CAM-B3LYP RIJCOSX def2-SVPD def2/J TightSCF
|  2> *xyz 0 1
|  3> C          5.55821       -1.99291       -6.21505
|  4> C          4.18188       -2.58967       -6.29891
|  5> C          3.14587       -1.76843       -6.48675
|  6> N          4.01910       -3.86431       -6.22743
|  7> H          4.76849       -4.59115       -5.99077
|  8> H          3.12241       -4.33339       -6.31462
|  9> H          3.28164       -0.77779       -6.56655
| 10> H          2.21255       -2.13419       -6.56225
| 11> H          5.49055       -0.92791       -6.29315
| 12> H          6.16046       -2.37160       -7.01429
| 13> H          6.00378       -2.25423       -5.27799
| 14> *
| 15>
| 16> %MaxCore 64000
| 17>
| 18> %pal nprocs 8
| 19> end
| 20>
| 21> %scf
| 22>   MaxIter 150
| 23> end
| 24>
| 25>
| 26>                          ****END OF INPUT****

CARTESIAN COORDINATES (ANGSTROEM)
---------------------------------
  C      5.558210   -1.992910   -6.215050
  C      4.181880   -2.589670   -6.298910
  C      3.145870   -1.768430   -6.486750
  N      4.019100   -3.864310   -6.227430
  H      4.768490   -4.591150   -5.990770
  H      3.122410   -4.333390   -6.314620
  H      3.281640   -0.777790   -6.566550
  H      2.212550   -2.134190   -6.562250
  H      5.490550   -0.927910   -6.293150
  H      6.160460   -2.371600   -7.014290
  H      6.003780   -2.254230   -5.277990

 Total Charge           Charge          ....    0
 Multiplicity           Mult            ....    1
 Number of Electrons    NEL             ....   32
 Basis Dimension        Dim             ....  136

ORBITAL ENERGIES
----------------

  NO   OCC          E(Eh)            E(eV)
   0   2.0000     -14.414053      -392.2263
   1   2.0000     -10.284920      -279.8669
   2   2.0000     -10.248762      -278.8830
   3   2.0000     -10.188061      -277.2312
   4   2.0000      -1.009201       -27.4618
   5   2.0000      -0.830390       -22.5961
   6   2.0000      -0.759204       -20.6590
   7   2.0000      -0.659405       -17.9433
   8   2.0000      -0.583740       -15.8844
   9   2.0000      -0.544513       -14.8170
  10   2.0000      -0.503029       -13.6881
  11   2.0000      -0.466489       -12.6938
  12   2.0000      -0.457796       -12.4573
  13   2.0000      -0.416471       -11.3328
  14   2.0000      -0.407869       -11.0987
  15   2.0000      -0.245470        -6.6796
  16   0.0000       0.047465         1.2916
  17   0.0000       0.081724         2.2238
  18   0.0000       0.089961         2.4480
  19   0.0000       0.092707         2.5227
  20   0.0000       0.118712         3.2303

MULLIKEN ATOMIC CHARGES
-----------------------
   0 C :    1.013565
   1 C :   -0.481854
   2 C :    0.672479
   3 N :    0.303645
   4 H :   -0.115756
   5 H :   -0.246941
   6 H :   -0.312154
   7 H :   -0.566318
   8 H :   -0.038883
   9 H :   -0.117595
  10 H :   -0.110188
Sum of atomic charges:   -0.0000000

LOEWDIN ATOMIC CHARGES
----------------------
   0 C :    0.165705
   1 C :   -0.300274
   2 C :    0.175684
   3 N :    0.137673
   4 H :    0.049940
   5 H :    0.006519
   6 H :   -0.096819
   7 H :   -0.095314
   8 H :   -0.015250
   9 H :   -0.013083
  10 H :   -0.014782

  Mayer bond orders larger than 0.100000
B(  0-C ,  1-C ) :   1.2827 B(  0-C ,  8-H ) :   0.7700 B(  0-C ,  9-H ) :   0.6284
B(  0-C , 10-H ) :   0.6150 B(  1-C ,  2-C ) :   1.6454 B(  1-C ,  3-N ) :   1.2150
B(  1-C ,  7-H ) :   0.1516 B(  1-C ,  8-H ) :   0.2347 B(  1-C ,  9-H ) :   0.3030
B(  1-C , 10-H ) :   0.3064 B(  2-C ,  3-N ) :   0.2447 B(  2-C ,  6-H ) :   0.9674
B(  2-C ,  7-H ) :   0.6614 B(  3-N ,  4-H ) :   1.2117 B(  3-N ,  5-H ) :   1.2145
B(  4-H ,  5-H ) :  -0.1437 B(  8-H ,  9-H ) :   0.1097 B(  8-H , 10-H ) :   0.1142

FINAL SINGLE POINT ENERGY      -173.028740611785

DIPOLE MOMENT
-------------
                                X             Y             Z
Electronic contribution:     -0.88544      -1.47650       0.04183
Nuclear contribution   :      1.24351       0.69391       0.08872
                        -----------------------------------------
Total Dipole Moment    :      0.35808      -0.78259       0.13055
                        -----------------------------------------
Magnitude (a.u.)       :      0.87046
Magnitude (Debye)      :      2.21254

Rotational constants in cm-1:     0.350694     0.303314     0.167659
Rotational constants in MHz : 10513.535482  9093.138449  5026.287342

                             ****ORCA TERMINATED NORMALLY****
TOTAL RUN TIME: 0 days 0 hours 0 minutes 9 seconds 908 msec
