                         Program Version 5.0.0 -  RELEASE  -
|  1> !CAM-B3LYP RIJCOSX def2-SVPD def2/J TightSCF
|  2> *xyz 0 1
|  3> C          3.84189       -6.95161       -3.63283
|  4> S          4.31812       -6.91593       -5.36869
|  5> O          5.40615       -5.89948       -5.51297
|  6> F          3.11191       -6.44508       -6.04379
|  7> O          4.76340       -8.23942       -5.69863
|  8> H          3.06224       -7.67071       -3.49159
|  9> H          3.49217       -5.98401       -3.33897
| 10> H          4.68822       -7.22131       -3.03626
| 11> *
| 12>
| 13> %MaxCore 64000
| 14>
| 15> %pal nprocs 8
| 16> end
| 17>
| 18> %scf
| 19>   MaxIter 150
| 20> end
| 21>
| 22>
| 23>                          ****END OF INPUT****

CARTESIAN COORDINATES (ANGSTROEM)
---------------------------------
  C      3.841890   -6.951610   -3.632830
  S      4.318120   -6.915930   -5.368690
  O      5.406150   -5.899480   -5.512970
  F      3.111910   -6.445080   -6.043790
  O      4.763400   -8.239420   -5.698630
  H      3.062240   -7.670710   -3.491590
  H      3.492170   -5.984010   -3.338970
  H      4.688220   -7.221310   -3.036260

 Total Charge           Charge          ....    0
 Multiplicity           Mult            ....    1
 Number of Electrons    NEL             ....   50
 Basis Dimension        Dim             ....  140

ORBITAL ENERGIES
----------------

  NO   OCC          E(Eh)            E(eV)
   0   2.0000     -89.230017     -2428.0722
   1   2.0000     -24.891456      -677.3310
   2   2.0000     -19.238959      -523.5187
   3   2.0000     -19.221444      -523.0421
   4   2.0000     -10.326933      -281.0101
   5   2.0000      -8.283457      -225.4043
   6   2.0000      -6.257543      -170.2764
   7   2.0000      -6.251054      -170.0998
   8   2.0000      -6.249994      -170.0710
   9   2.0000      -1.453333       -39.5472
  10   2.0000      -1.200883       -32.6777
  11   2.0000      -1.088823       -29.6284
  12   2.0000      -0.889725       -24.2106
  13   2.0000      -0.795571       -21.6486
  14   2.0000      -0.681472       -18.5438
  15   2.0000      -0.663095       -18.0437
  16   2.0000      -0.635644       -17.2968
  17   2.0000      -0.557531       -15.1712
  18   2.0000      -0.555203       -15.1078
  19   2.0000      -0.541821       -14.7437
  20   2.0000      -0.514663       -14.0047
  21   2.0000      -0.464254       -12.6330
  22   2.0000      -0.416339       -11.3292
  23   2.0000      -0.399104       -10.8602
  24   2.0000      -0.380823       -10.3627
  25   0.0000       0.020022         0.5448
  26   0.0000       0.058725         1.5980
  27   0.0000       0.066814         1.8181
  28   0.0000       0.067519         1.8373
  29   0.0000       0.074784         2.0350

MULLIKEN ATOMIC CHARGES
-----------------------
   0 C :    0.649583
   1 S :    1.239052
   2 O :   -0.660503
   3 F :   -0.378156
   4 O :   -0.602851
   5 H :   -0.071186
   6 H :   -0.078721
   7 H :   -0.097218
Sum of atomic charges:   -0.0000000

LOEWDIN ATOMIC CHARGES
----------------------
   0 C :    0.127842
   1 S :    1.109342
   2 O :   -0.488102
   3 F :   -0.267254
   4 O :   -0.462349
   5 H :   -0.010627
   6 H :   -0.010354
   7 H :    0.001503

  Mayer bond orders larger than 0.100000
B(  0-C ,  1-S ) :   0.9841 B(  0-C ,  5-H ) :   0.8829 B(  0-C ,  6-H ) :   0.8880
B(  0-C ,  7-H ) :   0.8867 B(  1-S ,  2-O ) :   1.5024 B(  1-S ,  3-F ) :   0.7038
B(  1-S ,  4-O ) :   1.5615 B(  1-S ,  6-H ) :   0.1063 B(  1-S ,  7-H ) :   0.1285

FINAL SINGLE POINT ENERGY      -687.898646450926

DIPOLE MOMENT
-------------
                                X             Y             Z
Electronic contribution:     -0.96711       0.68514      -5.14893
Nuclear contribution   :     -0.35339      -0.62802       6.34251
                        -----------------------------------------
Total Dipole Moment    :     -1.32050       0.05712       1.19357
                        -----------------------------------------
Magnitude (a.u.)       :      1.78090
Magnitude (Debye)      :      4.52669

Rotational constants in cm-1:     0.162638     0.154373     0.145390
Rotational constants in MHz :  4875.774584  4627.990015  4358.691210

                             ****ORCA TERMINATED NORMALLY****
TOTAL RUN TIME: 0 days 0 hours 0 minutes 10 seconds 79 msec
