                         Program Version 5.0.0 -  RELEASE  -
|  1> !CAM-B3LYP RIJCOSX def2-SVPD def2/J TightSCF
|  2> *xyz 0 1
|  3> C          5.55821       -1.99291       -6.21505
|  4> C          4.18188       -2.58967       -6.29891
|  5> N          3.14587       -1.76843       -6.48675
|  6> C          4.01910       -3.86431       -6.22743
|  7> H          4.76849       -4.59115       -5.99077
|  8> H          3.12241       -4.33339       -6.31462
|  9> H          3.28164       -0.77779       -6.56655
| 10> H          2.21255       -2.13419       -6.56225
| 11> H          5.49055       -0.92791       -6.29315
| 12> H          6.16046       -2.37160       -7.01429
| 13> H          6.00378       -2.25423       -5.27799
| 14> *
| 15>
| 16> %MaxCore 64000
| 17>
| 18> %pal nprocs 8
| 19> end
| 20>
| 21> %scf
| 22>   MaxIter 150
| 23> end
| 24>
| 25>
| 26>                          ****END OF INPUT****

CARTESIAN COORDINATES (ANGSTROEM)
---------------------------------
  C      5.558210   -1.992910   -6.215050
  C      4.181880   -2.589670   -6.298910
  N      3.145870   -1.768430   -6.486750
  C      4.019100   -3.864310   -6.227430
  H      4.768490   -4.591150   -5.990770
  H      3.122410   -4.333390   -6.314620
  H      3.281640   -0.777790   -6.566550
  H      2.212550   -2.134190   -6.562250
  H      5.490550   -0.927910   -6.293150
  H      6.160460   -2.371600   -7.014290
  H      6.003780   -2.254230   -5.277990

 Total Charge           Charge          ....    0
 Multiplicity           Mult            ....    1
 Number of Electrons    NEL             ....   32
 Basis Dimension        Dim             ....  136

ORBITAL ENERGIES
----------------

  NO   OCC          E(Eh)            E(eV)
   0   2.0000     -14.403396      -391.9363
   1   2.0000     -10.281920      -279.7853
   2   2.0000     -10.249681      -278.9080
   3   2.0000     -10.193903      -277.3902
   4   2.0000      -0.999494       -27.1976
   5   2.0000      -0.833693       -22.6859
   6   2.0000      -0.765552       -20.8317
   7   2.0000      -0.641271       -17.4499
   8   2.0000      -0.596983       -16.2447
   9   2.0000      -0.549813       -14.9612
  10   2.0000      -0.500648       -13.6233
  11   2.0000      -0.464509       -12.6399
  12   2.0000      -0.461861       -12.5679
  13   2.0000      -0.411812       -11.2060
  14   2.0000      -0.402391       -10.9496
  15   2.0000      -0.252637        -6.8746
  16   0.0000       0.050790         1.3821
  17   0.0000       0.085332         2.3220
  18   0.0000       0.089902         2.4464
  19   0.0000       0.090825         2.4715
  20   0.0000       0.121058         3.2942

MULLIKEN ATOMIC CHARGES
-----------------------
   0 C :    0.974937
   1 C :   -0.107685
   2 N :    0.265978
   3 C :    0.179555
   4 H :   -0.156746
   5 H :   -0.463137
   6 H :   -0.186004
   7 H :   -0.200833
   8 H :   -0.198274
   9 H :   -0.074194
  10 H :   -0.033597
Sum of atomic charges:    0.0000000

LOEWDIN ATOMIC CHARGES
----------------------
   0 C :    0.168183
   1 C :   -0.288642
   2 N :    0.173160
   3 C :    0.137971
   4 H :   -0.040263
   5 H :   -0.089795
   6 H :   -0.016288
   7 H :   -0.000916
   8 H :   -0.028436
   9 H :   -0.007238
  10 H :   -0.007735

  Mayer bond orders larger than 0.100000
B(  0-C ,  1-C ) :   1.0823 B(  0-C ,  2-N ) :   0.1098 B(  0-C ,  8-H ) :   0.6628
B(  0-C ,  9-H ) :   0.7362 B(  0-C , 10-H ) :   0.6919 B(  1-C ,  2-N ) :   1.0405
B(  1-C ,  3-C ) :   1.5196 B(  1-C ,  5-H ) :   0.1155 B(  1-C ,  7-H ) :  -0.1438
B(  1-C ,  8-H ) :   0.3052 B(  1-C ,  9-H ) :   0.1854 B(  1-C , 10-H ) :   0.2080
B(  2-N ,  3-C ) :   0.2768 B(  2-N ,  6-H ) :   1.1427 B(  2-N ,  7-H ) :   1.2792
B(  3-C ,  4-H ) :   0.9417 B(  3-C ,  5-H ) :   0.7859 B(  6-H ,  7-H ) :  -0.1739

FINAL SINGLE POINT ENERGY      -173.037687754312

DIPOLE MOMENT
-------------
                                X             Y             Z
Electronic contribution:     -1.62283       0.41649      -0.20873
Nuclear contribution   :      1.43935       0.22387       0.14687
                        -----------------------------------------
Total Dipole Moment    :     -0.18348       0.64036      -0.06185
                        -----------------------------------------
Magnitude (a.u.)       :      0.66899
Magnitude (Debye)      :      1.70044

Rotational constants in cm-1:     0.350137     0.303099     0.167465
Rotational constants in MHz : 10496.847516  9086.685989  5020.487860

                             ****ORCA TERMINATED NORMALLY****
TOTAL RUN TIME: 0 days 0 hours 0 minutes 9 seconds 736 msec
