                         Program Version 5.0.0 -  RELEASE  -
|  1> !CAM-B3LYP RIJCOSX def2-SVPD def2/J TightSCF
|  2> *xyz 0 1
|  3> C          3.84189       -6.95161       -3.63283
|  4> S          4.31812       -6.91593       -5.36869
|  5> O          5.40615       -5.89948       -5.51297
|  6> O          3.11191       -6.44508       -6.04379
|  7> F          4.76340       -8.23942       -5.69863
|  8> H          3.06224       -7.67071       -3.49159
|  9> H          3.49217       -5.98401       -3.33897
| 10> H          4.68822       -7.22131       -3.03626
| 11> *
| 12>
| 13> %MaxCore 64000
| 14>
| 15> %pal nprocs 8
| 16> end
| 17>
| 18> %scf
| 19>   MaxIter 150
| 20> end
| 21>
| 22>
| 23>                          ****END OF INPUT****

CARTESIAN COORDINATES (ANGSTROEM)
---------------------------------
  C      3.841890   -6.951610   -3.632830
  S      4.318120   -6.915930   -5.368690
  O      5.406150   -5.899480   -5.512970
  O      3.111910   -6.445080   -6.043790
  F      4.763400   -8.239420   -5.698630
  H      3.062240   -7.670710   -3.491590
  H      3.492170   -5.984010   -3.338970
  H      4.688220   -7.221310   -3.036260

 Total Charge           Charge          ....    0
 Multiplicity           Mult            ....    1
 Number of Electrons    NEL             ....   50
 Basis Dimension        Dim             ....  140

ORBITAL ENERGIES
----------------

  NO   OCC          E(Eh)            E(eV)
   0   2.0000     -89.231160     -2428.1033
   1   2.0000     -24.905766      -677.7203
   2   2.0000     -19.228651      -523.2382
   3   2.0000     -19.222020      -523.0577
   4   2.0000     -10.327335      -281.0211
   5   2.0000      -8.284688      -225.4378
   6   2.0000      -6.258906      -170.3135
   7   2.0000      -6.252071      -170.1275
   8   2.0000      -6.251136      -170.1021
   9   2.0000      -1.476363       -40.1739
  10   2.0000      -1.189250       -32.3611
  11   2.0000      -1.080662       -29.4063
  12   2.0000      -0.889856       -24.2142
  13   2.0000      -0.807573       -21.9752
  14   2.0000      -0.693434       -18.8693
  15   2.0000      -0.679161       -18.4809
  16   2.0000      -0.637459       -17.3462
  17   2.0000      -0.556327       -15.1384
  18   2.0000      -0.551773       -15.0145
  19   2.0000      -0.544033       -14.8039
  20   2.0000      -0.509585       -13.8665
  21   2.0000      -0.457236       -12.4420
  22   2.0000      -0.405601       -11.0370
  23   2.0000      -0.397914       -10.8278
  24   2.0000      -0.374010       -10.1773
  25   0.0000       0.018057         0.4913
  26   0.0000       0.057616         1.5678
  27   0.0000       0.065891         1.7930
  28   0.0000       0.066554         1.8110
  29   0.0000       0.073554         2.0015

MULLIKEN ATOMIC CHARGES
-----------------------
   0 C :    0.651827
   1 S :    1.236828
   2 O :   -0.653580
   3 O :   -0.626666
   4 F :   -0.363251
   5 H :   -0.071161
   6 H :   -0.082749
   7 H :   -0.091248
Sum of atomic charges:    0.0000000

LOEWDIN ATOMIC CHARGES
----------------------
   0 C :    0.127491
   1 S :    1.111487
   2 O :   -0.487457
   3 O :   -0.478686
   4 F :   -0.253060
   5 H :   -0.010809
   6 H :    0.003269
   7 H :   -0.012236

  Mayer bond orders larger than 0.100000
B(  0-C ,  1-S ) :   0.9853 B(  0-C ,  5-H ) :   0.8811 B(  0-C ,  6-H ) :   0.8869
B(  0-C ,  7-H ) :   0.8884 B(  1-S ,  2-O ) :   1.5025 B(  1-S ,  3-O ) :   1.5403
B(  1-S ,  4-F ) :   0.7300 B(  1-S ,  6-H ) :   0.1321 B(  1-S ,  7-H ) :   0.1000

FINAL SINGLE POINT ENERGY      -687.885847509118

DIPOLE MOMENT
-------------
                                X             Y             Z
Electronic contribution:      1.79947      -2.30714      -4.56564
Nuclear contribution   :     -2.00334       1.16464       5.99767
                        -----------------------------------------
Total Dipole Moment    :     -0.20387      -1.14249       1.43203
                        -----------------------------------------
Magnitude (a.u.)       :      1.84325
Magnitude (Debye)      :      4.68517

Rotational constants in cm-1:     0.163678     0.154408     0.144413
Rotational constants in MHz :  4906.945035  4629.020676  4329.393152

                             ****ORCA TERMINATED NORMALLY****
TOTAL RUN TIME: 0 days 0 hours 0 minutes 10 seconds 162 msec
