                         Program Version 5.0.0 -  RELEASE  -
|  1> !CAM-B3LYP RIJCOSX def2-SVPD def2/J TightSCF xyzfile
|  2>
|  3> *xyzfile 0 1 D5.xyz
|  4>
|  5> %MaxCore 64000
|  6>
|  7> %pal nprocs 4
|  8> end
|  9>
| 10> %scf
| 11>   MaxIter 150
| 12> end
| 13>
| 14>
| 15>                          ****END OF INPUT****

CARTESIAN COORDINATES (ANGSTROEM)
---------------------------------
  C      5.558206   -1.992914   -6.215054
  C      4.930199   -7.375319   -2.649623
  C      3.841892   -6.951611   -3.632829
  H      3.458144   -5.954425   -3.407121
  H      2.988484   -7.643606   -3.567078
  S      4.318115   -6.915930   -5.368692
  C      4.181880   -2.589671   -6.298911
  C      3.145873   -1.768431   -6.486753
  N      4.019102   -3.864307   -6.227427
  H      4.768490   -4.591153   -5.990773
  H      3.122405   -4.333392   -6.314620
  H      3.281635   -0.777786   -6.566549
  H      2.212549   -2.134193   -6.562246
  O      5.406154   -5.899480   -5.512972
  O      3.111910   -6.445079   -6.043792
  C      6.419260   -2.542944   -5.077630
  C      5.872267   -5.002756   -2.427819
  C      6.173994   -6.485522   -2.606315
  H      6.734852   -6.613767   -3.534015
  H      6.821463   -6.831018   -1.793617
  H      4.469612   -7.406168   -1.655876
  H      5.230134   -8.398678   -2.885906
  C      5.896512   -2.169314   -3.694552
  H      7.428880   -2.143665   -5.208078
  H      6.505894   -3.627541   -5.175502
  C      6.807804   -2.623428   -2.551019
  H      4.894708   -2.589732   -3.557501
  H      5.778823   -1.081255   -3.635790
  C      7.111544   -4.122463   -2.520363
  H      7.751615   -2.071393   -2.614406
  H      6.345837   -2.326401   -1.604086
  H      5.362882   -4.828697   -1.471335
  H      5.174429   -4.702577   -3.211298
  H      7.778329   -4.329347   -1.677651
  H      7.673189   -4.402845   -3.417586
  F      4.763396   -8.239424   -5.698629
  H      6.036826   -2.198189   -7.176852
  H      5.467610   -0.907371   -6.127968

 Total Charge           Charge          ....    0
 Multiplicity           Mult            ....    1
 Number of Electrons    NEL             ....  136
 Basis Dimension        Dim             ....  512

ORBITAL ENERGIES
----------------

  NO   OCC          E(Eh)            E(eV)
   0   2.0000     -89.253407     -2428.7087
   1   2.0000     -24.924565      -678.2319
   2   2.0000     -19.251480      -523.8594
   3   2.0000     -19.250596      -523.8353
   4   2.0000     -14.357922      -390.6989
   5   2.0000     -10.342885      -281.4442
   6   2.0000     -10.302114      -280.3348
   7   2.0000     -10.271773      -279.5092
   8   2.0000     -10.259152      -279.1657
   9   2.0000     -10.251725      -278.9636
  10   2.0000     -10.251561      -278.9591
  11   2.0000     -10.246286      -278.8156
  12   2.0000     -10.238459      -278.6026
  13   2.0000     -10.237902      -278.5875
  14   2.0000     -10.233850      -278.4772
  15   2.0000     -10.158593      -276.4294
  16   2.0000      -8.305856      -226.0138
  17   2.0000      -6.280094      -170.8901
  18   2.0000      -6.273832      -170.7196
  19   2.0000      -6.271825      -170.6650
  20   2.0000      -1.494025       -40.6545
  21   2.0000      -1.217848       -33.1393
  22   2.0000      -1.112515       -30.2731
  23   2.0000      -0.971353       -26.4319
  24   2.0000      -0.937883       -25.5211
  25   2.0000      -0.891441       -24.2574
  26   2.0000      -0.865547       -23.5527
  27   2.0000      -0.836802       -22.7705
  28   2.0000      -0.817932       -22.2571
  29   2.0000      -0.785581       -21.3767
  30   2.0000      -0.762193       -20.7403
  31   2.0000      -0.728792       -19.8314
  32   2.0000      -0.707635       -19.2557
  33   2.0000      -0.700008       -19.0482
  34   2.0000      -0.681793       -18.5525
  35   2.0000      -0.667387       -18.1605
  36   2.0000      -0.647650       -17.6235
  37   2.0000      -0.628823       -17.1111
  38   2.0000      -0.618403       -16.8276
  39   2.0000      -0.587698       -15.9921
  40   2.0000      -0.583649       -15.8819
  41   2.0000      -0.577061       -15.7026
  42   2.0000      -0.556914       -15.1544
  43   2.0000      -0.537454       -14.6249
  44   2.0000      -0.533223       -14.5097
  45   2.0000      -0.523780       -14.2528
  46   2.0000      -0.511318       -13.9137
  47   2.0000      -0.502410       -13.6713
  48   2.0000      -0.492254       -13.3949
  49   2.0000      -0.489517       -13.3204
  50   2.0000      -0.474029       -12.8990
  51   2.0000      -0.468303       -12.7432
  52   2.0000      -0.460169       -12.5218
  53   2.0000      -0.445491       -12.1224
  54   2.0000      -0.437703       -11.9105
  55   2.0000      -0.427161       -11.6236
  56   2.0000      -0.424749       -11.5580
  57   2.0000      -0.416847       -11.3430
  58   2.0000      -0.415726       -11.3125
  59   2.0000      -0.406012       -11.0481
  60   2.0000      -0.395328       -10.7574
  61   2.0000      -0.392746       -10.6872
  62   2.0000      -0.388195       -10.5633
  63   2.0000      -0.379190       -10.3183
  64   2.0000      -0.371235       -10.1018
  65   2.0000      -0.361512        -9.8372
  66   2.0000      -0.356845        -9.7102
  67   2.0000      -0.213051        -5.7974
  68   0.0000       0.010067         0.2739
  69   0.0000       0.039116         1.0644
  70   0.0000       0.044396         1.2081
  71   0.0000       0.053170         1.4468
  72   0.0000       0.056966         1.5501

MULLIKEN ATOMIC CHARGES
-----------------------
   0 C :    0.938067
   1 C :    0.640093
   2 C :    0.100240
   3 H :    0.171573
   4 H :   -0.277332
   5 S :    1.618238
   6 C :   -0.468420
   7 C :    0.563362
   8 N :    1.096617
   9 H :   -0.388323
  10 H :   -0.336494
  11 H :   -0.396163
  12 H :   -0.463276
  13 O :   -0.973176
  14 O :   -0.714008
  15 C :    0.580089
  16 C :    0.146833
  17 C :    0.427361
  18 H :    0.011051
  19 H :   -0.404890
  20 H :   -0.001723
  21 H :   -0.099806
  22 C :    0.065599
  23 H :   -0.208268
  24 H :   -0.739533
  25 C :    0.759662
  26 H :    0.064707
  27 H :   -0.396759
  28 C :    0.247967
  29 H :   -0.037577
  30 H :   -0.138699
  31 H :   -0.038428
  32 H :   -0.438388
  33 H :   -0.406904
  34 H :    0.046307
  35 F :   -0.525319
  36 H :   -0.224952
  37 H :    0.200675
Sum of atomic charges:    0.0000000

LOEWDIN ATOMIC CHARGES
----------------------
   0 C :    0.016082
   1 C :   -0.029027
   2 C :   -0.031370
   3 H :    0.034097
   4 H :    0.035001
   5 S :    1.193930
   6 C :   -0.257521
   7 C :    0.169520
   8 N :    0.190616
   9 H :   -0.108149
  10 H :   -0.023409
  11 H :   -0.105812
  12 H :   -0.099233
  13 O :   -0.451608
  14 O :   -0.448224
  15 C :   -0.024986
  16 C :   -0.031666
  17 C :   -0.029722
  18 H :    0.010972
  19 H :    0.031534
  20 H :    0.038432
  21 H :    0.026153
  22 C :   -0.029976
  23 H :    0.026854
  24 H :   -0.011172
  25 C :   -0.031824
  26 H :    0.014813
  27 H :    0.026363
  28 C :   -0.031053
  29 H :    0.021862
  30 H :    0.020451
  31 H :    0.039110
  32 H :   -0.014854
  33 H :    0.023401
  34 H :    0.019906
  35 F :   -0.231593
  36 H :    0.028635
  37 H :    0.023467

  Mayer bond orders larger than 0.100000
B(  0-C ,  6-C ) :   0.9471 B(  0-C ,  8-N ) :   0.1760 B(  0-C , 15-C ) :   1.1199
B(  0-C , 23-H ) :   0.1133 B(  0-C , 24-H ) :   0.1735 B(  0-C , 36-H ) :   0.4184
B(  0-C , 37-H ) :   0.6401 B(  1-C ,  2-C ) :   1.2168 B(  1-C ,  4-H ) :   0.1753
B(  1-C , 17-C ) :   1.1935 B(  1-C , 20-H ) :   0.6735 B(  1-C , 21-H ) :   0.6079
B(  2-C ,  3-H ) :   0.8303 B(  2-C ,  4-H ) :   0.7951 B(  2-C ,  5-S ) :   0.9923
B(  2-C , 20-H ) :   0.1982 B(  2-C , 21-H ) :   0.1132 B(  2-C , 35-F ) :   0.1121
B(  4-H ,  5-S ) :   0.1283 B(  5-S , 13-O ) :   1.2069 B(  5-S , 14-O ) :   1.4716
B(  5-S , 35-F ) :   0.5635 B(  6-C ,  7-C ) :   1.6225 B(  6-C ,  8-N ) :   1.3371
B(  6-C , 10-H ) :  -0.1940 B(  6-C , 11-H ) :   0.1444 B(  6-C , 12-H ) :   0.3300
B(  6-C , 15-C ) :   0.1370 B(  6-C , 24-H ) :  -0.1187 B(  6-C , 36-H ) :   0.3280
B(  6-C , 37-H ) :   0.1576 B(  7-C ,  8-N ) :   0.1345 B(  7-C , 10-H ) :  -0.1122
B(  7-C , 11-H ) :   0.8272 B(  7-C , 12-H ) :   0.5342 B(  8-N ,  9-H ) :   0.6359
B(  8-N , 10-H ) :   0.9002 B(  8-N , 13-O ) :  -0.1550 B(  9-H , 10-H ) :  -0.1987
B(  9-H , 13-O ) :   0.1991 B( 10-H , 14-O ) :   0.1715 B( 13-O , 14-O ) :   0.1559
B( 13-O , 24-H ) :   0.2015 B( 13-O , 35-F ) :   0.1132 B( 15-C , 22-C ) :   1.1645
B( 15-C , 23-H ) :   0.6875 B( 15-C , 24-H ) :   0.4092 B( 15-C , 26-H ) :   0.1410
B( 15-C , 27-H ) :   0.2045 B( 15-C , 36-H ) :   0.2888 B( 15-C , 37-H ) :   0.1822
B( 16-C , 17-C ) :   1.1867 B( 16-C , 18-H ) :   0.1447 B( 16-C , 19-H ) :   0.1727
B( 16-C , 28-C ) :   1.2157 B( 16-C , 31-H ) :   0.7366 B( 16-C , 32-H ) :   0.9144
B( 16-C , 33-H ) :   0.2143 B( 16-C , 34-H ) :   0.1498 B( 17-C , 18-H ) :   0.8166
B( 17-C , 19-H ) :   0.7847 B( 17-C , 20-H ) :   0.1097 B( 17-C , 21-H ) :   0.2797
B( 17-C , 28-C ) :   0.1577 B( 17-C , 31-H ) :   0.1050 B( 20-H , 21-H ) :  -0.1246
B( 22-C , 23-H ) :   0.1559 B( 22-C , 24-H ) :   0.2477 B( 22-C , 25-C ) :   1.0613
B( 22-C , 26-H ) :   0.8380 B( 22-C , 27-H ) :   0.9662 B( 22-C , 28-C ) :   0.1401
B( 22-C , 29-H ) :   0.1473 B( 22-C , 30-H ) :   0.2615 B( 23-H , 27-H ) :   0.1020
B( 24-H , 34-H ) :   0.1064 B( 25-C , 28-C ) :   1.1100 B( 25-C , 29-H ) :   0.6422
B( 25-C , 30-H ) :   0.6548 B( 26-H , 32-H ) :   0.1588 B( 28-C , 29-H ) :   0.2482
B( 28-C , 30-H ) :   0.1298 B( 28-C , 31-H ) :   0.1156 B( 28-C , 33-H ) :   0.9041
B( 28-C , 34-H ) :   0.7922 B( 29-H , 30-H ) :  -0.1336 B( 31-H , 32-H ) :   0.1163

FINAL SINGLE POINT ENERGY     -1134.559534959908

DIPOLE MOMENT
-------------
                                X             Y             Z
Electronic contribution:     -8.08850     -23.38806     -13.53265
Nuclear contribution   :      8.54118      20.92489      15.31138
                        -----------------------------------------
Total Dipole Moment    :      0.45268      -2.46317       1.77873
                        -----------------------------------------
Magnitude (a.u.)       :      3.07181
Magnitude (Debye)      :      7.80791

Rotational constants in cm-1:     0.018156     0.012306     0.008278
Rotational constants in MHz :   544.309022   368.914527   248.178402

                             ****ORCA TERMINATED NORMALLY****
TOTAL RUN TIME: 0 days 0 hours 7 minutes 14 seconds 151 msec
