                         Program Version 5.0.0 -  RELEASE  -
|  1> !PBE D3BJ RIJCOSX def2-SVPD def2/J TightSCF
|  2> *xyz -1 1
|  3> C          1.44442        5.26658       -0.97546
|  4> O          1.56525        4.23349       -1.86489
|  5> H          1.76623        6.17572       -1.43893
|  6> H          2.05096        5.07018       -0.11614
|  7> H          0.42160        5.36155       -0.67592
|  8> *
|  9> %MaxCore 64000
| 10>
| 11> %pal nprocs 8
| 12> end
| 13>
| 14> %scf
| 15>   MaxIter 150
| 16> end
| 17>
| 18>
| 19>                          ****END OF INPUT****

CARTESIAN COORDINATES (ANGSTROEM)
---------------------------------
  C      1.444420    5.266580   -0.975460
  O      1.565250    4.233490   -1.864890
  H      1.766230    6.175720   -1.438930
  H      2.050960    5.070180   -0.116140
  H      0.421600    5.361550   -0.675920

 Total Charge           Charge          ....   -1
 Multiplicity           Mult            ....    1
 Number of Electrons    NEL             ....   18
 Basis Dimension        Dim             ....   67

ORBITAL ENERGIES
----------------

  NO   OCC          E(Eh)            E(eV)
   0   2.0000     -18.417300      -501.1602
   1   2.0000      -9.680556      -263.4213
   2   2.0000      -0.570455       -15.5229
   3   2.0000      -0.327115        -8.9013
   4   2.0000      -0.148586        -4.0432
   5   2.0000      -0.148585        -4.0432
   6   2.0000      -0.056323        -1.5326
   7   2.0000       0.092137         2.5072
   8   2.0000       0.092140         2.5072
   9   0.0000       0.182597         4.9687
  10   0.0000       0.251616         6.8468
  11   0.0000       0.251618         6.8469
  12   0.0000       0.258736         7.0406
  13   0.0000       0.295060         8.0290

MULLIKEN ATOMIC CHARGES
-----------------------
   0 C :    0.826936
   1 O :   -1.009346
   2 H :   -0.272536
   3 H :   -0.272498
   4 H :   -0.272556
Sum of atomic charges:   -1.0000000

LOEWDIN ATOMIC CHARGES
----------------------
   0 C :   -0.127889
   1 O :   -0.620572
   2 H :   -0.083845
   3 H :   -0.083848
   4 H :   -0.083847

  Mayer bond orders larger than 0.100000
B(  0-C ,  1-O ) :   1.1460 B(  0-C ,  2-H ) :   0.9127 B(  0-C ,  3-H ) :   0.9127
B(  0-C ,  4-H ) :   0.9127

Dispersion correction           -0.001471037
FINAL SINGLE POINT ENERGY      -114.883027223970

DIPOLE MOMENT
-------------
                                X             Y             Z
Electronic contribution:      0.17055      -1.45811      -1.25535
Nuclear contribution   :     -0.25440       2.17514       1.87266
                        -----------------------------------------
Total Dipole Moment    :     -0.08386       0.71702       0.61732
                        -----------------------------------------
Magnitude (a.u.)       :      0.94986
Magnitude (Debye)      :      2.41435

Rotational constants in cm-1:     5.477715     0.940444     0.940443
Rotational constants in MHz : 164217.753846 28193.799011 28193.774483

                             ****ORCA TERMINATED NORMALLY****
TOTAL RUN TIME: 0 days 0 hours 0 minutes 2 seconds 37 msec
