                         Program Version 5.0.0 -  RELEASE  -
|  1> !PBE D3BJ RIJCOSX def2-SVPD def2/J TightSCF
|  2> *xyz 1 1
|  3> C         -0.70169        4.07250       -4.00392
|  4> N          0.68053        4.61482       -4.04800
|  5> H          0.69993        5.58489       -4.38827
|  6> H          1.27804        4.05598       -4.66824
|  7> H          1.08573        4.53358       -3.10652
|  8> H         -1.14500        4.14653       -4.97495
|  9> H         -1.28296        4.63405       -3.30271
| 10> H         -0.67274        3.04629       -3.70235
| 11> *
| 12> %MaxCore 64000
| 13>
| 14> %pal nprocs 8
| 15> end
| 16>
| 17> %scf
| 18>   MaxIter 150
| 19> end
| 20>
| 21>
| 22>                          ****END OF INPUT****

CARTESIAN COORDINATES (ANGSTROEM)
---------------------------------
  C     -0.701690    4.072500   -4.003920
  N      0.680530    4.614820   -4.048000
  H      0.699930    5.584890   -4.388270
  H      1.278040    4.055980   -4.668240
  H      1.085730    4.533580   -3.106520
  H     -1.145000    4.146530   -4.974950
  H     -1.282960    4.634050   -3.302710
  H     -0.672740    3.046290   -3.702350

 Total Charge           Charge          ....    1
 Multiplicity           Mult            ....    1
 Number of Electrons    NEL             ....   18
 Basis Dimension        Dim             ....   88

ORBITAL ENERGIES
----------------

  NO   OCC          E(Eh)            E(eV)
   0   2.0000     -14.349275      -390.4636
   1   2.0000     -10.153429      -276.2888
   2   2.0000      -1.141350       -31.0577
   3   2.0000      -0.870260       -23.6810
   4   2.0000      -0.765756       -20.8373
   5   2.0000      -0.755775       -20.5657
   6   2.0000      -0.670576       -18.2473
   7   2.0000      -0.582641       -15.8545
   8   2.0000      -0.581074       -15.8118
   9   0.0000      -0.228147        -6.2082
  10   0.0000      -0.163347        -4.4449
  11   0.0000      -0.160931        -4.3791
  12   0.0000      -0.151712        -4.1283
  13   0.0000      -0.108469        -2.9516

MULLIKEN ATOMIC CHARGES
-----------------------
   0 C :    0.979765
   1 N :   -0.797384
   2 H :    0.354704
   3 H :    0.352597
   4 H :    0.371377
   5 H :   -0.095670
   6 H :   -0.083888
   7 H :   -0.081503
Sum of atomic charges:    1.0000000

LOEWDIN ATOMIC CHARGES
----------------------
   0 C :    0.278219
   1 N :    0.318777
   2 H :    0.110584
   3 H :    0.106235
   4 H :    0.107675
   5 H :    0.025381
   6 H :    0.026406
   7 H :    0.026723

  Mayer bond orders larger than 0.100000
B(  0-C ,  1-N ) :   0.8448 B(  0-C ,  5-H ) :   0.8927 B(  0-C ,  6-H ) :   0.8815
B(  0-C ,  7-H ) :   0.8788 B(  1-N ,  2-H ) :   0.7685 B(  1-N ,  3-H ) :   0.7781
B(  1-N ,  4-H ) :   0.7514 B(  1-N ,  6-H ) :   0.1012 B(  1-N ,  7-H ) :   0.1014

Dispersion correction           -0.003369281
FINAL SINGLE POINT ENERGY       -96.018095947504

DIPOLE MOMENT
-------------
                                X             Y             Z
Electronic contribution:      1.01514       0.42462      -0.03848
Nuclear contribution   :     -0.21844      -0.13976       0.01729
                        -----------------------------------------
Total Dipole Moment    :      0.79671       0.28486      -0.02119
                        -----------------------------------------
Magnitude (a.u.)       :      0.84637
Magnitude (Debye)      :      2.15130

Rotational constants in cm-1:     2.865765     0.688517     0.685249
Rotational constants in MHz : 85913.460223 20641.211162 20543.252263

                             ****ORCA TERMINATED NORMALLY****
TOTAL RUN TIME: 0 days 0 hours 0 minutes 2 seconds 401 msec
