                         Program Version 5.0.0 -  RELEASE  -
|  1> !PBE D3BJ RIJCOSX def2-SVPD def2/J TightSCF xyzfile
|  2>
|  3> *xyzfile 0 1 B.xyz
|  4>
|  5> %MaxCore 64000
|  6>
|  7> %pal nprocs 4
|  8> end
|  9>
| 10> %scf
| 11>   MaxIter 150
| 12> end
| 13>
| 14>
| 15>                          ****END OF INPUT****

CARTESIAN COORDINATES (ANGSTROEM)
---------------------------------
  C     -0.701686    4.072499   -4.003920
  N      0.680528    4.614820   -4.048005
  C      1.444422    5.266576   -0.975463
  O      1.565248    4.233493   -1.864885
  H      0.699926    5.584890   -4.388272
  H      1.278044    4.055977   -4.668235
  H      1.085729    4.533581   -3.106524
  C     -1.703475    5.093197   -3.477396
  H     -0.995895    3.740394   -5.000654
  H     -0.643580    3.201910   -3.351533
  C     -1.313997    5.785995   -2.169271
  H     -1.877057    5.850103   -4.251154
  H     -2.653264    4.564475   -3.354796
  H     -2.097137    6.509395   -1.929558
  H     -0.416875    6.387594   -2.339097
  C     -1.073895    4.844728   -0.979904
  H     -1.968893    4.809608   -0.352568
  C      0.148120    5.210874   -0.138092
  H     -0.909754    3.827531   -1.338975
  H      1.474250    6.264638   -1.476917
  H      2.289622    5.303267   -0.264450
  H      0.261827    4.450942    0.640711
  H     -0.002516    6.171031    0.371483

 Total Charge           Charge          ....    0
 Multiplicity           Mult            ....    1
 Number of Electrons    NEL             ....   66
 Basis Dimension        Dim             ....  283

ORBITAL ENERGIES
----------------

  NO   OCC          E(Eh)            E(eV)
   0   2.0000     -18.642596      -507.2908
   1   2.0000     -14.079152      -383.1132
   2   2.0000      -9.960961      -271.0515
   3   2.0000      -9.918276      -269.8900
   4   2.0000      -9.893588      -269.2182
   5   2.0000      -9.881678      -268.8941
   6   2.0000      -9.872601      -268.6471
   7   2.0000      -9.854484      -268.1541
   8   2.0000      -0.902276       -24.5522
   9   2.0000      -0.802371       -21.8336
  10   2.0000      -0.733027       -19.9467
  11   2.0000      -0.672817       -18.3083
  12   2.0000      -0.624591       -16.9960
  13   2.0000      -0.571218       -15.5436
  14   2.0000      -0.527241       -14.3470
  15   2.0000      -0.520960       -14.1761
  16   2.0000      -0.513306       -13.9678
  17   2.0000      -0.461994       -12.5715
  18   2.0000      -0.444580       -12.0976
  19   2.0000      -0.415624       -11.3097
  20   2.0000      -0.409756       -11.1500
  21   2.0000      -0.374466       -10.1897
  22   2.0000      -0.364424        -9.9165
  23   2.0000      -0.351543        -9.5660
  24   2.0000      -0.334328        -9.0975
  25   2.0000      -0.313717        -8.5367
  26   2.0000      -0.307892        -8.3782
  27   2.0000      -0.290395        -7.9021
  28   2.0000      -0.269630        -7.3370
  29   2.0000      -0.262949        -7.1552
  30   2.0000      -0.254473        -6.9246
  31   2.0000      -0.142013        -3.8644
  32   2.0000      -0.135194        -3.6788
  33   0.0000      -0.034799        -0.9469
  34   0.0000       0.000298         0.0081
  35   0.0000       0.007753         0.2110
  36   0.0000       0.024338         0.6623
  37   0.0000       0.034752         0.9457

MULLIKEN ATOMIC CHARGES
-----------------------
   0 C :    0.720011
   1 N :   -0.096236
   2 C :    0.509292
   3 O :   -0.621802
   4 H :    0.341482
   5 H :    0.274862
   6 H :   -0.436520
   7 C :    0.159276
   8 H :   -0.318940
   9 H :    0.084868
  10 C :    0.112398
  11 H :    0.005595
  12 H :   -0.139256
  13 H :   -0.267290
  14 H :    0.018329
  15 C :    0.083025
  16 H :   -0.272766
  17 C :    0.179301
  18 H :    0.106526
  19 H :    0.177011
  20 H :   -0.476614
  21 H :    0.006733
  22 H :   -0.149287
Sum of atomic charges:    0.0000000

LOEWDIN ATOMIC CHARGES
----------------------
   0 C :    0.075479
   1 N :    0.323016
   2 C :   -0.085970
   3 O :   -0.357206
   4 H :    0.080413
   5 H :    0.083329
   6 H :   -0.203435
   7 C :   -0.021917
   8 H :    0.026334
   9 H :    0.034307
  10 C :   -0.018104
  11 H :    0.022418
  12 H :    0.032252
  13 H :    0.021893
  14 H :   -0.005658
  15 C :   -0.027062
  16 H :    0.015585
  17 C :   -0.032069
  18 H :    0.000782
  19 H :   -0.005356
  20 H :    0.005465
  21 H :    0.018989
  22 H :    0.016517

  Mayer bond orders larger than 0.100000
B(  0-C ,  1-N ) :   0.8466 B(  0-C ,  7-C ) :   1.2191 B(  0-C ,  8-H ) :   0.8891
B(  0-C ,  9-H ) :   0.6937 B(  0-C , 11-H ) :   0.1320 B(  0-C , 12-H ) :   0.1569
B(  1-N ,  4-H ) :   0.7546 B(  1-N ,  5-H ) :   0.8221 B(  1-N ,  6-H ) :   1.3540
B(  1-N ,  8-H ) :   0.1236 B(  1-N ,  9-H ) :   0.1603 B(  2-C ,  3-O ) :   1.0553
B(  2-C , 17-C ) :   1.1335 B(  2-C , 19-H ) :   0.7277 B(  2-C , 20-H ) :   1.0243
B(  2-C , 21-H ) :   0.1200 B(  2-C , 22-H ) :   0.1230 B(  3-O ,  6-H ) :   0.4081
B(  7-C ,  8-H ) :   0.1208 B(  7-C ,  9-H ) :   0.1356 B(  7-C , 10-C ) :   1.2587
B(  7-C , 11-H ) :   0.7093 B(  7-C , 12-H ) :   0.8777 B(  7-C , 13-H ) :   0.1430
B(  7-C , 14-H ) :   0.1034 B(  8-H ,  9-H ) :  -0.1584 B( 10-C , 11-H ) :   0.1922
B( 10-C , 12-H ) :   0.1095 B( 10-C , 13-H ) :   0.7642 B( 10-C , 14-H ) :   0.8497
B( 10-C , 15-C ) :   1.2198 B( 10-C , 16-H ) :   0.2136 B( 13-H , 15-C ) :   0.1574
B( 14-H , 15-C ) :   0.1321 B( 15-C , 16-H ) :   0.8428 B( 15-C , 17-C ) :   1.2903
B( 15-C , 18-H ) :   0.7875 B( 15-C , 21-H ) :   0.2088 B( 15-C , 22-H ) :   0.1377
B( 17-C , 18-H ) :   0.1211 B( 17-C , 19-H ) :   0.1019 B( 17-C , 20-H ) :   0.1731
B( 17-C , 21-H ) :   0.6950 B( 17-C , 22-H ) :   0.9014 B( 19-H , 20-H ) :  -0.1107

Dispersion correction           -0.022038814
FINAL SINGLE POINT ENERGY      -366.896062120622

DIPOLE MOMENT
-------------
                                X             Y             Z
Electronic contribution:      2.02897      -1.57042      -1.25025
Nuclear contribution   :     -3.16446       1.92310      -1.11926
                        -----------------------------------------
Total Dipole Moment    :     -1.13549       0.35268      -2.36951
                        -----------------------------------------
Magnitude (a.u.)       :      2.65109
Magnitude (Debye)      :      6.73855

Rotational constants in cm-1:     0.085554     0.055600     0.038553
Rotational constants in MHz :  2564.854379  1666.836664  1155.798427

                             ****ORCA TERMINATED NORMALLY****
TOTAL RUN TIME: 0 days 0 hours 0 minutes 21 seconds 835 msec
