                         Program Version 5.0.0 -  RELEASE  -
|  1> !PBE D3BJ RIJCOSX def2-SVPD def2/J TightSCF
|  2> *xyz 0 1
|  3> C          1.44442        5.26658       -0.97546
|  4> F          1.56525        4.23349       -1.86489
|  5> H          1.76623        6.17572       -1.43893
|  6> H          2.05096        5.07018       -0.11614
|  7> H          0.42160        5.36155       -0.67592
|  8> *
|  9> %MaxCore 64000
| 10>
| 11> %pal nprocs 8
| 12> end
| 13>
| 14> %scf
| 15>   MaxIter 150
| 16> end
| 17>
| 18>
| 19>                          ****END OF INPUT****

CARTESIAN COORDINATES (ANGSTROEM)
---------------------------------
  C      1.444420    5.266580   -0.975460
  F      1.565250    4.233490   -1.864890
  H      1.766230    6.175720   -1.438930
  H      2.050960    5.070180   -0.116140
  H      0.421600    5.361550   -0.675920

 Total Charge           Charge          ....    0
 Multiplicity           Mult            ....    1
 Number of Electrons    NEL             ....   18
 Basis Dimension        Dim             ....   67

ORBITAL ENERGIES
----------------

  NO   OCC          E(Eh)            E(eV)
   0   2.0000     -24.260745      -660.1684
   1   2.0000      -9.963515      -271.1210
   2   2.0000      -1.084769       -29.5181
   3   2.0000      -0.634141       -17.2558
   4   2.0000      -0.448618       -12.2075
   5   2.0000      -0.434860       -11.8331
   6   2.0000      -0.434858       -11.8331
   7   2.0000      -0.297950        -8.1076
   8   2.0000      -0.297946        -8.1075
   9   0.0000       0.009327         0.2538
  10   0.0000       0.034499         0.9388
  11   0.0000       0.082318         2.2400
  12   0.0000       0.082318         2.2400
  13   0.0000       0.128324         3.4919

MULLIKEN ATOMIC CHARGES
-----------------------
   0 C :    0.901278
   1 F :   -0.455421
   2 H :   -0.148619
   3 H :   -0.148599
   4 H :   -0.148639
Sum of atomic charges:   -0.0000000

LOEWDIN ATOMIC CHARGES
----------------------
   0 C :    0.253457
   1 F :   -0.230981
   2 H :   -0.007491
   3 H :   -0.007493
   4 H :   -0.007491

  Mayer bond orders larger than 0.100000
B(  0-C ,  1-F ) :   0.8892 B(  0-C ,  2-H ) :   0.9340 B(  0-C ,  3-H ) :   0.9340
B(  0-C ,  4-H ) :   0.9340

Dispersion correction           -0.001294541
FINAL SINGLE POINT ENERGY      -139.489648513434

DIPOLE MOMENT
-------------
                                X             Y             Z
Electronic contribution:      0.26235      -2.24303      -1.93111
Nuclear contribution   :     -0.32265       2.75860       2.37499
                        -----------------------------------------
Total Dipole Moment    :     -0.06030       0.51556       0.44388
                        -----------------------------------------
Magnitude (a.u.)       :      0.68298
Magnitude (Debye)      :      1.73601

Rotational constants in cm-1:     5.477715     0.875416     0.875415
Rotational constants in MHz : 164217.753846 26244.308980 26244.287726

                             ****ORCA TERMINATED NORMALLY****
TOTAL RUN TIME: 0 days 0 hours 0 minutes 2 seconds 41 msec
