                         Program Version 5.0.0 -  RELEASE  -
|  1> !PBE D3BJ RIJCOSX def2-SVPD def2/J TightSCF
|  2> *xyz 0 1
|  3> C         -0.70169        4.07250       -4.00392
|  4> C          0.68053        4.61482       -4.04800
|  5> H          0.69993        5.58489       -4.38827
|  6> H          1.27804        4.05598       -4.66824
|  7> H          1.08573        4.53358       -3.10652
|  8> H         -1.14500        4.14653       -4.97495
|  9> H         -1.28296        4.63405       -3.30271
| 10> H         -0.67274        3.04629       -3.70235
| 11> *
| 12> %MaxCore 64000
| 13>
| 14> %pal nprocs 8
| 15> end
| 16>
| 17> %scf
| 18>   MaxIter 150
| 19> end
| 20>
| 21>
| 22>                          ****END OF INPUT****

CARTESIAN COORDINATES (ANGSTROEM)
---------------------------------
  C     -0.701690    4.072500   -4.003920
  C      0.680530    4.614820   -4.048000
  H      0.699930    5.584890   -4.388270
  H      1.278040    4.055980   -4.668240
  H      1.085730    4.533580   -3.106520
  H     -1.145000    4.146530   -4.974950
  H     -1.282960    4.634050   -3.302710
  H     -0.672740    3.046290   -3.702350

 Total Charge           Charge          ....    0
 Multiplicity           Mult            ....    1
 Number of Electrons    NEL             ....   18
 Basis Dimension        Dim             ....   88

ORBITAL ENERGIES
----------------

  NO   OCC          E(Eh)            E(eV)
   0   2.0000      -9.873467      -268.6707
   1   2.0000      -9.860830      -268.3268
   2   2.0000      -0.692648       -18.8479
   3   2.0000      -0.552922       -15.0458
   4   2.0000      -0.403454       -10.9786
   5   2.0000      -0.397738       -10.8230
   6   2.0000      -0.326348        -8.8804
   7   2.0000      -0.304611        -8.2889
   8   2.0000      -0.299257        -8.1432
   9   0.0000       0.011778         0.3205
  10   0.0000       0.045638         1.2419
  11   0.0000       0.082221         2.2373
  12   0.0000       0.083668         2.2767
  13   0.0000       0.102978         2.8022

MULLIKEN ATOMIC CHARGES
-----------------------
   0 C :    0.234550
   1 C :    0.570242
   2 H :   -0.200779
   3 H :   -0.195568
   4 H :   -0.175243
   5 H :   -0.083130
   6 H :   -0.078348
   7 H :   -0.071724
Sum of atomic charges:    0.0000000

LOEWDIN ATOMIC CHARGES
----------------------
   0 C :    0.072942
   1 C :    0.077941
   2 H :   -0.031693
   3 H :   -0.035805
   4 H :   -0.033367
   5 H :   -0.017764
   6 H :   -0.016511
   7 H :   -0.015743

  Mayer bond orders larger than 0.100000
B(  0-C ,  1-C ) :   1.5098 B(  0-C ,  2-H ) :   0.1801 B(  0-C ,  3-H ) :   0.1801
B(  0-C ,  4-H ) :   0.2003 B(  0-C ,  5-H ) :   0.8682 B(  0-C ,  6-H ) :   0.8511
B(  0-C ,  7-H ) :   0.8492 B(  1-C ,  2-H ) :   0.7816 B(  1-C ,  3-H ) :   0.7642
B(  1-C ,  4-H ) :   0.7666 B(  1-C ,  5-H ) :   0.1597 B(  1-C ,  6-H ) :   0.1649
B(  1-C ,  7-H ) :   0.1680

Dispersion correction           -0.003360658
FINAL SINGLE POINT ENERGY       -79.632740057989

DIPOLE MOMENT
-------------
                                X             Y             Z
Electronic contribution:      0.00729       0.04540      -0.01065
Nuclear contribution   :      0.01985      -0.04545       0.00953
                        -----------------------------------------
Total Dipole Moment    :      0.02714      -0.00005      -0.00112
                        -----------------------------------------
Magnitude (a.u.)       :      0.02716
Magnitude (Debye)      :      0.06903

Rotational constants in cm-1:     2.865782     0.718825     0.715264
Rotational constants in MHz : 85913.996449 21549.842906 21443.078705

                             ****ORCA TERMINATED NORMALLY****
TOTAL RUN TIME: 0 days 0 hours 0 minutes 2 seconds 333 msec
