                         Program Version 5.0.0 -  RELEASE  -
|  1> !PBE D3BJ RIJCOSX def2-SVPD def2/J TightSCF xyzfile
|  2>
|  3> *xyzfile 0 1 D.xyz
|  4>
|  5> %MaxCore 64000
|  6>
|  7> %pal nprocs 4
|  8> end
|  9>
| 10> %scf
| 11>   MaxIter 150
| 12> end
| 13>
| 14>
| 15>                          ****END OF INPUT****

CARTESIAN COORDINATES (ANGSTROEM)
---------------------------------
  C     -0.701686    4.072499   -4.003920
  C      0.680528    4.614820   -4.048005
  C      1.444422    5.266576   -0.975463
  F      1.565248    4.233493   -1.864885
  H      0.699926    5.584890   -4.388272
  H      1.278044    4.055977   -4.668235
  H      1.085729    4.533581   -3.106524
  C     -1.703475    5.093197   -3.477396
  H     -0.995895    3.740394   -5.000654
  H     -0.643580    3.201910   -3.351533
  C     -1.313997    5.785995   -2.169271
  H     -1.877057    5.850103   -4.251154
  H     -2.653264    4.564475   -3.354796
  H     -2.097137    6.509395   -1.929558
  H     -0.416875    6.387594   -2.339097
  C     -1.073895    4.844728   -0.979904
  H     -1.968893    4.809608   -0.352568
  C      0.148120    5.210874   -0.138092
  H     -0.909754    3.827531   -1.338975
  H      1.474250    6.264638   -1.476917
  H      2.289622    5.303267   -0.264450
  H      0.261827    4.450942    0.640711
  H     -0.002516    6.171031    0.371483

 Total Charge           Charge          ....    0
 Multiplicity           Mult            ....    1
 Number of Electrons    NEL             ....   66
 Basis Dimension        Dim             ....  283

ORBITAL ENERGIES
----------------

  NO   OCC          E(Eh)            E(eV)
   0   2.0000     -24.285825      -660.8509
   1   2.0000      -9.981399      -271.6077
   2   2.0000      -9.907046      -269.5844
   3   2.0000      -9.893088      -269.2046
   4   2.0000      -9.886480      -269.0248
   5   2.0000      -9.879795      -268.8429
   6   2.0000      -9.868006      -268.5221
   7   2.0000      -9.815367      -267.0897
   8   2.0000      -1.119222       -30.4556
   9   2.0000      -0.735426       -20.0120
  10   2.0000      -0.706782       -19.2325
  11   2.0000      -0.649726       -17.6799
  12   2.0000      -0.620556       -16.8862
  13   2.0000      -0.563382       -15.3304
  14   2.0000      -0.535216       -14.5640
  15   2.0000      -0.482001       -13.1159
  16   2.0000      -0.481188       -13.0938
  17   2.0000      -0.465826       -12.6758
  18   2.0000      -0.441012       -12.0005
  19   2.0000      -0.409812       -11.1515
  20   2.0000      -0.402856       -10.9623
  21   2.0000      -0.382026       -10.3954
  22   2.0000      -0.366633        -9.9766
  23   2.0000      -0.344697        -9.3797
  24   2.0000      -0.338024        -9.1981
  25   2.0000      -0.324521        -8.8307
  26   2.0000      -0.315107        -8.5745
  27   2.0000      -0.298518        -8.1231
  28   2.0000      -0.289647        -7.8817
  29   2.0000      -0.276518        -7.5244
  30   2.0000      -0.264625        -7.2008
  31   2.0000      -0.261491        -7.1155
  32   2.0000      -0.234697        -6.3864
  33   0.0000      -0.000048        -0.0013
  34   0.0000       0.013684         0.3724
  35   0.0000       0.020703         0.5634
  36   0.0000       0.029375         0.7993
  37   0.0000       0.041551         1.1306

MULLIKEN ATOMIC CHARGES
-----------------------
   0 C :   -0.232069
   1 C :    2.689290
   2 C :    0.747443
   3 F :   -0.543654
   4 H :   -0.174522
   5 H :    0.013231
   6 H :   -2.017055
   7 C :    0.286068
   8 H :   -0.392201
   9 H :    0.090265
  10 C :   -0.030948
  11 H :    0.108443
  12 H :   -0.137878
  13 H :   -0.224664
  14 H :    0.035687
  15 C :    0.169195
  16 H :   -0.264823
  17 C :    0.102957
  18 H :    0.078212
  19 H :    0.239424
  20 H :   -0.397684
  21 H :   -0.030422
  22 H :   -0.114292
Sum of atomic charges:   -0.0000000

LOEWDIN ATOMIC CHARGES
----------------------
   0 C :   -0.060616
   1 C :    0.140985
   2 C :    0.140226
   3 F :   -0.154799
   4 H :   -0.024071
   5 H :   -0.025139
   6 H :   -0.175871
   7 C :   -0.036138
   8 H :    0.018931
   9 H :    0.012074
  10 C :   -0.018743
  11 H :    0.025824
  12 H :    0.018773
  13 H :    0.019117
  14 H :   -0.002965
  15 C :   -0.018195
  16 H :    0.022501
  17 C :   -0.014683
  18 H :    0.008013
  19 H :    0.036728
  20 H :    0.031703
  21 H :    0.022717
  22 H :    0.033629

  Mayer bond orders larger than 0.100000
B(  0-C ,  1-C ) :   0.7916 B(  0-C ,  4-H ) :   0.3579 B(  0-C ,  5-H ) :   0.1879
B(  0-C ,  6-H ) :   0.7096 B(  0-C ,  7-C ) :   1.1947 B(  0-C ,  8-H ) :   1.0163
B(  0-C ,  9-H ) :   0.7100 B(  0-C , 10-C ) :   0.1306 B(  0-C , 11-H ) :   0.1516
B(  0-C , 12-H ) :   0.1772 B(  1-C ,  3-F ) :  -0.2820 B(  1-C ,  5-H ) :   0.5808
B(  1-C ,  6-H ) :  -3.0490 B(  1-C ,  9-H ) :   0.2346 B(  2-C ,  3-F ) :   0.6458
B(  2-C ,  6-H ) :   0.1809 B(  2-C , 17-C ) :   1.2644 B(  2-C , 19-H ) :   0.7315
B(  2-C , 20-H ) :   0.9659 B(  3-F ,  6-H ) :   0.5303 B(  4-H ,  5-H ) :  -0.2363
B(  4-H ,  6-H ) :   0.7941 B(  4-H ,  8-H ) :   0.2202 B(  5-H ,  6-H ) :   0.2574
B(  5-H ,  8-H ) :  -0.1345 B(  7-C ,  9-H ) :   0.1798 B(  7-C , 10-C ) :   1.2879
B(  7-C , 11-H ) :   0.6590 B(  7-C , 12-H ) :   0.8415 B(  7-C , 13-H ) :   0.1559
B(  7-C , 14-H ) :   0.1378 B(  8-H ,  9-H ) :  -0.2197 B(  9-H , 18-H ) :   0.1135
B( 10-C , 11-H ) :   0.2101 B( 10-C , 12-H ) :   0.1550 B( 10-C , 13-H ) :   0.7794
B( 10-C , 14-H ) :   0.8475 B( 10-C , 15-C ) :   1.2060 B( 10-C , 16-H ) :   0.2239
B( 10-C , 18-H ) :   0.1108 B( 11-H , 12-H ) :  -0.1096 B( 13-H , 15-C ) :   0.1580
B( 14-H , 15-C ) :   0.1177 B( 15-C , 16-H ) :   0.8252 B( 15-C , 17-C ) :   1.2712
B( 15-C , 18-H ) :   0.8008 B( 15-C , 21-H ) :   0.2071 B( 15-C , 22-H ) :   0.1007
B( 16-H , 18-H ) :  -0.1064 B( 17-C , 18-H ) :   0.1038 B( 17-C , 20-H ) :   0.1891
B( 17-C , 21-H ) :   0.7138 B( 17-C , 22-H ) :   0.8918

Dispersion correction           -0.021418497
FINAL SINGLE POINT ENERGY      -374.831517003298

DIPOLE MOMENT
-------------
                                X             Y             Z
Electronic contribution:      5.12488      -2.29157       2.75959
Nuclear contribution   :     -5.08831       2.68947      -1.99048
                        -----------------------------------------
Total Dipole Moment    :      0.03657       0.39791       0.76911
                        -----------------------------------------
Magnitude (a.u.)       :      0.86672
Magnitude (Debye)      :      2.20302

Rotational constants in cm-1:     0.084646     0.055672     0.038419
Rotational constants in MHz :  2537.625105  1668.992890  1151.781380

                             ****ORCA TERMINATED NORMALLY****
TOTAL RUN TIME: 0 days 0 hours 0 minutes 21 seconds 435 msec
