                         Program Version 5.0.0 -  RELEASE  -
|  1> !DLPNO-CCSD(T) aug-cc-pVTZ aug-cc-pVTZ/C TightSCF TightPNO RIJCOSX def2/J
|  2> *xyz -1 1
|  3> C          1.44442        5.26658       -0.97546
|  4> O          1.56525        4.23349       -1.86489
|  5> C         -1.07389        4.84473       -0.97990
|  6> C          0.14812        5.21087       -0.13809
|  7> H          1.47425        6.26464       -1.47692
|  8> H          2.28962        5.30327       -0.26445
|  9> H          0.26183        4.45094        0.64071
| 10> H         -0.00252        6.17103        0.37148
| 11> H         -1.20745        5.57445       -1.75098
| 12> H         -1.94291        4.82190       -0.35605
| 13> H         -0.92683        3.88150       -1.42201
| 14> *
| 15> %MaxCore 64000
| 16>
| 17> %pal nprocs 8
| 18> end
| 19>
| 20> %scf
| 21>   MaxIter 150
| 22> end
| 23>
| 24>
| 25>                          ****END OF INPUT****

CARTESIAN COORDINATES (ANGSTROEM)
---------------------------------
  C      1.444420    5.266580   -0.975460
  O      1.565250    4.233490   -1.864890
  C     -1.073890    4.844730   -0.979900
  C      0.148120    5.210870   -0.138090
  H      1.474250    6.264640   -1.476920
  H      2.289620    5.303270   -0.264450
  H      0.261830    4.450940    0.640710
  H     -0.002520    6.171030    0.371480
  H     -1.207450    5.574450   -1.750980
  H     -1.942910    4.821900   -0.356050
  H     -0.926830    3.881500   -1.422010

 Total Charge           Charge          ....   -1
 Multiplicity           Mult            ....    1
 Number of Electrons    NEL             ....   34
 Basis Dimension        Dim             ....  345

ORBITAL ENERGIES
----------------

  NO   OCC          E(Eh)            E(eV)
   0   2.0000     -20.206848      -549.8563
   1   2.0000     -11.038807      -300.3812
   2   2.0000     -11.033789      -300.2447
   3   2.0000     -11.030507      -300.1553
   4   2.0000      -0.999086       -27.1865
   5   2.0000      -0.848313       -23.0838
   6   2.0000      -0.705115       -19.1872
   7   2.0000      -0.572059       -15.5665
   8   2.0000      -0.440001       -11.9730
   9   2.0000      -0.424874       -11.5614
  10   2.0000      -0.366056        -9.9609
  11   2.0000      -0.337830        -9.1928
  12   2.0000      -0.302609        -8.2344
  13   2.0000      -0.291160        -7.9229
  14   2.0000      -0.258246        -7.0272
  15   2.0000      -0.117103        -3.1865
  16   2.0000      -0.112465        -3.0603
  17   0.0000       0.123022         3.3476
  18   0.0000       0.134765         3.6671
  19   0.0000       0.137887         3.7521
  20   0.0000       0.148708         4.0466
  21   0.0000       0.154781         4.2118

MULLIKEN ATOMIC CHARGES
-----------------------
   0 C :   -0.191829
   1 O :   -1.137616
   2 C :   -0.940801
   3 C :   -0.494846
   4 H :    0.190786
   5 H :    0.204279
   6 H :    0.253088
   7 H :    0.221658
   8 H :    0.302961
   9 H :    0.258217
  10 H :    0.334102
Sum of atomic charges:   -1.0000000

LOEWDIN ATOMIC CHARGES
----------------------
   0 C :   -0.389564
   1 O :    0.127640
   2 C :    0.534311
   3 C :    0.184216
   4 H :   -0.223311
   5 H :   -0.237095
   6 H :   -0.181909
   7 H :   -0.184342
   8 H :   -0.197830
   9 H :   -0.217747
  10 H :   -0.214369

  Mayer bond orders larger than 0.100000
B(  0-C ,  1-O ) :   1.0959 B(  0-C ,  3-C ) :   0.8472 B(  0-C ,  4-H ) :   1.0004
B(  0-C ,  5-H ) :   1.0498 B(  2-C ,  3-C ) :   0.8140 B(  2-C ,  8-H ) :   0.9220
B(  2-C ,  9-H ) :   0.9841 B(  2-C , 10-H ) :   0.8999 B(  3-C ,  6-H ) :   0.9505
B(  3-C ,  7-H ) :   0.9613

E(0)                                       ...   -192.558114530
E(0)                                       ...   -192.558114530
E(CORR)(strong-pairs)                      ...     -0.838687591
E(CORR)(weak-pairs)                        ...     -0.000689306
E(CORR)(corrected)                         ...     -0.839376897
E(TOT)                                     ...   -193.397491427
E(CCSD(T))                                 ...   -193.431584965
FINAL SINGLE POINT ENERGY      -193.431584964773

DIPOLE MOMENT
-------------
                                X             Y             Z
Electronic contribution:      2.00777      -1.28304      -1.38303
Nuclear contribution   :     -3.50495       2.13585       2.58010
                        -----------------------------------------
Total Dipole Moment    :     -1.49719       0.85281       1.19707
                        -----------------------------------------
Magnitude (a.u.)       :      2.09805
Magnitude (Debye)      :      5.33283

Rotational constants in cm-1:     0.478988     0.188199     0.150738
Rotational constants in MHz : 14359.706344  5642.078771  4519.011003

                             ****ORCA TERMINATED NORMALLY****
TOTAL RUN TIME: 0 days 0 hours 5 minutes 24 seconds 906 msec
