                         Program Version 5.0.0 -  RELEASE  -
|  1> !DLPNO-CCSD(T) aug-cc-pVTZ aug-cc-pVTZ/C TightSCF TightPNO RIJCOSX def2/J
|  2> *xyz 1 1
|  3> C         -0.70169        4.07250       -4.00392
|  4> N          0.68053        4.61482       -4.04800
|  5> H          0.69993        5.58489       -4.38827
|  6> H          1.27804        4.05598       -4.66824
|  7> H          1.08573        4.53358       -3.10652
|  8> C         -1.70347        5.09320       -3.47740
|  9> H         -0.99590        3.74039       -5.00065
| 10> H         -0.64358        3.20191       -3.35153
| 11> C         -1.31400        5.78600       -2.16927
| 12> H         -1.87706        5.85010       -4.25115
| 13> H         -2.65326        4.56448       -3.35480
| 14> H         -0.38448        6.29945       -2.30062
| 15> H         -1.21111        5.05451       -1.39516
| 16> H         -2.07413        6.48833       -1.89758
| 17> *
| 18> %MaxCore 64000
| 19>
| 20> %pal nprocs 8
| 21> end
| 22>
| 23> %scf
| 24>   MaxIter 150
| 25> end
| 26>
| 27>
| 28>                          ****END OF INPUT****

CARTESIAN COORDINATES (ANGSTROEM)
---------------------------------
  C     -0.701690    4.072500   -4.003920
  N      0.680530    4.614820   -4.048000
  H      0.699930    5.584890   -4.388270
  H      1.278040    4.055980   -4.668240
  H      1.085730    4.533580   -3.106520
  C     -1.703470    5.093200   -3.477400
  H     -0.995900    3.740390   -5.000650
  H     -0.643580    3.201910   -3.351530
  C     -1.314000    5.786000   -2.169270
  H     -1.877060    5.850100   -4.251150
  H     -2.653260    4.564480   -3.354800
  H     -0.384480    6.299450   -2.300620
  H     -1.211110    5.054510   -1.395160
  H     -2.074130    6.488330   -1.897580

 Total Charge           Charge          ....    1
 Multiplicity           Mult            ....    1
 Number of Electrons    NEL             ....   34
 Basis Dimension        Dim             ....  414

ORBITAL ENERGIES
----------------

  NO   OCC          E(Eh)            E(eV)
   0   2.0000     -15.896358      -432.5619
   1   2.0000     -11.473724      -312.2159
   2   2.0000     -11.400426      -310.2214
   3   2.0000     -11.369391      -309.3769
   4   2.0000      -1.517229       -41.2859
   5   2.0000      -1.240059       -33.7437
   6   2.0000      -1.127527       -30.6816
   7   2.0000      -1.006099       -27.3774
   8   2.0000      -0.974345       -26.5133
   9   2.0000      -0.962003       -26.1774
  10   2.0000      -0.850620       -23.1465
  11   2.0000      -0.798705       -21.7339
  12   2.0000      -0.765615       -20.8334
  13   2.0000      -0.740582       -20.1523
  14   2.0000      -0.670059       -18.2332
  15   2.0000      -0.666226       -18.1289
  16   2.0000      -0.653414       -17.7803
  17   0.0000      -0.115273        -3.1367
  18   0.0000      -0.081394        -2.2148
  19   0.0000      -0.079222        -2.1557
  20   0.0000      -0.069348        -1.8871
  21   0.0000      -0.046633        -1.2689

MULLIKEN ATOMIC CHARGES
-----------------------
   0 C :   -0.348224
   1 N :    0.137339
   2 H :    0.141115
   3 H :    0.073196
   4 H :    0.158272
   5 C :   -0.435644
   6 H :    0.351436
   7 H :    0.336586
   8 C :   -0.924742
   9 H :    0.270587
  10 H :    0.336691
  11 H :    0.312896
  12 H :    0.304589
  13 H :    0.285903
Sum of atomic charges:    1.0000000

LOEWDIN ATOMIC CHARGES
----------------------
   0 C :    0.333852
   1 N :    1.094516
   2 H :   -0.126078
   3 H :   -0.122463
   4 H :   -0.134343
   5 C :    0.316134
   6 H :   -0.106045
   7 H :   -0.111011
   8 C :    0.629304
   9 H :   -0.132777
  10 H :   -0.124842
  11 H :   -0.190119
  12 H :   -0.168922
  13 H :   -0.157205

  Mayer bond orders larger than 0.100000
B(  0-C ,  1-N ) :   0.7855 B(  0-C ,  5-C ) :   0.9000 B(  0-C ,  6-H ) :   0.8814
B(  0-C ,  7-H ) :   0.9024 B(  1-N ,  2-H ) :   0.9815 B(  1-N ,  3-H ) :   1.0717
B(  1-N ,  4-H ) :   0.9988 B(  5-C ,  8-C ) :   0.8256 B(  5-C ,  9-H ) :   0.9488
B(  5-C , 10-H ) :   0.9037 B(  8-C , 11-H ) :   0.9121 B(  8-C , 12-H ) :   0.9251
B(  8-C , 13-H ) :   0.9964

E(0)                                       ...   -173.719334592
E(0)                                       ...   -173.719334592
E(CORR)(strong-pairs)                      ...     -0.802848592
E(CORR)(weak-pairs)                        ...     -0.000704532
E(CORR)(corrected)                         ...     -0.803553125
E(TOT)                                     ...   -174.522887717
E(CCSD(T))                                 ...   -174.551383769
FINAL SINGLE POINT ENERGY      -174.551383769229

DIPOLE MOMENT
-------------
                                X             Y             Z
Electronic contribution:      1.56038      -0.92177      -1.47144
Nuclear contribution   :      0.19992       0.44181       0.60618
                        -----------------------------------------
Total Dipole Moment    :      1.76030      -0.47995      -0.86525
                        -----------------------------------------
Magnitude (a.u.)       :      2.01932
Magnitude (Debye)      :      5.13271

Rotational constants in cm-1:     0.427003     0.166237     0.135950
Rotational constants in MHz : 12801.234133  4983.663157  4075.681698

                             ****ORCA TERMINATED NORMALLY****
TOTAL RUN TIME: 0 days 0 hours 6 minutes 17 seconds 548 msec
