                         Program Version 5.0.0 -  RELEASE  -
|  1> !DLPNO-CCSD(T) aug-cc-pVTZ aug-cc-pVTZ/C TightSCF TightPNO RIJCOSX def2/J
|  2> *xyz 0 1
|  3> C          1.44442        5.26658       -0.97546
|  4> F          1.56525        4.23349       -1.86489
|  5> C         -1.07389        4.84473       -0.97990
|  6> C          0.14812        5.21087       -0.13809
|  7> H          1.47425        6.26464       -1.47692
|  8> H          2.28962        5.30327       -0.26445
|  9> H          0.26183        4.45094        0.64071
| 10> H         -0.00252        6.17103        0.37148
| 11> H         -1.20745        5.57445       -1.75098
| 12> H         -1.94291        4.82190       -0.35605
| 13> H         -0.92683        3.88150       -1.42201
| 14> *
| 15> %MaxCore 64000
| 16>
| 17> %pal nprocs 8
| 18> end
| 19>
| 20> %scf
| 21>   MaxIter 150
| 22> end
| 23>
| 24>
| 25>                          ****END OF INPUT****

CARTESIAN COORDINATES (ANGSTROEM)
---------------------------------
  C      1.444420    5.266580   -0.975460
  F      1.565250    4.233490   -1.864890
  C     -1.073890    4.844730   -0.979900
  C      0.148120    5.210870   -0.138090
  H      1.474250    6.264640   -1.476920
  H      2.289620    5.303270   -0.264450
  H      0.261830    4.450940    0.640710
  H     -0.002520    6.171030    0.371480
  H     -1.207450    5.574450   -1.750980
  H     -1.942910    4.821900   -0.356050
  H     -0.926830    3.881500   -1.422010

 Total Charge           Charge          ....    0
 Multiplicity           Mult            ....    1
 Number of Electrons    NEL             ....   34
 Basis Dimension        Dim             ....  345

ORBITAL ENERGIES
----------------

  NO   OCC          E(Eh)            E(eV)
   0   2.0000     -26.284477      -715.2370
   1   2.0000     -11.308927      -307.7315
   2   2.0000     -11.230352      -305.5934
   3   2.0000     -11.207027      -304.9587
   4   2.0000      -1.596943       -43.4550
   5   2.0000      -1.060991       -28.8710
   6   2.0000      -0.938425       -25.5358
   7   2.0000      -0.816612       -22.2212
   8   2.0000      -0.704284       -19.1645
   9   2.0000      -0.701083       -19.0774
  10   2.0000      -0.667080       -18.1522
  11   2.0000      -0.610268       -16.6062
  12   2.0000      -0.573664       -15.6102
  13   2.0000      -0.534792       -14.5524
  14   2.0000      -0.504953       -13.7405
  15   2.0000      -0.474339       -12.9074
  16   2.0000      -0.470738       -12.8094
  17   0.0000       0.030252         0.8232
  18   0.0000       0.038847         1.0571
  19   0.0000       0.040248         1.0952
  20   0.0000       0.045496         1.2380
  21   0.0000       0.062317         1.6957

MULLIKEN ATOMIC CHARGES
-----------------------
   0 C :   -0.122523
   1 F :   -0.504483
   2 C :   -0.940743
   3 C :   -0.512320
   4 H :    0.290267
   5 H :    0.304377
   6 H :    0.275041
   7 H :    0.284589
   8 H :    0.314331
   9 H :    0.293298
  10 H :    0.318167
Sum of atomic charges:    0.0000000

LOEWDIN ATOMIC CHARGES
----------------------
   0 C :   -0.101613
   1 F :    0.468776
   2 C :    0.583562
   3 C :    0.252017
   4 H :   -0.157829
   5 H :   -0.171869
   6 H :   -0.161586
   7 H :   -0.148208
   8 H :   -0.185139
   9 H :   -0.186766
  10 H :   -0.191345

  Mayer bond orders larger than 0.100000
B(  0-C ,  1-F ) :   0.6225 B(  0-C ,  3-C ) :   0.9134 B(  0-C ,  4-H ) :   0.9338
B(  0-C ,  5-H ) :   0.9624 B(  2-C ,  3-C ) :   0.8384 B(  2-C ,  8-H ) :   0.9070
B(  2-C ,  9-H ) :   0.9647 B(  2-C , 10-H ) :   0.9147 B(  3-C ,  6-H ) :   0.9322
B(  3-C ,  7-H ) :   0.9224

E(0)                                       ...   -217.193507584
E(0)                                       ...   -217.193507584
E(CORR)(strong-pairs)                      ...     -0.831945488
E(CORR)(weak-pairs)                        ...     -0.000649364
E(CORR)(corrected)                         ...     -0.832594851
E(TOT)                                     ...   -218.026102436
E(CCSD(T))                                 ...   -218.054869515
FINAL SINGLE POINT ENERGY      -218.054869514826

DIPOLE MOMENT
-------------
                                X             Y             Z
Electronic contribution:      4.60293      -2.39995      -3.10855
Nuclear contribution   :     -4.76356       2.92420       3.62609
                        -----------------------------------------
Total Dipole Moment    :     -0.16063       0.52425       0.51754
                        -----------------------------------------
Magnitude (a.u.)       :      0.75398
Magnitude (Debye)      :      1.91647

Rotational constants in cm-1:     0.464485     0.177633     0.142630
Rotational constants in MHz : 13924.923489  5325.290206  4275.938589

                             ****ORCA TERMINATED NORMALLY****
TOTAL RUN TIME: 0 days 0 hours 3 minutes 58 seconds 853 msec
