                         Program Version 5.0.0 -  RELEASE  -
|  1> !DLPNO-CCSD(T) aug-cc-pVTZ aug-cc-pVTZ/C TightSCF TightPNO RIJCOSX def2/J
|  2> *xyz 0 1
|  3> C         -0.70169        4.07250       -4.00392
|  4> C          0.68053        4.61482       -4.04800
|  5> H          0.69993        5.58489       -4.38827
|  6> H          1.27804        4.05598       -4.66824
|  7> H          1.08573        4.53358       -3.10652
|  8> C         -1.70347        5.09320       -3.47740
|  9> H         -0.99590        3.74039       -5.00065
| 10> H         -0.64358        3.20191       -3.35153
| 11> C         -1.31400        5.78600       -2.16927
| 12> H         -1.87706        5.85010       -4.25115
| 13> H         -2.65326        4.56448       -3.35480
| 14> H         -0.38448        6.29945       -2.30062
| 15> H         -1.21111        5.05451       -1.39516
| 16> H         -2.07413        6.48833       -1.89758
| 17> *
| 18> %MaxCore 64000
| 19>
| 20> %pal nprocs 8
| 21> end
| 22>
| 23> %scf
| 24>   MaxIter 150
| 25> end
| 26>
| 27>
| 28>                          ****END OF INPUT****

CARTESIAN COORDINATES (ANGSTROEM)
---------------------------------
  C     -0.701690    4.072500   -4.003920
  C      0.680530    4.614820   -4.048000
  H      0.699930    5.584890   -4.388270
  H      1.278040    4.055980   -4.668240
  H      1.085730    4.533580   -3.106520
  C     -1.703470    5.093200   -3.477400
  H     -0.995900    3.740390   -5.000650
  H     -0.643580    3.201910   -3.351530
  C     -1.314000    5.786000   -2.169270
  H     -1.877060    5.850100   -4.251150
  H     -2.653260    4.564480   -3.354800
  H     -0.384480    6.299450   -2.300620
  H     -1.211110    5.054510   -1.395160
  H     -2.074130    6.488330   -1.897580

 Total Charge           Charge          ....    0
 Multiplicity           Mult            ....    1
 Number of Electrons    NEL             ....   34
 Basis Dimension        Dim             ....  414

ORBITAL ENERGIES
----------------

  NO   OCC          E(Eh)            E(eV)
   0   2.0000     -11.211144      -305.0707
   1   2.0000     -11.205428      -304.9152
   2   2.0000     -11.200585      -304.7834
   3   2.0000     -11.177550      -304.1566
   4   2.0000      -1.080254       -29.3952
   5   2.0000      -0.987511       -26.8715
   6   2.0000      -0.882761       -24.0211
   7   2.0000      -0.774445       -21.0737
   8   2.0000      -0.638173       -17.3656
   9   2.0000      -0.628049       -17.0901
  10   2.0000      -0.585713       -15.9381
  11   2.0000      -0.541636       -14.7387
  12   2.0000      -0.534216       -14.5368
  13   2.0000      -0.512375       -13.9424
  14   2.0000      -0.459996       -12.5171
  15   2.0000      -0.457740       -12.4558
  16   2.0000      -0.455385       -12.3917
  17   0.0000       0.032612         0.8874
  18   0.0000       0.038620         1.0509
  19   0.0000       0.040100         1.0912
  20   0.0000       0.041094         1.1182
  21   0.0000       0.058377         1.5885

MULLIKEN ATOMIC CHARGES
-----------------------
   0 C :   -0.407225
   1 C :   -0.969029
   2 H :    0.318296
   3 H :    0.273821
   4 H :    0.288836
   5 C :   -0.418381
   6 H :    0.251520
   7 H :    0.252397
   8 C :   -0.963051
   9 H :    0.223462
  10 H :    0.285104
  11 H :    0.323437
  12 H :    0.282244
  13 H :    0.258570
Sum of atomic charges:    0.0000000

LOEWDIN ATOMIC CHARGES
----------------------
   0 C :    0.266977
   1 C :    0.598649
   2 H :   -0.198456
   3 H :   -0.203363
   4 H :   -0.206546
   5 C :    0.271243
   6 H :   -0.138333
   7 H :   -0.142045
   8 C :    0.601095
   9 H :   -0.143557
  10 H :   -0.151622
  11 H :   -0.194515
  12 H :   -0.177545
  13 H :   -0.181983

  Mayer bond orders larger than 0.100000
B(  0-C ,  1-C ) :   0.7579 B(  0-C ,  5-C ) :   0.8441 B(  0-C ,  6-H ) :   0.9716
B(  0-C ,  7-H ) :   0.9708 B(  1-C ,  2-H ) :   0.9285 B(  1-C ,  3-H ) :   0.9761
B(  1-C ,  4-H ) :   0.9890 B(  5-C ,  8-C ) :   0.8030 B(  5-C ,  9-H ) :   0.9847
B(  5-C , 10-H ) :   0.9536 B(  8-C , 11-H ) :   0.9146 B(  8-C , 12-H ) :   0.9508
B(  8-C , 13-H ) :   1.0079

E(0)                                       ...   -157.341700034
E(0)                                       ...   -157.341700034
E(CORR)(strong-pairs)                      ...     -0.777896967
E(CORR)(weak-pairs)                        ...     -0.000702081
E(CORR)(corrected)                         ...     -0.778599048
E(TOT)                                     ...   -158.120299082
E(CCSD(T))                                 ...   -158.148443676
FINAL SINGLE POINT ENERGY      -158.148443675781

DIPOLE MOMENT
-------------
                                X             Y             Z
Electronic contribution:     -0.61877      -0.36506      -0.42463
Nuclear contribution   :      0.63648       0.35464       0.41252
                        -----------------------------------------
Total Dipole Moment    :      0.01771      -0.01042      -0.01211
                        -----------------------------------------
Magnitude (a.u.)       :      0.02385
Magnitude (Debye)      :      0.06062

Rotational constants in cm-1:     0.435124     0.173315     0.141457
Rotational constants in MHz : 13044.691962  5195.845291  4240.763698

                             ****ORCA TERMINATED NORMALLY****
TOTAL RUN TIME: 0 days 0 hours 6 minutes 30 seconds 481 msec
