                         Program Version 5.0.0 -  RELEASE  -
|  1> !PBE D3BJ RIJCOSX def2-TZVP def2/J TightSCF
|  2> *xyz -1 1
|  3> C          0.96805        1.63064       -3.71575
|  4> C         -0.50835        1.72268       -4.12430
|  5> S         -1.32861        0.14674       -4.43578
|  6> H         -0.59151        2.29496       -5.04722
|  7> H         -1.11411        2.23561       -3.37436
|  8> O         -2.57135        0.47573       -5.06834
|  9> O         -1.51496       -0.40051       -3.06342
| 10> O         -0.37793       -0.62756       -5.20114
| 11> H          1.51840        1.12197       -4.47946
| 12> H          1.05062        1.08971       -2.79625
| 13> H          1.36450        2.61606       -3.58668
| 14> *
| 15> %MaxCore 64000
| 16>
| 17> %pal nprocs 4
| 18> end
| 19>
| 20> %scf
| 21>   MaxIter 150
| 22> end
| 23>
| 24>
| 25>                          ****END OF INPUT****

CARTESIAN COORDINATES (ANGSTROEM)
---------------------------------
  C      0.968050    1.630640   -3.715750
  C     -0.508350    1.722680   -4.124300
  S     -1.328610    0.146740   -4.435780
  H     -0.591510    2.294960   -5.047220
  H     -1.114110    2.235610   -3.374360
  O     -2.571350    0.475730   -5.068340
  O     -1.514960   -0.400510   -3.063420
  O     -0.377930   -0.627560   -5.201140
  H      1.518400    1.121970   -4.479460
  H      1.050620    1.089710   -2.796250
  H      1.364500    2.616060   -3.586680

 Total Charge           Charge          ....   -1
 Multiplicity           Mult            ....    1
 Number of Electrons    NEL             ....   58
 Basis Dimension        Dim             ....  222

ORBITAL ENERGIES
----------------

  NO   OCC          E(Eh)            E(eV)
   0   2.0000     -88.001295     -2394.6370
   1   2.0000     -18.524004      -504.0638
   2   2.0000     -18.520723      -503.9745
   3   2.0000     -18.504885      -503.5435
   4   2.0000      -9.731572      -264.8095
   5   2.0000      -9.728300      -264.7205
   6   2.0000      -7.596285      -206.7054
   7   2.0000      -5.617327      -152.8553
   8   2.0000      -5.616115      -152.8223
   9   2.0000      -5.615842      -152.8148
  10   2.0000      -0.826395       -22.4873
  11   2.0000      -0.704665       -19.1749
  12   2.0000      -0.675057       -18.3692
  13   2.0000      -0.549624       -14.9560
  14   2.0000      -0.433104       -11.7854
  15   2.0000      -0.314107        -8.5473
  16   2.0000      -0.259083        -7.0500
  17   2.0000      -0.253862        -6.9079
  18   2.0000      -0.217608        -5.9214
  19   2.0000      -0.201781        -5.4907
  20   2.0000      -0.197638        -5.3780
  21   2.0000      -0.176166        -4.7937
  22   2.0000      -0.161621        -4.3979
  23   2.0000      -0.096994        -2.6393
  24   2.0000      -0.095271        -2.5924
  25   2.0000      -0.066589        -1.8120
  26   2.0000      -0.059594        -1.6216
  27   2.0000      -0.044138        -1.2011
  28   2.0000      -0.011073        -0.3013
  29   0.0000       0.158072         4.3014
  30   0.0000       0.199917         5.4400
  31   0.0000       0.214721         5.8429
  32   0.0000       0.219095         5.9619
  33   0.0000       0.244324         6.6484

MULLIKEN ATOMIC CHARGES
-----------------------
   0 C :   -0.322106
   1 C :   -0.225289
   2 S :    0.656456
   3 H :    0.061634
   4 H :    0.070790
   5 O :   -0.475489
   6 O :   -0.542400
   7 O :   -0.492793
   8 H :    0.107421
   9 H :    0.100131
  10 H :    0.061645
Sum of atomic charges:   -1.0000000

LOEWDIN ATOMIC CHARGES
----------------------
   0 C :   -0.350324
   1 C :   -0.443064
   2 S :    0.342068
   3 H :    0.112420
   4 H :    0.116458
   5 O :   -0.338720
   6 O :   -0.411462
   7 O :   -0.351586
   8 H :    0.113169
   9 H :    0.112630
  10 H :    0.098410

  Mayer bond orders larger than 0.100000
B(  0-C ,  1-C ) :   0.9795 B(  0-C ,  8-H ) :   0.9675 B(  0-C ,  9-H ) :   0.9691
B(  0-C , 10-H ) :   0.9541 B(  1-C ,  2-S ) :   0.8577 B(  1-C ,  3-H ) :   0.9411
B(  1-C ,  4-H ) :   0.9521 B(  2-S ,  5-O ) :   1.8788 B(  2-S ,  6-O ) :   1.7848
B(  2-S ,  7-O ) :   1.8105

Dispersion correction           -0.009650386
FINAL SINGLE POINT ENERGY      -702.807217767557

DIPOLE MOMENT
-------------
                                X             Y             Z
Electronic contribution:     -5.70907      -5.45938      -1.96030
Nuclear contribution   :      6.64523       6.80157       2.07300
                        -----------------------------------------
Total Dipole Moment    :      0.93616       1.34220       0.11270
                        -----------------------------------------
Magnitude (a.u.)       :      1.64030
Magnitude (Debye)      :      4.16931

Rotational constants in cm-1:     0.163070     0.082807     0.081541
Rotational constants in MHz :  4888.719902  2482.497026  2444.541148

                             ****ORCA TERMINATED NORMALLY****
TOTAL RUN TIME: 0 days 0 hours 0 minutes 10 seconds 705 msec
