                         Program Version 5.0.0 -  RELEASE  -
|  1> !PBE D3BJ RIJCOSX def2-TZVP def2/J TightSCF
|  2> *xyz 1 1
|  3> C          1.36401        0.46874       -2.81376
|  4> N          0.42884        0.32140       -1.65531
|  5> C          0.96805        1.63064       -3.71575
|  6> H          0.74858       -0.40054       -1.00134
|  7> H         -0.46105        0.02333       -2.07773
|  8> H          0.31026        1.20137       -1.13495
|  9> H          1.29485       -0.46874       -3.36468
| 10> H          2.37622        0.59740       -2.43149
| 11> H          1.65923        1.70213       -4.52942
| 12> H          0.98421        2.54058       -3.15304
| 13> H         -0.01744        1.46536       -4.09838
| 14> *
| 15> %MaxCore 64000
| 16>
| 17> %pal nprocs 4
| 18> end
| 19>
| 20> %scf
| 21>   MaxIter 150
| 22> end
| 23>
| 24>
| 25>                          ****END OF INPUT****

CARTESIAN COORDINATES (ANGSTROEM)
---------------------------------
  C      1.364010    0.468740   -2.813760
  N      0.428840    0.321400   -1.655310
  C      0.968050    1.630640   -3.715750
  H      0.748580   -0.400540   -1.001340
  H     -0.461050    0.023330   -2.077730
  H      0.310260    1.201370   -1.134950
  H      1.294850   -0.468740   -3.364680
  H      2.376220    0.597400   -2.431490
  H      1.659230    1.702130   -4.529420
  H      0.984210    2.540580   -3.153040
  H     -0.017440    1.465360   -4.098380

 Total Charge           Charge          ....    1
 Multiplicity           Mult            ....    1
 Number of Electrons    NEL             ....   26
 Basis Dimension        Dim             ....  141

ORBITAL ENERGIES
----------------

  NO   OCC          E(Eh)            E(eV)
   0   2.0000     -14.317985      -389.6122
   1   2.0000     -10.135040      -275.7885
   2   2.0000     -10.056622      -273.6546
   3   2.0000      -1.136488       -30.9254
   4   2.0000      -0.897187       -24.4137
   5   2.0000      -0.783692       -21.3253
   6   2.0000      -0.752734       -20.4829
   7   2.0000      -0.736850       -20.0507
   8   2.0000      -0.647500       -17.6194
   9   2.0000      -0.597357       -16.2549
  10   2.0000      -0.541821       -14.7437
  11   2.0000      -0.525694       -14.3049
  12   2.0000      -0.510286       -13.8856
  13   0.0000      -0.219656        -5.9772
  14   0.0000      -0.160351        -4.3634
  15   0.0000      -0.155638        -4.2351
  16   0.0000      -0.135311        -3.6820
  17   0.0000      -0.100165        -2.7256

MULLIKEN ATOMIC CHARGES
-----------------------
   0 C :   -0.218908
   1 N :   -0.256477
   2 C :   -0.350917
   3 H :    0.325890
   4 H :    0.320712
   5 H :    0.317548
   6 H :    0.189879
   7 H :    0.190560
   8 H :    0.183074
   9 H :    0.150647
  10 H :    0.147991
Sum of atomic charges:    1.0000000

LOEWDIN ATOMIC CHARGES
----------------------
   0 C :   -0.283230
   1 N :    0.174532
   2 C :   -0.279237
   3 H :    0.219829
   4 H :    0.225565
   5 H :    0.219503
   6 H :    0.154507
   7 H :    0.153248
   8 H :    0.151001
   9 H :    0.132412
  10 H :    0.131870

  Mayer bond orders larger than 0.100000
B(  0-C ,  1-N ) :   0.8849 B(  0-C ,  2-C ) :   1.0286 B(  0-C ,  6-H ) :   0.9426
B(  0-C ,  7-H ) :   0.9396 B(  1-N ,  3-H ) :   0.8767 B(  1-N ,  4-H ) :   0.8811
B(  1-N ,  5-H ) :   0.8747 B(  2-C ,  8-H ) :   0.9499 B(  2-C ,  9-H ) :   0.9539
B(  2-C , 10-H ) :   0.9525

Dispersion correction           -0.006168329
FINAL SINGLE POINT ENERGY      -135.399661911934

DIPOLE MOMENT
-------------
                                X             Y             Z
Electronic contribution:     -0.34498      -0.94038       1.56218
Nuclear contribution   :     -0.20470       0.31427      -0.31587
                        -----------------------------------------
Total Dipole Moment    :     -0.54968      -0.62611       1.24631
                        -----------------------------------------
Magnitude (a.u.)       :      1.49915
Magnitude (Debye)      :      3.81054

Rotational constants in cm-1:     1.011480     0.279280     0.248378
Rotational constants in MHz : 30323.408050  8372.602834  7446.185305

                             ****ORCA TERMINATED NORMALLY****
TOTAL RUN TIME: 0 days 0 hours 0 minutes 4 seconds 221 msec
