                         Program Version 5.0.0 -  RELEASE  -
|  1> !PBE D3BJ RIJCOSX def2-TZVP def2/J TightSCF
|  2> *xyz 0 1
|  3> C          0.96805        1.63064       -3.71575
|  4> C         -0.50835        1.72268       -4.12430
|  5> S         -1.32861        0.14674       -4.43578
|  6> H         -0.59151        2.29496       -5.04722
|  7> H         -1.11411        2.23561       -3.37436
|  8> F         -2.57135        0.47573       -5.06834
|  9> O         -1.51496       -0.40051       -3.06342
| 10> O         -0.37793       -0.62756       -5.20114
| 11> H          1.51840        1.12197       -4.47946
| 12> H          1.05062        1.08971       -2.79625
| 13> H          1.36450        2.61606       -3.58668
| 14> *
| 15> %MaxCore 64000
| 16>
| 17> %pal nprocs 4
| 18> end
| 19>
| 20> %scf
| 21>   MaxIter 150
| 22> end
| 23>
| 24>
| 25>                          ****END OF INPUT****

CARTESIAN COORDINATES (ANGSTROEM)
---------------------------------
  C      0.968050    1.630640   -3.715750
  C     -0.508350    1.722680   -4.124300
  S     -1.328610    0.146740   -4.435780
  H     -0.591510    2.294960   -5.047220
  H     -1.114110    2.235610   -3.374360
  F     -2.571350    0.475730   -5.068340
  O     -1.514960   -0.400510   -3.063420
  O     -0.377930   -0.627560   -5.201140
  H      1.518400    1.121970   -4.479460
  H      1.050620    1.089710   -2.796250
  H      1.364500    2.616060   -3.586680

 Total Charge           Charge          ....    0
 Multiplicity           Mult            ....    1
 Number of Electrons    NEL             ....   58
 Basis Dimension        Dim             ....  222

ORBITAL ENERGIES
----------------

  NO   OCC          E(Eh)            E(eV)
   0   2.0000     -88.266506     -2401.8537
   1   2.0000     -24.377242      -663.3385
   2   2.0000     -18.759791      -510.4799
   3   2.0000     -18.744630      -510.0673
   4   2.0000      -9.936201      -270.3778
   5   2.0000      -9.894935      -269.2549
   6   2.0000      -7.862109      -213.9389
   7   2.0000      -5.886371      -160.1763
   8   2.0000      -5.879933      -160.0011
   9   2.0000      -5.879689      -159.9945
  10   2.0000      -1.284011       -34.9397
  11   2.0000      -1.010343       -27.4928
  12   2.0000      -0.913585       -24.8599
  13   2.0000      -0.742165       -20.1953
  14   2.0000      -0.669395       -18.2152
  15   2.0000      -0.610112       -16.6020
  16   2.0000      -0.525884       -14.3100
  17   2.0000      -0.524706       -14.2780
  18   2.0000      -0.495430       -13.4813
  19   2.0000      -0.439157       -11.9501
  20   2.0000      -0.427220       -11.6252
  21   2.0000      -0.389689       -10.6040
  22   2.0000      -0.381490       -10.3809
  23   2.0000      -0.360556        -9.8112
  24   2.0000      -0.341756        -9.2997
  25   2.0000      -0.333473        -9.0743
  26   2.0000      -0.287379        -7.8200
  27   2.0000      -0.271786        -7.3957
  28   2.0000      -0.255768        -6.9598
  29   0.0000      -0.013298        -0.3619
  30   0.0000       0.008088         0.2201
  31   0.0000       0.030258         0.8233
  32   0.0000       0.040098         1.0911
  33   0.0000       0.050293         1.3685

MULLIKEN ATOMIC CHARGES
-----------------------
   0 C :   -0.347345
   1 C :   -0.236883
   2 S :    0.709495
   3 H :    0.122947
   4 H :    0.137831
   5 F :   -0.046876
   6 O :   -0.397844
   7 O :   -0.352397
   8 H :    0.142016
   9 H :    0.141582
  10 H :    0.127475
Sum of atomic charges:    0.0000000

LOEWDIN ATOMIC CHARGES
----------------------
   0 C :   -0.306512
   1 C :   -0.407892
   2 S :    0.460071
   3 H :    0.132183
   4 H :    0.138045
   5 F :    0.127797
   6 O :   -0.289140
   7 O :   -0.234791
   8 H :    0.126789
   9 H :    0.127611
  10 H :    0.125837

  Mayer bond orders larger than 0.100000
B(  0-C ,  1-C ) :   1.0032 B(  0-C ,  8-H ) :   0.9629 B(  0-C ,  9-H ) :   0.9651
B(  0-C , 10-H ) :   0.9504 B(  1-C ,  2-S ) :   0.9066 B(  1-C ,  3-H ) :   0.9249
B(  1-C ,  4-H ) :   0.9298 B(  2-S ,  5-F ) :   1.1863 B(  2-S ,  6-O ) :   1.9186
B(  2-S ,  7-O ) :   1.9521

Dispersion correction           -0.009242084
FINAL SINGLE POINT ENERGY      -727.312213275734

DIPOLE MOMENT
-------------
                                X             Y             Z
Electronic contribution:     -8.34981      -5.24918      -3.22577
Nuclear contribution   :      8.31000       6.74109       2.87442
                        -----------------------------------------
Total Dipole Moment    :     -0.03980       1.49191      -0.35135
                        -----------------------------------------
Magnitude (a.u.)       :      1.53324
Magnitude (Debye)      :      3.89718

Rotational constants in cm-1:     0.158705     0.080192     0.078179
Rotational constants in MHz :  4757.865601  2404.095079  2343.752507

                             ****ORCA TERMINATED NORMALLY****
TOTAL RUN TIME: 0 days 0 hours 0 minutes 8 seconds 153 msec
