                         Program Version 5.0.0 -  RELEASE  -
|  1> !PBE D3BJ RIJCOSX def2-TZVP def2/J TightSCF
|  2> *xyz 0 1
|  3> C          1.36401        0.46874       -2.81376
|  4> C          0.42884        0.32140       -1.65531
|  5> C          0.96805        1.63064       -3.71575
|  6> H          0.74858       -0.40054       -1.00134
|  7> H         -0.46105        0.02333       -2.07773
|  8> H          0.31026        1.20137       -1.13495
|  9> H          1.29485       -0.46874       -3.36468
| 10> H          2.37622        0.59740       -2.43149
| 11> H          1.65923        1.70213       -4.52942
| 12> H          0.98421        2.54058       -3.15304
| 13> H         -0.01744        1.46536       -4.09838
| 14> *
| 15> %MaxCore 64000
| 16>
| 17> %pal nprocs 4
| 18> end
| 19>
| 20> %scf
| 21>   MaxIter 150
| 22> end
| 23>
| 24>
| 25>                          ****END OF INPUT****

CARTESIAN COORDINATES (ANGSTROEM)
---------------------------------
  C      1.364010    0.468740   -2.813760
  C      0.428840    0.321400   -1.655310
  C      0.968050    1.630640   -3.715750
  H      0.748580   -0.400540   -1.001340
  H     -0.461050    0.023330   -2.077730
  H      0.310260    1.201370   -1.134950
  H      1.294850   -0.468740   -3.364680
  H      2.376220    0.597400   -2.431490
  H      1.659230    1.702130   -4.529420
  H      0.984210    2.540580   -3.153040
  H     -0.017440    1.465360   -4.098380

 Total Charge           Charge          ....    0
 Multiplicity           Mult            ....    1
 Number of Electrons    NEL             ....   26
 Basis Dimension        Dim             ....  141

ORBITAL ENERGIES
----------------

  NO   OCC          E(Eh)            E(eV)
   0   2.0000      -9.867793      -268.5163
   1   2.0000      -9.857607      -268.2391
   2   2.0000      -9.840394      -267.7707
   3   2.0000      -0.718243       -19.5444
   4   2.0000      -0.622632       -16.9427
   5   2.0000      -0.523801       -14.2533
   6   2.0000      -0.421161       -11.4604
   7   2.0000      -0.396609       -10.7923
   8   2.0000      -0.356808        -9.7092
   9   2.0000      -0.344892        -9.3850
  10   2.0000      -0.295552        -8.0424
  11   2.0000      -0.290900        -7.9158
  12   2.0000      -0.286408        -7.7935
  13   0.0000       0.021695         0.5904
  14   0.0000       0.065661         1.7867
  15   0.0000       0.072036         1.9602
  16   0.0000       0.074546         2.0285
  17   0.0000       0.092181         2.5084

MULLIKEN ATOMIC CHARGES
-----------------------
   0 C :   -0.160594
   1 C :   -0.324412
   2 C :   -0.329507
   3 H :    0.113951
   4 H :    0.103507
   5 H :    0.102322
   6 H :    0.086471
   7 H :    0.086781
   8 H :    0.113315
   9 H :    0.104613
  10 H :    0.103554
Sum of atomic charges:   -0.0000000

LOEWDIN ATOMIC CHARGES
----------------------
   0 C :   -0.325498
   1 C :   -0.306705
   2 C :   -0.311020
   3 H :    0.108464
   4 H :    0.114284
   5 H :    0.107759
   6 H :    0.134072
   7 H :    0.129630
   8 H :    0.116459
   9 H :    0.116145
  10 H :    0.116410

  Mayer bond orders larger than 0.100000
B(  0-C ,  1-C ) :   1.0013 B(  0-C ,  2-C ) :   1.0088 B(  0-C ,  6-H ) :   0.9616
B(  0-C ,  7-H ) :   0.9582 B(  1-C ,  3-H ) :   0.9727 B(  1-C ,  4-H ) :   0.9754
B(  1-C ,  5-H ) :   0.9737 B(  2-C ,  8-H ) :   0.9702 B(  2-C ,  9-H ) :   0.9717
B(  2-C , 10-H ) :   0.9709

Dispersion correction           -0.006166229
FINAL SINGLE POINT ENERGY      -118.991351161709

DIPOLE MOMENT
-------------
                                X             Y             Z
Electronic contribution:      0.36795      -0.18594      -0.01654
Nuclear contribution   :     -0.35842       0.15752       0.02695
                        -----------------------------------------
Total Dipole Moment    :      0.00953      -0.02842       0.01042
                        -----------------------------------------
Magnitude (a.u.)       :      0.03173
Magnitude (Debye)      :      0.08066

Rotational constants in cm-1:     1.019891     0.293671     0.260247
Rotational constants in MHz : 30575.551403  8804.039097  7802.009261

                             ****ORCA TERMINATED NORMALLY****
TOTAL RUN TIME: 0 days 0 hours 0 minutes 7 seconds 489 msec
