                         Program Version 5.0.0 -  RELEASE  -
|  1> !PBE D3BJ RIJCOSX def2-TZVP def2/J TightSCF
|  2> *xyz 0 1
|  3> C          0.96805        1.63064       -3.71575
|  4> C         -0.50835        1.72268       -4.12430
|  5> S         -1.32861        0.14674       -4.43578
|  6> H         -0.59151        2.29496       -5.04722
|  7> H         -1.11411        2.23561       -3.37436
|  8> O         -2.57135        0.47573       -5.06834
|  9> F         -1.51496       -0.40051       -3.06342
| 10> O         -0.37793       -0.62756       -5.20114
| 11> H          1.51840        1.12197       -4.47946
| 12> H          1.05062        1.08971       -2.79625
| 13> H          1.36450        2.61606       -3.58668
| 14> *
| 15> %MaxCore 64000
| 16>
| 17> %pal nprocs 4
| 18> end
| 19>
| 20> %scf
| 21>   MaxIter 150
| 22> end
| 23>
| 24>
| 25>                          ****END OF INPUT****

CARTESIAN COORDINATES (ANGSTROEM)
---------------------------------
  C      0.968050    1.630640   -3.715750
  C     -0.508350    1.722680   -4.124300
  S     -1.328610    0.146740   -4.435780
  H     -0.591510    2.294960   -5.047220
  H     -1.114110    2.235610   -3.374360
  O     -2.571350    0.475730   -5.068340
  F     -1.514960   -0.400510   -3.063420
  O     -0.377930   -0.627560   -5.201140
  H      1.518400    1.121970   -4.479460
  H      1.050620    1.089710   -2.796250
  H      1.364500    2.616060   -3.586680

 Total Charge           Charge          ....    0
 Multiplicity           Mult            ....    1
 Number of Electrons    NEL             ....   58
 Basis Dimension        Dim             ....  222

ORBITAL ENERGIES
----------------

  NO   OCC          E(Eh)            E(eV)
   0   2.0000     -88.263449     -2401.7705
   1   2.0000     -24.348897      -662.5672
   2   2.0000     -18.763140      -510.5710
   3   2.0000     -18.759991      -510.4853
   4   2.0000      -9.935451      -270.3574
   5   2.0000      -9.896107      -269.2868
   6   2.0000      -7.859256      -213.8612
   7   2.0000      -5.883669      -160.1028
   8   2.0000      -5.877217      -159.9272
   9   2.0000      -5.876687      -159.9128
  10   2.0000      -1.238511       -33.7016
  11   2.0000      -1.025222       -27.8977
  12   2.0000      -0.939014       -25.5519
  13   2.0000      -0.743837       -20.2408
  14   2.0000      -0.650985       -17.7142
  15   2.0000      -0.603365       -16.4184
  16   2.0000      -0.512664       -13.9503
  17   2.0000      -0.492941       -13.4136
  18   2.0000      -0.486396       -13.2355
  19   2.0000      -0.439766       -11.9667
  20   2.0000      -0.422014       -11.4836
  21   2.0000      -0.403212       -10.9720
  22   2.0000      -0.384943       -10.4748
  23   2.0000      -0.358226        -9.7478
  24   2.0000      -0.355318        -9.6687
  25   2.0000      -0.335096        -9.1184
  26   2.0000      -0.295729        -8.0472
  27   2.0000      -0.288388        -7.8474
  28   2.0000      -0.275518        -7.4972
  29   0.0000      -0.014031        -0.3818
  30   0.0000       0.016496         0.4489
  31   0.0000       0.026512         0.7214
  32   0.0000       0.046463         1.2643
  33   0.0000       0.055571         1.5122

MULLIKEN ATOMIC CHARGES
-----------------------
   0 C :   -0.343220
   1 C :   -0.254062
   2 S :    0.718138
   3 H :    0.149449
   4 H :    0.134147
   5 O :   -0.344788
   6 F :   -0.093458
   7 O :   -0.362747
   8 H :    0.147594
   9 H :    0.121876
  10 H :    0.127071
Sum of atomic charges:    0.0000000

LOEWDIN ATOMIC CHARGES
----------------------
   0 C :   -0.318973
   1 C :   -0.403426
   2 S :    0.470989
   3 H :    0.147183
   4 H :    0.135936
   5 O :   -0.225548
   6 F :    0.059320
   7 O :   -0.237598
   8 H :    0.126660
   9 H :    0.120741
  10 H :    0.124715

  Mayer bond orders larger than 0.100000
B(  0-C ,  1-C ) :   0.9892 B(  0-C ,  8-H ) :   0.9618 B(  0-C ,  9-H ) :   0.9663
B(  0-C , 10-H ) :   0.9526 B(  1-C ,  2-S ) :   0.8994 B(  1-C ,  3-H ) :   0.9352
B(  1-C ,  4-H ) :   0.9361 B(  2-S ,  5-O ) :   1.9967 B(  2-S ,  6-F ) :   1.1240
B(  2-S ,  7-O ) :   1.9483

Dispersion correction           -0.009203297
FINAL SINGLE POINT ENERGY      -727.335637072161

DIPOLE MOMENT
-------------
                                X             Y             Z
Electronic contribution:     -6.60043      -6.70879       0.12404
Nuclear contribution   :      7.20921       7.65416       0.78523
                        -----------------------------------------
Total Dipole Moment    :      0.60878       0.94537       0.90927
                        -----------------------------------------
Magnitude (a.u.)       :      1.44607
Magnitude (Debye)      :      3.67561

Rotational constants in cm-1:     0.153780     0.081282     0.079816
Rotational constants in MHz :  4610.199589  2436.778679  2392.820729

                             ****ORCA TERMINATED NORMALLY****
TOTAL RUN TIME: 0 days 0 hours 0 minutes 10 seconds 948 msec
