                         Program Version 5.0.0 -  RELEASE  -
|  1> !PBE D3BJ RIJCOSX def2-TZVP def2/J TightSCF
|  2> *xyz 0 1
|  3> C          0.96805        1.63064       -3.71575
|  4> C         -0.50835        1.72268       -4.12430
|  5> S         -1.32861        0.14674       -4.43578
|  6> H         -0.59151        2.29496       -5.04722
|  7> H         -1.11411        2.23561       -3.37436
|  8> O         -2.57135        0.47573       -5.06834
|  9> O         -1.51496       -0.40051       -3.06342
| 10> F         -0.37793       -0.62756       -5.20114
| 11> H          1.51840        1.12197       -4.47946
| 12> H          1.05062        1.08971       -2.79625
| 13> H          1.36450        2.61606       -3.58668
| 14> *
| 15> %MaxCore 64000
| 16>
| 17> %pal nprocs 4
| 18> end
| 19>
| 20> %scf
| 21>   MaxIter 150
| 22> end
| 23>
| 24>
| 25>                          ****END OF INPUT****

CARTESIAN COORDINATES (ANGSTROEM)
---------------------------------
  C      0.968050    1.630640   -3.715750
  C     -0.508350    1.722680   -4.124300
  S     -1.328610    0.146740   -4.435780
  H     -0.591510    2.294960   -5.047220
  H     -1.114110    2.235610   -3.374360
  O     -2.571350    0.475730   -5.068340
  O     -1.514960   -0.400510   -3.063420
  F     -0.377930   -0.627560   -5.201140
  H      1.518400    1.121970   -4.479460
  H      1.050620    1.089710   -2.796250
  H      1.364500    2.616060   -3.586680

 Total Charge           Charge          ....    0
 Multiplicity           Mult            ....    1
 Number of Electrons    NEL             ....   58
 Basis Dimension        Dim             ....  222

ORBITAL ENERGIES
----------------

  NO   OCC          E(Eh)            E(eV)
   0   2.0000     -88.265828     -2401.8353
   1   2.0000     -24.371283      -663.1763
   2   2.0000     -18.763435      -510.5790
   3   2.0000     -18.744959      -510.0763
   4   2.0000      -9.936095      -270.3749
   5   2.0000      -9.899508      -269.3793
   6   2.0000      -7.861486      -213.9219
   7   2.0000      -5.885913      -160.1638
   8   2.0000      -5.879244      -159.9824
   9   2.0000      -5.879011      -159.9760
  10   2.0000      -1.273904       -34.6647
  11   2.0000      -1.016177       -27.6516
  12   2.0000      -0.916455       -24.9380
  13   2.0000      -0.745882       -20.2965
  14   2.0000      -0.662865       -18.0375
  15   2.0000      -0.612455       -16.6657
  16   2.0000      -0.531309       -14.4576
  17   2.0000      -0.517170       -14.0729
  18   2.0000      -0.487340       -13.2612
  19   2.0000      -0.440794       -11.9946
  20   2.0000      -0.422245       -11.4899
  21   2.0000      -0.399699       -10.8764
  22   2.0000      -0.387583       -10.5467
  23   2.0000      -0.363490        -9.8911
  24   2.0000      -0.349711        -9.5161
  25   2.0000      -0.333762        -9.0821
  26   2.0000      -0.291084        -7.9208
  27   2.0000      -0.272157        -7.4058
  28   2.0000      -0.258734        -7.0405
  29   0.0000      -0.019350        -0.5265
  30   0.0000       0.016428         0.4470
  31   0.0000       0.024513         0.6670
  32   0.0000       0.043854         1.1933
  33   0.0000       0.051679         1.4063

MULLIKEN ATOMIC CHARGES
-----------------------
   0 C :   -0.355915
   1 C :   -0.241346
   2 S :    0.710195
   3 H :    0.134088
   4 H :    0.154379
   5 O :   -0.335336
   6 O :   -0.400243
   7 F :   -0.060865
   8 H :    0.121500
   9 H :    0.143708
  10 H :    0.129834
Sum of atomic charges:   -0.0000000

LOEWDIN ATOMIC CHARGES
----------------------
   0 C :   -0.321562
   1 C :   -0.401005
   2 S :    0.463182
   3 H :    0.136032
   4 H :    0.149357
   5 O :   -0.221550
   6 O :   -0.289232
   7 F :    0.114198
   8 H :    0.118841
   9 H :    0.125790
  10 H :    0.125949

  Mayer bond orders larger than 0.100000
B(  0-C ,  1-C ) :   0.9874 B(  0-C ,  8-H ) :   0.9662 B(  0-C ,  9-H ) :   0.9631
B(  0-C , 10-H ) :   0.9538 B(  1-C ,  2-S ) :   0.9010 B(  1-C ,  3-H ) :   0.9306
B(  1-C ,  4-H ) :   0.9359 B(  2-S ,  5-O ) :   1.9995 B(  2-S ,  6-O ) :   1.9141
B(  2-S ,  7-F ) :   1.1593

Dispersion correction           -0.009186893
FINAL SINGLE POINT ENERGY      -727.316831233759

DIPOLE MOMENT
-------------
                                X             Y             Z
Electronic contribution:     -4.70804      -7.06410      -3.43260
Nuclear contribution   :      6.02439       7.89075       3.01280
                        -----------------------------------------
Total Dipole Moment    :      1.31635       0.82665      -0.41980
                        -----------------------------------------
Magnitude (a.u.)       :      1.61008
Magnitude (Debye)      :      4.09250

Rotational constants in cm-1:     0.153652     0.082400     0.079295
Rotational constants in MHz :  4606.361242  2470.285703  2377.214112

                             ****ORCA TERMINATED NORMALLY****
TOTAL RUN TIME: 0 days 0 hours 0 minutes 11 seconds 113 msec
