                         Program Version 5.0.0 -  RELEASE  -
|  1> !PBE D3BJ RIJCOSX def2-TZVP def2/J TightSCF xyzfile
|  2>
|  3> *xyzfile 0 1 D1.xyz
|  4>
|  5> %MaxCore 64000
|  6>
|  7> %pal nprocs 18
|  8> end
|  9>
| 10> %scf
| 11>   MaxIter 150
| 12> end
| 13>
| 14>
| 15>                          ****END OF INPUT****

CARTESIAN COORDINATES (ANGSTROEM)
---------------------------------
  C      1.364014    0.468742   -2.813764
  C      0.428844    0.321402   -1.655312
  C      0.968045    1.630639   -3.715749
  C     -0.508347    1.722679   -4.124300
  S     -1.328608    0.146737   -4.435781
  H     -0.591511    2.294958   -5.047219
  H     -1.114114    2.235610   -3.374362
  H      0.748578   -0.400542   -1.001345
  H     -0.461053    0.023332   -2.077731
  H      0.310258    1.201375   -1.134948
  F     -2.571347    0.475733   -5.068341
  O     -1.514963   -0.400512   -3.063420
  H      1.294847   -0.468742   -3.364684
  H      2.376216    0.597400   -2.431495
  H      1.578688    1.520652   -4.612733
  H      1.266653    2.575988   -3.250448
  O     -0.377928   -0.627558   -5.201141

 Total Charge           Charge          ....    0
 Multiplicity           Mult            ....    1
 Number of Electrons    NEL             ....   74
 Basis Dimension        Dim             ....  308

ORBITAL ENERGIES
----------------

  NO   OCC          E(Eh)            E(eV)
   0   2.0000     -88.272534     -2402.0178
   1   2.0000     -24.380449      -663.4258
   2   2.0000     -18.764900      -510.6189
   3   2.0000     -18.754137      -510.3260
   4   2.0000      -9.937008      -270.3997
   5   2.0000      -9.901054      -269.4214
   6   2.0000      -9.866654      -268.4853
   7   2.0000      -9.810114      -266.9468
   8   2.0000      -7.868365      -214.1091
   9   2.0000      -5.892621      -160.3464
  10   2.0000      -5.886226      -160.1724
  11   2.0000      -5.885911      -160.1638
  12   2.0000      -1.287582       -35.0369
  13   2.0000      -1.019565       -27.7438
  14   2.0000      -0.927476       -25.2379
  15   2.0000      -0.754757       -20.5380
  16   2.0000      -0.702546       -19.1173
  17   2.0000      -0.654775       -17.8173
  18   2.0000      -0.611260       -16.6332
  19   2.0000      -0.545654       -14.8480
  20   2.0000      -0.530616       -14.4388
  21   2.0000      -0.515162       -14.0183
  22   2.0000      -0.489392       -13.3170
  23   2.0000      -0.452362       -12.3094
  24   2.0000      -0.442628       -12.0445
  25   2.0000      -0.408572       -11.1178
  26   2.0000      -0.405570       -11.0361
  27   2.0000      -0.376068       -10.2333
  28   2.0000      -0.359230        -9.7751
  29   2.0000      -0.353115        -9.6088
  30   2.0000      -0.337677        -9.1887
  31   2.0000      -0.310708        -8.4548
  32   2.0000      -0.302437        -8.2297
  33   2.0000      -0.282125        -7.6770
  34   2.0000      -0.277868        -7.5612
  35   2.0000      -0.267307        -7.2738
  36   2.0000      -0.236569        -6.4374
  37   0.0000      -0.017599        -0.4789
  38   0.0000       0.001305         0.0355
  39   0.0000       0.026135         0.7112
  40   0.0000       0.034548         0.9401
  41   0.0000       0.042628         1.1600

MULLIKEN ATOMIC CHARGES
-----------------------
   0 C :   -0.204734
   1 C :   -0.364999
   2 C :   -0.185507
   3 C :   -0.274895
   4 S :    0.696708
   5 H :    0.141130
   6 H :    0.145302
   7 H :    0.098696
   8 H :    0.172016
   9 H :    0.076305
  10 F :   -0.045251
  11 O :   -0.355904
  12 H :    0.126518
  13 H :    0.090896
  14 H :    0.112005
  15 H :    0.113326
  16 O :   -0.341612
Sum of atomic charges:   -0.0000000

LOEWDIN ATOMIC CHARGES
----------------------
   0 C :   -0.308038
   1 C :   -0.319480
   2 C :   -0.279432
   3 C :   -0.377101
   4 S :    0.474237
   5 H :    0.137743
   6 H :    0.142628
   7 H :    0.106483
   8 H :    0.086721
   9 H :    0.101608
  10 F :    0.128978
  11 O :   -0.240172
  12 H :    0.143288
  13 H :    0.134575
  14 H :    0.146159
  15 H :    0.147803
  16 O :   -0.226001

  Mayer bond orders larger than 0.100000
B(  0-C ,  1-C ) :   0.9816 B(  0-C ,  2-C ) :   1.0164 B(  0-C , 12-H ) :   0.9621
B(  0-C , 13-H ) :   0.9480 B(  1-C ,  7-H ) :   0.9606 B(  1-C ,  8-H ) :   0.9367
B(  1-C ,  9-H ) :   0.9649 B(  2-C ,  3-C ) :   0.9972 B(  2-C , 14-H ) :   0.9522
B(  2-C , 15-H ) :   0.9363 B(  3-C ,  4-S ) :   0.9211 B(  3-C ,  5-H ) :   0.9277
B(  3-C ,  6-H ) :   0.9255 B(  4-S , 10-F ) :   1.1876 B(  4-S , 11-O ) :   1.8205
B(  4-S , 16-O ) :   1.9474 B(  8-H , 11-O ) :   0.1118

Dispersion correction           -0.017785274
FINAL SINGLE POINT ENERGY      -805.813940768028

DIPOLE MOMENT
-------------
                                X             Y             Z
Electronic contribution:    -12.49018      -4.17493      -9.71762
Nuclear contribution   :     12.25227       5.48563       9.26621
                        -----------------------------------------
Total Dipole Moment    :     -0.23791       1.31071      -0.45141
                        -----------------------------------------
Magnitude (a.u.)       :      1.40653
Magnitude (Debye)      :      3.57511

Rotational constants in cm-1:     0.103176     0.044975     0.040960
Rotational constants in MHz :  3093.138469  1348.317425  1227.945122

                             ****ORCA TERMINATED NORMALLY****
TOTAL RUN TIME: 0 days 0 hours 0 minutes 8 seconds 943 msec
