                         Program Version 5.0.0 -  RELEASE  -
|  1> !TPSS D3BJ RIJCOSX def2-SVP def2/J TightSCF
|  2>
|  3> *xyz -1 1
|  4> C          2.95263        1.86308       -3.57485
|  5> C          4.12921        0.89839       -3.41895
|  6> H          3.73369       -0.10060       -3.23763
|  7> H          4.71910        0.86256       -4.33901
|  8> C          5.01734        1.31521       -2.22130
|  9> O          4.73706        0.85411       -1.12283
| 10> O          5.92815        2.16811       -2.49136
| 11> H          2.35067        1.56005       -4.40594
| 12> H          3.32277        2.85258       -3.74453
| 13> H          2.36134        1.85149       -2.68315
| 14> *
| 15> %MaxCore 64000
| 16>
| 17> %pal nprocs 4
| 18> end
| 19>
| 20> %scf
| 21>   MaxIter 150
| 22> end
| 23>
| 24>
| 25>                          ****END OF INPUT****

CARTESIAN COORDINATES (ANGSTROEM)
---------------------------------
  C      2.952630    1.863080   -3.574850
  C      4.129210    0.898390   -3.418950
  H      3.733690   -0.100600   -3.237630
  H      4.719100    0.862560   -4.339010
  C      5.017340    1.315210   -2.221300
  O      4.737060    0.854110   -1.122830
  O      5.928150    2.168110   -2.491360
  H      2.350670    1.560050   -4.405940
  H      3.322770    2.852580   -3.744530
  H      2.361340    1.851490   -2.683150

 Total Charge           Charge          ....   -1
 Multiplicity           Mult            ....    1
 Number of Electrons    NEL             ....   40
 Basis Dimension        Dim             ....   95

ORBITAL ENERGIES
----------------

  NO   OCC          E(Eh)            E(eV)
   0   2.0000     -18.598077      -506.0794
   1   2.0000     -18.586993      -505.7778
   2   2.0000      -9.839772      -267.7538
   3   2.0000      -9.830115      -267.4910
   4   2.0000      -9.802882      -266.7500
   5   2.0000      -0.706452       -19.2235
   6   2.0000      -0.612482       -16.6665
   7   2.0000      -0.526357       -14.3229
   8   2.0000      -0.396479       -10.7888
   9   2.0000      -0.252440        -6.8692
  10   2.0000      -0.234807        -6.3894
  11   2.0000      -0.189728        -5.1628
  12   2.0000      -0.167314        -4.5529
  13   2.0000      -0.148129        -4.0308
  14   2.0000      -0.136335        -3.7099
  15   2.0000      -0.101898        -2.7728
  16   2.0000      -0.096749        -2.6327
  17   2.0000       0.026674         0.7258
  18   2.0000       0.038323         1.0428
  19   2.0000       0.055033         1.4975
  20   0.0000       0.206984         5.6323
  21   0.0000       0.253085         6.8868
  22   0.0000       0.263996         7.1837
  23   0.0000       0.268503         7.3063
  24   0.0000       0.282304         7.6819

MULLIKEN ATOMIC CHARGES
-----------------------
   0 C :    0.020899
   1 C :    0.012702
   2 H :   -0.064967
   3 H :   -0.055856
   4 C :    0.025766
   5 O :   -0.393911
   6 O :   -0.465799
   7 H :   -0.046837
   8 H :   -0.015762
   9 H :   -0.016236
Sum of atomic charges:   -1.0000000

LOEWDIN ATOMIC CHARGES
----------------------
   0 C :   -0.048774
   1 C :   -0.088554
   2 H :   -0.014461
   3 H :   -0.010421
   4 C :   -0.073726
   5 O :   -0.347587
   6 O :   -0.413541
   7 H :   -0.011757
   8 H :    0.004137
   9 H :    0.004686

  Mayer bond orders larger than 0.100000
B(  0-C ,  1-C ) :   1.1104 B(  0-C ,  7-H ) :   0.9637 B(  0-C ,  8-H ) :   0.9632
B(  0-C ,  9-H ) :   0.9650 B(  1-C ,  2-H ) :   0.9235 B(  1-C ,  3-H ) :   0.9292
B(  1-C ,  4-C ) :   0.9017 B(  4-C ,  5-O ) :   1.8708 B(  4-C ,  6-O ) :   1.7918
B(  5-O ,  6-O ) :   0.1388

Dispersion correction           -0.008081358
FINAL SINGLE POINT ENERGY      -267.658892682258

DIPOLE MOMENT
-------------
                                X             Y             Z
Electronic contribution:      4.62748      -0.09577       4.13399
Nuclear contribution   :     -5.85873      -0.10793      -5.24103
                        -----------------------------------------
Total Dipole Moment    :     -1.23124      -0.20370      -1.10704
                        -----------------------------------------
Magnitude (a.u.)       :      1.66823
Magnitude (Debye)      :      4.24031

Rotational constants in cm-1:     0.292505     0.135951     0.110253
Rotational constants in MHz :  8769.065873  4075.717001  3305.311891

                             ****ORCA TERMINATED NORMALLY****
TOTAL RUN TIME: 0 days 0 hours 0 minutes 7 seconds 698 msec
