                         Program Version 5.0.0 -  RELEASE  -
|  1> !TPSS D3BJ RIJCOSX def2-SVP def2/J TightSCF
|  2>
|  3> *xyz 1 1
|  4> C          3.34350        3.35457       -3.59200
|  5> C          2.95263        1.86308       -3.57485
|  6> C          4.25587        3.70385       -4.72605
|  7> N          3.73403        4.29378       -5.80077
|  8> N          5.51504        3.40725       -4.63718
|  9> H          6.14919        3.60120       -5.39905
| 10> H          5.81358        2.89950       -3.80879
| 11> H          2.74138        4.51311       -5.82470
| 12> H          4.28755        4.52126       -6.61434
| 13> H          3.86125        3.59725       -2.66298
| 14> H          2.44649        3.97346       -3.65656
| 15> H          2.44395        1.61721       -4.48352
| 16> H          2.30781        1.67290       -2.74242
| 17> H          3.83491        1.26414       -3.48670
| 18> *
| 19> %MaxCore 64000
| 20>
| 21> %pal nprocs 4
| 22> end
| 23>
| 24> %scf
| 25>   MaxIter 150
| 26> end
| 27>
| 28>
| 29>                          ****END OF INPUT****

CARTESIAN COORDINATES (ANGSTROEM)
---------------------------------
  C      3.343500    3.354570   -3.592000
  C      2.952630    1.863080   -3.574850
  C      4.255870    3.703850   -4.726050
  N      3.734030    4.293780   -5.800770
  N      5.515040    3.407250   -4.637180
  H      6.149190    3.601200   -5.399050
  H      5.813580    2.899500   -3.808790
  H      2.741380    4.513110   -5.824700
  H      4.287550    4.521260   -6.614340
  H      3.861250    3.597250   -2.662980
  H      2.446490    3.973460   -3.656560
  H      2.443950    1.617210   -4.483520
  H      2.307810    1.672900   -2.742420
  H      3.834910    1.264140   -3.486700

 Total Charge           Charge          ....    1
 Multiplicity           Mult            ....    1
 Number of Electrons    NEL             ....   40
 Basis Dimension        Dim             ....  115

ORBITAL ENERGIES
----------------

  NO   OCC          E(Eh)            E(eV)
   0   2.0000     -14.364952      -390.8902
   1   2.0000     -14.360412      -390.7667
   2   2.0000     -10.309545      -280.5370
   3   2.0000     -10.198004      -277.5018
   4   2.0000     -10.158945      -276.4389
   5   2.0000      -1.129403       -30.7326
   6   2.0000      -1.040194       -28.3051
   7   2.0000      -0.904756       -24.6196
   8   2.0000      -0.804263       -21.8851
   9   2.0000      -0.763561       -20.7776
  10   2.0000      -0.730472       -19.8772
  11   2.0000      -0.703140       -19.1334
  12   2.0000      -0.659886       -17.9564
  13   2.0000      -0.604584       -16.4516
  14   2.0000      -0.582774       -15.8581
  15   2.0000      -0.570888       -15.5346
  16   2.0000      -0.506009       -13.7692
  17   2.0000      -0.498763       -13.5720
  18   2.0000      -0.491902       -13.3853
  19   2.0000      -0.454387       -12.3645
  20   0.0000      -0.230163        -6.2630
  21   0.0000      -0.158492        -4.3128
  22   0.0000      -0.114123        -3.1054
  23   0.0000      -0.112409        -3.0588
  24   0.0000      -0.088812        -2.4167

MULLIKEN ATOMIC CHARGES
-----------------------
   0 C :   -0.020979
   1 C :    0.026425
   2 C :   -0.073040
   3 N :   -0.001982
   4 N :    0.049428
   5 H :    0.173579
   6 H :    0.185697
   7 H :    0.185548
   8 H :    0.168883
   9 H :    0.079595
  10 H :    0.062605
  11 H :    0.046942
  12 H :    0.079976
  13 H :    0.037322
Sum of atomic charges:    1.0000000

LOEWDIN ATOMIC CHARGES
----------------------
   0 C :   -0.024874
   1 C :   -0.008036
   2 C :    0.128947
   3 N :    0.099611
   4 N :    0.122466
   5 H :    0.112967
   6 H :    0.123716
   7 H :    0.120962
   8 H :    0.107877
   9 H :    0.055655
  10 H :    0.050365
  11 H :    0.033380
  12 H :    0.049739
  13 H :    0.027225

  Mayer bond orders larger than 0.100000
B(  0-C ,  1-C ) :   1.0717 B(  0-C ,  2-C ) :   1.0274 B(  0-C ,  9-H ) :   0.9218
B(  0-C , 10-H ) :   0.9231 B(  1-C , 11-H ) :   0.9683 B(  1-C , 12-H ) :   0.9618
B(  1-C , 13-H ) :   0.9707 B(  2-C ,  3-N ) :   1.4945 B(  2-C ,  4-N ) :   1.5340
B(  3-N ,  7-H ) :   0.9203 B(  3-N ,  8-H ) :   0.9315 B(  4-N ,  5-H ) :   0.9270
B(  4-N ,  6-H ) :   0.9147

Dispersion correction           -0.012436221
FINAL SINGLE POINT ENERGY      -228.912936430486

DIPOLE MOMENT
-------------
                                X             Y             Z
Electronic contribution:      2.41184       2.59244      -2.33497
Nuclear contribution   :     -1.74195      -2.09431       1.58516
                        -----------------------------------------
Total Dipole Moment    :      0.66990       0.49814      -0.74981
                        -----------------------------------------
Magnitude (a.u.)       :      1.12210
Magnitude (Debye)      :      2.85216

Rotational constants in cm-1:     0.258965     0.126500     0.098780
Rotational constants in MHz :  7763.584551  3792.383135  2961.336502

                             ****ORCA TERMINATED NORMALLY****
TOTAL RUN TIME: 0 days 0 hours 0 minutes 10 seconds 192 msec
