                         Program Version 5.0.0 -  RELEASE  -
|  1> !TPSS D3BJ RIJCOSX def2-TZVP def2/J TightSCF xyzfile
|  2>
|  3> *xyzfile 0 1 B.xyz
|  4>
|  5> %MaxCore 64000
|  6>
|  7> %pal nprocs 18
|  8> end
|  9>
| 10> %scf
| 11>   MaxIter 150
| 12> end
| 13>
| 14>
| 15>                          ****END OF INPUT****

CARTESIAN COORDINATES (ANGSTROEM)
---------------------------------
  C      3.343500    3.354571   -3.591998
  C      2.952633    1.863077   -3.574849
  C      4.129209    0.898394   -3.418950
  H      3.733687   -0.100605   -3.237633
  H      4.719095    0.862556   -4.339005
  C      5.017344    1.315212   -2.221305
  C      4.255868    3.703851   -4.726054
  N      3.734032    4.293783   -5.800770
  N      5.515039    3.407255   -4.637185
  H      6.149187    3.601203   -5.399053
  H      5.813584    2.899504   -3.808785
  H      2.741380    4.513109   -5.824701
  H      4.287548    4.521260   -6.614341
  H      2.278938    1.735250   -2.725496
  H      2.377466    1.625787   -4.475869
  O      4.737055    0.854112   -1.122825
  O      5.928146    2.168108   -2.491365
  H      3.861246    3.597252   -2.662979
  H      2.446493    3.973461   -3.656556

 Total Charge           Charge          ....    0
 Multiplicity           Mult            ....    1
 Number of Electrons    NEL             ....   70
 Basis Dimension        Dim             ....  339

ORBITAL ENERGIES
----------------

  NO   OCC          E(Eh)            E(eV)
   0   2.0000     -18.790287      -511.3097
   1   2.0000     -18.775088      -510.8961
   2   2.0000     -14.196577      -386.3085
   3   2.0000     -14.156711      -385.2237
   4   2.0000     -10.133338      -275.7421
   5   2.0000     -10.027461      -272.8611
   6   2.0000     -10.018592      -272.6198
   7   2.0000     -10.002395      -272.1790
   8   2.0000      -9.961063      -271.0543
   9   2.0000      -0.976775       -26.5794
  10   2.0000      -0.919092       -25.0098
  11   2.0000      -0.887212       -24.1423
  12   2.0000      -0.834213       -22.7001
  13   2.0000      -0.763361       -20.7721
  14   2.0000      -0.681322       -18.5397
  15   2.0000      -0.624267       -16.9872
  16   2.0000      -0.580896       -15.8070
  17   2.0000      -0.570238       -15.5170
  18   2.0000      -0.539334       -14.6760
  19   2.0000      -0.495819       -13.4919
  20   2.0000      -0.454903       -12.3785
  21   2.0000      -0.437723       -11.9111
  22   2.0000      -0.418710       -11.3937
  23   2.0000      -0.401948       -10.9376
  24   2.0000      -0.381229       -10.3738
  25   2.0000      -0.352434        -9.5902
  26   2.0000      -0.336312        -9.1515
  27   2.0000      -0.328125        -8.9287
  28   2.0000      -0.321653        -8.7526
  29   2.0000      -0.297000        -8.0818
  30   2.0000      -0.290295        -7.8993
  31   2.0000      -0.284985        -7.7548
  32   2.0000      -0.179284        -4.8786
  33   2.0000      -0.168516        -4.5855
  34   2.0000      -0.145596        -3.9619
  35   0.0000      -0.074879        -2.0376
  36   0.0000      -0.039651        -1.0790
  37   0.0000      -0.000569        -0.0155
  38   0.0000       0.021288         0.5793
  39   0.0000       0.038541         1.0488

MULLIKEN ATOMIC CHARGES
-----------------------
   0 C :   -0.253637
   1 C :   -0.125436
   2 C :   -0.243352
   3 H :    0.092784
   4 H :    0.079755
   5 C :    0.259198
   6 C :    0.249905
   7 N :   -0.384038
   8 N :   -0.284659
   9 H :    0.220450
  10 H :    0.289362
  11 H :    0.270486
  12 H :    0.251109
  13 H :    0.110671
  14 H :    0.074306
  15 O :   -0.385016
  16 O :   -0.508262
  17 H :    0.189105
  18 H :    0.097268
Sum of atomic charges:    0.0000000

LOEWDIN ATOMIC CHARGES
----------------------
   0 C :   -0.201552
   1 C :   -0.243598
   2 C :   -0.251341
   3 H :    0.139406
   4 H :    0.122662
   5 C :   -0.673776
   6 C :   -0.317411
   7 N :    0.060184
   8 N :    0.139997
   9 H :    0.172598
  10 H :    0.136411
  11 H :    0.190076
  12 H :    0.176487
  13 H :    0.149117
  14 H :    0.127734
  15 O :    0.023910
  16 O :   -0.063997
  17 H :    0.172118
  18 H :    0.140977

  Mayer bond orders larger than 0.100000
B(  0-C ,  1-C ) :   0.9978 B(  0-C ,  6-C ) :   1.0214 B(  0-C , 17-H ) :   0.9225
B(  0-C , 18-H ) :   0.9362 B(  1-C ,  2-C ) :   1.0503 B(  1-C , 13-H ) :   0.9283
B(  1-C , 14-H ) :   0.9361 B(  2-C ,  3-H ) :   0.9364 B(  2-C ,  4-H ) :   0.9310
B(  2-C ,  5-C ) :   0.9520 B(  5-C , 15-O ) :   1.9832 B(  5-C , 16-O ) :   1.4832
B(  6-C ,  7-N ) :   1.3455 B(  6-C ,  8-N ) :   1.6139 B(  7-N , 11-H ) :   0.8910
B(  7-N , 12-H ) :   0.8960 B(  8-N ,  9-H ) :   0.8984 B(  8-N , 10-H ) :   0.6884
B( 10-H , 16-O ) :   0.2982

Dispersion correction           -0.023479983
FINAL SINGLE POINT ENERGY      -456.774502799713

DIPOLE MOMENT
-------------
                                X             Y             Z
Electronic contribution:      3.97856      -0.01795       2.74741
Nuclear contribution   :     -5.42217       2.65262      -7.07590
                        -----------------------------------------
Total Dipole Moment    :     -1.44361       2.63467      -4.32849
                        -----------------------------------------
Magnitude (a.u.)       :      5.26890
Magnitude (Debye)      :     13.39249

Rotational constants in cm-1:     0.107541     0.035862     0.030371
Rotational constants in MHz :  3223.996852  1075.120464   910.508313

                             ****ORCA TERMINATED NORMALLY****
TOTAL RUN TIME: 0 days 0 hours 0 minutes 12 seconds 456 msec
