                         Program Version 5.0.0 -  RELEASE  -
|  1> !TPSS D3BJ RIJCOSX def2-SVP def2/J TightSCF
|  2>
|  3> *xyz 0 1
|  4> C          2.95263        1.86308       -3.57485
|  5> C          4.12921        0.89839       -3.41895
|  6> H          3.73369       -0.10060       -3.23763
|  7> H          4.71910        0.86256       -4.33901
|  8> C          5.01734        1.31521       -2.22130
|  9> F          4.73706        0.85411       -1.12283
| 10> O          5.92815        2.16811       -2.49136
| 11> H          2.35067        1.56005       -4.40594
| 12> H          3.32277        2.85258       -3.74453
| 13> H          2.36134        1.85149       -2.68315
| 14> *
| 15> %MaxCore 64000
| 16>
| 17> %pal nprocs 4
| 18> end
| 19>
| 20> %scf
| 21>   MaxIter 150
| 22> end
| 23>
| 24>
| 25>                          ****END OF INPUT****

CARTESIAN COORDINATES (ANGSTROEM)
---------------------------------
  C      2.952630    1.863080   -3.574850
  C      4.129210    0.898390   -3.418950
  H      3.733690   -0.100600   -3.237630
  H      4.719100    0.862560   -4.339010
  C      5.017340    1.315210   -2.221300
  F      4.737060    0.854110   -1.122830
  O      5.928150    2.168110   -2.491360
  H      2.350670    1.560050   -4.405940
  H      3.322770    2.852580   -3.744530
  H      2.361340    1.851490   -2.683150

 Total Charge           Charge          ....    0
 Multiplicity           Mult            ....    1
 Number of Electrons    NEL             ....   40
 Basis Dimension        Dim             ....   95

ORBITAL ENERGIES
----------------

  NO   OCC          E(Eh)            E(eV)
   0   2.0000     -24.491548      -666.4489
   1   2.0000     -18.885104      -513.8898
   2   2.0000     -10.158454      -276.4256
   3   2.0000     -10.024309      -272.7753
   4   2.0000     -10.008557      -272.3467
   5   2.0000      -1.237497       -33.6740
   6   2.0000      -0.928897       -25.2766
   7   2.0000      -0.731916       -19.9165
   8   2.0000      -0.623430       -16.9644
   9   2.0000      -0.583133       -15.8679
  10   2.0000      -0.498721       -13.5709
  11   2.0000      -0.483981       -13.1698
  12   2.0000      -0.446137       -12.1400
  13   2.0000      -0.417113       -11.3502
  14   2.0000      -0.384090       -10.4516
  15   2.0000      -0.354519        -9.6470
  16   2.0000      -0.334112        -9.0917
  17   2.0000      -0.325123        -8.8470
  18   2.0000      -0.295454        -8.0397
  19   2.0000      -0.228171        -6.2089
  20   0.0000      -0.050547        -1.3754
  21   0.0000       0.050574         1.3762
  22   0.0000       0.094664         2.5760
  23   0.0000       0.095739         2.6052
  24   0.0000       0.119334         3.2473

MULLIKEN ATOMIC CHARGES
-----------------------
   0 C :   -0.002859
   1 C :   -0.063136
   2 H :    0.020342
   3 H :    0.052269
   4 C :    0.215395
   5 F :   -0.027072
   6 O :   -0.282561
   7 H :    0.029682
   8 H :    0.037235
   9 H :    0.020705
Sum of atomic charges:   -0.0000000

LOEWDIN ATOMIC CHARGES
----------------------
   0 C :   -0.028185
   1 C :   -0.061763
   2 H :    0.021576
   3 H :    0.040615
   4 C :    0.073593
   5 F :    0.092657
   6 O :   -0.209491
   7 H :    0.025276
   8 H :    0.025640
   9 H :    0.020082

  Mayer bond orders larger than 0.100000
B(  0-C ,  1-C ) :   1.0879 B(  0-C ,  7-H ) :   0.9680 B(  0-C ,  8-H ) :   0.9714
B(  0-C ,  9-H ) :   0.9726 B(  1-C ,  2-H ) :   0.9312 B(  1-C ,  3-H ) :   0.9437
B(  1-C ,  4-C ) :   0.9936 B(  4-C ,  5-F ) :   1.2352 B(  4-C ,  6-O ) :   2.0209

Dispersion correction           -0.007641014
FINAL SINGLE POINT ENERGY      -292.206531579091

DIPOLE MOMENT
-------------
                                X             Y             Z
Electronic contribution:      5.15749      -1.11132       6.60569
Nuclear contribution   :     -6.06116       0.51860      -6.80802
                        -----------------------------------------
Total Dipole Moment    :     -0.90366      -0.59272      -0.20233
                        -----------------------------------------
Magnitude (a.u.)       :      1.09948
Magnitude (Debye)      :      2.79466

Rotational constants in cm-1:     0.276196     0.132056     0.105465
Rotational constants in MHz :  8280.156449  3958.940601  3161.775929

                             ****ORCA TERMINATED NORMALLY****
TOTAL RUN TIME: 0 days 0 hours 0 minutes 7 seconds 785 msec
