                         Program Version 5.0.0 -  RELEASE  -
|  1> !TPSS D3BJ RIJCOSX def2-SVP def2/J TightSCF
|  2>
|  3> *xyz 0 1
|  4> C          3.34350        3.35457       -3.59200
|  5> C          2.95263        1.86308       -3.57485
|  6> C          4.25587        3.70385       -4.72605
|  7> C          3.73403        4.29378       -5.80077
|  8> N          5.51504        3.40725       -4.63718
|  9> H          6.14919        3.60120       -5.39905
| 10> H          5.81358        2.89950       -3.80879
| 11> H          2.74138        4.51311       -5.82470
| 12> H          4.28755        4.52126       -6.61434
| 13> H          3.86125        3.59725       -2.66298
| 14> H          2.44649        3.97346       -3.65656
| 15> H          2.44395        1.61721       -4.48352
| 16> H          2.30781        1.67290       -2.74242
| 17> H          3.83491        1.26414       -3.48670
| 18> *
| 19> %MaxCore 64000
| 20>
| 21> %pal nprocs 4
| 22> end
| 23>
| 24> %scf
| 25>   MaxIter 150
| 26> end
| 27>
| 28>
| 29>                          ****END OF INPUT****

CARTESIAN COORDINATES (ANGSTROEM)
---------------------------------
  C      3.343500    3.354570   -3.592000
  C      2.952630    1.863080   -3.574850
  C      4.255870    3.703850   -4.726050
  C      3.734030    4.293780   -5.800770
  N      5.515040    3.407250   -4.637180
  H      6.149190    3.601200   -5.399050
  H      5.813580    2.899500   -3.808790
  H      2.741380    4.513110   -5.824700
  H      4.287550    4.521260   -6.614340
  H      3.861250    3.597250   -2.662980
  H      2.446490    3.973460   -3.656560
  H      2.443950    1.617210   -4.483520
  H      2.307810    1.672900   -2.742420
  H      3.834910    1.264140   -3.486700

 Total Charge           Charge          ....    0
 Multiplicity           Mult            ....    1
 Number of Electrons    NEL             ....   40
 Basis Dimension        Dim             ....  115

ORBITAL ENERGIES
----------------

  NO   OCC          E(Eh)            E(eV)
   0   2.0000     -14.114779      -384.0827
   1   2.0000     -10.005443      -272.2619
   2   2.0000      -9.996066      -272.0068
   3   2.0000      -9.987574      -271.7757
   4   2.0000      -9.926472      -270.1130
   5   2.0000      -0.857559       -23.3354
   6   2.0000      -0.709531       -19.3073
   7   2.0000      -0.645376       -17.5616
   8   2.0000      -0.576036       -15.6747
   9   2.0000      -0.513933       -13.9848
  10   2.0000      -0.481831       -13.1113
  11   2.0000      -0.428825       -11.6689
  12   2.0000      -0.393551       -10.7091
  13   2.0000      -0.374290       -10.1849
  14   2.0000      -0.346242        -9.4217
  15   2.0000      -0.337923        -9.1954
  16   2.0000      -0.314690        -8.5632
  17   2.0000      -0.291929        -7.9438
  18   2.0000      -0.285939        -7.7808
  19   2.0000      -0.147050        -4.0014
  20   0.0000       0.031897         0.8680
  21   0.0000       0.044368         1.2073
  22   0.0000       0.081106         2.2070
  23   0.0000       0.091050         2.4776
  24   0.0000       0.106150         2.8885

MULLIKEN ATOMIC CHARGES
-----------------------
   0 C :    0.031453
   1 C :    0.040281
   2 C :   -0.169887
   3 C :   -0.038292
   4 N :   -0.036005
   5 H :    0.115249
   6 H :    0.108952
   7 H :   -0.036421
   8 H :   -0.052803
   9 H :   -0.002614
  10 H :    0.013956
  11 H :    0.015441
  12 H :    0.013472
  13 H :   -0.002782
Sum of atomic charges:    0.0000000

LOEWDIN ATOMIC CHARGES
----------------------
   0 C :   -0.021566
   1 C :   -0.034219
   2 C :   -0.014877
   3 C :   -0.173316
   4 N :    0.017269
   5 H :    0.077838
   6 H :    0.071248
   7 H :   -0.003348
   8 H :   -0.013185
   9 H :    0.013918
  10 H :    0.030774
  11 H :    0.020867
  12 H :    0.017637
  13 H :    0.010960

  Mayer bond orders larger than 0.100000
B(  0-C ,  1-C ) :   1.0907 B(  0-C ,  2-C ) :   1.0339 B(  0-C ,  9-H ) :   0.9266
B(  0-C , 10-H ) :   0.9306 B(  1-C , 11-H ) :   0.9687 B(  1-C , 12-H ) :   0.9663
B(  1-C , 13-H ) :   0.9686 B(  2-C ,  3-C ) :   1.8260 B(  2-C ,  4-N ) :   1.3018
B(  3-C ,  7-H ) :   0.9361 B(  3-C ,  8-H ) :   0.9500 B(  4-N ,  5-H ) :   0.9432
B(  4-N ,  6-H ) :   0.9440

Dispersion correction           -0.012939304
FINAL SINGLE POINT ENERGY      -212.449316446223

DIPOLE MOMENT
-------------
                                X             Y             Z
Electronic contribution:      2.41840       1.46115      -0.85652
Nuclear contribution   :     -1.79713      -1.86925       1.28073
                        -----------------------------------------
Total Dipole Moment    :      0.62128      -0.40810       0.42421
                        -----------------------------------------
Magnitude (a.u.)       :      0.85585
Magnitude (Debye)      :      2.17540

Rotational constants in cm-1:     0.269040     0.129645     0.102087
Rotational constants in MHz :  8065.609820  3886.645139  3060.489045

                             ****ORCA TERMINATED NORMALLY****
TOTAL RUN TIME: 0 days 0 hours 0 minutes 9 seconds 573 msec
