                         Program Version 5.0.0 -  RELEASE  -
|  1> !TPSS D3BJ RIJCOSX def2-SVP def2/J TightSCF
|  2>
|  3> *xyz 0 1
|  4> C          2.95263        1.86308       -3.57485
|  5> C          4.12921        0.89839       -3.41895
|  6> H          3.73369       -0.10060       -3.23763
|  7> H          4.71910        0.86256       -4.33901
|  8> C          5.01734        1.31521       -2.22130
|  9> O          4.73706        0.85411       -1.12283
| 10> F          5.92815        2.16811       -2.49136
| 11> H          2.35067        1.56005       -4.40594
| 12> H          3.32277        2.85258       -3.74453
| 13> H          2.36134        1.85149       -2.68315
| 14> *
| 15> %MaxCore 64000
| 16>
| 17> %pal nprocs 4
| 18> end
| 19>
| 20> %scf
| 21>   MaxIter 150
| 22> end
| 23>
| 24>
| 25>                          ****END OF INPUT****

CARTESIAN COORDINATES (ANGSTROEM)
---------------------------------
  C      2.952630    1.863080   -3.574850
  C      4.129210    0.898390   -3.418950
  H      3.733690   -0.100600   -3.237630
  H      4.719100    0.862560   -4.339010
  C      5.017340    1.315210   -2.221300
  O      4.737060    0.854110   -1.122830
  F      5.928150    2.168110   -2.491360
  H      2.350670    1.560050   -4.405940
  H      3.322770    2.852580   -3.744530
  H      2.361340    1.851490   -2.683150

 Total Charge           Charge          ....    0
 Multiplicity           Mult            ....    1
 Number of Electrons    NEL             ....   40
 Basis Dimension        Dim             ....   95

ORBITAL ENERGIES
----------------

  NO   OCC          E(Eh)            E(eV)
   0   2.0000     -24.470730      -665.8824
   1   2.0000     -18.894965      -514.1581
   2   2.0000     -10.155170      -276.3362
   3   2.0000     -10.024121      -272.7702
   4   2.0000     -10.009083      -272.3610
   5   2.0000      -1.197273       -32.5795
   6   2.0000      -0.961880       -26.1741
   7   2.0000      -0.732111       -19.9218
   8   2.0000      -0.615778       -16.7562
   9   2.0000      -0.568415       -15.4674
  10   2.0000      -0.481943       -13.1143
  11   2.0000      -0.465093       -12.6558
  12   2.0000      -0.443813       -12.0768
  13   2.0000      -0.414396       -11.2763
  14   2.0000      -0.386498       -10.5172
  15   2.0000      -0.355652        -9.6778
  16   2.0000      -0.338871        -9.2211
  17   2.0000      -0.328218        -8.9313
  18   2.0000      -0.312614        -8.5067
  19   2.0000      -0.241196        -6.5633
  20   0.0000      -0.045831        -1.2471
  21   0.0000       0.050434         1.3724
  22   0.0000       0.092941         2.5290
  23   0.0000       0.097065         2.6413
  24   0.0000       0.118352         3.2205

MULLIKEN ATOMIC CHARGES
-----------------------
   0 C :   -0.005463
   1 C :   -0.065045
   2 H :    0.045869
   3 H :    0.028725
   4 C :    0.223272
   5 O :   -0.222914
   6 F :   -0.093794
   7 H :    0.030215
   8 H :    0.023623
   9 H :    0.035513
Sum of atomic charges:   -0.0000000

LOEWDIN ATOMIC CHARGES
----------------------
   0 C :   -0.028456
   1 C :   -0.062219
   2 H :    0.037887
   3 H :    0.025615
   4 C :    0.083104
   5 O :   -0.153269
   6 F :    0.025868
   7 H :    0.025501
   8 H :    0.020466
   9 H :    0.025504

  Mayer bond orders larger than 0.100000
B(  0-C ,  1-C ) :   1.0885 B(  0-C ,  7-H ) :   0.9683 B(  0-C ,  8-H ) :   0.9732
B(  0-C ,  9-H ) :   0.9715 B(  1-C ,  2-H ) :   0.9438 B(  1-C ,  3-H ) :   0.9334
B(  1-C ,  4-C ) :   0.9921 B(  4-C ,  5-O ) :   2.0943 B(  4-C ,  6-F ) :   1.1640

Dispersion correction           -0.007640549
FINAL SINGLE POINT ENERGY      -292.222532900542

DIPOLE MOMENT
-------------
                                X             Y             Z
Electronic contribution:      7.09481       1.03314       4.35628
Nuclear contribution   :     -7.35982      -0.91407      -5.31589
                        -----------------------------------------
Total Dipole Moment    :     -0.26501       0.11907      -0.95962
                        -----------------------------------------
Magnitude (a.u.)       :      1.00263
Magnitude (Debye)      :      2.54849

Rotational constants in cm-1:     0.275433     0.132201     0.105422
Rotational constants in MHz :  8257.268192  3963.279062  3160.465566

                             ****ORCA TERMINATED NORMALLY****
TOTAL RUN TIME: 0 days 0 hours 0 minutes 7 seconds 927 msec
