                         Program Version 5.0.0 -  RELEASE  -
|  1> !TPSS D3BJ RIJCOSX def2-SVP def2/J TightSCF
|  2>
|  3> *xyz 0 1
|  4> C          3.34350        3.35457       -3.59200
|  5> C          2.95263        1.86308       -3.57485
|  6> C          4.25587        3.70385       -4.72605
|  7> N          3.73403        4.29378       -5.80077
|  8> C          5.51504        3.40725       -4.63718
|  9> H          6.14919        3.60120       -5.39905
| 10> H          5.81358        2.89950       -3.80879
| 11> H          2.74138        4.51311       -5.82470
| 12> H          4.28755        4.52126       -6.61434
| 13> H          3.86125        3.59725       -2.66298
| 14> H          2.44649        3.97346       -3.65656
| 15> H          2.44395        1.61721       -4.48352
| 16> H          2.30781        1.67290       -2.74242
| 17> H          3.83491        1.26414       -3.48670
| 18> *
| 19> %MaxCore 64000
| 20>
| 21> %pal nprocs 4
| 22> end
| 23>
| 24> %scf
| 25>   MaxIter 150
| 26> end
| 27>
| 28>
| 29>                          ****END OF INPUT****

CARTESIAN COORDINATES (ANGSTROEM)
---------------------------------
  C      3.343500    3.354570   -3.592000
  C      2.952630    1.863080   -3.574850
  C      4.255870    3.703850   -4.726050
  N      3.734030    4.293780   -5.800770
  C      5.515040    3.407250   -4.637180
  H      6.149190    3.601200   -5.399050
  H      5.813580    2.899500   -3.808790
  H      2.741380    4.513110   -5.824700
  H      4.287550    4.521260   -6.614340
  H      3.861250    3.597250   -2.662980
  H      2.446490    3.973460   -3.656560
  H      2.443950    1.617210   -4.483520
  H      2.307810    1.672900   -2.742420
  H      3.834910    1.264140   -3.486700

 Total Charge           Charge          ....    0
 Multiplicity           Mult            ....    1
 Number of Electrons    NEL             ....   40
 Basis Dimension        Dim             ....  115

ORBITAL ENERGIES
----------------

  NO   OCC          E(Eh)            E(eV)
   0   2.0000     -14.110177      -383.9574
   1   2.0000     -10.003320      -272.2042
   2   2.0000      -9.995756      -271.9984
   3   2.0000      -9.985375      -271.7159
   4   2.0000      -9.924957      -270.0718
   5   2.0000      -0.843080       -22.9414
   6   2.0000      -0.711469       -19.3601
   7   2.0000      -0.649112       -17.6632
   8   2.0000      -0.577032       -15.7018
   9   2.0000      -0.507588       -13.8122
  10   2.0000      -0.469969       -12.7885
  11   2.0000      -0.432353       -11.7649
  12   2.0000      -0.394570       -10.7368
  13   2.0000      -0.367674       -10.0049
  14   2.0000      -0.346898        -9.4396
  15   2.0000      -0.339068        -9.2265
  16   2.0000      -0.310725        -8.4553
  17   2.0000      -0.296252        -8.0614
  18   2.0000      -0.280632        -7.6364
  19   2.0000      -0.150402        -4.0927
  20   0.0000       0.034502         0.9389
  21   0.0000       0.046671         1.2700
  22   0.0000       0.082443         2.2434
  23   0.0000       0.088074         2.3966
  24   0.0000       0.109827         2.9885

MULLIKEN ATOMIC CHARGES
-----------------------
   0 C :    0.033066
   1 C :    0.037646
   2 C :   -0.131757
   3 N :   -0.087442
   4 C :   -0.022174
   5 H :   -0.051986
   6 H :   -0.036138
   7 H :    0.106906
   8 H :    0.109437
   9 H :    0.022232
  10 H :   -0.012608
  11 H :    0.006942
  12 H :    0.010109
  13 H :    0.015766
Sum of atomic charges:    0.0000000

LOEWDIN ATOMIC CHARGES
----------------------
   0 C :   -0.021972
   1 C :   -0.030910
   2 C :   -0.006653
   3 N :   -0.004936
   4 C :   -0.160009
   5 H :   -0.009182
   6 H :   -0.000698
   7 H :    0.067656
   8 H :    0.072065
   9 H :    0.030925
  10 H :    0.012373
  11 H :    0.016165
  12 H :    0.015721
  13 H :    0.019456

  Mayer bond orders larger than 0.100000
B(  0-C ,  1-C ) :   1.0971 B(  0-C ,  2-C ) :   1.0170 B(  0-C ,  9-H ) :   0.9338
B(  0-C , 10-H ) :   0.9292 B(  1-C , 11-H ) :   0.9676 B(  1-C , 12-H ) :   0.9654
B(  1-C , 13-H ) :   0.9722 B(  2-C ,  3-N ) :   1.2591 B(  2-C ,  4-C ) :   1.8668
B(  3-N ,  7-H ) :   0.9485 B(  3-N ,  8-H ) :   0.9491 B(  4-C ,  5-H ) :   0.9476
B(  4-C ,  6-H ) :   0.9273

Dispersion correction           -0.012951692
FINAL SINGLE POINT ENERGY      -212.448904317859

DIPOLE MOMENT
-------------
                                X             Y             Z
Electronic contribution:      0.74165       2.31266      -1.93336
Nuclear contribution   :     -1.38463      -2.07457       1.55023
                        -----------------------------------------
Total Dipole Moment    :     -0.64298       0.23808      -0.38313
                        -----------------------------------------
Magnitude (a.u.)       :      0.78542
Magnitude (Debye)      :      1.99638

Rotational constants in cm-1:     0.272312     0.128195     0.101724
Rotational constants in MHz :  8163.717141  3843.180148  3049.598073

                             ****ORCA TERMINATED NORMALLY****
TOTAL RUN TIME: 0 days 0 hours 0 minutes 10 seconds 548 msec
