                         Program Version 5.0.0 -  RELEASE  -
|  1> !TPSS D3BJ RIJCOSX def2-TZVP def2/J TightSCF xyzfile
|  2>
|  3> *xyzfile 0 1 D4.xyz
|  4>
|  5> %MaxCore 64000
|  6>
|  7> %pal nprocs 18
|  8> end
|  9>
| 10> %scf
| 11>   MaxIter 150
| 12> end
| 13>
| 14>
| 15>                          ****END OF INPUT****

CARTESIAN COORDINATES (ANGSTROEM)
---------------------------------
  C      3.343500    3.354571   -3.591998
  C      2.952633    1.863077   -3.574849
  C      4.129209    0.898394   -3.418950
  H      3.733687   -0.100605   -3.237633
  H      4.719095    0.862556   -4.339005
  C      5.017344    1.315212   -2.221305
  C      4.255868    3.703851   -4.726054
  N      3.734032    4.293783   -5.800770
  C      5.515039    3.407255   -4.637185
  H      6.149187    3.601203   -5.399053
  H      5.813584    2.899504   -3.808785
  H      2.741380    4.513109   -5.824701
  H      4.287548    4.521260   -6.614341
  H      2.278938    1.735250   -2.725496
  H      2.377466    1.625787   -4.475869
  O      4.737055    0.854112   -1.122825
  F      5.928146    2.168108   -2.491365
  H      3.861246    3.597252   -2.662979
  H      2.446493    3.973461   -3.656556

 Total Charge           Charge          ....    0
 Multiplicity           Mult            ....    1
 Number of Electrons    NEL             ....   70
 Basis Dimension        Dim             ....  339

ORBITAL ENERGIES
----------------

  NO   OCC          E(Eh)            E(eV)
   0   2.0000     -24.470860      -665.8860
   1   2.0000     -18.891148      -514.0543
   2   2.0000     -14.103167      -383.7667
   3   2.0000     -10.148427      -276.1527
   4   2.0000     -10.008094      -272.3341
   5   2.0000     -10.003182      -272.2004
   6   2.0000      -9.997600      -272.0485
   7   2.0000      -9.994752      -271.9710
   8   2.0000      -9.904037      -269.5025
   9   2.0000      -1.231941       -33.5228
  10   2.0000      -0.982012       -26.7219
  11   2.0000      -0.863313       -23.4919
  12   2.0000      -0.760166       -20.6852
  13   2.0000      -0.697132       -18.9699
  14   2.0000      -0.654389       -17.8068
  15   2.0000      -0.615485       -16.7482
  16   2.0000      -0.567130       -15.4324
  17   2.0000      -0.532953       -14.5024
  18   2.0000      -0.488528       -13.2935
  19   2.0000      -0.483713       -13.1625
  20   2.0000      -0.475140       -12.9292
  21   2.0000      -0.456761       -12.4291
  22   2.0000      -0.436434       -11.8760
  23   2.0000      -0.417618       -11.3640
  24   2.0000      -0.403058       -10.9678
  25   2.0000      -0.373498       -10.1634
  26   2.0000      -0.356538        -9.7019
  27   2.0000      -0.344039        -9.3618
  28   2.0000      -0.336400        -9.1539
  29   2.0000      -0.324222        -8.8225
  30   2.0000      -0.311575        -8.4784
  31   2.0000      -0.294086        -8.0025
  32   2.0000      -0.290245        -7.8980
  33   2.0000      -0.249546        -6.7905
  34   2.0000      -0.162090        -4.4107
  35   0.0000      -0.055928        -1.5219
  36   0.0000       0.009145         0.2489
  37   0.0000       0.021504         0.5852
  38   0.0000       0.043943         1.1958
  39   0.0000       0.053474         1.4551

MULLIKEN ATOMIC CHARGES
-----------------------
   0 C :   -0.254134
   1 C :   -0.117520
   2 C :   -0.248250
   3 H :    0.115799
   4 H :    0.146079
   5 C :    0.294431
   6 C :    0.212819
   7 N :   -0.474678
   8 C :   -0.444941
   9 H :    0.074753
  10 H :    0.148987
  11 H :    0.226317
  12 H :    0.230195
  13 H :    0.105564
  14 H :    0.088959
  15 O :   -0.261745
  16 F :   -0.066971
  17 H :    0.139955
  18 H :    0.084381
Sum of atomic charges:   -0.0000000

LOEWDIN ATOMIC CHARGES
----------------------
   0 C :   -0.208687
   1 C :   -0.240028
   2 C :   -0.227718
   3 H :    0.147552
   4 H :    0.145910
   5 C :   -0.513365
   6 C :   -0.373654
   7 N :   -0.004031
   8 C :   -0.262900
   9 H :    0.095347
  10 H :    0.089336
  11 H :    0.164974
  12 H :    0.167003
  13 H :    0.140787
  14 H :    0.137527
  15 O :    0.123703
  16 F :    0.331688
  17 H :    0.150929
  18 H :    0.135626

  Mayer bond orders larger than 0.100000
B(  0-C ,  1-C ) :   1.0104 B(  0-C ,  6-C ) :   0.9862 B(  0-C , 17-H ) :   0.9701
B(  0-C , 18-H ) :   0.9380 B(  1-C ,  2-C ) :   1.0256 B(  1-C , 13-H ) :   0.9418
B(  1-C , 14-H ) :   0.9328 B(  2-C ,  3-H ) :   0.9363 B(  2-C ,  4-H ) :   0.9250
B(  2-C ,  5-C ) :   1.0081 B(  5-C , 15-O ) :   2.1167 B(  5-C , 16-F ) :   1.1099
B(  6-C ,  7-N ) :   1.1506 B(  6-C ,  8-C ) :   1.7482 B(  7-N , 11-H ) :   0.9166
B(  7-N , 12-H ) :   0.9119 B(  8-C ,  9-H ) :   0.9694 B(  8-C , 10-H ) :   0.9744

Dispersion correction           -0.023415450
FINAL SINGLE POINT ENERGY      -464.682646546186

DIPOLE MOMENT
-------------
                                X             Y             Z
Electronic contribution:      6.18545      -2.78628       7.11163
Nuclear contribution   :     -6.99695       3.07955      -8.37829
                        -----------------------------------------
Total Dipole Moment    :     -0.81151       0.29327      -1.26666
                        -----------------------------------------
Magnitude (a.u.)       :      1.53264
Magnitude (Debye)      :      3.89566

Rotational constants in cm-1:     0.106302     0.035771     0.030198
Rotational constants in MHz :  3186.860872  1072.397550   905.318354

                             ****ORCA TERMINATED NORMALLY****
TOTAL RUN TIME: 0 days 0 hours 0 minutes 11 seconds 207 msec
