                         Program Version 5.0.0 -  RELEASE  -
|  1> !PBE D3BJ RIJCOSX def2-TZVP def2/J TightSCF
|  2> *xyz -1 1
|  3> C          2.49556        1.81615       -2.13636
|  4> C          1.87218        0.42790       -2.07750
|  5> H          2.61427       -0.36583       -2.19889
|  6> H          1.38995        0.27309       -1.11236
|  7> S          0.57902        0.14047       -3.29794
|  8> O          0.22886       -1.24687       -3.12787
|  9> O         -0.43927        1.11897       -3.01455
| 10> O          1.24788        0.40347       -4.59565
| 11> H          2.96535        1.95613       -3.08747
| 12> H          3.22581        1.91242       -1.36024
| 13> H          1.73350        2.55528       -2.00274
| 14> *
| 15>
| 16> %MaxCore 64000
| 17>
| 18> %pal nprocs 4
| 19> end
| 20>
| 21> %scf
| 22>   MaxIter 150
| 23> end
| 24>
| 25>
| 26>                          ****END OF INPUT****

CARTESIAN COORDINATES (ANGSTROEM)
---------------------------------
  C      2.495560    1.816150   -2.136360
  C      1.872180    0.427900   -2.077500
  H      2.614270   -0.365830   -2.198890
  H      1.389950    0.273090   -1.112360
  S      0.579020    0.140470   -3.297940
  O      0.228860   -1.246870   -3.127870
  O     -0.439270    1.118970   -3.014550
  O      1.247880    0.403470   -4.595650
  H      2.965350    1.956130   -3.087470
  H      3.225810    1.912420   -1.360240
  H      1.733500    2.555280   -2.002740

 Total Charge           Charge          ....   -1
 Multiplicity           Mult            ....    1
 Number of Electrons    NEL             ....   58
 Basis Dimension        Dim             ....  222

ORBITAL ENERGIES
----------------

  NO   OCC          E(Eh)            E(eV)
   0   2.0000     -88.000694     -2394.6206
   1   2.0000     -18.521148      -503.9861
   2   2.0000     -18.520985      -503.9816
   3   2.0000     -18.506610      -503.5905
   4   2.0000      -9.731313      -264.8025
   5   2.0000      -9.726630      -264.6751
   6   2.0000      -7.595745      -206.6907
   7   2.0000      -5.616734      -152.8391
   8   2.0000      -5.615594      -152.8081
   9   2.0000      -5.615321      -152.8006
  10   2.0000      -0.826032       -22.4775
  11   2.0000      -0.702908       -19.1271
  12   2.0000      -0.677408       -18.4332
  13   2.0000      -0.551691       -15.0123
  14   2.0000      -0.432147       -11.7593
  15   2.0000      -0.314450        -8.5566
  16   2.0000      -0.260082        -7.0772
  17   2.0000      -0.253895        -6.9088
  18   2.0000      -0.217450        -5.9171
  19   2.0000      -0.201932        -5.4949
  20   2.0000      -0.196467        -5.3461
  21   2.0000      -0.177718        -4.8359
  22   2.0000      -0.160007        -4.3540
  23   2.0000      -0.096149        -2.6163
  24   2.0000      -0.095505        -2.5988
  25   2.0000      -0.064988        -1.7684
  26   2.0000      -0.058788        -1.5997
  27   2.0000      -0.047281        -1.2866
  28   2.0000      -0.011269        -0.3066
  29   0.0000       0.158578         4.3151
  30   0.0000       0.200044         5.4435
  31   0.0000       0.214482         5.8363
  32   0.0000       0.219080         5.9615
  33   0.0000       0.245865         6.6903

MULLIKEN ATOMIC CHARGES
-----------------------
   0 C :   -0.320837
   1 C :   -0.222617
   2 H :    0.069782
   3 H :    0.060082
   4 S :    0.655258
   5 O :   -0.484996
   6 O :   -0.487127
   7 O :   -0.538138
   8 H :    0.104342
   9 H :    0.059696
  10 H :    0.104556
Sum of atomic charges:   -1.0000000

LOEWDIN ATOMIC CHARGES
----------------------
   0 C :   -0.352914
   1 C :   -0.445254
   2 H :    0.115866
   3 H :    0.114807
   4 S :    0.340969
   5 O :   -0.348948
   6 O :   -0.348488
   7 O :   -0.402317
   8 H :    0.113678
   9 H :    0.098616
  10 H :    0.113984

  Mayer bond orders larger than 0.100000
B(  0-C ,  1-C ) :   0.9808 B(  0-C ,  8-H ) :   0.9657 B(  0-C ,  9-H ) :   0.9530
B(  0-C , 10-H ) :   0.9690 B(  1-C ,  2-H ) :   0.9483 B(  1-C ,  3-H ) :   0.9454
B(  1-C ,  4-S ) :   0.8568 B(  4-S ,  5-O ) :   1.8739 B(  4-S ,  6-O ) :   1.8289
B(  4-S ,  7-O ) :   1.7740

Dispersion correction           -0.009694301
FINAL SINGLE POINT ENERGY      -702.808529329110

DIPOLE MOMENT
-------------
                                X             Y             Z
Electronic contribution:     -5.81739      -3.65295      -4.21488
Nuclear contribution   :      6.89220       4.11756       5.35566
                        -----------------------------------------
Total Dipole Moment    :      1.07481       0.46461       1.14078
                        -----------------------------------------
Magnitude (a.u.)       :      1.63477
Magnitude (Debye)      :      4.15524

Rotational constants in cm-1:     0.162183     0.084017     0.082390
Rotational constants in MHz :  4862.117324  2518.774315  2469.980309

                             ****ORCA TERMINATED NORMALLY****
TOTAL RUN TIME: 0 days 0 hours 0 minutes 6 seconds 712 msec
