                         Program Version 5.0.0 -  RELEASE  -
|  1> !PBE D3BJ RIJCOSX def2-TZVP def2/J TightSCF
|  2> *xyz 1 1
|  3> C          3.38093        2.08304       -3.35013
|  4> N          4.53592        1.18245       -3.42852
|  5> C          2.49556        1.81615       -2.13636
|  6> C          4.67196        0.12227       -4.22060
|  7> N          5.86602       -0.50785       -4.22428
|  8> N          3.69888       -0.31284       -4.98699
|  9> H          2.73141       -0.05009       -4.84900
| 10> H          3.89005       -1.05517       -5.64373
| 11> H          5.25193        1.30346       -2.72101
| 12> H          6.69516       -0.06232       -3.85160
| 13> H          5.97538       -1.39688       -4.69141
| 14> H          2.80646        1.98651       -4.26848
| 15> H          3.77871        3.09828       -3.30738
| 16> H          2.11090        0.81901       -2.18783
| 17> H          1.68276        2.51198       -2.12786
| 18> H          3.07216        1.93031       -1.24227
| 19> *
| 20>
| 21> %MaxCore 64000
| 22>
| 23> %pal nprocs 4
| 24> end
| 25>
| 26> %scf
| 27>   MaxIter 150
| 28> end
| 29>
| 30>
| 31>                          ****END OF INPUT****

CARTESIAN COORDINATES (ANGSTROEM)
---------------------------------
  C      3.380930    2.083040   -3.350130
  N      4.535920    1.182450   -3.428520
  C      2.495560    1.816150   -2.136360
  C      4.671960    0.122270   -4.220600
  N      5.866020   -0.507850   -4.224280
  N      3.698880   -0.312840   -4.986990
  H      2.731410   -0.050090   -4.849000
  H      3.890050   -1.055170   -5.643730
  H      5.251930    1.303460   -2.721010
  H      6.695160   -0.062320   -3.851600
  H      5.975380   -1.396880   -4.691410
  H      2.806460    1.986510   -4.268480
  H      3.778710    3.098280   -3.307380
  H      2.110900    0.819010   -2.187830
  H      1.682760    2.511980   -2.127860
  H      3.072160    1.930310   -1.242270

 Total Charge           Charge          ....    1
 Multiplicity           Mult            ....    1
 Number of Electrons    NEL             ....   48
 Basis Dimension        Dim             ....  246

ORBITAL ENERGIES
----------------

  NO   OCC          E(Eh)            E(eV)
   0   2.0000     -14.207362      -386.6020
   1   2.0000     -14.205464      -386.5503
   2   2.0000     -14.200076      -386.4037
   3   2.0000     -10.202370      -277.6206
   4   2.0000     -10.085841      -274.4497
   5   2.0000     -10.014713      -272.5142
   6   2.0000      -1.126992       -30.6670
   7   2.0000      -1.025114       -27.8948
   8   2.0000      -1.010769       -27.5044
   9   2.0000      -0.860591       -23.4179
  10   2.0000      -0.780678       -21.2433
  11   2.0000      -0.742690       -20.2096
  12   2.0000      -0.730837       -19.8871
  13   2.0000      -0.687477       -18.7072
  14   2.0000      -0.645584       -17.5672
  15   2.0000      -0.642134       -17.4734
  16   2.0000      -0.594370       -16.1736
  17   2.0000      -0.580411       -15.7938
  18   2.0000      -0.555732       -15.1222
  19   2.0000      -0.513447       -13.9716
  20   2.0000      -0.486169       -13.2293
  21   2.0000      -0.470511       -12.8032
  22   2.0000      -0.435460       -11.8495
  23   2.0000      -0.407765       -11.0959
  24   0.0000      -0.196310        -5.3419
  25   0.0000      -0.173623        -4.7245
  26   0.0000      -0.141408        -3.8479
  27   0.0000      -0.131310        -3.5731
  28   0.0000      -0.116820        -3.1788

MULLIKEN ATOMIC CHARGES
-----------------------
   0 C :   -0.189793
   1 N :   -0.211731
   2 C :   -0.307291
   3 C :    0.412955
   4 N :   -0.399164
   5 N :   -0.372664
   6 H :    0.283329
   7 H :    0.270804
   8 H :    0.245350
   9 H :    0.278626
  10 H :    0.272655
  11 H :    0.132546
  12 H :    0.165450
  13 H :    0.120401
  14 H :    0.160859
  15 H :    0.137667
Sum of atomic charges:    1.0000000

LOEWDIN ATOMIC CHARGES
----------------------
   0 C :   -0.283989
   1 N :    0.181136
   2 C :   -0.287270
   3 C :   -0.433556
   4 N :    0.059760
   5 N :    0.093249
   6 H :    0.197335
   7 H :    0.198604
   8 H :    0.208508
   9 H :    0.194010
  10 H :    0.191237
  11 H :    0.139886
  12 H :    0.151741
  13 H :    0.122374
  14 H :    0.138732
  15 H :    0.128243

  Mayer bond orders larger than 0.100000
B(  0-C ,  1-N ) :   0.9033 B(  0-C ,  2-C ) :   1.0105 B(  0-C , 11-H ) :   0.9561
B(  0-C , 12-H ) :   0.9448 B(  1-N ,  3-C ) :   1.3818 B(  1-N ,  8-H ) :   0.9003
B(  2-C , 13-H ) :   0.9536 B(  2-C , 14-H ) :   0.9580 B(  2-C , 15-H ) :   0.9644
B(  3-C ,  4-N ) :   1.3055 B(  3-C ,  5-N ) :   1.3591 B(  4-N ,  9-H ) :   0.8962
B(  4-N , 10-H ) :   0.8976 B(  5-N ,  6-H ) :   0.8896 B(  5-N ,  7-H ) :   0.8960

Dispersion correction           -0.012138605
FINAL SINGLE POINT ENERGY      -284.156598605138

DIPOLE MOMENT
-------------
                                X             Y             Z
Electronic contribution:      3.57268      -2.65295      -2.81467
Nuclear contribution   :     -2.93277       1.85779       2.25966
                        -----------------------------------------
Total Dipole Moment    :      0.63992      -0.79516      -0.55501
                        -----------------------------------------
Magnitude (a.u.)       :      1.16181
Magnitude (Debye)      :      2.95308

Rotational constants in cm-1:     0.245511     0.068839     0.059711
Rotational constants in MHz :  7360.233487  2063.743353  1790.088408

                             ****ORCA TERMINATED NORMALLY****
TOTAL RUN TIME: 0 days 0 hours 0 minutes 8 seconds 54 msec
