                         Program Version 5.0.0 -  RELEASE  -
|  1> !PBE D3BJ RIJCOSX def2-TZVP def2/J TightSCF
|  2> *xyz 0 1
|  3> C          2.49556        1.81615       -2.13636
|  4> C          1.87218        0.42790       -2.07750
|  5> H          2.61427       -0.36583       -2.19889
|  6> H          1.38995        0.27309       -1.11236
|  7> S          0.57902        0.14047       -3.29794
|  8> F          0.22886       -1.24687       -3.12787
|  9> O         -0.43927        1.11897       -3.01455
| 10> O          1.24788        0.40347       -4.59565
| 11> H          2.96535        1.95613       -3.08747
| 12> H          3.22581        1.91242       -1.36024
| 13> H          1.73350        2.55528       -2.00274
| 14> *
| 15>
| 16> %MaxCore 64000
| 17>
| 18> %pal nprocs 4
| 19> end
| 20>
| 21> %scf
| 22>   MaxIter 150
| 23> end
| 24>
| 25>
| 26>                          ****END OF INPUT****

CARTESIAN COORDINATES (ANGSTROEM)
---------------------------------
  C      2.495560    1.816150   -2.136360
  C      1.872180    0.427900   -2.077500
  H      2.614270   -0.365830   -2.198890
  H      1.389950    0.273090   -1.112360
  S      0.579020    0.140470   -3.297940
  F      0.228860   -1.246870   -3.127870
  O     -0.439270    1.118970   -3.014550
  O      1.247880    0.403470   -4.595650
  H      2.965350    1.956130   -3.087470
  H      3.225810    1.912420   -1.360240
  H      1.733500    2.555280   -2.002740

 Total Charge           Charge          ....    0
 Multiplicity           Mult            ....    1
 Number of Electrons    NEL             ....   58
 Basis Dimension        Dim             ....  222

ORBITAL ENERGIES
----------------

  NO   OCC          E(Eh)            E(eV)
   0   2.0000     -88.265413     -2401.8240
   1   2.0000     -24.373083      -663.2253
   2   2.0000     -18.759984      -510.4851
   3   2.0000     -18.745796      -510.0990
   4   2.0000      -9.936271      -270.3797
   5   2.0000      -9.893909      -269.2270
   6   2.0000      -7.861130      -213.9122
   7   2.0000      -5.885407      -160.1501
   8   2.0000      -5.878877      -159.9724
   9   2.0000      -5.878766      -159.9694
  10   2.0000      -1.277128       -34.7524
  11   2.0000      -1.013520       -27.5793
  12   2.0000      -0.916155       -24.9298
  13   2.0000      -0.744815       -20.2674
  14   2.0000      -0.667409       -18.1611
  15   2.0000      -0.607987       -16.5442
  16   2.0000      -0.522400       -14.2152
  17   2.0000      -0.520092       -14.1524
  18   2.0000      -0.494975       -13.4689
  19   2.0000      -0.440797       -11.9947
  20   2.0000      -0.427843       -11.6422
  21   2.0000      -0.390569       -10.6279
  22   2.0000      -0.381461       -10.3801
  23   2.0000      -0.362088        -9.8529
  24   2.0000      -0.341022        -9.2797
  25   2.0000      -0.335806        -9.1377
  26   2.0000      -0.288397        -7.8477
  27   2.0000      -0.275072        -7.4851
  28   2.0000      -0.256873        -6.9899
  29   0.0000      -0.011778        -0.3205
  30   0.0000       0.009562         0.2602
  31   0.0000       0.033270         0.9053
  32   0.0000       0.042143         1.1468
  33   0.0000       0.048879         1.3301

MULLIKEN ATOMIC CHARGES
-----------------------
   0 C :   -0.352031
   1 C :   -0.231151
   2 H :    0.131983
   3 H :    0.127439
   4 S :    0.708549
   5 F :   -0.053466
   6 O :   -0.348089
   7 O :   -0.396067
   8 H :    0.143939
   9 H :    0.126741
  10 H :    0.142154
Sum of atomic charges:    0.0000000

LOEWDIN ATOMIC CHARGES
----------------------
   0 C :   -0.309142
   1 C :   -0.409928
   2 H :    0.135847
   3 H :    0.135990
   4 S :    0.460270
   5 F :    0.117932
   6 O :   -0.231528
   7 O :   -0.282474
   8 H :    0.128315
   9 H :    0.126500
  10 H :    0.128219

  Mayer bond orders larger than 0.100000
B(  0-C ,  1-C ) :   1.0058 B(  0-C ,  8-H ) :   0.9633 B(  0-C ,  9-H ) :   0.9500
B(  0-C , 10-H ) :   0.9641 B(  1-C ,  2-H ) :   0.9268 B(  1-C ,  3-H ) :   0.9261
B(  1-C ,  4-S ) :   0.9065 B(  4-S ,  5-F ) :   1.1785 B(  4-S ,  6-O ) :   1.9654
B(  4-S ,  7-O ) :   1.9145

Dispersion correction           -0.009283985
FINAL SINGLE POINT ENERGY      -727.316988329963

DIPOLE MOMENT
-------------
                                X             Y             Z
Electronic contribution:     -6.88084      -6.39183      -4.17773
Nuclear contribution   :      7.60530       5.82028       5.38743
                        -----------------------------------------
Total Dipole Moment    :      0.72445      -0.57156       1.20971
                        -----------------------------------------
Magnitude (a.u.)       :      1.52148
Magnitude (Debye)      :      3.86729

Rotational constants in cm-1:     0.157861     0.081452     0.078859
Rotational constants in MHz :  4732.562506  2441.865430  2364.129821

                             ****ORCA TERMINATED NORMALLY****
TOTAL RUN TIME: 0 days 0 hours 0 minutes 7 seconds 50 msec
