                         Program Version 5.0.0 -  RELEASE  -
|  1> !PBE D3BJ RIJCOSX def2-TZVP def2/J TightSCF
|  2> *xyz 0 1
|  3> C          3.38093        2.08304       -3.35013
|  4> C          4.53592        1.18245       -3.42852
|  5> C          2.49556        1.81615       -2.13636
|  6> C          4.67196        0.12227       -4.22060
|  7> N          5.86602       -0.50785       -4.22428
|  8> N          3.69888       -0.31284       -4.98699
|  9> H          2.73141       -0.05009       -4.84900
| 10> H          3.89005       -1.05517       -5.64373
| 11> H          5.25193        1.30346       -2.72101
| 12> H          6.69516       -0.06232       -3.85160
| 13> H          5.97538       -1.39688       -4.69141
| 14> H          2.80646        1.98651       -4.26848
| 15> H          3.77871        3.09828       -3.30738
| 16> H          2.11090        0.81901       -2.18783
| 17> H          1.68276        2.51198       -2.12786
| 18> H          3.07216        1.93031       -1.24227
| 19> *
| 20>
| 21> %MaxCore 64000
| 22>
| 23> %pal nprocs 4
| 24> end
| 25>
| 26> %scf
| 27>   MaxIter 150
| 28> end
| 29>
| 30>
| 31>                          ****END OF INPUT****

CARTESIAN COORDINATES (ANGSTROEM)
---------------------------------
  C      3.380930    2.083040   -3.350130
  C      4.535920    1.182450   -3.428520
  C      2.495560    1.816150   -2.136360
  C      4.671960    0.122270   -4.220600
  N      5.866020   -0.507850   -4.224280
  N      3.698880   -0.312840   -4.986990
  H      2.731410   -0.050090   -4.849000
  H      3.890050   -1.055170   -5.643730
  H      5.251930    1.303460   -2.721010
  H      6.695160   -0.062320   -3.851600
  H      5.975380   -1.396880   -4.691410
  H      2.806460    1.986510   -4.268480
  H      3.778710    3.098280   -3.307380
  H      2.110900    0.819010   -2.187830
  H      1.682760    2.511980   -2.127860
  H      3.072160    1.930310   -1.242270

 Total Charge           Charge          ....    0
 Multiplicity           Mult            ....    1
 Number of Electrons    NEL             ....   48
 Basis Dimension        Dim             ....  246

ORBITAL ENERGIES
----------------

  NO   OCC          E(Eh)            E(eV)
   0   2.0000     -13.985140      -380.5550
   1   2.0000     -13.977728      -380.3533
   2   2.0000      -9.915667      -269.8190
   3   2.0000      -9.852170      -268.0912
   4   2.0000      -9.841773      -267.8083
   5   2.0000      -9.800749      -266.6919
   6   2.0000      -0.877080       -23.8666
   7   2.0000      -0.791564       -21.5395
   8   2.0000      -0.695131       -18.9155
   9   2.0000      -0.624193       -16.9851
  10   2.0000      -0.554521       -15.0893
  11   2.0000      -0.519267       -14.1300
  12   2.0000      -0.490635       -13.3509
  13   2.0000      -0.452402       -12.3105
  14   2.0000      -0.430456       -11.7133
  15   2.0000      -0.390901       -10.6369
  16   2.0000      -0.365392        -9.9428
  17   2.0000      -0.343405        -9.3445
  18   2.0000      -0.329069        -8.9544
  19   2.0000      -0.305423        -8.3110
  20   2.0000      -0.281386        -7.6569
  21   2.0000      -0.275399        -7.4940
  22   2.0000      -0.219725        -5.9790
  23   2.0000      -0.124804        -3.3961
  24   0.0000      -0.001490        -0.0406
  25   0.0000       0.025691         0.6991
  26   0.0000       0.045726         1.2443
  27   0.0000       0.052444         1.4271
  28   0.0000       0.067500         1.8368

MULLIKEN ATOMIC CHARGES
-----------------------
   0 C :   -0.183097
   1 C :   -0.333159
   2 C :   -0.282129
   3 C :    0.329137
   4 N :   -0.453434
   5 N :   -0.443506
   6 H :    0.235986
   7 H :    0.203995
   8 H :    0.074856
   9 H :    0.231898
  10 H :    0.198688
  11 H :    0.057274
  12 H :    0.083813
  13 H :    0.088855
  14 H :    0.094857
  15 H :    0.095967
Sum of atomic charges:   -0.0000000

LOEWDIN ATOMIC CHARGES
----------------------
   0 C :   -0.310732
   1 C :   -0.274909
   2 C :   -0.311225
   3 C :   -0.478992
   4 N :   -0.017812
   5 N :    0.012348
   6 H :    0.174688
   7 H :    0.161424
   8 H :    0.119878
   9 H :    0.172419
  10 H :    0.152516
  11 H :    0.128138
  12 H :    0.137941
  13 H :    0.111197
  14 H :    0.108494
  15 H :    0.114628

  Mayer bond orders larger than 0.100000
B(  0-C ,  1-C ) :   1.0851 B(  0-C ,  2-C ) :   0.9830 B(  0-C , 11-H ) :   0.9525
B(  0-C , 12-H ) :   0.9573 B(  1-C ,  3-C ) :   1.6532 B(  1-C ,  8-H ) :   0.9799
B(  2-C , 13-H ) :   0.9723 B(  2-C , 14-H ) :   0.9618 B(  2-C , 15-H ) :   0.9743
B(  3-C ,  4-N ) :   1.1267 B(  3-C ,  5-N ) :   1.1524 B(  4-N ,  9-H ) :   0.9173
B(  4-N , 10-H ) :   0.9222 B(  5-N ,  6-H ) :   0.9159 B(  5-N ,  7-H ) :   0.9201

Dispersion correction           -0.012599318
FINAL SINGLE POINT ENERGY      -267.674550040341

DIPOLE MOMENT
-------------
                                X             Y             Z
Electronic contribution:      3.04261      -2.87204      -2.95472
Nuclear contribution   :     -2.84307       1.95814       2.32378
                        -----------------------------------------
Total Dipole Moment    :      0.19954      -0.91390      -0.63094
                        -----------------------------------------
Magnitude (a.u.)       :      1.12832
Magnitude (Debye)      :      2.86797

Rotational constants in cm-1:     0.248902     0.068887     0.059904
Rotational constants in MHz :  7461.898926  2065.183281  1795.882140

                             ****ORCA TERMINATED NORMALLY****
TOTAL RUN TIME: 0 days 0 hours 0 minutes 8 seconds 556 msec
