                         Program Version 5.0.0 -  RELEASE  -
|  1> !PBE D3BJ RIJCOSX def2-TZVP def2/J TightSCF
|  2> *xyz 0 1
|  3> C          2.49556        1.81615       -2.13636
|  4> C          1.87218        0.42790       -2.07750
|  5> H          2.61427       -0.36583       -2.19889
|  6> H          1.38995        0.27309       -1.11236
|  7> S          0.57902        0.14047       -3.29794
|  8> O          0.22886       -1.24687       -3.12787
|  9> F         -0.43927        1.11897       -3.01455
| 10> O          1.24788        0.40347       -4.59565
| 11> H          2.96535        1.95613       -3.08747
| 12> H          3.22581        1.91242       -1.36024
| 13> H          1.73350        2.55528       -2.00274
| 14> *
| 15>
| 16> %MaxCore 64000
| 17>
| 18> %pal nprocs 4
| 19> end
| 20>
| 21> %scf
| 22>   MaxIter 150
| 23> end
| 24>
| 25>
| 26>                          ****END OF INPUT****

CARTESIAN COORDINATES (ANGSTROEM)
---------------------------------
  C      2.495560    1.816150   -2.136360
  C      1.872180    0.427900   -2.077500
  H      2.614270   -0.365830   -2.198890
  H      1.389950    0.273090   -1.112360
  S      0.579020    0.140470   -3.297940
  O      0.228860   -1.246870   -3.127870
  F     -0.439270    1.118970   -3.014550
  O      1.247880    0.403470   -4.595650
  H      2.965350    1.956130   -3.087470
  H      3.225810    1.912420   -1.360240
  H      1.733500    2.555280   -2.002740

 Total Charge           Charge          ....    0
 Multiplicity           Mult            ....    1
 Number of Electrons    NEL             ....   58
 Basis Dimension        Dim             ....  222

ORBITAL ENERGIES
----------------

  NO   OCC          E(Eh)            E(eV)
   0   2.0000     -88.265700     -2401.8318
   1   2.0000     -24.373233      -663.2294
   2   2.0000     -18.760518      -510.4997
   3   2.0000     -18.746720      -510.1242
   4   2.0000      -9.936207      -270.3779
   5   2.0000      -9.896367      -269.2938
   6   2.0000      -7.861383      -213.9191
   7   2.0000      -5.885802      -160.1608
   8   2.0000      -5.879127      -159.9792
   9   2.0000      -5.878904      -159.9731
  10   2.0000      -1.277690       -34.7677
  11   2.0000      -1.013181       -27.5701
  12   2.0000      -0.917300       -24.9610
  13   2.0000      -0.747559       -20.3421
  14   2.0000      -0.664097       -18.0710
  15   2.0000      -0.611825       -16.6486
  16   2.0000      -0.531834       -14.4719
  17   2.0000      -0.519226       -14.1289
  18   2.0000      -0.489160       -13.3107
  19   2.0000      -0.440936       -11.9985
  20   2.0000      -0.425069       -11.5667
  21   2.0000      -0.400424       -10.8961
  22   2.0000      -0.383616       -10.4387
  23   2.0000      -0.360903        -9.8207
  24   2.0000      -0.350702        -9.5431
  25   2.0000      -0.330382        -8.9902
  26   2.0000      -0.287893        -7.8340
  27   2.0000      -0.275382        -7.4935
  28   2.0000      -0.259097        -7.0504
  29   0.0000      -0.017073        -0.4646
  30   0.0000       0.015528         0.4225
  31   0.0000       0.024169         0.6577
  32   0.0000       0.043952         1.1960
  33   0.0000       0.054160         1.4738

MULLIKEN ATOMIC CHARGES
-----------------------
   0 C :   -0.348633
   1 C :   -0.242404
   2 H :    0.155352
   3 H :    0.129410
   4 S :    0.709238
   5 O :   -0.344078
   6 F :   -0.056059
   7 O :   -0.396908
   8 H :    0.148267
   9 H :    0.126933
  10 H :    0.118883
Sum of atomic charges:    0.0000000

LOEWDIN ATOMIC CHARGES
----------------------
   0 C :   -0.323092
   1 C :   -0.404341
   2 H :    0.149865
   3 H :    0.136110
   4 S :    0.461514
   5 O :   -0.230916
   6 F :    0.119132
   7 O :   -0.281528
   8 H :    0.127524
   9 H :    0.125611
  10 H :    0.120119

  Mayer bond orders larger than 0.100000
B(  0-C ,  1-C ) :   0.9884 B(  0-C ,  8-H ) :   0.9613 B(  0-C ,  9-H ) :   0.9524
B(  0-C , 10-H ) :   0.9663 B(  1-C ,  2-H ) :   0.9351 B(  1-C ,  3-H ) :   0.9333
B(  1-C ,  4-S ) :   0.8995 B(  4-S ,  5-O ) :   1.9922 B(  4-S ,  6-F ) :   1.1670
B(  4-S ,  7-O ) :   1.9096

Dispersion correction           -0.009238299
FINAL SINGLE POINT ENERGY      -727.317016988896

DIPOLE MOMENT
-------------
                                X             Y             Z
Electronic contribution:     -7.98390      -2.46572      -3.98516
Nuclear contribution   :      8.30151       3.35500       5.26935
                        -----------------------------------------
Total Dipole Moment    :      0.31761       0.88928       1.28420
                        -----------------------------------------
Magnitude (a.u.)       :      1.59401
Magnitude (Debye)      :      4.05165

Rotational constants in cm-1:     0.152913     0.083043     0.080351
Rotational constants in MHz :  4584.227971  2489.580280  2408.872860

                             ****ORCA TERMINATED NORMALLY****
TOTAL RUN TIME: 0 days 0 hours 0 minutes 7 seconds 20 msec
