                         Program Version 5.0.0 -  RELEASE  -
|  1> !PBE D3BJ RIJCOSX def2-TZVP def2/J TightSCF
|  2> *xyz 0 1
|  3> C          3.38093        2.08304       -3.35013
|  4> N          4.53592        1.18245       -3.42852
|  5> C          2.49556        1.81615       -2.13636
|  6> C          4.67196        0.12227       -4.22060
|  7> C          5.86602       -0.50785       -4.22428
|  8> N          3.69888       -0.31284       -4.98699
|  9> H          2.73141       -0.05009       -4.84900
| 10> H          3.89005       -1.05517       -5.64373
| 11> H          5.25193        1.30346       -2.72101
| 12> H          6.69516       -0.06232       -3.85160
| 13> H          5.97538       -1.39688       -4.69141
| 14> H          2.80646        1.98651       -4.26848
| 15> H          3.77871        3.09828       -3.30738
| 16> H          2.11090        0.81901       -2.18783
| 17> H          1.68276        2.51198       -2.12786
| 18> H          3.07216        1.93031       -1.24227
| 19> *
| 20>
| 21> %MaxCore 64000
| 22>
| 23> %pal nprocs 4
| 24> end
| 25>
| 26> %scf
| 27>   MaxIter 150
| 28> end
| 29>
| 30>
| 31>                          ****END OF INPUT****

CARTESIAN COORDINATES (ANGSTROEM)
---------------------------------
  C      3.380930    2.083040   -3.350130
  N      4.535920    1.182450   -3.428520
  C      2.495560    1.816150   -2.136360
  C      4.671960    0.122270   -4.220600
  C      5.866020   -0.507850   -4.224280
  N      3.698880   -0.312840   -4.986990
  H      2.731410   -0.050090   -4.849000
  H      3.890050   -1.055170   -5.643730
  H      5.251930    1.303460   -2.721010
  H      6.695160   -0.062320   -3.851600
  H      5.975380   -1.396880   -4.691410
  H      2.806460    1.986510   -4.268480
  H      3.778710    3.098280   -3.307380
  H      2.110900    0.819010   -2.187830
  H      1.682760    2.511980   -2.127860
  H      3.072160    1.930310   -1.242270

 Total Charge           Charge          ....    0
 Multiplicity           Mult            ....    1
 Number of Electrons    NEL             ....   48
 Basis Dimension        Dim             ....  246

ORBITAL ENERGIES
----------------

  NO   OCC          E(Eh)            E(eV)
   0   2.0000     -13.985043      -380.5524
   1   2.0000     -13.985000      -380.5512
   2   2.0000      -9.919708      -269.9290
   3   2.0000      -9.919194      -269.9150
   4   2.0000      -9.871914      -268.6284
   5   2.0000      -9.788546      -266.3599
   6   2.0000      -0.884498       -24.0684
   7   2.0000      -0.809617       -22.0308
   8   2.0000      -0.700035       -19.0489
   9   2.0000      -0.627944       -17.0872
  10   2.0000      -0.565040       -15.3755
  11   2.0000      -0.545683       -14.8488
  12   2.0000      -0.490330       -13.3426
  13   2.0000      -0.447234       -12.1698
  14   2.0000      -0.431937       -11.7536
  15   2.0000      -0.397889       -10.8271
  16   2.0000      -0.380420       -10.3517
  17   2.0000      -0.354839        -9.6557
  18   2.0000      -0.341101        -9.2818
  19   2.0000      -0.324535        -8.8311
  20   2.0000      -0.318588        -8.6692
  21   2.0000      -0.306869        -8.3503
  22   2.0000      -0.211616        -5.7584
  23   2.0000      -0.125687        -3.4201
  24   0.0000      -0.002002        -0.0545
  25   0.0000       0.028352         0.7715
  26   0.0000       0.037801         1.0286
  27   0.0000       0.053538         1.4569
  28   0.0000       0.062329         1.6961

MULLIKEN ATOMIC CHARGES
-----------------------
   0 C :   -0.161806
   1 N :   -0.258779
   2 C :   -0.285641
   3 C :    0.383893
   4 C :   -0.583037
   5 N :   -0.449036
   6 H :    0.209141
   7 H :    0.231619
   8 H :    0.208541
   9 H :    0.094732
  10 H :    0.083174
  11 H :    0.101193
  12 H :    0.109657
  13 H :    0.106898
  14 H :    0.104959
  15 H :    0.104491
Sum of atomic charges:   -0.0000000

LOEWDIN ATOMIC CHARGES
----------------------
   0 C :   -0.317386
   1 N :    0.133505
   2 C :   -0.313492
   3 C :   -0.484286
   4 C :   -0.358060
   5 N :    0.016038
   6 H :    0.157900
   7 H :    0.178812
   8 H :    0.192701
   9 H :    0.094293
  10 H :    0.092370
  11 H :    0.129109
  12 H :    0.129946
  13 H :    0.115381
  14 H :    0.117076
  15 H :    0.116094

  Mayer bond orders larger than 0.100000
B(  0-C ,  1-N ) :   0.9643 B(  0-C ,  2-C ) :   0.9894 B(  0-C , 11-H ) :   0.9617
B(  0-C , 12-H ) :   0.9614 B(  1-N ,  3-C ) :   1.2106 B(  1-N ,  8-H ) :   0.9198
B(  2-C , 13-H ) :   0.9662 B(  2-C , 14-H ) :   0.9592 B(  2-C , 15-H ) :   0.9689
B(  3-C ,  4-C ) :   1.5460 B(  3-C ,  5-N ) :   1.1759 B(  4-C ,  9-H ) :   0.9946
B(  4-C , 10-H ) :   0.9923 B(  5-N ,  6-H ) :   0.9144 B(  5-N ,  7-H ) :   0.9169

Dispersion correction           -0.012481133
FINAL SINGLE POINT ENERGY      -267.664574988887

DIPOLE MOMENT
-------------
                                X             Y             Z
Electronic contribution:      1.51787      -1.12170      -2.06332
Nuclear contribution   :     -2.56090       1.59955       2.15496
                        -----------------------------------------
Total Dipole Moment    :     -1.04304       0.47785       0.09164
                        -----------------------------------------
Magnitude (a.u.)       :      1.15094
Magnitude (Debye)      :      2.92546

Rotational constants in cm-1:     0.249834     0.071381     0.061833
Rotational constants in MHz :  7489.842787  2139.945635  1853.706310

                             ****ORCA TERMINATED NORMALLY****
TOTAL RUN TIME: 0 days 0 hours 0 minutes 8 seconds 770 msec
