                         Program Version 5.0.0 -  RELEASE  -
|  1> !PBE D3BJ RIJCOSX def2-TZVP def2/J TightSCF
|  2> *xyz 0 1
|  3> C          2.49556        1.81615       -2.13636
|  4> C          1.87218        0.42790       -2.07750
|  5> H          2.61427       -0.36583       -2.19889
|  6> H          1.38995        0.27309       -1.11236
|  7> S          0.57902        0.14047       -3.29794
|  8> O          0.22886       -1.24687       -3.12787
|  9> O         -0.43927        1.11897       -3.01455
| 10> F          1.24788        0.40347       -4.59565
| 11> H          2.96535        1.95613       -3.08747
| 12> H          3.22581        1.91242       -1.36024
| 13> H          1.73350        2.55528       -2.00274
| 14> *
| 15>
| 16> %MaxCore 64000
| 17>
| 18> %pal nprocs 4
| 19> end
| 20>
| 21> %scf
| 22>   MaxIter 150
| 23> end
| 24>
| 25>
| 26>                          ****END OF INPUT****

CARTESIAN COORDINATES (ANGSTROEM)
---------------------------------
  C      2.495560    1.816150   -2.136360
  C      1.872180    0.427900   -2.077500
  H      2.614270   -0.365830   -2.198890
  H      1.389950    0.273090   -1.112360
  S      0.579020    0.140470   -3.297940
  O      0.228860   -1.246870   -3.127870
  O     -0.439270    1.118970   -3.014550
  F      1.247880    0.403470   -4.595650
  H      2.965350    1.956130   -3.087470
  H      3.225810    1.912420   -1.360240
  H      1.733500    2.555280   -2.002740

 Total Charge           Charge          ....    0
 Multiplicity           Mult            ....    1
 Number of Electrons    NEL             ....   58
 Basis Dimension        Dim             ....  222

ORBITAL ENERGIES
----------------

  NO   OCC          E(Eh)            E(eV)
   0   2.0000     -88.263163     -2401.7628
   1   2.0000     -24.351358      -662.6341
   2   2.0000     -18.760500      -510.4992
   3   2.0000     -18.760174      -510.4903
   4   2.0000      -9.935259      -270.3521
   5   2.0000      -9.896961      -269.3100
   6   2.0000      -7.858999      -213.8542
   7   2.0000      -5.883435      -160.0964
   8   2.0000      -5.876879      -159.9180
   9   2.0000      -5.876472      -159.9069
  10   2.0000      -1.242601       -33.8129
  11   2.0000      -1.023493       -27.8507
  12   2.0000      -0.937593       -25.5132
  13   2.0000      -0.747021       -20.3275
  14   2.0000      -0.651007       -17.7148
  15   2.0000      -0.605461       -16.4754
  16   2.0000      -0.516427       -14.0527
  17   2.0000      -0.495364       -13.4795
  18   2.0000      -0.485676       -13.2159
  19   2.0000      -0.441663       -12.0183
  20   2.0000      -0.421372       -11.4661
  21   2.0000      -0.402839       -10.9618
  22   2.0000      -0.387286       -10.5386
  23   2.0000      -0.361636        -9.8406
  24   2.0000      -0.355408        -9.6711
  25   2.0000      -0.333577        -9.0771
  26   2.0000      -0.294477        -8.0131
  27   2.0000      -0.287124        -7.8130
  28   2.0000      -0.274331        -7.4649
  29   0.0000      -0.015130        -0.4117
  30   0.0000       0.019973         0.5435
  31   0.0000       0.028027         0.7626
  32   0.0000       0.048620         1.3230
  33   0.0000       0.052331         1.4240

MULLIKEN ATOMIC CHARGES
-----------------------
   0 C :   -0.353716
   1 C :   -0.244087
   2 H :    0.138914
   3 H :    0.147879
   4 S :    0.716066
   5 O :   -0.352353
   6 O :   -0.358189
   7 F :   -0.091012
   8 H :    0.123399
   9 H :    0.127825
  10 H :    0.145273
Sum of atomic charges:   -0.0000000

LOEWDIN ATOMIC CHARGES
----------------------
   0 C :   -0.323805
   1 C :   -0.403701
   2 H :    0.138050
   3 H :    0.149092
   4 S :    0.469103
   5 O :   -0.234695
   6 O :   -0.234748
   7 F :    0.067381
   8 H :    0.120519
   9 H :    0.125962
  10 H :    0.126842

  Mayer bond orders larger than 0.100000
B(  0-C ,  1-C ) :   0.9882 B(  0-C ,  8-H ) :   0.9663 B(  0-C ,  9-H ) :   0.9533
B(  0-C , 10-H ) :   0.9622 B(  1-C ,  2-H ) :   0.9337 B(  1-C ,  3-H ) :   0.9353
B(  1-C ,  4-S ) :   0.9001 B(  4-S ,  5-O ) :   1.9915 B(  4-S ,  6-O ) :   1.9600
B(  4-S ,  7-F ) :   1.1255

Dispersion correction           -0.009235838
FINAL SINGLE POINT ENERGY      -727.334918621622

DIPOLE MOMENT
-------------
                                X             Y             Z
Electronic contribution:     -5.17272      -3.64617      -6.61710
Nuclear contribution   :      6.54345       4.10057       6.91691
                        -----------------------------------------
Total Dipole Moment    :      1.37073       0.45441       0.29980
                        -----------------------------------------
Magnitude (a.u.)       :      1.47488
Magnitude (Debye)      :      3.74885

Rotational constants in cm-1:     0.152835     0.082826     0.080611
Rotational constants in MHz :  4581.878371  2483.049050  2416.647141

                             ****ORCA TERMINATED NORMALLY****
TOTAL RUN TIME: 0 days 0 hours 0 minutes 6 seconds 725 msec
