                         Program Version 5.0.0 -  RELEASE  -
|  1> !PBE D3BJ RIJCOSX def2-TZVP def2/J TightSCF
|  2> *xyz 0 1
|  3> C          3.38093        2.08304       -3.35013
|  4> N          4.53592        1.18245       -3.42852
|  5> C          2.49556        1.81615       -2.13636
|  6> C          4.67196        0.12227       -4.22060
|  7> N          5.86602       -0.50785       -4.22428
|  8> C          3.69888       -0.31284       -4.98699
|  9> H          2.73141       -0.05009       -4.84900
| 10> H          3.89005       -1.05517       -5.64373
| 11> H          5.25193        1.30346       -2.72101
| 12> H          6.69516       -0.06232       -3.85160
| 13> H          5.97538       -1.39688       -4.69141
| 14> H          2.80646        1.98651       -4.26848
| 15> H          3.77871        3.09828       -3.30738
| 16> H          2.11090        0.81901       -2.18783
| 17> H          1.68276        2.51198       -2.12786
| 18> H          3.07216        1.93031       -1.24227
| 19> *
| 20>
| 21> %MaxCore 64000
| 22>
| 23> %pal nprocs 4
| 24> end
| 25>
| 26> %scf
| 27>   MaxIter 150
| 28> end
| 29>
| 30>
| 31>                          ****END OF INPUT****

CARTESIAN COORDINATES (ANGSTROEM)
---------------------------------
  C      3.380930    2.083040   -3.350130
  N      4.535920    1.182450   -3.428520
  C      2.495560    1.816150   -2.136360
  C      4.671960    0.122270   -4.220600
  N      5.866020   -0.507850   -4.224280
  C      3.698880   -0.312840   -4.986990
  H      2.731410   -0.050090   -4.849000
  H      3.890050   -1.055170   -5.643730
  H      5.251930    1.303460   -2.721010
  H      6.695160   -0.062320   -3.851600
  H      5.975380   -1.396880   -4.691410
  H      2.806460    1.986510   -4.268480
  H      3.778710    3.098280   -3.307380
  H      2.110900    0.819010   -2.187830
  H      1.682760    2.511980   -2.127860
  H      3.072160    1.930310   -1.242270

 Total Charge           Charge          ....    0
 Multiplicity           Mult            ....    1
 Number of Electrons    NEL             ....   48
 Basis Dimension        Dim             ....  246

ORBITAL ENERGIES
----------------

  NO   OCC          E(Eh)            E(eV)
   0   2.0000     -13.984852      -380.5472
   1   2.0000     -13.978455      -380.3731
   2   2.0000      -9.916857      -269.8514
   3   2.0000      -9.911120      -269.6953
   4   2.0000      -9.864540      -268.4278
   5   2.0000      -9.790897      -266.4238
   6   2.0000      -0.878207       -23.8972
   7   2.0000      -0.800543       -21.7839
   8   2.0000      -0.685901       -18.6643
   9   2.0000      -0.640412       -17.4265
  10   2.0000      -0.576628       -15.6908
  11   2.0000      -0.508058       -13.8250
  12   2.0000      -0.490558       -13.3487
  13   2.0000      -0.462205       -12.5772
  14   2.0000      -0.410619       -11.1735
  15   2.0000      -0.398976       -10.8567
  16   2.0000      -0.371599       -10.1117
  17   2.0000      -0.353674        -9.6239
  18   2.0000      -0.332941        -9.0598
  19   2.0000      -0.330554        -8.9948
  20   2.0000      -0.309134        -8.4120
  21   2.0000      -0.303483        -8.2582
  22   2.0000      -0.203842        -5.5468
  23   2.0000      -0.136354        -3.7104
  24   0.0000       0.003772         0.1026
  25   0.0000       0.027438         0.7466
  26   0.0000       0.044616         1.2141
  27   0.0000       0.054810         1.4915
  28   0.0000       0.069494         1.8910

MULLIKEN ATOMIC CHARGES
-----------------------
   0 C :   -0.109300
   1 N :   -0.278018
   2 C :   -0.318869
   3 C :    0.387691
   4 N :   -0.472509
   5 C :   -0.553719
   6 H :    0.100725
   7 H :    0.076919
   8 H :    0.176383
   9 H :    0.204121
  10 H :    0.230872
  11 H :    0.122199
  12 H :    0.101596
  13 H :    0.128602
  14 H :    0.106738
  15 H :    0.096567
Sum of atomic charges:    0.0000000

LOEWDIN ATOMIC CHARGES
----------------------
   0 C :   -0.299944
   1 N :    0.127211
   2 C :   -0.311836
   3 C :   -0.479725
   4 N :   -0.016035
   5 C :   -0.336742
   6 H :    0.099325
   7 H :    0.099165
   8 H :    0.173750
   9 H :    0.154002
  10 H :    0.171004
  11 H :    0.139196
  12 H :    0.128140
  13 H :    0.121359
  14 H :    0.118055
  15 H :    0.113075

  Mayer bond orders larger than 0.100000
B(  0-C ,  1-N ) :   0.9413 B(  0-C ,  2-C ) :   0.9952 B(  0-C , 11-H ) :   0.9505
B(  0-C , 12-H ) :   0.9630 B(  1-N ,  3-C ) :   1.1799 B(  1-N ,  8-H ) :   0.9221
B(  2-C , 13-H ) :   0.9711 B(  2-C , 14-H ) :   0.9614 B(  2-C , 15-H ) :   0.9692
B(  3-C ,  4-N ) :   1.1167 B(  3-C ,  5-C ) :   1.6216 B(  4-N ,  9-H ) :   0.9199
B(  4-N , 10-H ) :   0.9201 B(  5-C ,  6-H ) :   0.9840 B(  5-C ,  7-H ) :   0.9932

Dispersion correction           -0.012543954
FINAL SINGLE POINT ENERGY      -267.668488008011

DIPOLE MOMENT
-------------
                                X             Y             Z
Electronic contribution:      3.73707      -1.33424      -1.33539
Nuclear contribution   :     -3.02065       1.64092       1.99316
                        -----------------------------------------
Total Dipole Moment    :      0.71642       0.30668       0.65777
                        -----------------------------------------
Magnitude (a.u.)       :      1.01979
Magnitude (Debye)      :      2.59210

Rotational constants in cm-1:     0.259304     0.069422     0.060943
Rotational constants in MHz :  7773.747720  2081.225169  1827.013389

                             ****ORCA TERMINATED NORMALLY****
TOTAL RUN TIME: 0 days 0 hours 0 minutes 8 seconds 801 msec
