                         Program Version 5.0.0 -  RELEASE  -
|  1> !PBE D3BJ RIJCOSX def2-TZVP def2/J TightSCF xyzfile
|  2>
|  3> *xyzfile 0 1 D2.xyz
|  4>
|  5> %MaxCore 64000
|  6>
|  7> %pal nprocs 18
|  8> end
|  9>
| 10> %scf
| 11>   MaxIter 150
| 12> end
| 13>
| 14>
| 15>                          ****END OF INPUT****

CARTESIAN COORDINATES (ANGSTROEM)
---------------------------------
  C      3.380928    2.083045   -3.350127
  N      4.535924    1.182447   -3.428518
  C      2.495557    1.816150   -2.136364
  C      1.872181    0.427903   -2.077497
  H      2.614270   -0.365825   -2.198894
  H      1.389953    0.273087   -1.112360
  S      0.579024    0.140472   -3.297943
  C      4.671956    0.122273   -4.220598
  C      5.866023   -0.507849   -4.224284
  N      3.698881   -0.312844   -4.986988
  H      2.731405   -0.050091   -4.849000
  H      3.890046   -1.055172   -5.643730
  H      5.251933    1.303459   -2.721014
  H      6.695165   -0.062322   -3.851596
  H      5.975383   -1.396884   -4.691414
  F      0.228860   -1.246868   -3.127871
  O     -0.439269    1.118966   -3.014550
  O      1.247881    0.403474   -4.595647
  H      1.697003    2.561969   -2.141109
  H      3.080787    1.987436   -1.225838
  H      2.806463    1.986511   -4.268484
  H      3.778714    3.098282   -3.307383

 Total Charge           Charge          ....    0
 Multiplicity           Mult            ....    1
 Number of Electrons    NEL             ....   96
 Basis Dimension        Dim             ....  413

ORBITAL ENERGIES
----------------

  NO   OCC          E(Eh)            E(eV)
   0   2.0000     -88.289277     -2402.4734
   1   2.0000     -24.391818      -663.7351
   2   2.0000     -18.781040      -511.0581
   3   2.0000     -18.776623      -510.9379
   4   2.0000     -13.985775      -380.5723
   5   2.0000     -13.956534      -379.7766
   6   2.0000      -9.947311      -270.6801
   7   2.0000      -9.921765      -269.9849
   8   2.0000      -9.916099      -269.8308
   9   2.0000      -9.911942      -269.7176
  10   2.0000      -9.781963      -266.1808
  11   2.0000      -7.885084      -214.5640
  12   2.0000      -5.909287      -160.7999
  13   2.0000      -5.903148      -160.6328
  14   2.0000      -5.902495      -160.6151
  15   2.0000      -1.295919       -35.2637
  16   2.0000      -1.039132       -28.2762
  17   2.0000      -0.948448       -25.8086
  18   2.0000      -0.878035       -23.8926
  19   2.0000      -0.802083       -21.8258
  20   2.0000      -0.760303       -20.6889
  21   2.0000      -0.700364       -19.0579
  22   2.0000      -0.658701       -17.9242
  23   2.0000      -0.619510       -16.8577
  24   2.0000      -0.573644       -15.6097
  25   2.0000      -0.541909       -14.7461
  26   2.0000      -0.539246       -14.6736
  27   2.0000      -0.532698       -14.4955
  28   2.0000      -0.522346       -14.2138
  29   2.0000      -0.488203       -13.2847
  30   2.0000      -0.455417       -12.3925
  31   2.0000      -0.439870       -11.9695
  32   2.0000      -0.436741       -11.8843
  33   2.0000      -0.431558       -11.7433
  34   2.0000      -0.413096       -11.2409
  35   2.0000      -0.397687       -10.8216
  36   2.0000      -0.368942       -10.0394
  37   2.0000      -0.360878        -9.8200
  38   2.0000      -0.359345        -9.7783
  39   2.0000      -0.341060        -9.2807
  40   2.0000      -0.336572        -9.1586
  41   2.0000      -0.323339        -8.7985
  42   2.0000      -0.310122        -8.4389
  43   2.0000      -0.300831        -8.1860
  44   2.0000      -0.295934        -8.0528
  45   2.0000      -0.279590        -7.6080
  46   2.0000      -0.205439        -5.5903
  47   2.0000      -0.119990        -3.2651
  48   0.0000      -0.032074        -0.8728
  49   0.0000      -0.008154        -0.2219
  50   0.0000       0.014078         0.3831
  51   0.0000       0.023128         0.6293
  52   0.0000       0.032817         0.8930

MULLIKEN ATOMIC CHARGES
-----------------------
   0 C :   -0.217307
   1 N :   -0.270889
   2 C :   -0.153514
   3 C :   -0.294064
   4 H :    0.171981
   5 H :    0.146377
   6 S :    0.732628
   7 C :    0.355898
   8 C :   -0.598689
   9 N :   -0.442744
  10 H :    0.225076
  11 H :    0.218053
  12 H :    0.204275
  13 H :    0.090656
  14 H :    0.081410
  15 F :   -0.045019
  16 O :   -0.335069
  17 O :   -0.392094
  18 H :    0.119384
  19 H :    0.111753
  20 H :    0.174409
  21 H :    0.117489
Sum of atomic charges:    0.0000000

LOEWDIN ATOMIC CHARGES
----------------------
   0 C :   -0.292843
   1 N :    0.131436
   2 C :   -0.285476
   3 C :   -0.379657
   4 H :    0.149094
   5 H :    0.143007
   6 S :    0.486651
   7 C :   -0.497629
   8 C :   -0.370138
   9 N :    0.013341
  10 H :    0.120205
  11 H :    0.173715
  12 H :    0.190406
  13 H :    0.091628
  14 H :    0.091602
  15 F :    0.127284
  16 O :   -0.217613
  17 O :   -0.252276
  18 H :    0.149804
  19 H :    0.148118
  20 H :    0.143957
  21 H :    0.135384

  Mayer bond orders larger than 0.100000
B(  0-C ,  1-N ) :   0.9434 B(  0-C ,  2-C ) :   0.9936 B(  0-C , 20-H ) :   0.9551
B(  0-C , 21-H ) :   0.9588 B(  1-N ,  7-C ) :   1.1843 B(  1-N , 12-H ) :   0.9205
B(  2-C ,  3-C ) :   0.9968 B(  2-C , 18-H ) :   0.9334 B(  2-C , 19-H ) :   0.9336
B(  3-C ,  4-H ) :   0.9151 B(  3-C ,  5-H ) :   0.9240 B(  3-C ,  6-S ) :   0.9250
B(  6-S , 15-F ) :   1.1923 B(  6-S , 16-O ) :   1.9881 B(  6-S , 17-O ) :   1.7598
B(  7-C ,  8-C ) :   1.5432 B(  7-C ,  9-N ) :   1.2221 B(  8-C , 13-H ) :   0.9927
B(  8-C , 14-H ) :   0.9938 B(  9-N , 10-H ) :   0.8383 B(  9-N , 11-H ) :   0.9236
B( 10-H , 17-O ) :   0.1387

Dispersion correction           -0.025099932
FINAL SINGLE POINT ENERGY      -954.521525178567

DIPOLE MOMENT
-------------
                                X             Y             Z
Electronic contribution:    -16.81977      -5.25051      -0.45741
Nuclear contribution   :     16.05479       5.17692       1.74190
                        -----------------------------------------
Total Dipole Moment    :     -0.76498      -0.07360       1.28449
                        -----------------------------------------
Magnitude (a.u.)       :      1.49684
Magnitude (Debye)      :      3.80466

Rotational constants in cm-1:     0.058652     0.021107     0.018077
Rotational constants in MHz :  1758.344290   632.763813   541.920558

                             ****ORCA TERMINATED NORMALLY****
TOTAL RUN TIME: 0 days 0 hours 0 minutes 11 seconds 563 msec
