                         Program Version 5.0.0 -  RELEASE  -
|  1> !PBE D3BJ RIJCOSX def2-TZVP def2/J TightSCF xyzfile
|  2>
|  3> *xyzfile 0 1 D4.xyz
|  4>
|  5> %MaxCore 64000
|  6>
|  7> %pal nprocs 18
|  8> end
|  9>
| 10> %scf
| 11>   MaxIter 150
| 12> end
| 13>
| 14>
| 15>                          ****END OF INPUT****

CARTESIAN COORDINATES (ANGSTROEM)
---------------------------------
  C      3.380928    2.083045   -3.350127
  C      4.535924    1.182447   -3.428518
  C      2.495557    1.816150   -2.136364
  C      1.872181    0.427903   -2.077497
  H      2.614270   -0.365825   -2.198894
  H      1.389953    0.273087   -1.112360
  S      0.579024    0.140472   -3.297943
  C      4.671956    0.122273   -4.220598
  N      5.866023   -0.507849   -4.224284
  N      3.698881   -0.312844   -4.986988
  H      2.731405   -0.050091   -4.849000
  H      3.890046   -1.055172   -5.643730
  H      5.251933    1.303459   -2.721014
  H      6.695165   -0.062322   -3.851596
  H      5.975383   -1.396884   -4.691414
  O      0.228860   -1.246868   -3.127871
  F     -0.439269    1.118966   -3.014550
  O      1.247881    0.403474   -4.595647
  H      1.697003    2.561969   -2.141109
  H      3.080787    1.987436   -1.225838
  H      2.806463    1.986511   -4.268484
  H      3.778714    3.098282   -3.307383

 Total Charge           Charge          ....    0
 Multiplicity           Mult            ....    1
 Number of Electrons    NEL             ....   96
 Basis Dimension        Dim             ....  413

ORBITAL ENERGIES
----------------

  NO   OCC          E(Eh)            E(eV)
   0   2.0000     -88.275135     -2402.0886
   1   2.0000     -24.379161      -663.3907
   2   2.0000     -18.767800      -510.6978
   3   2.0000     -18.763354      -510.5768
   4   2.0000     -13.974746      -380.2722
   5   2.0000     -13.958927      -379.8417
   6   2.0000      -9.927032      -270.1283
   7   2.0000      -9.913163      -269.7509
   8   2.0000      -9.889305      -269.1017
   9   2.0000      -9.857405      -268.2336
  10   2.0000      -9.801268      -266.7061
  11   2.0000      -7.870957      -214.1796
  12   2.0000      -5.895300      -160.4193
  13   2.0000      -5.889067      -160.2497
  14   2.0000      -5.888161      -160.2250
  15   2.0000      -1.283504       -34.9259
  16   2.0000      -1.025315       -27.9002
  17   2.0000      -0.935436       -25.4545
  18   2.0000      -0.867492       -23.6057
  19   2.0000      -0.781727       -21.2719
  20   2.0000      -0.749508       -20.3952
  21   2.0000      -0.689128       -18.7521
  22   2.0000      -0.655844       -17.8464
  23   2.0000      -0.615218       -16.7409
  24   2.0000      -0.562397       -15.3036
  25   2.0000      -0.536682       -14.6039
  26   2.0000      -0.527009       -14.3407
  27   2.0000      -0.518590       -14.1115
  28   2.0000      -0.491456       -13.3732
  29   2.0000      -0.478710       -13.0264
  30   2.0000      -0.459744       -12.5103
  31   2.0000      -0.435765       -11.8578
  32   2.0000      -0.427496       -11.6328
  33   2.0000      -0.420615       -11.4455
  34   2.0000      -0.401746       -10.9321
  35   2.0000      -0.388810       -10.5801
  36   2.0000      -0.362683        -9.8691
  37   2.0000      -0.352341        -9.5877
  38   2.0000      -0.348689        -9.4883
  39   2.0000      -0.330873        -9.0035
  40   2.0000      -0.312798        -8.5117
  41   2.0000      -0.302587        -8.2338
  42   2.0000      -0.293551        -7.9879
  43   2.0000      -0.289893        -7.8884
  44   2.0000      -0.278594        -7.5809
  45   2.0000      -0.263644        -7.1741
  46   2.0000      -0.209845        -5.7102
  47   2.0000      -0.125924        -3.4266
  48   0.0000      -0.021933        -0.5968
  49   0.0000       0.011695         0.3182
  50   0.0000       0.016965         0.4616
  51   0.0000       0.019914         0.5419
  52   0.0000       0.042206         1.1485

MULLIKEN ATOMIC CHARGES
-----------------------
   0 C :   -0.204626
   1 C :   -0.389873
   2 C :   -0.119096
   3 C :   -0.310443
   4 H :    0.182810
   5 H :    0.139450
   6 S :    0.726522
   7 C :    0.302030
   8 N :   -0.451384
   9 N :   -0.426128
  10 H :    0.250262
  11 H :    0.194132
  12 H :    0.072962
  13 H :    0.228340
  14 H :    0.201187
  15 O :   -0.337657
  16 F :   -0.048727
  17 O :   -0.404535
  18 H :    0.085361
  19 H :    0.093644
  20 H :    0.129561
  21 H :    0.086209
Sum of atomic charges:    0.0000000

LOEWDIN ATOMIC CHARGES
----------------------
   0 C :   -0.291192
   1 C :   -0.289134
   2 C :   -0.290203
   3 C :   -0.374743
   4 H :    0.157690
   5 H :    0.139721
   6 S :    0.486285
   7 C :   -0.483532
   8 N :   -0.016106
   9 N :    0.021847
  10 H :    0.134513
  11 H :    0.158727
  12 H :    0.118134
  13 H :    0.170135
  14 H :    0.153645
  15 O :   -0.224147
  16 F :    0.126199
  17 O :   -0.260370
  18 H :    0.132064
  19 H :    0.145088
  20 H :    0.143328
  21 H :    0.142052

  Mayer bond orders larger than 0.100000
B(  0-C ,  1-C ) :   1.0558 B(  0-C ,  2-C ) :   0.9718 B(  0-C , 20-H ) :   0.9563
B(  0-C , 21-H ) :   0.9498 B(  1-C ,  7-C ) :   1.6068 B(  1-C , 12-H ) :   0.9811
B(  2-C ,  3-C ) :   0.9788 B(  2-C , 18-H ) :   0.9394 B(  2-C , 19-H ) :   0.9326
B(  3-C ,  4-H ) :   0.9213 B(  3-C ,  5-H ) :   0.9333 B(  3-C ,  6-S ) :   0.9270
B(  6-S , 15-O ) :   1.9979 B(  6-S , 16-F ) :   1.1841 B(  6-S , 17-O ) :   1.7552
B(  7-C ,  8-N ) :   1.1360 B(  7-C ,  9-N ) :   1.2204 B(  8-N , 13-H ) :   0.9172
B(  8-N , 14-H ) :   0.9211 B(  9-N , 10-H ) :   0.8385 B(  9-N , 11-H ) :   0.9232
B( 10-H , 17-O ) :   0.1320

Dispersion correction           -0.025281079
FINAL SINGLE POINT ENERGY      -954.536924679117

DIPOLE MOMENT
-------------
                                X             Y             Z
Electronic contribution:    -16.39286      -2.78869      -1.10754
Nuclear contribution   :     16.65743       2.74852       1.69529
                        -----------------------------------------
Total Dipole Moment    :      0.26456      -0.04017       0.58775
                        -----------------------------------------
Magnitude (a.u.)       :      0.64580
Magnitude (Debye)      :      1.64149

Rotational constants in cm-1:     0.059907     0.020458     0.017675
Rotational constants in MHz :  1795.978106   613.328205   529.885290

                             ****ORCA TERMINATED NORMALLY****
TOTAL RUN TIME: 0 days 0 hours 0 minutes 13 seconds 166 msec
