                         Program Version 5.0.0 -  RELEASE  -
|  1> !PBE D3BJ RIJCOSX def2-TZVP def2/J TightSCF xyzfile
|  2>
|  3> *xyzfile 0 1 D6.xyz
|  4>
|  5> %MaxCore 64000
|  6>
|  7> %pal nprocs 18
|  8> end
|  9>
| 10> %scf
| 11>   MaxIter 150
| 12> end
| 13>
| 14>
| 15>                          ****END OF INPUT****

CARTESIAN COORDINATES (ANGSTROEM)
---------------------------------
  C      3.380928    2.083045   -3.350127
  N      4.535924    1.182447   -3.428518
  C      2.495557    1.816150   -2.136364
  C      1.872181    0.427903   -2.077497
  H      2.614270   -0.365825   -2.198894
  H      1.389953    0.273087   -1.112360
  S      0.579024    0.140472   -3.297943
  C      4.671956    0.122273   -4.220598
  N      5.866023   -0.507849   -4.224284
  C      3.698881   -0.312844   -4.986988
  H      2.731405   -0.050091   -4.849000
  H      3.890046   -1.055172   -5.643730
  H      5.251933    1.303459   -2.721014
  H      6.695165   -0.062322   -3.851596
  H      5.975383   -1.396884   -4.691414
  O      0.228860   -1.246868   -3.127871
  F     -0.439269    1.118966   -3.014550
  O      1.247881    0.403474   -4.595647
  H      1.697003    2.561969   -2.141109
  H      3.080787    1.987436   -1.225838
  H      2.806463    1.986511   -4.268484
  H      3.778714    3.098282   -3.307383

 Total Charge           Charge          ....    0
 Multiplicity           Mult            ....    1
 Number of Electrons    NEL             ....   96
 Basis Dimension        Dim             ....  413

ORBITAL ENERGIES
----------------

  NO   OCC          E(Eh)            E(eV)
   0   2.0000     -88.265108     -2401.8157
   1   2.0000     -24.371766      -663.1895
   2   2.0000     -18.759387      -510.4689
   3   2.0000     -18.748313      -510.1675
   4   2.0000     -13.986949      -380.6042
   5   2.0000     -13.972843      -380.2204
   6   2.0000      -9.932162      -270.2679
   7   2.0000      -9.917257      -269.8623
   8   2.0000      -9.909354      -269.6472
   9   2.0000      -9.908909      -269.6351
  10   2.0000      -9.769810      -265.8500
  11   2.0000      -7.861012      -213.9090
  12   2.0000      -5.885404      -160.1500
  13   2.0000      -5.878737      -159.9686
  14   2.0000      -5.878561      -159.9638
  15   2.0000      -1.276551       -34.7367
  16   2.0000      -1.014510       -27.6062
  17   2.0000      -0.922590       -25.1049
  18   2.0000      -0.877228       -23.8706
  19   2.0000      -0.801180       -21.8012
  20   2.0000      -0.749200       -20.3868
  21   2.0000      -0.679449       -18.4888
  22   2.0000      -0.648175       -17.6377
  23   2.0000      -0.626260       -17.0414
  24   2.0000      -0.579864       -15.7789
  25   2.0000      -0.532134       -14.4801
  26   2.0000      -0.521631       -14.1943
  27   2.0000      -0.508802       -13.8452
  28   2.0000      -0.496623       -13.5138
  29   2.0000      -0.478289       -13.0149
  30   2.0000      -0.461273       -12.5519
  31   2.0000      -0.440866       -11.9966
  32   2.0000      -0.433689       -11.8013
  33   2.0000      -0.412058       -11.2127
  34   2.0000      -0.398293       -10.8381
  35   2.0000      -0.394782       -10.7426
  36   2.0000      -0.365303        -9.9404
  37   2.0000      -0.349217        -9.5027
  38   2.0000      -0.346353        -9.4247
  39   2.0000      -0.338039        -9.1985
  40   2.0000      -0.329415        -8.9638
  41   2.0000      -0.318738        -8.6733
  42   2.0000      -0.302752        -8.2383
  43   2.0000      -0.279004        -7.5921
  44   2.0000      -0.262189        -7.1345
  45   2.0000      -0.251048        -6.8314
  46   2.0000      -0.204552        -5.5661
  47   2.0000      -0.128888        -3.5072
  48   0.0000      -0.014659        -0.3989
  49   0.0000      -0.001005        -0.0273
  50   0.0000       0.015931         0.4335
  51   0.0000       0.023159         0.6302
  52   0.0000       0.039688         1.0800

MULLIKEN ATOMIC CHARGES
-----------------------
   0 C :   -0.146281
   1 N :   -0.298143
   2 C :   -0.187548
   3 C :   -0.278896
   4 H :    0.185050
   5 H :    0.139581
   6 S :    0.702908
   7 C :    0.371006
   8 N :   -0.477297
   9 C :   -0.575906
  10 H :    0.162698
  11 H :    0.072736
  12 H :    0.172419
  13 H :    0.199172
  14 H :    0.231137
  15 O :   -0.337990
  16 F :   -0.054448
  17 O :   -0.362325
  18 H :    0.097091
  19 H :    0.103664
  20 H :    0.171655
  21 H :    0.109719
Sum of atomic charges:    0.0000000

LOEWDIN ATOMIC CHARGES
----------------------
   0 C :   -0.279725
   1 N :    0.123194
   2 C :   -0.298783
   3 C :   -0.374398
   4 H :    0.159959
   5 H :    0.139361
   6 S :    0.473780
   7 C :   -0.496934
   8 N :   -0.021068
   9 C :   -0.321412
  10 H :    0.082328
  11 H :    0.098138
  12 H :    0.171190
  13 H :    0.150622
  14 H :    0.170790
  15 O :   -0.223791
  16 F :    0.118240
  17 O :   -0.236887
  18 H :    0.140411
  19 H :    0.142863
  20 H :    0.148955
  21 H :    0.133167

  Mayer bond orders larger than 0.100000
B(  0-C ,  1-N ) :   0.9233 B(  0-C ,  2-C ) :   0.9984 B(  0-C , 20-H ) :   0.9462
B(  0-C , 21-H ) :   0.9575 B(  1-N ,  7-C ) :   1.1516 B(  1-N , 12-H ) :   0.9204
B(  2-C ,  3-C ) :   0.9873 B(  2-C , 18-H ) :   0.9425 B(  2-C , 19-H ) :   0.9357
B(  3-C ,  4-H ) :   0.9261 B(  3-C ,  5-H ) :   0.9319 B(  3-C ,  6-S ) :   0.9157
B(  6-S , 15-O ) :   1.9963 B(  6-S , 16-F ) :   1.1647 B(  6-S , 17-O ) :   1.8199
B(  7-C ,  8-N ) :   1.0935 B(  7-C ,  9-C ) :   1.6124 B(  8-N , 13-H ) :   0.9209
B(  8-N , 14-H ) :   0.9200 B(  9-C , 10-H ) :   0.9680 B(  9-C , 11-H ) :   0.9937

Dispersion correction           -0.025268117
FINAL SINGLE POINT ENERGY      -954.504518882037

DIPOLE MOMENT
-------------
                                X             Y             Z
Electronic contribution:    -15.78796      -1.50763       0.16207
Nuclear contribution   :     16.57580       2.60270       1.54331
                        -----------------------------------------
Total Dipole Moment    :      0.78785       1.09507       1.70538
                        -----------------------------------------
Magnitude (a.u.)       :      2.17444
Magnitude (Debye)      :      5.52700

Rotational constants in cm-1:     0.060402     0.020377     0.017632
Rotational constants in MHz :  1810.792194   610.900365   528.582827

                             ****ORCA TERMINATED NORMALLY****
TOTAL RUN TIME: 0 days 0 hours 0 minutes 13 seconds 694 msec
