                         Program Version 5.0.0 -  RELEASE  -
|  1> !PBE D3BJ RIJCOSX def2-TZVP def2/J TightSCF xyzfile
|  2>
|  3> *xyzfile 0 1 D8.xyz
|  4>
|  5> %MaxCore 64000
|  6>
|  7> %pal nprocs 18
|  8> end
|  9>
| 10> %scf
| 11>   MaxIter 150
| 12> end
| 13>
| 14>
| 15>                          ****END OF INPUT****

CARTESIAN COORDINATES (ANGSTROEM)
---------------------------------
  C      3.380928    2.083045   -3.350127
  N      4.535924    1.182447   -3.428518
  C      2.495557    1.816150   -2.136364
  C      1.872181    0.427903   -2.077497
  H      2.614270   -0.365825   -2.198894
  H      1.389953    0.273087   -1.112360
  S      0.579024    0.140472   -3.297943
  C      4.671956    0.122273   -4.220598
  C      5.866023   -0.507849   -4.224284
  N      3.698881   -0.312844   -4.986988
  H      2.731405   -0.050091   -4.849000
  H      3.890046   -1.055172   -5.643730
  H      5.251933    1.303459   -2.721014
  H      6.695165   -0.062322   -3.851596
  H      5.975383   -1.396884   -4.691414
  O      0.228860   -1.246868   -3.127871
  O     -0.439269    1.118966   -3.014550
  F      1.247881    0.403474   -4.595647
  H      1.697003    2.561969   -2.141109
  H      3.080787    1.987436   -1.225838
  H      2.806463    1.986511   -4.268484
  H      3.778714    3.098282   -3.307383

 Total Charge           Charge          ....    0
 Multiplicity           Mult            ....    1
 Number of Electrons    NEL             ....   96
 Basis Dimension        Dim             ....  413

ORBITAL ENERGIES
----------------

  NO   OCC          E(Eh)            E(eV)
   0   2.0000     -88.278126     -2402.1699
   1   2.0000     -24.380012      -663.4138
   2   2.0000     -18.775355      -510.9034
   3   2.0000     -18.774457      -510.8790
   4   2.0000     -13.998833      -380.9276
   5   2.0000     -13.984825      -380.5464
   6   2.0000      -9.942981      -270.5623
   7   2.0000      -9.936731      -270.3922
   8   2.0000      -9.927910      -270.1522
   9   2.0000      -9.916576      -269.8437
  10   2.0000      -9.796447      -266.5749
  11   2.0000      -7.874469      -214.2752
  12   2.0000      -5.899277      -160.5275
  13   2.0000      -5.892009      -160.3297
  14   2.0000      -5.891702      -160.3214
  15   2.0000      -1.275117       -34.6977
  16   2.0000      -1.039445       -28.2847
  17   2.0000      -0.951779       -25.8992
  18   2.0000      -0.895728       -24.3740
  19   2.0000      -0.821260       -22.3476
  20   2.0000      -0.762775       -20.7562
  21   2.0000      -0.701633       -19.0924
  22   2.0000      -0.659066       -17.9341
  23   2.0000      -0.634763       -17.2728
  24   2.0000      -0.579815       -15.7776
  25   2.0000      -0.557130       -15.1603
  26   2.0000      -0.545806       -14.8521
  27   2.0000      -0.528339       -14.3768
  28   2.0000      -0.504046       -13.7158
  29   2.0000      -0.483076       -13.1452
  30   2.0000      -0.463202       -12.6044
  31   2.0000      -0.447258       -12.1705
  32   2.0000      -0.440886       -11.9971
  33   2.0000      -0.432659       -11.7733
  34   2.0000      -0.418268       -11.3816
  35   2.0000      -0.408904       -11.1268
  36   2.0000      -0.379627       -10.3302
  37   2.0000      -0.363123        -9.8811
  38   2.0000      -0.358300        -9.7498
  39   2.0000      -0.348432        -9.4813
  40   2.0000      -0.341208        -9.2847
  41   2.0000      -0.334430        -9.1003
  42   2.0000      -0.316614        -8.6155
  43   2.0000      -0.307037        -8.3549
  44   2.0000      -0.298487        -8.1223
  45   2.0000      -0.287998        -7.8368
  46   2.0000      -0.222848        -6.0640
  47   2.0000      -0.134807        -3.6683
  48   0.0000      -0.029401        -0.8000
  49   0.0000      -0.003492        -0.0950
  50   0.0000       0.009650         0.2626
  51   0.0000       0.026671         0.7257
  52   0.0000       0.031940         0.8691

MULLIKEN ATOMIC CHARGES
-----------------------
   0 C :   -0.232595
   1 N :   -0.259220
   2 C :   -0.150999
   3 C :   -0.299809
   4 H :    0.177227
   5 H :    0.160845
   6 S :    0.712498
   7 C :    0.359814
   8 C :   -0.584760
   9 N :   -0.446093
  10 H :    0.211559
  11 H :    0.231684
  12 H :    0.210746
  13 H :    0.096559
  14 H :    0.088186
  15 O :   -0.340728
  16 O :   -0.346656
  17 F :   -0.091695
  18 H :    0.123051
  19 H :    0.108937
  20 H :    0.145220
  21 H :    0.126229
Sum of atomic charges:    0.0000000

LOEWDIN ATOMIC CHARGES
----------------------
   0 C :   -0.296565
   1 N :    0.133899
   2 C :   -0.297464
   3 C :   -0.374337
   4 H :    0.150151
   5 H :    0.154510
   6 S :    0.477161
   7 C :   -0.495653
   8 C :   -0.352752
   9 N :    0.011538
  10 H :    0.127033
  11 H :    0.179712
  12 H :    0.193660
  13 H :    0.094408
  14 H :    0.093919
  15 O :   -0.222590
  16 O :   -0.224909
  17 F :    0.082357
  18 H :    0.148381
  19 H :    0.146161
  20 H :    0.133561
  21 H :    0.137819

  Mayer bond orders larger than 0.100000
B(  0-C ,  1-N ) :   0.9433 B(  0-C ,  2-C ) :   0.9903 B(  0-C , 20-H ) :   0.9624
B(  0-C , 21-H ) :   0.9597 B(  1-N ,  7-C ) :   1.1905 B(  1-N , 12-H ) :   0.9189
B(  2-C ,  3-C ) :   0.9768 B(  2-C , 18-H ) :   0.9361 B(  2-C , 19-H ) :   0.9322
B(  3-C ,  4-H ) :   0.9227 B(  3-C ,  5-H ) :   0.9297 B(  3-C ,  6-S ) :   0.9110
B(  6-S , 15-O ) :   1.9931 B(  6-S , 16-O ) :   1.9756 B(  6-S , 17-F ) :   1.0464
B(  7-C ,  8-C ) :   1.5557 B(  7-C ,  9-N ) :   1.1958 B(  8-C , 13-H ) :   0.9923
B(  8-C , 14-H ) :   0.9930 B(  9-N , 10-H ) :   0.8878 B(  9-N , 11-H ) :   0.9179

Dispersion correction           -0.024851619
FINAL SINGLE POINT ENERGY      -954.526167280877

DIPOLE MOMENT
-------------
                                X             Y             Z
Electronic contribution:    -14.73737      -2.48225      -2.94088
Nuclear contribution   :     14.93782       3.36795       3.35075
                        -----------------------------------------
Total Dipole Moment    :      0.20045       0.88570       0.40988
                        -----------------------------------------
Magnitude (a.u.)       :      0.99632
Magnitude (Debye)      :      2.53244

Rotational constants in cm-1:     0.059219     0.021387     0.018380
Rotational constants in MHz :  1775.354399   641.172207   551.019443

                             ****ORCA TERMINATED NORMALLY****
TOTAL RUN TIME: 0 days 0 hours 0 minutes 12 seconds 523 msec
