                         Program Version 5.0.0 -  RELEASE  -
|  1> !PBE D3BJ RIJCOSX def2-TZVP def2/J TightSCF xyzfile
|  2>
|  3> *xyzfile 0 1 D9.xyz
|  4>
|  5> %MaxCore 64000
|  6>
|  7> %pal nprocs 18
|  8> end
|  9>
| 10> %scf
| 11>   MaxIter 150
| 12> end
| 13>
| 14>
| 15>                          ****END OF INPUT****

CARTESIAN COORDINATES (ANGSTROEM)
---------------------------------
  C      3.380928    2.083045   -3.350127
  N      4.535924    1.182447   -3.428518
  C      2.495557    1.816150   -2.136364
  C      1.872181    0.427903   -2.077497
  H      2.614270   -0.365825   -2.198894
  H      1.389953    0.273087   -1.112360
  S      0.579024    0.140472   -3.297943
  C      4.671956    0.122273   -4.220598
  N      5.866023   -0.507849   -4.224284
  C      3.698881   -0.312844   -4.986988
  H      2.731405   -0.050091   -4.849000
  H      3.890046   -1.055172   -5.643730
  H      5.251933    1.303459   -2.721014
  H      6.695165   -0.062322   -3.851596
  H      5.975383   -1.396884   -4.691414
  O      0.228860   -1.246868   -3.127871
  O     -0.439269    1.118966   -3.014550
  F      1.247881    0.403474   -4.595647
  H      1.697003    2.561969   -2.141109
  H      3.080787    1.987436   -1.225838
  H      2.806463    1.986511   -4.268484
  H      3.778714    3.098282   -3.307383

 Total Charge           Charge          ....    0
 Multiplicity           Mult            ....    1
 Number of Electrons    NEL             ....   96
 Basis Dimension        Dim             ....  413

ORBITAL ENERGIES
----------------

  NO   OCC          E(Eh)            E(eV)
   0   2.0000     -88.259845     -2401.6725
   1   2.0000     -24.349094      -662.5725
   2   2.0000     -18.757803      -510.4258
   3   2.0000     -18.756213      -510.3825
   4   2.0000     -14.000293      -380.9674
   5   2.0000     -13.987638      -380.6230
   6   2.0000      -9.930300      -270.2172
   7   2.0000      -9.929178      -270.1867
   8   2.0000      -9.927704      -270.1466
   9   2.0000      -9.908872      -269.6341
  10   2.0000      -9.794081      -266.5105
  11   2.0000      -7.855876      -213.7693
  12   2.0000      -5.880392      -160.0136
  13   2.0000      -5.873708      -159.8317
  14   2.0000      -5.873259      -159.8195
  15   2.0000      -1.245636       -33.8955
  16   2.0000      -1.020889       -27.7798
  17   2.0000      -0.934174       -25.4202
  18   2.0000      -0.891965       -24.2716
  19   2.0000      -0.814680       -22.1686
  20   2.0000      -0.749471       -20.3941
  21   2.0000      -0.679330       -18.4855
  22   2.0000      -0.659957       -17.9583
  23   2.0000      -0.627256       -17.0685
  24   2.0000      -0.588169       -16.0049
  25   2.0000      -0.528254       -14.3745
  26   2.0000      -0.518653       -14.1133
  27   2.0000      -0.503776       -13.7084
  28   2.0000      -0.496517       -13.5109
  29   2.0000      -0.483675       -13.1615
  30   2.0000      -0.465272       -12.6607
  31   2.0000      -0.442325       -12.0363
  32   2.0000      -0.427591       -11.6353
  33   2.0000      -0.414843       -11.2885
  34   2.0000      -0.413321       -11.2470
  35   2.0000      -0.393554       -10.7091
  36   2.0000      -0.368822       -10.0362
  37   2.0000      -0.361202        -9.8288
  38   2.0000      -0.348431        -9.4813
  39   2.0000      -0.340646        -9.2695
  40   2.0000      -0.335151        -9.1199
  41   2.0000      -0.325230        -8.8500
  42   2.0000      -0.309468        -8.4210
  43   2.0000      -0.290247        -7.8980
  44   2.0000      -0.282518        -7.6877
  45   2.0000      -0.270344        -7.3564
  46   2.0000      -0.217482        -5.9180
  47   2.0000      -0.147809        -4.0221
  48   0.0000      -0.012096        -0.3292
  49   0.0000      -0.003914        -0.1065
  50   0.0000       0.013907         0.3784
  51   0.0000       0.029589         0.8051
  52   0.0000       0.037825         1.0293

MULLIKEN ATOMIC CHARGES
-----------------------
   0 C :   -0.175195
   1 N :   -0.284138
   2 C :   -0.179509
   3 C :   -0.280336
   4 H :    0.172751
   5 H :    0.153589
   6 S :    0.716550
   7 C :    0.388558
   8 N :   -0.472826
   9 C :   -0.576316
  10 H :    0.113122
  11 H :    0.083035
  12 H :    0.179783
  13 H :    0.206137
  14 H :    0.234377
  15 O :   -0.350790
  16 O :   -0.360102
  17 F :   -0.066170
  18 H :    0.123282
  19 H :    0.101027
  20 H :    0.154303
  21 H :    0.118868
Sum of atomic charges:   -0.0000000

LOEWDIN ATOMIC CHARGES
----------------------
   0 C :   -0.278930
   1 N :    0.128171
   2 C :   -0.297761
   3 C :   -0.373515
   4 H :    0.149387
   5 H :    0.150906
   6 S :    0.481285
   7 C :   -0.489236
   8 N :   -0.013007
   9 C :   -0.339273
  10 H :    0.078582
  11 H :    0.100832
  12 H :    0.175189
  13 H :    0.154594
  14 H :    0.172780
  15 O :   -0.228869
  16 O :   -0.235509
  17 F :    0.094439
  18 H :    0.148870
  19 H :    0.142856
  20 H :    0.141742
  21 H :    0.136469

  Mayer bond orders larger than 0.100000
B(  0-C ,  1-N ) :   0.9162 B(  0-C ,  2-C ) :   1.0108 B(  0-C , 20-H ) :   0.9543
B(  0-C , 21-H ) :   0.9584 B(  1-N ,  7-C ) :   1.1727 B(  1-N , 12-H ) :   0.9188
B(  2-C ,  3-C ) :   0.9872 B(  2-C , 18-H ) :   0.9380 B(  2-C , 19-H ) :   0.9341
B(  3-C ,  4-H ) :   0.9279 B(  3-C ,  5-H ) :   0.9303 B(  3-C ,  6-S ) :   0.9069
B(  6-S , 15-O ) :   1.9868 B(  6-S , 16-O ) :   1.9634 B(  6-S , 17-F ) :   1.0935
B(  7-C ,  8-N ) :   1.1106 B(  7-C ,  9-C ) :   1.5875 B(  8-N , 13-H ) :   0.9200
B(  8-N , 14-H ) :   0.9187 B(  9-C , 10-H ) :   1.0053 B(  9-C , 11-H ) :   0.9902

Dispersion correction           -0.025040027
FINAL SINGLE POINT ENERGY      -954.522570979057

DIPOLE MOMENT
-------------
                                X             Y             Z
Electronic contribution:    -12.66952      -2.69175      -2.44641
Nuclear contribution   :     14.72648       3.38697       3.27638
                        -----------------------------------------
Total Dipole Moment    :      2.05697       0.69522       0.82997
                        -----------------------------------------
Magnitude (a.u.)       :      2.32450
Magnitude (Debye)      :      5.90841

Rotational constants in cm-1:     0.059651     0.020833     0.018010
Rotational constants in MHz :  1788.283887   624.555661   539.921162

                             ****ORCA TERMINATED NORMALLY****
TOTAL RUN TIME: 0 days 0 hours 0 minutes 12 seconds 785 msec
