                         Program Version 5.0.0 -  RELEASE  -
|  1> !BLYP D3BJ RIJCOSX def2-TZVP def2/J TightSCF
|  2> *xyz -1 1
|  3> C          2.49556        1.81615       -2.13636
|  4> C          1.87218        0.42790       -2.07750
|  5> H          2.61427       -0.36583       -2.19889
|  6> H          1.38995        0.27309       -1.11236
|  7> S          0.57902        0.14047       -3.29794
|  8> O          0.22886       -1.24687       -3.12787
|  9> O         -0.43927        1.11897       -3.01455
| 10> O          1.24788        0.40347       -4.59565
| 11> H          2.96535        1.95613       -3.08747
| 12> H          3.22581        1.91242       -1.36024
| 13> H          1.73350        2.55528       -2.00274
| 14> *
| 15>
| 16> %MaxCore 64000
| 17>
| 18> %pal nprocs 4
| 19> end
| 20>
| 21> %scf
| 22>   MaxIter 150
| 23> end
| 24>
| 25>
| 26>                          ****END OF INPUT****

CARTESIAN COORDINATES (ANGSTROEM)
---------------------------------
  C      2.495560    1.816150   -2.136360
  C      1.872180    0.427900   -2.077500
  H      2.614270   -0.365830   -2.198890
  H      1.389950    0.273090   -1.112360
  S      0.579020    0.140470   -3.297940
  O      0.228860   -1.246870   -3.127870
  O     -0.439270    1.118970   -3.014550
  O      1.247880    0.403470   -4.595650
  H      2.965350    1.956130   -3.087470
  H      3.225810    1.912420   -1.360240
  H      1.733500    2.555280   -2.002740

 Total Charge           Charge          ....   -1
 Multiplicity           Mult            ....    1
 Number of Electrons    NEL             ....   58
 Basis Dimension        Dim             ....  222

ORBITAL ENERGIES
----------------

  NO   OCC          E(Eh)            E(eV)
   0   2.0000     -88.068917     -2396.4771
   1   2.0000     -18.542682      -504.5720
   2   2.0000     -18.542611      -504.5701
   3   2.0000     -18.528047      -504.1738
   4   2.0000      -9.754142      -265.4237
   5   2.0000      -9.750860      -265.3344
   6   2.0000      -7.599711      -206.7987
   7   2.0000      -5.628320      -153.1544
   8   2.0000      -5.627410      -153.1296
   9   2.0000      -5.627134      -153.1221
  10   2.0000      -0.819180       -22.2910
  11   2.0000      -0.696533       -18.9536
  12   2.0000      -0.671004       -18.2589
  13   2.0000      -0.545138       -14.8340
  14   2.0000      -0.427148       -11.6233
  15   2.0000      -0.309371        -8.4184
  16   2.0000      -0.256613        -6.9828
  17   2.0000      -0.248898        -6.7729
  18   2.0000      -0.212269        -5.7761
  19   2.0000      -0.196897        -5.3578
  20   2.0000      -0.192408        -5.2357
  21   2.0000      -0.174177        -4.7396
  22   2.0000      -0.158227        -4.3056
  23   2.0000      -0.091955        -2.5022
  24   2.0000      -0.091046        -2.4775
  25   2.0000      -0.060917        -1.6576
  26   2.0000      -0.055593        -1.5128
  27   2.0000      -0.043428        -1.1817
  28   2.0000      -0.007772        -0.2115
  29   0.0000       0.156841         4.2679
  30   0.0000       0.197859         5.3840
  31   0.0000       0.213089         5.7984
  32   0.0000       0.217989         5.9318
  33   0.0000       0.245928         6.6921

MULLIKEN ATOMIC CHARGES
-----------------------
   0 C :   -0.276341
   1 C :   -0.177395
   2 H :    0.049603
   3 H :    0.039335
   4 S :    0.735374
   5 O :   -0.510786
   6 O :   -0.513043
   7 O :   -0.565417
   8 H :    0.088410
   9 H :    0.041738
  10 H :    0.088522
Sum of atomic charges:   -1.0000000

LOEWDIN ATOMIC CHARGES
----------------------
   0 C :   -0.341012
   1 C :   -0.433823
   2 H :    0.110830
   3 H :    0.109652
   4 S :    0.375842
   5 O :   -0.360666
   6 O :   -0.360209
   7 O :   -0.414044
   8 H :    0.109524
   9 H :    0.094107
  10 H :    0.109797

  Mayer bond orders larger than 0.100000
B(  0-C ,  1-C ) :   0.9394 B(  0-C ,  8-H ) :   0.9715 B(  0-C ,  9-H ) :   0.9554
B(  0-C , 10-H ) :   0.9748 B(  1-C ,  2-H ) :   0.9538 B(  1-C ,  3-H ) :   0.9504
B(  1-C ,  4-S ) :   0.8532 B(  4-S ,  5-O ) :   1.8500 B(  4-S ,  6-O ) :   1.8044
B(  4-S ,  7-O ) :   1.7503

Dispersion correction           -0.020600005
FINAL SINGLE POINT ENERGY      -703.241921984987

DIPOLE MOMENT
-------------
                                X             Y             Z
Electronic contribution:     -5.80489      -3.64829      -4.20229
Nuclear contribution   :      6.89220       4.11756       5.35566
                        -----------------------------------------
Total Dipole Moment    :      1.08731       0.46927       1.15337
                        -----------------------------------------
Magnitude (a.u.)       :      1.65309
Magnitude (Debye)      :      4.20183

Rotational constants in cm-1:     0.162183     0.084017     0.082390
Rotational constants in MHz :  4862.117324  2518.774315  2469.980309

                             ****ORCA TERMINATED NORMALLY****
TOTAL RUN TIME: 0 days 0 hours 0 minutes 6 seconds 705 msec
