                         Program Version 5.0.0 -  RELEASE  -
|  1> !BLYP D3BJ RIJCOSX def2-TZVP def2/J TightSCF
|  2> *xyz 1 1
|  3> C          3.38093        2.08304       -3.35013
|  4> N          4.53592        1.18245       -3.42852
|  5> C          2.49556        1.81615       -2.13636
|  6> C          4.67196        0.12227       -4.22060
|  7> N          5.86602       -0.50785       -4.22428
|  8> N          3.69888       -0.31284       -4.98699
|  9> H          2.73141       -0.05009       -4.84900
| 10> H          3.89005       -1.05517       -5.64373
| 11> H          5.25193        1.30346       -2.72101
| 12> H          6.69516       -0.06232       -3.85160
| 13> H          5.97538       -1.39688       -4.69141
| 14> H          2.80646        1.98651       -4.26848
| 15> H          3.77871        3.09828       -3.30738
| 16> H          2.11090        0.81901       -2.18783
| 17> H          1.68276        2.51198       -2.12786
| 18> H          3.07216        1.93031       -1.24227
| 19> *
| 20>
| 21> %MaxCore 64000
| 22>
| 23> %pal nprocs 4
| 24> end
| 25>
| 26> %scf
| 27>   MaxIter 150
| 28> end
| 29>
| 30>
| 31>                          ****END OF INPUT****

CARTESIAN COORDINATES (ANGSTROEM)
---------------------------------
  C      3.380930    2.083040   -3.350130
  N      4.535920    1.182450   -3.428520
  C      2.495560    1.816150   -2.136360
  C      4.671960    0.122270   -4.220600
  N      5.866020   -0.507850   -4.224280
  N      3.698880   -0.312840   -4.986990
  H      2.731410   -0.050090   -4.849000
  H      3.890050   -1.055170   -5.643730
  H      5.251930    1.303460   -2.721010
  H      6.695160   -0.062320   -3.851600
  H      5.975380   -1.396880   -4.691410
  H      2.806460    1.986510   -4.268480
  H      3.778710    3.098280   -3.307380
  H      2.110900    0.819010   -2.187830
  H      1.682760    2.511980   -2.127860
  H      3.072160    1.930310   -1.242270

 Total Charge           Charge          ....    1
 Multiplicity           Mult            ....    1
 Number of Electrons    NEL             ....   48
 Basis Dimension        Dim             ....  246

ORBITAL ENERGIES
----------------

  NO   OCC          E(Eh)            E(eV)
   0   2.0000     -14.228328      -387.1725
   1   2.0000     -14.224024      -387.0554
   2   2.0000     -14.220666      -386.9640
   3   2.0000     -10.228027      -278.3188
   4   2.0000     -10.108527      -275.0670
   5   2.0000     -10.038496      -273.1614
   6   2.0000      -1.118294       -30.4303
   7   2.0000      -1.017412       -27.6852
   8   2.0000      -1.003371       -27.3031
   9   2.0000      -0.852943       -23.2098
  10   2.0000      -0.774588       -21.0776
  11   2.0000      -0.736575       -20.0432
  12   2.0000      -0.725286       -19.7360
  13   2.0000      -0.682645       -18.5757
  14   2.0000      -0.641804       -17.4644
  15   2.0000      -0.638436       -17.3727
  16   2.0000      -0.589397       -16.0383
  17   2.0000      -0.574723       -15.6390
  18   2.0000      -0.551971       -15.0199
  19   2.0000      -0.508474       -13.8363
  20   2.0000      -0.483374       -13.1533
  21   2.0000      -0.468565       -12.7503
  22   2.0000      -0.431233       -11.7344
  23   2.0000      -0.403819       -10.9885
  24   0.0000      -0.192842        -5.2475
  25   0.0000      -0.175416        -4.7733
  26   0.0000      -0.142949        -3.8898
  27   0.0000      -0.132952        -3.6178
  28   0.0000      -0.118290        -3.2188

MULLIKEN ATOMIC CHARGES
-----------------------
   0 C :   -0.143754
   1 N :   -0.228270
   2 C :   -0.261753
   3 C :    0.449750
   4 N :   -0.391508
   5 N :   -0.357365
   6 H :    0.272583
   7 H :    0.258838
   8 H :    0.232770
   9 H :    0.266381
  10 H :    0.260384
  11 H :    0.119090
  12 H :    0.150862
  13 H :    0.104319
  14 H :    0.145265
  15 H :    0.122407
Sum of atomic charges:    1.0000000

LOEWDIN ATOMIC CHARGES
----------------------
   0 C :   -0.272361
   1 N :    0.179287
   2 C :   -0.276493
   3 C :   -0.419419
   4 N :    0.059003
   5 N :    0.092521
   6 H :    0.195283
   7 H :    0.196242
   8 H :    0.205507
   9 H :    0.191700
  10 H :    0.188855
  11 H :    0.135675
  12 H :    0.147467
  13 H :    0.118067
  14 H :    0.134589
  15 H :    0.124078

  Mayer bond orders larger than 0.100000
B(  0-C ,  1-N ) :   0.8738 B(  0-C ,  2-C ) :   0.9598 B(  0-C , 11-H ) :   0.9655
B(  0-C , 12-H ) :   0.9560 B(  1-N ,  3-C ) :   1.3673 B(  1-N ,  8-H ) :   0.9101
B(  2-C , 13-H ) :   0.9589 B(  2-C , 14-H ) :   0.9659 B(  2-C , 15-H ) :   0.9694
B(  3-C ,  4-N ) :   1.2746 B(  3-C ,  5-N ) :   1.3325 B(  4-N ,  9-H ) :   0.9054
B(  4-N , 10-H ) :   0.9071 B(  5-N ,  6-H ) :   0.8984 B(  5-N ,  7-H ) :   0.9055

Dispersion correction           -0.024502283
FINAL SINGLE POINT ENERGY      -284.408557728265

DIPOLE MOMENT
-------------
                                X             Y             Z
Electronic contribution:      3.57177      -2.65144      -2.81826
Nuclear contribution   :     -2.93277       1.85779       2.25966
                        -----------------------------------------
Total Dipole Moment    :      0.63900      -0.79365      -0.55860
                        -----------------------------------------
Magnitude (a.u.)       :      1.16200
Magnitude (Debye)      :      2.95356

Rotational constants in cm-1:     0.245511     0.068839     0.059711
Rotational constants in MHz :  7360.233487  2063.743353  1790.088408

                             ****ORCA TERMINATED NORMALLY****
TOTAL RUN TIME: 0 days 0 hours 0 minutes 7 seconds 864 msec
