                         Program Version 5.0.0 -  RELEASE  -
|  1> !BLYP D3BJ RIJCOSX def2-TZVP def2/J TightSCF
|  2> *xyz 0 1
|  3> C          2.49556        1.81615       -2.13636
|  4> C          1.87218        0.42790       -2.07750
|  5> H          2.61427       -0.36583       -2.19889
|  6> H          1.38995        0.27309       -1.11236
|  7> S          0.57902        0.14047       -3.29794
|  8> F          0.22886       -1.24687       -3.12787
|  9> O         -0.43927        1.11897       -3.01455
| 10> O          1.24788        0.40347       -4.59565
| 11> H          2.96535        1.95613       -3.08747
| 12> H          3.22581        1.91242       -1.36024
| 13> H          1.73350        2.55528       -2.00274
| 14> *
| 15>
| 16> %MaxCore 64000
| 17>
| 18> %pal nprocs 4
| 19> end
| 20>
| 21> %scf
| 22>   MaxIter 150
| 23> end
| 24>
| 25>
| 26>                          ****END OF INPUT****

CARTESIAN COORDINATES (ANGSTROEM)
---------------------------------
  C      2.495560    1.816150   -2.136360
  C      1.872180    0.427900   -2.077500
  H      2.614270   -0.365830   -2.198890
  H      1.389950    0.273090   -1.112360
  S      0.579020    0.140470   -3.297940
  F      0.228860   -1.246870   -3.127870
  O     -0.439270    1.118970   -3.014550
  O      1.247880    0.403470   -4.595650
  H      2.965350    1.956130   -3.087470
  H      3.225810    1.912420   -1.360240
  H      1.733500    2.555280   -2.002740

 Total Charge           Charge          ....    0
 Multiplicity           Mult            ....    1
 Number of Electrons    NEL             ....   58
 Basis Dimension        Dim             ....  222

ORBITAL ENERGIES
----------------

  NO   OCC          E(Eh)            E(eV)
   0   2.0000     -88.333191     -2403.6683
   1   2.0000     -24.399703      -663.9497
   2   2.0000     -18.781432      -511.0688
   3   2.0000     -18.767052      -510.6774
   4   2.0000      -9.958966      -270.9972
   5   2.0000      -9.917975      -269.8818
   6   2.0000      -7.864657      -214.0082
   7   2.0000      -5.896780      -160.4595
   8   2.0000      -5.890147      -160.2790
   9   2.0000      -5.890017      -160.2755
  10   2.0000      -1.270735       -34.5784
  11   2.0000      -1.006634       -27.3919
  12   2.0000      -0.909481       -24.7482
  13   2.0000      -0.738105       -20.0849
  14   2.0000      -0.661794       -18.0083
  15   2.0000      -0.603081       -16.4107
  16   2.0000      -0.518532       -14.1100
  17   2.0000      -0.516235       -14.0475
  18   2.0000      -0.489928       -13.3316
  19   2.0000      -0.437222       -11.8974
  20   2.0000      -0.423228       -11.5166
  21   2.0000      -0.385963       -10.5026
  22   2.0000      -0.377463       -10.2713
  23   2.0000      -0.359113        -9.7720
  24   2.0000      -0.339475        -9.2376
  25   2.0000      -0.331093        -9.0095
  26   2.0000      -0.284671        -7.7463
  27   2.0000      -0.271275        -7.3818
  28   2.0000      -0.253121        -6.8878
  29   0.0000      -0.010271        -0.2795
  30   0.0000       0.009981         0.2716
  31   0.0000       0.034878         0.9491
  32   0.0000       0.044282         1.2050
  33   0.0000       0.048187         1.3112

MULLIKEN ATOMIC CHARGES
-----------------------
   0 C :   -0.308874
   1 C :   -0.191665
   2 H :    0.114611
   3 H :    0.109797
   4 S :    0.783567
   5 F :   -0.079506
   6 O :   -0.373262
   7 O :   -0.422814
   8 H :    0.129568
   9 H :    0.110962
  10 H :    0.127614
Sum of atomic charges:    0.0000000

LOEWDIN ATOMIC CHARGES
----------------------
   0 C :   -0.298113
   1 C :   -0.398567
   2 H :    0.131185
   3 H :    0.131257
   4 S :    0.491989
   5 F :    0.109074
   6 O :   -0.243276
   7 O :   -0.294407
   8 H :    0.124381
   9 H :    0.122240
  10 H :    0.124236

  Mayer bond orders larger than 0.100000
B(  0-C ,  1-C ) :   0.9614 B(  0-C ,  8-H ) :   0.9690 B(  0-C ,  9-H ) :   0.9552
B(  0-C , 10-H ) :   0.9698 B(  1-C ,  2-H ) :   0.9334 B(  1-C ,  3-H ) :   0.9324
B(  1-C ,  4-S ) :   0.9002 B(  4-S ,  5-F ) :   1.1503 B(  4-S ,  6-O ) :   1.9406
B(  4-S ,  7-O ) :   1.8902

Dispersion correction           -0.019692846
FINAL SINGLE POINT ENERGY      -727.770007131627

DIPOLE MOMENT
-------------
                                X             Y             Z
Electronic contribution:     -6.87233      -6.39871      -4.16386
Nuclear contribution   :      7.60530       5.82028       5.38743
                        -----------------------------------------
Total Dipole Moment    :      0.73297      -0.57843       1.22358
                        -----------------------------------------
Magnitude (a.u.)       :      1.53915
Magnitude (Debye)      :      3.91220

Rotational constants in cm-1:     0.157861     0.081452     0.078859
Rotational constants in MHz :  4732.562506  2441.865430  2364.129821

                             ****ORCA TERMINATED NORMALLY****
TOTAL RUN TIME: 0 days 0 hours 0 minutes 6 seconds 964 msec
