                         Program Version 5.0.0 -  RELEASE  -
|  1> !BLYP D3BJ RIJCOSX def2-TZVP def2/J TightSCF
|  2> *xyz 0 1
|  3> C          3.38093        2.08304       -3.35013
|  4> C          4.53592        1.18245       -3.42852
|  5> C          2.49556        1.81615       -2.13636
|  6> C          4.67196        0.12227       -4.22060
|  7> N          5.86602       -0.50785       -4.22428
|  8> N          3.69888       -0.31284       -4.98699
|  9> H          2.73141       -0.05009       -4.84900
| 10> H          3.89005       -1.05517       -5.64373
| 11> H          5.25193        1.30346       -2.72101
| 12> H          6.69516       -0.06232       -3.85160
| 13> H          5.97538       -1.39688       -4.69141
| 14> H          2.80646        1.98651       -4.26848
| 15> H          3.77871        3.09828       -3.30738
| 16> H          2.11090        0.81901       -2.18783
| 17> H          1.68276        2.51198       -2.12786
| 18> H          3.07216        1.93031       -1.24227
| 19> *
| 20>
| 21> %MaxCore 64000
| 22>
| 23> %pal nprocs 4
| 24> end
| 25>
| 26> %scf
| 27>   MaxIter 150
| 28> end
| 29>
| 30>
| 31>                          ****END OF INPUT****

CARTESIAN COORDINATES (ANGSTROEM)
---------------------------------
  C      3.380930    2.083040   -3.350130
  C      4.535920    1.182450   -3.428520
  C      2.495560    1.816150   -2.136360
  C      4.671960    0.122270   -4.220600
  N      5.866020   -0.507850   -4.224280
  N      3.698880   -0.312840   -4.986990
  H      2.731410   -0.050090   -4.849000
  H      3.890050   -1.055170   -5.643730
  H      5.251930    1.303460   -2.721010
  H      6.695160   -0.062320   -3.851600
  H      5.975380   -1.396880   -4.691410
  H      2.806460    1.986510   -4.268480
  H      3.778710    3.098280   -3.307380
  H      2.110900    0.819010   -2.187830
  H      1.682760    2.511980   -2.127860
  H      3.072160    1.930310   -1.242270

 Total Charge           Charge          ....    0
 Multiplicity           Mult            ....    1
 Number of Electrons    NEL             ....   48
 Basis Dimension        Dim             ....  246

ORBITAL ENERGIES
----------------

  NO   OCC          E(Eh)            E(eV)
   0   2.0000     -14.005647      -381.1130
   1   2.0000     -13.997887      -380.9019
   2   2.0000      -9.939675      -270.4723
   3   2.0000      -9.874046      -268.6864
   4   2.0000      -9.865469      -268.4531
   5   2.0000      -9.822597      -267.2865
   6   2.0000      -0.868569       -23.6350
   7   2.0000      -0.784183       -21.3387
   8   2.0000      -0.687165       -18.6987
   9   2.0000      -0.617413       -16.8007
  10   2.0000      -0.548547       -14.9267
  11   2.0000      -0.513702       -13.9785
  12   2.0000      -0.485255       -13.2045
  13   2.0000      -0.447701       -12.1826
  14   2.0000      -0.426543       -11.6068
  15   2.0000      -0.386787       -10.5250
  16   2.0000      -0.361277        -9.8309
  17   2.0000      -0.338433        -9.2092
  18   2.0000      -0.325525        -8.8580
  19   2.0000      -0.300443        -8.1755
  20   2.0000      -0.278947        -7.5905
  21   2.0000      -0.273404        -7.4397
  22   2.0000      -0.215455        -5.8628
  23   2.0000      -0.120093        -3.2679
  24   0.0000      -0.003078        -0.0838
  25   0.0000       0.024921         0.6781
  26   0.0000       0.043651         1.1878
  27   0.0000       0.053546         1.4571
  28   0.0000       0.066750         1.8164

MULLIKEN ATOMIC CHARGES
-----------------------
   0 C :   -0.168993
   1 C :   -0.299158
   2 C :   -0.237160
   3 C :    0.369550
   4 N :   -0.445302
   5 N :   -0.427548
   6 H :    0.222694
   7 H :    0.189181
   8 H :    0.059829
   9 H :    0.217743
  10 H :    0.183869
  11 H :    0.040343
  12 H :    0.066404
  13 H :    0.072354
  14 H :    0.076436
  15 H :    0.079757
Sum of atomic charges:   -0.0000000

LOEWDIN ATOMIC CHARGES
----------------------
   0 C :   -0.300078
   1 C :   -0.269823
   2 C :   -0.300088
   3 C :   -0.465765
   4 N :   -0.018279
   5 N :    0.011813
   6 H :    0.172154
   7 H :    0.158443
   8 H :    0.116004
   9 H :    0.169573
  10 H :    0.149475
  11 H :    0.123140
  12 H :    0.132628
  13 H :    0.106633
  14 H :    0.104014
  15 H :    0.110156

  Mayer bond orders larger than 0.100000
B(  0-C ,  1-C ) :   1.0519 B(  0-C ,  2-C ) :   0.9405 B(  0-C , 11-H ) :   0.9644
B(  0-C , 12-H ) :   0.9720 B(  1-C ,  3-C ) :   1.6273 B(  1-C ,  8-H ) :   0.9868
B(  2-C , 13-H ) :   0.9773 B(  2-C , 14-H ) :   0.9681 B(  2-C , 15-H ) :   0.9790
B(  3-C ,  4-N ) :   1.0957 B(  3-C ,  5-N ) :   1.1259 B(  4-N ,  9-H ) :   0.9258
B(  4-N , 10-H ) :   0.9320 B(  5-N ,  6-H ) :   0.9248 B(  5-N ,  7-H ) :   0.9312

Dispersion correction           -0.025631351
FINAL SINGLE POINT ENERGY      -267.911195945740

DIPOLE MOMENT
-------------
                                X             Y             Z
Electronic contribution:      3.04282      -2.86847      -2.95389
Nuclear contribution   :     -2.84307       1.95814       2.32378
                        -----------------------------------------
Total Dipole Moment    :      0.19975      -0.91033      -0.63011
                        -----------------------------------------
Magnitude (a.u.)       :      1.12501
Magnitude (Debye)      :      2.85954

Rotational constants in cm-1:     0.248902     0.068887     0.059904
Rotational constants in MHz :  7461.898926  2065.183281  1795.882140

                             ****ORCA TERMINATED NORMALLY****
TOTAL RUN TIME: 0 days 0 hours 0 minutes 8 seconds 833 msec
