                         Program Version 5.0.0 -  RELEASE  -
|  1> !BLYP D3BJ RIJCOSX def2-TZVP def2/J TightSCF
|  2> *xyz 0 1
|  3> C          2.49556        1.81615       -2.13636
|  4> C          1.87218        0.42790       -2.07750
|  5> H          2.61427       -0.36583       -2.19889
|  6> H          1.38995        0.27309       -1.11236
|  7> S          0.57902        0.14047       -3.29794
|  8> O          0.22886       -1.24687       -3.12787
|  9> F         -0.43927        1.11897       -3.01455
| 10> O          1.24788        0.40347       -4.59565
| 11> H          2.96535        1.95613       -3.08747
| 12> H          3.22581        1.91242       -1.36024
| 13> H          1.73350        2.55528       -2.00274
| 14> *
| 15>
| 16> %MaxCore 64000
| 17>
| 18> %pal nprocs 4
| 19> end
| 20>
| 21> %scf
| 22>   MaxIter 150
| 23> end
| 24>
| 25>
| 26>                          ****END OF INPUT****

CARTESIAN COORDINATES (ANGSTROEM)
---------------------------------
  C      2.495560    1.816150   -2.136360
  C      1.872180    0.427900   -2.077500
  H      2.614270   -0.365830   -2.198890
  H      1.389950    0.273090   -1.112360
  S      0.579020    0.140470   -3.297940
  O      0.228860   -1.246870   -3.127870
  F     -0.439270    1.118970   -3.014550
  O      1.247880    0.403470   -4.595650
  H      2.965350    1.956130   -3.087470
  H      3.225810    1.912420   -1.360240
  H      1.733500    2.555280   -2.002740

 Total Charge           Charge          ....    0
 Multiplicity           Mult            ....    1
 Number of Electrons    NEL             ....   58
 Basis Dimension        Dim             ....  222

ORBITAL ENERGIES
----------------

  NO   OCC          E(Eh)            E(eV)
   0   2.0000     -88.333476     -2403.6761
   1   2.0000     -24.399950      -663.9564
   2   2.0000     -18.781888      -511.0812
   3   2.0000     -18.767948      -510.7018
   4   2.0000      -9.958921      -270.9960
   5   2.0000      -9.920570      -269.9524
   6   2.0000      -7.864911      -214.0151
   7   2.0000      -5.897192      -160.4707
   8   2.0000      -5.890336      -160.2842
   9   2.0000      -5.890196      -160.2804
  10   2.0000      -1.271424       -34.5972
  11   2.0000      -1.006222       -27.3807
  12   2.0000      -0.910575       -24.7780
  13   2.0000      -0.740848       -20.1595
  14   2.0000      -0.658725       -17.9248
  15   2.0000      -0.606784       -16.5114
  16   2.0000      -0.527990       -14.3673
  17   2.0000      -0.515512       -14.0278
  18   2.0000      -0.484140       -13.1741
  19   2.0000      -0.437436       -11.9032
  20   2.0000      -0.420907       -11.4535
  21   2.0000      -0.395404       -10.7595
  22   2.0000      -0.379561       -10.3284
  23   2.0000      -0.358343        -9.7510
  24   2.0000      -0.348043        -9.4707
  25   2.0000      -0.326674        -8.8892
  26   2.0000      -0.283943        -7.7265
  27   2.0000      -0.271634        -7.3915
  28   2.0000      -0.255198        -6.9443
  29   0.0000      -0.016224        -0.4415
  30   0.0000       0.015758         0.4288
  31   0.0000       0.027361         0.7445
  32   0.0000       0.044637         1.2146
  33   0.0000       0.053767         1.4631

MULLIKEN ATOMIC CHARGES
-----------------------
   0 C :   -0.304619
   1 C :   -0.204993
   2 H :    0.138950
   3 H :    0.112022
   4 S :    0.785258
   5 O :   -0.369256
   6 F :   -0.082300
   7 O :   -0.423519
   8 H :    0.134006
   9 H :    0.111327
  10 H :    0.103125
Sum of atomic charges:    0.0000000

LOEWDIN ATOMIC CHARGES
----------------------
   0 C :   -0.311725
   1 C :   -0.393290
   2 H :    0.145254
   3 H :    0.131395
   4 S :    0.493277
   5 O :   -0.242641
   6 F :    0.110255
   7 O :   -0.293520
   8 H :    0.123618
   9 H :    0.121468
  10 H :    0.115909

  Mayer bond orders larger than 0.100000
B(  0-C ,  1-C ) :   0.9436 B(  0-C ,  8-H ) :   0.9671 B(  0-C ,  9-H ) :   0.9581
B(  0-C , 10-H ) :   0.9707 B(  1-C ,  2-H ) :   0.9431 B(  1-C ,  3-H ) :   0.9402
B(  1-C ,  4-S ) :   0.8940 B(  4-S ,  5-O ) :   1.9672 B(  4-S ,  6-F ) :   1.1385
B(  4-S ,  7-O ) :   1.8846

Dispersion correction           -0.019592196
FINAL SINGLE POINT ENERGY      -727.769891653266

DIPOLE MOMENT
-------------
                                X             Y             Z
Electronic contribution:     -7.97866      -2.45709      -3.97049
Nuclear contribution   :      8.30151       3.35500       5.26935
                        -----------------------------------------
Total Dipole Moment    :      0.32285       0.89791       1.29886
                        -----------------------------------------
Magnitude (a.u.)       :      1.61168
Magnitude (Debye)      :      4.09657

Rotational constants in cm-1:     0.152913     0.083043     0.080351
Rotational constants in MHz :  4584.227971  2489.580280  2408.872860

                             ****ORCA TERMINATED NORMALLY****
TOTAL RUN TIME: 0 days 0 hours 0 minutes 6 seconds 914 msec
