                         Program Version 5.0.0 -  RELEASE  -
|  1> !BLYP D3BJ RIJCOSX def2-TZVP def2/J TightSCF
|  2> *xyz 0 1
|  3> C          3.38093        2.08304       -3.35013
|  4> N          4.53592        1.18245       -3.42852
|  5> C          2.49556        1.81615       -2.13636
|  6> C          4.67196        0.12227       -4.22060
|  7> C          5.86602       -0.50785       -4.22428
|  8> N          3.69888       -0.31284       -4.98699
|  9> H          2.73141       -0.05009       -4.84900
| 10> H          3.89005       -1.05517       -5.64373
| 11> H          5.25193        1.30346       -2.72101
| 12> H          6.69516       -0.06232       -3.85160
| 13> H          5.97538       -1.39688       -4.69141
| 14> H          2.80646        1.98651       -4.26848
| 15> H          3.77871        3.09828       -3.30738
| 16> H          2.11090        0.81901       -2.18783
| 17> H          1.68276        2.51198       -2.12786
| 18> H          3.07216        1.93031       -1.24227
| 19> *
| 20>
| 21> %MaxCore 64000
| 22>
| 23> %pal nprocs 4
| 24> end
| 25>
| 26> %scf
| 27>   MaxIter 150
| 28> end
| 29>
| 30>
| 31>                          ****END OF INPUT****

CARTESIAN COORDINATES (ANGSTROEM)
---------------------------------
  C      3.380930    2.083040   -3.350130
  N      4.535920    1.182450   -3.428520
  C      2.495560    1.816150   -2.136360
  C      4.671960    0.122270   -4.220600
  C      5.866020   -0.507850   -4.224280
  N      3.698880   -0.312840   -4.986990
  H      2.731410   -0.050090   -4.849000
  H      3.890050   -1.055170   -5.643730
  H      5.251930    1.303460   -2.721010
  H      6.695160   -0.062320   -3.851600
  H      5.975380   -1.396880   -4.691410
  H      2.806460    1.986510   -4.268480
  H      3.778710    3.098280   -3.307380
  H      2.110900    0.819010   -2.187830
  H      1.682760    2.511980   -2.127860
  H      3.072160    1.930310   -1.242270

 Total Charge           Charge          ....    0
 Multiplicity           Mult            ....    1
 Number of Electrons    NEL             ....   48
 Basis Dimension        Dim             ....  246

ORBITAL ENERGIES
----------------

  NO   OCC          E(Eh)            E(eV)
   0   2.0000     -14.005560      -381.1107
   1   2.0000     -14.003222      -381.0471
   2   2.0000      -9.943739      -270.5829
   3   2.0000      -9.942012      -270.5359
   4   2.0000      -9.895777      -269.2778
   5   2.0000      -9.811737      -266.9909
   6   2.0000      -0.875715       -23.8294
   7   2.0000      -0.801740       -21.8164
   8   2.0000      -0.692426       -18.8419
   9   2.0000      -0.621115       -16.9014
  10   2.0000      -0.559198       -15.2166
  11   2.0000      -0.539782       -14.6882
  12   2.0000      -0.485230       -13.2038
  13   2.0000      -0.442172       -12.0321
  14   2.0000      -0.427448       -11.6315
  15   2.0000      -0.393842       -10.7170
  16   2.0000      -0.375792       -10.2258
  17   2.0000      -0.351147        -9.5552
  18   2.0000      -0.337430        -9.1819
  19   2.0000      -0.321870        -8.7585
  20   2.0000      -0.316499        -8.6124
  21   2.0000      -0.302830        -8.2404
  22   2.0000      -0.207451        -5.6450
  23   2.0000      -0.120722        -3.2850
  24   0.0000      -0.002468        -0.0672
  25   0.0000       0.027476         0.7477
  26   0.0000       0.036859         1.0030
  27   0.0000       0.055239         1.5031
  28   0.0000       0.061431         1.6716

MULLIKEN ATOMIC CHARGES
-----------------------
   0 C :   -0.112615
   1 N :   -0.275288
   2 C :   -0.238632
   3 C :    0.424265
   4 C :   -0.555381
   5 N :   -0.431591
   6 H :    0.195243
   7 H :    0.217337
   8 H :    0.194219
   9 H :    0.074304
  10 H :    0.063286
  11 H :    0.086771
  12 H :    0.092948
  13 H :    0.090122
  14 H :    0.087199
  15 H :    0.087813
Sum of atomic charges:   -0.0000000

LOEWDIN ATOMIC CHARGES
----------------------
   0 C :   -0.305244
   1 N :    0.131518
   2 C :   -0.302126
   3 C :   -0.470311
   4 C :   -0.354670
   5 N :    0.015474
   6 H :    0.155134
   7 H :    0.175941
   8 H :    0.189274
   9 H :    0.090762
  10 H :    0.088877
  11 H :    0.124792
  12 H :    0.125369
  13 H :    0.110936
  14 H :    0.112595
  15 H :    0.111680

  Mayer bond orders larger than 0.100000
B(  0-C ,  1-N ) :   0.9428 B(  0-C ,  2-C ) :   0.9417 B(  0-C , 11-H ) :   0.9708
B(  0-C , 12-H ) :   0.9706 B(  1-N ,  3-C ) :   1.1930 B(  1-N ,  8-H ) :   0.9295
B(  2-C , 13-H ) :   0.9722 B(  2-C , 14-H ) :   0.9649 B(  2-C , 15-H ) :   0.9734
B(  3-C ,  4-C ) :   1.5098 B(  3-C ,  5-N ) :   1.1506 B(  4-C ,  9-H ) :   1.0048
B(  4-C , 10-H ) :   1.0052 B(  5-N ,  6-H ) :   0.9238 B(  5-N ,  7-H ) :   0.9264

Dispersion correction           -0.025310934
FINAL SINGLE POINT ENERGY      -267.902995593027

DIPOLE MOMENT
-------------
                                X             Y             Z
Electronic contribution:      1.52011      -1.12110      -2.06567
Nuclear contribution   :     -2.56090       1.59955       2.15496
                        -----------------------------------------
Total Dipole Moment    :     -1.04079       0.47845       0.08929
                        -----------------------------------------
Magnitude (a.u.)       :      1.14897
Magnitude (Debye)      :      2.92045

Rotational constants in cm-1:     0.249834     0.071381     0.061833
Rotational constants in MHz :  7489.842787  2139.945635  1853.706310

                             ****ORCA TERMINATED NORMALLY****
TOTAL RUN TIME: 0 days 0 hours 0 minutes 8 seconds 659 msec
