                         Program Version 5.0.0 -  RELEASE  -
|  1> !BLYP D3BJ RIJCOSX def2-TZVP def2/J TightSCF
|  2> *xyz 0 1
|  3> C          2.49556        1.81615       -2.13636
|  4> C          1.87218        0.42790       -2.07750
|  5> H          2.61427       -0.36583       -2.19889
|  6> H          1.38995        0.27309       -1.11236
|  7> S          0.57902        0.14047       -3.29794
|  8> O          0.22886       -1.24687       -3.12787
|  9> O         -0.43927        1.11897       -3.01455
| 10> F          1.24788        0.40347       -4.59565
| 11> H          2.96535        1.95613       -3.08747
| 12> H          3.22581        1.91242       -1.36024
| 13> H          1.73350        2.55528       -2.00274
| 14> *
| 15>
| 16> %MaxCore 64000
| 17>
| 18> %pal nprocs 4
| 19> end
| 20>
| 21> %scf
| 22>   MaxIter 150
| 23> end
| 24>
| 25>
| 26>                          ****END OF INPUT****

CARTESIAN COORDINATES (ANGSTROEM)
---------------------------------
  C      2.495560    1.816150   -2.136360
  C      1.872180    0.427900   -2.077500
  H      2.614270   -0.365830   -2.198890
  H      1.389950    0.273090   -1.112360
  S      0.579020    0.140470   -3.297940
  O      0.228860   -1.246870   -3.127870
  O     -0.439270    1.118970   -3.014550
  F      1.247880    0.403470   -4.595650
  H      2.965350    1.956130   -3.087470
  H      3.225810    1.912420   -1.360240
  H      1.733500    2.555280   -2.002740

 Total Charge           Charge          ....    0
 Multiplicity           Mult            ....    1
 Number of Electrons    NEL             ....   58
 Basis Dimension        Dim             ....  222

ORBITAL ENERGIES
----------------

  NO   OCC          E(Eh)            E(eV)
   0   2.0000     -88.331065     -2403.6105
   1   2.0000     -24.378125      -663.3625
   2   2.0000     -18.781899      -511.0814
   3   2.0000     -18.781519      -511.0711
   4   2.0000      -9.957984      -270.9705
   5   2.0000      -9.921161      -269.9685
   6   2.0000      -7.862619      -213.9527
   7   2.0000      -5.894918      -160.4089
   8   2.0000      -5.888120      -160.2239
   9   2.0000      -5.887929      -160.2187
  10   2.0000      -1.236319       -33.6420
  11   2.0000      -1.016621       -27.6637
  12   2.0000      -0.930927       -25.3318
  13   2.0000      -0.740293       -20.1444
  14   2.0000      -0.645536       -17.5659
  15   2.0000      -0.600397       -16.3376
  16   2.0000      -0.512360       -13.9420
  17   2.0000      -0.491453       -13.3731
  18   2.0000      -0.480557       -13.0766
  19   2.0000      -0.438007       -11.9188
  20   2.0000      -0.417770       -11.3681
  21   2.0000      -0.398145       -10.8341
  22   2.0000      -0.383277       -10.4295
  23   2.0000      -0.358823        -9.7641
  24   2.0000      -0.352553        -9.5935
  25   2.0000      -0.330420        -8.9912
  26   2.0000      -0.290128        -7.8948
  27   2.0000      -0.283904        -7.7254
  28   2.0000      -0.270319        -7.3558
  29   0.0000      -0.014407        -0.3920
  30   0.0000       0.020120         0.5475
  31   0.0000       0.031055         0.8451
  32   0.0000       0.047933         1.3043
  33   0.0000       0.052269         1.4223

MULLIKEN ATOMIC CHARGES
-----------------------
   0 C :   -0.310632
   1 C :   -0.206430
   2 H :    0.122141
   3 H :    0.130976
   4 S :    0.791255
   5 O :   -0.377566
   6 O :   -0.383197
   7 F :   -0.117946
   8 H :    0.108192
   9 H :    0.112246
  10 H :    0.130960
Sum of atomic charges:   -0.0000000

LOEWDIN ATOMIC CHARGES
----------------------
   0 C :   -0.312476
   1 C :   -0.392704
   2 H :    0.133470
   3 H :    0.144366
   4 S :    0.500859
   5 O :   -0.246508
   6 O :   -0.246638
   7 F :    0.058512
   8 H :    0.116393
   9 H :    0.121836
  10 H :    0.122889

  Mayer bond orders larger than 0.100000
B(  0-C ,  1-C ) :   0.9432 B(  0-C ,  8-H ) :   0.9707 B(  0-C ,  9-H ) :   0.9591
B(  0-C , 10-H ) :   0.9680 B(  1-C ,  2-H ) :   0.9411 B(  1-C ,  3-H ) :   0.9430
B(  1-C ,  4-S ) :   0.8944 B(  4-S ,  5-O ) :   1.9659 B(  4-S ,  6-O ) :   1.9338
B(  4-S ,  7-F ) :   1.0978

Dispersion correction           -0.019586486
FINAL SINGLE POINT ENERGY      -727.787853538678

DIPOLE MOMENT
-------------
                                X             Y             Z
Electronic contribution:     -5.15703      -3.64180      -6.61212
Nuclear contribution   :      6.54345       4.10057       6.91691
                        -----------------------------------------
Total Dipole Moment    :      1.38642       0.45877       0.30479
                        -----------------------------------------
Magnitude (a.u.)       :      1.49182
Magnitude (Debye)      :      3.79190

Rotational constants in cm-1:     0.152835     0.082826     0.080611
Rotational constants in MHz :  4581.878371  2483.049050  2416.647141

                             ****ORCA TERMINATED NORMALLY****
TOTAL RUN TIME: 0 days 0 hours 0 minutes 6 seconds 916 msec
