                         Program Version 5.0.0 -  RELEASE  -
|  1> !BLYP D3BJ RIJCOSX def2-TZVP def2/J TightSCF
|  2> *xyz 0 1
|  3> C          3.38093        2.08304       -3.35013
|  4> N          4.53592        1.18245       -3.42852
|  5> C          2.49556        1.81615       -2.13636
|  6> C          4.67196        0.12227       -4.22060
|  7> N          5.86602       -0.50785       -4.22428
|  8> C          3.69888       -0.31284       -4.98699
|  9> H          2.73141       -0.05009       -4.84900
| 10> H          3.89005       -1.05517       -5.64373
| 11> H          5.25193        1.30346       -2.72101
| 12> H          6.69516       -0.06232       -3.85160
| 13> H          5.97538       -1.39688       -4.69141
| 14> H          2.80646        1.98651       -4.26848
| 15> H          3.77871        3.09828       -3.30738
| 16> H          2.11090        0.81901       -2.18783
| 17> H          1.68276        2.51198       -2.12786
| 18> H          3.07216        1.93031       -1.24227
| 19> *
| 20>
| 21> %MaxCore 64000
| 22>
| 23> %pal nprocs 4
| 24> end
| 25>
| 26> %scf
| 27>   MaxIter 150
| 28> end
| 29>
| 30>
| 31>                          ****END OF INPUT****

CARTESIAN COORDINATES (ANGSTROEM)
---------------------------------
  C      3.380930    2.083040   -3.350130
  N      4.535920    1.182450   -3.428520
  C      2.495560    1.816150   -2.136360
  C      4.671960    0.122270   -4.220600
  N      5.866020   -0.507850   -4.224280
  C      3.698880   -0.312840   -4.986990
  H      2.731410   -0.050090   -4.849000
  H      3.890050   -1.055170   -5.643730
  H      5.251930    1.303460   -2.721010
  H      6.695160   -0.062320   -3.851600
  H      5.975380   -1.396880   -4.691410
  H      2.806460    1.986510   -4.268480
  H      3.778710    3.098280   -3.307380
  H      2.110900    0.819010   -2.187830
  H      1.682760    2.511980   -2.127860
  H      3.072160    1.930310   -1.242270

 Total Charge           Charge          ....    0
 Multiplicity           Mult            ....    1
 Number of Electrons    NEL             ....   48
 Basis Dimension        Dim             ....  246

ORBITAL ENERGIES
----------------

  NO   OCC          E(Eh)            E(eV)
   0   2.0000     -14.003018      -381.0415
   1   2.0000     -13.998561      -380.9202
   2   2.0000      -9.940809      -270.5032
   3   2.0000      -9.933930      -270.3160
   4   2.0000      -9.888424      -269.0777
   5   2.0000      -9.814391      -267.0632
   6   2.0000      -0.869236       -23.6531
   7   2.0000      -0.792477       -21.5644
   8   2.0000      -0.678489       -18.4626
   9   2.0000      -0.633682       -17.2434
  10   2.0000      -0.570362       -15.5203
  11   2.0000      -0.502639       -13.6775
  12   2.0000      -0.484729       -13.1901
  13   2.0000      -0.457409       -12.4467
  14   2.0000      -0.405826       -11.0431
  15   2.0000      -0.395102       -10.7513
  16   2.0000      -0.366236        -9.9658
  17   2.0000      -0.350855        -9.5472
  18   2.0000      -0.329950        -8.9784
  19   2.0000      -0.327420        -8.9095
  20   2.0000      -0.307076        -8.3560
  21   2.0000      -0.299342        -8.1455
  22   2.0000      -0.199668        -5.4332
  23   2.0000      -0.131412        -3.5759
  24   0.0000       0.002613         0.0711
  25   0.0000       0.026149         0.7116
  26   0.0000       0.043780         1.1913
  27   0.0000       0.056585         1.5397
  28   0.0000       0.068120         1.8537

MULLIKEN ATOMIC CHARGES
-----------------------
   0 C :   -0.060687
   1 N :   -0.294219
   2 C :   -0.272811
   3 C :    0.442133
   4 N :   -0.462815
   5 C :   -0.533538
   6 H :    0.080436
   7 H :    0.058664
   8 H :    0.161074
   9 H :    0.188701
  10 H :    0.216390
  11 H :    0.109729
  12 H :    0.084900
  13 H :    0.113157
  14 H :    0.089120
  15 H :    0.079766
Sum of atomic charges:    0.0000000

LOEWDIN ATOMIC CHARGES
----------------------
   0 C :   -0.288054
   1 N :    0.125274
   2 C :   -0.300545
   3 C :   -0.465712
   4 N :   -0.016522
   5 C :   -0.333231
   6 H :    0.095886
   7 H :    0.095729
   8 H :    0.170160
   9 H :    0.150936
  10 H :    0.168112
  11 H :    0.134988
  12 H :    0.123552
  13 H :    0.117128
  14 H :    0.113611
  15 H :    0.108688

  Mayer bond orders larger than 0.100000
B(  0-C ,  1-N ) :   0.9165 B(  0-C ,  2-C ) :   0.9462 B(  0-C , 11-H ) :   0.9615
B(  0-C , 12-H ) :   0.9722 B(  1-N ,  3-C ) :   1.1620 B(  1-N ,  8-H ) :   0.9328
B(  2-C , 13-H ) :   0.9775 B(  2-C , 14-H ) :   0.9669 B(  2-C , 15-H ) :   0.9730
B(  3-C ,  4-N ) :   1.0870 B(  3-C ,  5-C ) :   1.5839 B(  4-N ,  9-H ) :   0.9293
B(  4-N , 10-H ) :   0.9294 B(  5-C ,  6-H ) :   0.9974 B(  5-C ,  7-H ) :   1.0051

Dispersion correction           -0.025469260
FINAL SINGLE POINT ENERGY      -267.907328223301

DIPOLE MOMENT
-------------
                                X             Y             Z
Electronic contribution:      3.72925      -1.33251      -1.34096
Nuclear contribution   :     -3.02065       1.64092       1.99316
                        -----------------------------------------
Total Dipole Moment    :      0.70860       0.30841       0.65220
                        -----------------------------------------
Magnitude (a.u.)       :      1.01124
Magnitude (Debye)      :      2.57036

Rotational constants in cm-1:     0.259304     0.069422     0.060943
Rotational constants in MHz :  7773.747720  2081.225169  1827.013389

                             ****ORCA TERMINATED NORMALLY****
TOTAL RUN TIME: 0 days 0 hours 0 minutes 8 seconds 866 msec
