                         Program Version 5.0.0 -  RELEASE  -
|  1> !BLYP D3BJ RIJCOSX def2-TZVP def2/J TightSCF xyzfile
|  2>
|  3> *xyzfile 0 1 D1.xyz
|  4>
|  5> %MaxCore 64000
|  6>
|  7> %pal nprocs 18
|  8> end
|  9>
| 10> %scf
| 11>   MaxIter 150
| 12> end
| 13>
| 14>
| 15>                          ****END OF INPUT****

CARTESIAN COORDINATES (ANGSTROEM)
---------------------------------
  C      3.380928    2.083045   -3.350127
  C      4.535924    1.182447   -3.428518
  C      2.495557    1.816150   -2.136364
  C      1.872181    0.427903   -2.077497
  H      2.614270   -0.365825   -2.198894
  H      1.389953    0.273087   -1.112360
  S      0.579024    0.140472   -3.297943
  C      4.671956    0.122273   -4.220598
  N      5.866023   -0.507849   -4.224284
  N      3.698881   -0.312844   -4.986988
  H      2.731405   -0.050091   -4.849000
  H      3.890046   -1.055172   -5.643730
  H      5.251933    1.303459   -2.721014
  H      6.695165   -0.062322   -3.851596
  H      5.975383   -1.396884   -4.691414
  F      0.228860   -1.246868   -3.127871
  O     -0.439269    1.118966   -3.014550
  O      1.247881    0.403474   -4.595647
  H      1.697003    2.561969   -2.141109
  H      3.080787    1.987436   -1.225838
  H      2.806463    1.986511   -4.268484
  H      3.778714    3.098282   -3.307383

 Total Charge           Charge          ....    0
 Multiplicity           Mult            ....    1
 Number of Electrons    NEL             ....   96
 Basis Dimension        Dim             ....  413

ORBITAL ENERGIES
----------------

  NO   OCC          E(Eh)            E(eV)
   0   2.0000     -88.342341     -2403.9173
   1   2.0000     -24.406219      -664.1270
   2   2.0000     -18.788640      -511.2649
   3   2.0000     -18.784414      -511.1499
   4   2.0000     -13.994879      -380.8200
   5   2.0000     -13.979035      -380.3889
   6   2.0000      -9.950362      -270.7631
   7   2.0000      -9.936297      -270.3804
   8   2.0000      -9.909698      -269.6566
   9   2.0000      -9.877353      -268.7765
  10   2.0000      -9.821915      -267.2679
  11   2.0000      -7.874095      -214.2650
  12   2.0000      -5.906217      -160.7163
  13   2.0000      -5.899985      -160.5468
  14   2.0000      -5.898997      -160.5199
  15   2.0000      -1.277550       -34.7639
  16   2.0000      -1.018559       -27.7164
  17   2.0000      -0.928451       -25.2644
  18   2.0000      -0.859056       -23.3761
  19   2.0000      -0.774585       -21.0775
  20   2.0000      -0.740078       -20.1386
  21   2.0000      -0.684416       -18.6239
  22   2.0000      -0.649730       -17.6800
  23   2.0000      -0.607398       -16.5281
  24   2.0000      -0.557548       -15.1717
  25   2.0000      -0.528953       -14.3936
  26   2.0000      -0.521207       -14.1828
  27   2.0000      -0.511268       -13.9123
  28   2.0000      -0.489644       -13.3239
  29   2.0000      -0.475341       -12.9347
  30   2.0000      -0.455089       -12.3836
  31   2.0000      -0.433941       -11.8081
  32   2.0000      -0.425921       -11.5899
  33   2.0000      -0.411120       -11.1871
  34   2.0000      -0.395673       -10.7668
  35   2.0000      -0.382455       -10.4071
  36   2.0000      -0.356443        -9.6993
  37   2.0000      -0.348403        -9.4805
  38   2.0000      -0.339202        -9.2302
  39   2.0000      -0.328066        -8.9271
  40   2.0000      -0.307181        -8.3588
  41   2.0000      -0.300556        -8.1785
  42   2.0000      -0.288643        -7.8544
  43   2.0000      -0.286999        -7.8096
  44   2.0000      -0.267998        -7.2926
  45   2.0000      -0.264700        -7.2029
  46   2.0000      -0.205984        -5.6051
  47   2.0000      -0.120358        -3.2751
  48   0.0000      -0.017066        -0.4644
  49   0.0000       0.006697         0.1822
  50   0.0000       0.017517         0.4767
  51   0.0000       0.032948         0.8966
  52   0.0000       0.041547         1.1305

MULLIKEN ATOMIC CHARGES
-----------------------
   0 C :   -0.197248
   1 C :   -0.356186
   2 C :   -0.087824
   3 C :   -0.266869
   4 H :    0.148311
   5 H :    0.119802
   6 S :    0.801192
   7 C :    0.346542
   8 N :   -0.447453
   9 N :   -0.433762
  10 H :    0.250115
  11 H :    0.175654
  12 H :    0.056763
  13 H :    0.214296
  14 H :    0.183813
  15 F :   -0.077909
  16 O :   -0.362275
  17 O :   -0.427507
  18 H :    0.094121
  19 H :    0.078121
  20 H :    0.119626
  21 H :    0.068679
Sum of atomic charges:   -0.0000000

LOEWDIN ATOMIC CHARGES
----------------------
   0 C :   -0.277501
   1 C :   -0.283745
   2 C :   -0.267401
   3 C :   -0.370104
   4 H :    0.140835
   5 H :    0.135027
   6 S :    0.515711
   7 C :   -0.473188
   8 N :   -0.018890
   9 N :    0.012374
  10 H :    0.128895
  11 H :    0.153413
  12 H :    0.113830
  13 H :    0.167114
  14 H :    0.149360
  15 F :    0.112147
  16 O :   -0.231501
  17 O :   -0.264384
  18 H :    0.137793
  19 H :    0.141756
  20 H :    0.140821
  21 H :    0.137637

  Mayer bond orders larger than 0.100000
B(  0-C ,  1-C ) :   1.0137 B(  0-C ,  2-C ) :   0.9516 B(  0-C , 20-H ) :   0.9720
B(  0-C , 21-H ) :   0.9689 B(  1-C ,  7-C ) :   1.5936 B(  1-C , 12-H ) :   0.9869
B(  2-C ,  3-C ) :   0.9599 B(  2-C , 18-H ) :   0.9472 B(  2-C , 19-H ) :   0.9420
B(  3-C ,  4-H ) :   0.9235 B(  3-C ,  5-H ) :   0.9350 B(  3-C ,  6-S ) :   0.9222
B(  6-S , 15-F ) :   1.1524 B(  6-S , 16-O ) :   1.9675 B(  6-S , 17-O ) :   1.7351
B(  7-C ,  8-N ) :   1.1013 B(  7-C ,  9-N ) :   1.1794 B(  8-N , 13-H ) :   0.9265
B(  8-N , 14-H ) :   0.9318 B(  9-N , 10-H ) :   0.8329 B(  9-N , 11-H ) :   0.9356
B( 10-H , 17-O ) :   0.1445

Dispersion correction           -0.051896183
FINAL SINGLE POINT ENERGY      -955.187779134108

DIPOLE MOMENT
-------------
                                X             Y             Z
Electronic contribution:    -15.30899      -6.75866      -1.25640
Nuclear contribution   :     15.92508       5.34175       1.81950
                        -----------------------------------------
Total Dipole Moment    :      0.61609      -1.41691       0.56310
                        -----------------------------------------
Magnitude (a.u.)       :      1.64447
Magnitude (Debye)      :      4.17990

Rotational constants in cm-1:     0.058561     0.020662     0.017762
Rotational constants in MHz :  1755.621534   619.433801   532.501507

                             ****ORCA TERMINATED NORMALLY****
TOTAL RUN TIME: 0 days 0 hours 0 minutes 15 seconds 814 msec
