                         Program Version 5.0.0 -  RELEASE  -
|  1> !BLYP D3BJ RIJCOSX def2-TZVP def2/J TightSCF xyzfile
|  2>
|  3> *xyzfile 0 1 D2.xyz
|  4>
|  5> %MaxCore 64000
|  6>
|  7> %pal nprocs 18
|  8> end
|  9>
| 10> %scf
| 11>   MaxIter 150
| 12> end
| 13>
| 14>
| 15>                          ****END OF INPUT****

CARTESIAN COORDINATES (ANGSTROEM)
---------------------------------
  C      3.380928    2.083045   -3.350127
  N      4.535924    1.182447   -3.428518
  C      2.495557    1.816150   -2.136364
  C      1.872181    0.427903   -2.077497
  H      2.614270   -0.365825   -2.198894
  H      1.389953    0.273087   -1.112360
  S      0.579024    0.140472   -3.297943
  C      4.671956    0.122273   -4.220598
  C      5.866023   -0.507849   -4.224284
  N      3.698881   -0.312844   -4.986988
  H      2.731405   -0.050091   -4.849000
  H      3.890046   -1.055172   -5.643730
  H      5.251933    1.303459   -2.721014
  H      6.695165   -0.062322   -3.851596
  H      5.975383   -1.396884   -4.691414
  F      0.228860   -1.246868   -3.127871
  O     -0.439269    1.118966   -3.014550
  O      1.247881    0.403474   -4.595647
  H      1.697003    2.561969   -2.141109
  H      3.080787    1.987436   -1.225838
  H      2.806463    1.986511   -4.268484
  H      3.778714    3.098282   -3.307383

 Total Charge           Charge          ....    0
 Multiplicity           Mult            ....    1
 Number of Electrons    NEL             ....   96
 Basis Dimension        Dim             ....  413

ORBITAL ENERGIES
----------------

  NO   OCC          E(Eh)            E(eV)
   0   2.0000     -88.356674     -2404.3073
   1   2.0000     -24.418237      -664.4540
   2   2.0000     -18.802136      -511.6321
   3   2.0000     -18.796883      -511.4892
   4   2.0000     -14.003767      -381.0619
   5   2.0000     -13.976526      -380.3206
   6   2.0000      -9.969895      -271.2946
   7   2.0000      -9.944559      -270.6052
   8   2.0000      -9.938226      -270.4329
   9   2.0000      -9.935736      -270.3651
  10   2.0000      -9.804885      -266.8045
  11   2.0000      -7.888256      -214.6504
  12   2.0000      -5.920308      -161.0998
  13   2.0000      -5.914117      -160.9313
  14   2.0000      -5.913322      -160.9097
  15   2.0000      -1.289352       -35.0850
  16   2.0000      -1.031906       -28.0796
  17   2.0000      -0.941410       -25.6171
  18   2.0000      -0.869102       -23.6495
  19   2.0000      -0.794132       -21.6094
  20   2.0000      -0.753272       -20.4976
  21   2.0000      -0.693761       -18.8782
  22   2.0000      -0.652485       -17.7550
  23   2.0000      -0.613032       -16.6814
  24   2.0000      -0.567960       -15.4550
  25   2.0000      -0.537380       -14.6228
  26   2.0000      -0.533383       -14.5141
  27   2.0000      -0.528357       -14.3773
  28   2.0000      -0.517017       -14.0687
  29   2.0000      -0.483136       -13.1468
  30   2.0000      -0.450905       -12.2698
  31   2.0000      -0.434882       -11.8337
  32   2.0000      -0.431681       -11.7466
  33   2.0000      -0.426815       -11.6142
  34   2.0000      -0.408233       -11.1086
  35   2.0000      -0.393404       -10.7051
  36   2.0000      -0.364622        -9.9219
  37   2.0000      -0.357736        -9.7345
  38   2.0000      -0.354561        -9.6481
  39   2.0000      -0.337927        -9.1955
  40   2.0000      -0.332882        -9.0582
  41   2.0000      -0.319721        -8.7000
  42   2.0000      -0.306356        -8.3364
  43   2.0000      -0.296455        -8.0670
  44   2.0000      -0.292675        -7.9641
  45   2.0000      -0.275560        -7.4984
  46   2.0000      -0.201055        -5.4710
  47   2.0000      -0.114772        -3.1231
  48   0.0000      -0.029647        -0.8067
  49   0.0000      -0.006744        -0.1835
  50   0.0000       0.016779         0.4566
  51   0.0000       0.025259         0.6873
  52   0.0000       0.032688         0.8895

MULLIKEN ATOMIC CHARGES
-----------------------
   0 C :   -0.161010
   1 N :   -0.291209
   2 C :   -0.124425
   3 C :   -0.257863
   4 H :    0.155505
   5 H :    0.128490
   6 S :    0.808828
   7 C :    0.394227
   8 C :   -0.568576
   9 N :   -0.445509
  10 H :    0.236853
  11 H :    0.202739
  12 H :    0.189657
  13 H :    0.069858
  14 H :    0.061204
  15 F :   -0.072319
  16 O :   -0.361520
  17 O :   -0.423707
  18 H :    0.103195
  19 H :    0.095677
  20 H :    0.159900
  21 H :    0.100003
Sum of atomic charges:    0.0000000

LOEWDIN ATOMIC CHARGES
----------------------
   0 C :   -0.281909
   1 N :    0.128862
   2 C :   -0.275385
   3 C :   -0.369400
   4 H :    0.144398
   5 H :    0.138265
   6 S :    0.517138
   7 C :   -0.483847
   8 C :   -0.367317
   9 N :    0.011432
  10 H :    0.120203
  11 H :    0.170543
  12 H :    0.186827
  13 H :    0.088016
  14 H :    0.088020
  15 F :    0.118096
  16 O :   -0.229713
  17 O :   -0.262659
  18 H :    0.144835
  19 H :    0.142937
  20 H :    0.139855
  21 H :    0.130803

  Mayer bond orders larger than 0.100000
B(  0-C ,  1-N ) :   0.9176 B(  0-C ,  2-C ) :   0.9513 B(  0-C , 20-H ) :   0.9652
B(  0-C , 21-H ) :   0.9725 B(  1-N ,  7-C ) :   1.1685 B(  1-N , 12-H ) :   0.9302
B(  2-C ,  3-C ) :   0.9587 B(  2-C , 18-H ) :   0.9457 B(  2-C , 19-H ) :   0.9449
B(  3-C ,  4-H ) :   0.9243 B(  3-C ,  5-H ) :   0.9345 B(  3-C ,  6-S ) :   0.9171
B(  6-S , 15-F ) :   1.1627 B(  6-S , 16-O ) :   1.9631 B(  6-S , 17-O ) :   1.7391
B(  7-C ,  8-C ) :   1.5071 B(  7-C ,  9-N ) :   1.1941 B(  8-C , 13-H ) :   1.0033
B(  8-C , 14-H ) :   1.0065 B(  9-N , 10-H ) :   0.8420 B(  9-N , 11-H ) :   0.9342
B( 10-H , 17-O ) :   0.1298

Dispersion correction           -0.051347389
FINAL SINGLE POINT ENERGY      -955.174489192156

DIPOLE MOMENT
-------------
                                X             Y             Z
Electronic contribution:    -16.81424      -5.25435      -0.44887
Nuclear contribution   :     16.05479       5.17692       1.74190
                        -----------------------------------------
Total Dipole Moment    :     -0.75945      -0.07743       1.29303
                        -----------------------------------------
Magnitude (a.u.)       :      1.50156
Magnitude (Debye)      :      3.81666

Rotational constants in cm-1:     0.058652     0.021107     0.018077
Rotational constants in MHz :  1758.344290   632.763813   541.920558

                             ****ORCA TERMINATED NORMALLY****
TOTAL RUN TIME: 0 days 0 hours 0 minutes 16 seconds 382 msec
