                         Program Version 5.0.0 -  RELEASE  -
|  1> !BLYP D3BJ RIJCOSX def2-TZVP def2/J TightSCF xyzfile
|  2>
|  3> *xyzfile 0 1 D5.xyz
|  4>
|  5> %MaxCore 64000
|  6>
|  7> %pal nprocs 18
|  8> end
|  9>
| 10> %scf
| 11>   MaxIter 150
| 12> end
| 13>
| 14>
| 15>                          ****END OF INPUT****

CARTESIAN COORDINATES (ANGSTROEM)
---------------------------------
  C      3.380928    2.083045   -3.350127
  N      4.535924    1.182447   -3.428518
  C      2.495557    1.816150   -2.136364
  C      1.872181    0.427903   -2.077497
  H      2.614270   -0.365825   -2.198894
  H      1.389953    0.273087   -1.112360
  S      0.579024    0.140472   -3.297943
  C      4.671956    0.122273   -4.220598
  C      5.866023   -0.507849   -4.224284
  N      3.698881   -0.312844   -4.986988
  H      2.731405   -0.050091   -4.849000
  H      3.890046   -1.055172   -5.643730
  H      5.251933    1.303459   -2.721014
  H      6.695165   -0.062322   -3.851596
  H      5.975383   -1.396884   -4.691414
  O      0.228860   -1.246868   -3.127871
  F     -0.439269    1.118966   -3.014550
  O      1.247881    0.403474   -4.595647
  H      1.697003    2.561969   -2.141109
  H      3.080787    1.987436   -1.225838
  H      2.806463    1.986511   -4.268484
  H      3.778714    3.098282   -3.307383

 Total Charge           Charge          ....    0
 Multiplicity           Mult            ....    1
 Number of Electrons    NEL             ....   96
 Basis Dimension        Dim             ....  413

ORBITAL ENERGIES
----------------

  NO   OCC          E(Eh)            E(eV)
   0   2.0000     -88.356121     -2404.2923
   1   2.0000     -24.418696      -664.4665
   2   2.0000     -18.801229      -511.6074
   3   2.0000     -18.796579      -511.4809
   4   2.0000     -14.004886      -381.0923
   5   2.0000     -13.975864      -380.3026
   6   2.0000      -9.969476      -271.2832
   7   2.0000      -9.946456      -270.6568
   8   2.0000      -9.940071      -270.4831
   9   2.0000      -9.935262      -270.3522
  10   2.0000      -9.804348      -266.7899
  11   2.0000      -7.887648      -214.6338
  12   2.0000      -5.919808      -161.0862
  13   2.0000      -5.913501      -160.9146
  14   2.0000      -5.912627      -160.8908
  15   2.0000      -1.290135       -35.1064
  16   2.0000      -1.030544       -28.0425
  17   2.0000      -0.940873       -25.6025
  18   2.0000      -0.869246       -23.6534
  19   2.0000      -0.794204       -21.6114
  20   2.0000      -0.755168       -20.5492
  21   2.0000      -0.691589       -18.8191
  22   2.0000      -0.653979       -17.7957
  23   2.0000      -0.613981       -16.7073
  24   2.0000      -0.567150       -15.4329
  25   2.0000      -0.540932       -14.7195
  26   2.0000      -0.539238       -14.6734
  27   2.0000      -0.531954       -14.4752
  28   2.0000      -0.508915       -13.8483
  29   2.0000      -0.479575       -13.0499
  30   2.0000      -0.450976       -12.2717
  31   2.0000      -0.439063       -11.9475
  32   2.0000      -0.431895       -11.7525
  33   2.0000      -0.424887       -11.5618
  34   2.0000      -0.404862       -11.0169
  35   2.0000      -0.398330       -10.8391
  36   2.0000      -0.366541        -9.9741
  37   2.0000      -0.362779        -9.8717
  38   2.0000      -0.354110        -9.6358
  39   2.0000      -0.342476        -9.3192
  40   2.0000      -0.330066        -8.9816
  41   2.0000      -0.317512        -8.6399
  42   2.0000      -0.302458        -8.2303
  43   2.0000      -0.293844        -7.9959
  44   2.0000      -0.290689        -7.9100
  45   2.0000      -0.280939        -7.6448
  46   2.0000      -0.200813        -5.4644
  47   2.0000      -0.114232        -3.1084
  48   0.0000      -0.032131        -0.8743
  49   0.0000      -0.004275        -0.1163
  50   0.0000       0.007470         0.2033
  51   0.0000       0.025153         0.6845
  52   0.0000       0.031339         0.8528

MULLIKEN ATOMIC CHARGES
-----------------------
   0 C :   -0.144495
   1 N :   -0.291782
   2 C :   -0.130089
   3 C :   -0.265746
   4 H :    0.174380
   5 H :    0.129653
   6 S :    0.805142
   7 C :    0.388937
   8 C :   -0.565939
   9 N :   -0.439529
  10 H :    0.247189
  11 H :    0.205108
  12 H :    0.190187
  13 H :    0.069249
  14 H :    0.063731
  15 O :   -0.354665
  16 F :   -0.074901
  17 O :   -0.430322
  18 H :    0.078034
  19 H :    0.095687
  20 H :    0.151149
  21 H :    0.099021
Sum of atomic charges:    0.0000000

LOEWDIN ATOMIC CHARGES
----------------------
   0 C :   -0.285889
   1 N :    0.129133
   2 C :   -0.287819
   3 C :   -0.363942
   4 H :    0.156554
   5 H :    0.138250
   6 S :    0.515418
   7 C :   -0.482826
   8 C :   -0.364362
   9 N :    0.018074
  10 H :    0.125113
  11 H :    0.172343
  12 H :    0.187093
  13 H :    0.087958
  14 H :    0.088849
  15 O :   -0.227141
  16 F :    0.117951
  17 O :   -0.267673
  18 H :    0.134273
  19 H :    0.141187
  20 H :    0.137578
  21 H :    0.129878

  Mayer bond orders larger than 0.100000
B(  0-C ,  1-N ) :   0.9240 B(  0-C ,  2-C ) :   0.9360 B(  0-C , 20-H ) :   0.9647
B(  0-C , 21-H ) :   0.9727 B(  1-N ,  7-C ) :   1.1646 B(  1-N , 12-H ) :   0.9301
B(  2-C ,  3-C ) :   0.9409 B(  2-C , 18-H ) :   0.9518 B(  2-C , 19-H ) :   0.9457
B(  3-C ,  4-H ) :   0.9304 B(  3-C ,  5-H ) :   0.9436 B(  3-C ,  6-S ) :   0.9157
B(  6-S , 15-O ) :   1.9801 B(  6-S , 16-F ) :   1.1545 B(  6-S , 17-O ) :   1.7387
B(  7-C ,  8-C ) :   1.5070 B(  7-C ,  9-N ) :   1.2012 B(  8-C , 13-H ) :   1.0023
B(  8-C , 14-H ) :   1.0063 B(  9-N , 10-H ) :   0.8480 B(  9-N , 11-H ) :   0.9338
B( 10-H , 17-O ) :   0.1103

Dispersion correction           -0.051278048
FINAL SINGLE POINT ENERGY      -955.173540670461

DIPOLE MOMENT
-------------
                                X             Y             Z
Electronic contribution:    -17.90046      -1.27223      -0.27266
Nuclear contribution   :     16.78714       2.58368       1.61768
                        -----------------------------------------
Total Dipole Moment    :     -1.11333       1.31145       1.34502
                        -----------------------------------------
Magnitude (a.u.)       :      2.18369
Magnitude (Debye)      :      5.55049

Rotational constants in cm-1:     0.059928     0.020911     0.017993
Rotational constants in MHz :  1796.610847   626.896941   539.414615

                             ****ORCA TERMINATED NORMALLY****
TOTAL RUN TIME: 0 days 0 hours 0 minutes 11 seconds 416 msec
