                         Program Version 5.0.0 -  RELEASE  -
|  1> !BLYP D3BJ RIJCOSX def2-TZVP def2/J TightSCF xyzfile
|  2>
|  3> *xyzfile 0 1 D6.xyz
|  4>
|  5> %MaxCore 64000
|  6>
|  7> %pal nprocs 18
|  8> end
|  9>
| 10> %scf
| 11>   MaxIter 150
| 12> end
| 13>
| 14>
| 15>                          ****END OF INPUT****

CARTESIAN COORDINATES (ANGSTROEM)
---------------------------------
  C      3.380928    2.083045   -3.350127
  N      4.535924    1.182447   -3.428518
  C      2.495557    1.816150   -2.136364
  C      1.872181    0.427903   -2.077497
  H      2.614270   -0.365825   -2.198894
  H      1.389953    0.273087   -1.112360
  S      0.579024    0.140472   -3.297943
  C      4.671956    0.122273   -4.220598
  N      5.866023   -0.507849   -4.224284
  C      3.698881   -0.312844   -4.986988
  H      2.731405   -0.050091   -4.849000
  H      3.890046   -1.055172   -5.643730
  H      5.251933    1.303459   -2.721014
  H      6.695165   -0.062322   -3.851596
  H      5.975383   -1.396884   -4.691414
  O      0.228860   -1.246868   -3.127871
  F     -0.439269    1.118966   -3.014550
  O      1.247881    0.403474   -4.595647
  H      1.697003    2.561969   -2.141109
  H      3.080787    1.987436   -1.225838
  H      2.806463    1.986511   -4.268484
  H      3.778714    3.098282   -3.307383

 Total Charge           Charge          ....    0
 Multiplicity           Mult            ....    1
 Number of Electrons    NEL             ....   96
 Basis Dimension        Dim             ....  413

ORBITAL ENERGIES
----------------

  NO   OCC          E(Eh)            E(eV)
   0   2.0000     -88.332543     -2403.6507
   1   2.0000     -24.398218      -663.9093
   2   2.0000     -18.780575      -511.0454
   3   2.0000     -18.768612      -510.7199
   4   2.0000     -14.004906      -381.0929
   5   2.0000     -13.992706      -380.7609
   6   2.0000      -9.954800      -270.8839
   7   2.0000      -9.940112      -270.4842
   8   2.0000      -9.932409      -270.2746
   9   2.0000      -9.931651      -270.2540
  10   2.0000      -9.792730      -266.4737
  11   2.0000      -7.864236      -213.9967
  12   2.0000      -5.896495      -160.4518
  13   2.0000      -5.889776      -160.2690
  14   2.0000      -5.889402      -160.2588
  15   2.0000      -1.270049       -34.5598
  16   2.0000      -1.007356       -27.4115
  17   2.0000      -0.915600       -24.9147
  18   2.0000      -0.868135       -23.6232
  19   2.0000      -0.792976       -21.5780
  20   2.0000      -0.742161       -20.1952
  21   2.0000      -0.673048       -18.3146
  22   2.0000      -0.641920       -17.4675
  23   2.0000      -0.619847       -16.8669
  24   2.0000      -0.573845       -15.6151
  25   2.0000      -0.527762       -14.3611
  26   2.0000      -0.517385       -14.0788
  27   2.0000      -0.503549       -13.7023
  28   2.0000      -0.490883       -13.3576
  29   2.0000      -0.472889       -12.8680
  30   2.0000      -0.456318       -12.4171
  31   2.0000      -0.436357       -11.8739
  32   2.0000      -0.429330       -11.6827
  33   2.0000      -0.407161       -11.0794
  34   2.0000      -0.393711       -10.7134
  35   2.0000      -0.390315       -10.6210
  36   2.0000      -0.360589        -9.8121
  37   2.0000      -0.345651        -9.4057
  38   2.0000      -0.343117        -9.3367
  39   2.0000      -0.334798        -9.1103
  40   2.0000      -0.326762        -8.8916
  41   2.0000      -0.314132        -8.5480
  42   2.0000      -0.298071        -8.1109
  43   2.0000      -0.275853        -7.5064
  44   2.0000      -0.258171        -7.0252
  45   2.0000      -0.247067        -6.7230
  46   2.0000      -0.200224        -5.4484
  47   2.0000      -0.123604        -3.3634
  48   0.0000      -0.013273        -0.3612
  49   0.0000      -0.000680        -0.0185
  50   0.0000       0.015073         0.4102
  51   0.0000       0.026812         0.7296
  52   0.0000       0.039168         1.0658

MULLIKEN ATOMIC CHARGES
-----------------------
   0 C :   -0.088320
   1 N :   -0.318278
   2 C :   -0.157905
   3 C :   -0.244166
   4 H :    0.169194
   5 H :    0.121348
   6 S :    0.782327
   7 C :    0.427081
   8 N :   -0.470710
   9 C :   -0.568779
  10 H :    0.162152
  11 H :    0.054035
  12 H :    0.156757
  13 H :    0.183411
  14 H :    0.216452
  15 O :   -0.365123
  16 F :   -0.081949
  17 O :   -0.394849
  18 H :    0.079941
  19 H :    0.087378
  20 H :    0.157758
  21 H :    0.092244
Sum of atomic charges:    0.0000000

LOEWDIN ATOMIC CHARGES
----------------------
   0 C :   -0.268929
   1 N :    0.120816
   2 C :   -0.288358
   3 C :   -0.364490
   4 H :    0.155180
   5 H :    0.134610
   6 S :    0.504393
   7 C :   -0.483686
   8 N :   -0.021829
   9 C :   -0.317974
  10 H :    0.080864
  11 H :    0.094543
  12 H :    0.167410
  13 H :    0.147425
  14 H :    0.167811
  15 O :   -0.236060
  16 F :    0.109128
  17 O :   -0.247267
  18 H :    0.135154
  19 H :    0.137810
  20 H :    0.144898
  21 H :    0.128550

  Mayer bond orders larger than 0.100000
B(  0-C ,  1-N ) :   0.8971 B(  0-C ,  2-C ) :   0.9532 B(  0-C , 20-H ) :   0.9573
B(  0-C , 21-H ) :   0.9711 B(  1-N ,  7-C ) :   1.1301 B(  1-N , 12-H ) :   0.9313
B(  2-C ,  3-C ) :   0.9466 B(  2-C , 18-H ) :   0.9535 B(  2-C , 19-H ) :   0.9470
B(  3-C ,  4-H ) :   0.9361 B(  3-C ,  5-H ) :   0.9428 B(  3-C ,  6-S ) :   0.9099
B(  6-S , 15-O ) :   1.9702 B(  6-S , 16-F ) :   1.1359 B(  6-S , 17-O ) :   1.8003
B(  7-C ,  8-N ) :   1.0610 B(  7-C ,  9-C ) :   1.5797 B(  8-N , 13-H ) :   0.9307
B(  8-N , 14-H ) :   0.9297 B(  9-C , 10-H ) :   0.9864 B(  9-C , 11-H ) :   1.0068

Dispersion correction           -0.051786876
FINAL SINGLE POINT ENERGY      -955.157643876543

DIPOLE MOMENT
-------------
                                X             Y             Z
Electronic contribution:    -15.79412      -1.49602       0.16765
Nuclear contribution   :     16.57580       2.60270       1.54331
                        -----------------------------------------
Total Dipole Moment    :      0.78168       1.10668       1.71096
                        -----------------------------------------
Magnitude (a.u.)       :      2.18246
Magnitude (Debye)      :      5.54737

Rotational constants in cm-1:     0.060402     0.020377     0.017632
Rotational constants in MHz :  1810.792194   610.900365   528.582827

                             ****ORCA TERMINATED NORMALLY****
TOTAL RUN TIME: 0 days 0 hours 0 minutes 11 seconds 347 msec
