                         Program Version 5.0.0 -  RELEASE  -
|  1> !BLYP D3BJ RIJCOSX def2-TZVP def2/J TightSCF xyzfile
|  2>
|  3> *xyzfile 0 1 D7.xyz
|  4>
|  5> %MaxCore 64000
|  6>
|  7> %pal nprocs 18
|  8> end
|  9>
| 10> %scf
| 11>   MaxIter 150
| 12> end
| 13>
| 14>
| 15>                          ****END OF INPUT****

CARTESIAN COORDINATES (ANGSTROEM)
---------------------------------
  C      3.380928    2.083045   -3.350127
  C      4.535924    1.182447   -3.428518
  C      2.495557    1.816150   -2.136364
  C      1.872181    0.427903   -2.077497
  H      2.614270   -0.365825   -2.198894
  H      1.389953    0.273087   -1.112360
  S      0.579024    0.140472   -3.297943
  C      4.671956    0.122273   -4.220598
  N      5.866023   -0.507849   -4.224284
  N      3.698881   -0.312844   -4.986988
  H      2.731405   -0.050091   -4.849000
  H      3.890046   -1.055172   -5.643730
  H      5.251933    1.303459   -2.721014
  H      6.695165   -0.062322   -3.851596
  H      5.975383   -1.396884   -4.691414
  O      0.228860   -1.246868   -3.127871
  O     -0.439269    1.118966   -3.014550
  F      1.247881    0.403474   -4.595647
  H      1.697003    2.561969   -2.141109
  H      3.080787    1.987436   -1.225838
  H      2.806463    1.986511   -4.268484
  H      3.778714    3.098282   -3.307383

 Total Charge           Charge          ....    0
 Multiplicity           Mult            ....    1
 Number of Electrons    NEL             ....   96
 Basis Dimension        Dim             ....  413

ORBITAL ENERGIES
----------------

  NO   OCC          E(Eh)            E(eV)
   0   2.0000     -88.332225     -2403.6420
   1   2.0000     -24.394239      -663.8010
   2   2.0000     -18.783826      -511.1339
   3   2.0000     -18.783278      -511.1190
   4   2.0000     -14.007571      -381.1654
   5   2.0000     -14.007291      -381.1578
   6   2.0000      -9.952169      -270.8123
   7   2.0000      -9.946538      -270.6591
   8   2.0000      -9.911098      -269.6947
   9   2.0000      -9.893345      -269.2116
  10   2.0000      -9.836606      -267.6677
  11   2.0000      -7.864439      -214.0023
  12   2.0000      -5.897154      -160.4697
  13   2.0000      -5.889626      -160.2649
  14   2.0000      -5.889382      -160.2582
  15   2.0000      -1.256520       -34.1917
  16   2.0000      -1.019947       -27.7542
  17   2.0000      -0.932629       -25.3781
  18   2.0000      -0.878029       -23.8924
  19   2.0000      -0.793794       -21.6002
  20   2.0000      -0.743052       -20.2195
  21   2.0000      -0.685936       -18.6653
  22   2.0000      -0.655445       -17.8356
  23   2.0000      -0.613942       -16.7062
  24   2.0000      -0.574239       -15.6258
  25   2.0000      -0.529720       -14.4144
  26   2.0000      -0.519383       -14.1331
  27   2.0000      -0.505960       -13.7679
  28   2.0000      -0.492491       -13.4013
  29   2.0000      -0.483138       -13.1468
  30   2.0000      -0.456152       -12.4125
  31   2.0000      -0.434380       -11.8201
  32   2.0000      -0.421623       -11.4730
  33   2.0000      -0.416594       -11.3361
  34   2.0000      -0.402705       -10.9582
  35   2.0000      -0.396176       -10.7805
  36   2.0000      -0.362019        -9.8510
  37   2.0000      -0.354952        -9.6587
  38   2.0000      -0.350725        -9.5437
  39   2.0000      -0.332678        -9.0526
  40   2.0000      -0.315431        -8.5833
  41   2.0000      -0.303104        -8.2479
  42   2.0000      -0.293177        -7.9778
  43   2.0000      -0.288799        -7.8586
  44   2.0000      -0.279293        -7.5999
  45   2.0000      -0.271031        -7.3751
  46   2.0000      -0.224031        -6.0962
  47   2.0000      -0.134838        -3.6691
  48   0.0000      -0.016325        -0.4442
  49   0.0000      -0.000424        -0.0115
  50   0.0000       0.021021         0.5720
  51   0.0000       0.032567         0.8862
  52   0.0000       0.034924         0.9503

MULLIKEN ATOMIC CHARGES
-----------------------
   0 C :   -0.211046
   1 C :   -0.336624
   2 C :   -0.090743
   3 C :   -0.274969
   4 H :    0.155171
   5 H :    0.135779
   6 S :    0.788485
   7 C :    0.357212
   8 N :   -0.444982
   9 N :   -0.438372
  10 H :    0.234462
  11 H :    0.191098
  12 H :    0.065953
  13 H :    0.219394
  14 H :    0.189038
  15 O :   -0.377806
  16 O :   -0.374479
  17 F :   -0.127563
  18 H :    0.099016
  19 H :    0.076537
  20 H :    0.085657
  21 H :    0.078784
Sum of atomic charges:   -0.0000000

LOEWDIN ATOMIC CHARGES
----------------------
   0 C :   -0.280024
   1 C :   -0.274625
   2 C :   -0.278588
   3 C :   -0.364231
   4 H :    0.142202
   5 H :    0.146670
   6 S :    0.508631
   7 C :   -0.470347
   8 N :   -0.013325
   9 N :    0.010513
  10 H :    0.136745
  11 H :    0.160038
  12 H :    0.117104
  13 H :    0.170141
  14 H :    0.152037
  15 O :   -0.243872
  16 O :   -0.238941
  17 F :    0.073497
  18 H :    0.136673
  19 H :    0.140008
  20 H :    0.129195
  21 H :    0.140500

  Mayer bond orders larger than 0.100000
B(  0-C ,  1-C ) :   1.0143 B(  0-C ,  2-C ) :   0.9502 B(  0-C , 20-H ) :   0.9741
B(  0-C , 21-H ) :   0.9717 B(  1-C ,  7-C ) :   1.6091 B(  1-C , 12-H ) :   0.9872
B(  2-C ,  3-C ) :   0.9426 B(  2-C , 18-H ) :   0.9508 B(  2-C , 19-H ) :   0.9421
B(  3-C ,  4-H ) :   0.9340 B(  3-C ,  5-H ) :   0.9428 B(  3-C ,  6-S ) :   0.9099
B(  6-S , 15-O ) :   1.9571 B(  6-S , 16-O ) :   1.9524 B(  6-S , 17-F ) :   1.0166
B(  7-C ,  8-N ) :   1.1057 B(  7-C ,  9-N ) :   1.1461 B(  8-N , 13-H ) :   0.9248
B(  8-N , 14-H ) :   0.9311 B(  9-N , 10-H ) :   0.8894 B(  9-N , 11-H ) :   0.9306

Dispersion correction           -0.051332528
FINAL SINGLE POINT ENERGY      -955.193229593221

DIPOLE MOMENT
-------------
                                X             Y             Z
Electronic contribution:    -13.25629      -3.94086      -3.73279
Nuclear contribution   :     14.80811       3.53278       3.42836
                        -----------------------------------------
Total Dipole Moment    :      1.55182      -0.40808      -0.30443
                        -----------------------------------------
Magnitude (a.u.)       :      1.63321
Magnitude (Debye)      :      4.15128

Rotational constants in cm-1:     0.059173     0.020923     0.018056
Rotational constants in MHz :  1773.956621   627.264018   541.303397

                             ****ORCA TERMINATED NORMALLY****
TOTAL RUN TIME: 0 days 0 hours 0 minutes 12 seconds 741 msec
