                         Program Version 5.0.0 -  RELEASE  -
|  1> !BLYP D3BJ RIJCOSX def2-TZVP def2/J TightSCF xyzfile
|  2>
|  3> *xyzfile 0 1 D8.xyz
|  4>
|  5> %MaxCore 64000
|  6>
|  7> %pal nprocs 18
|  8> end
|  9>
| 10> %scf
| 11>   MaxIter 150
| 12> end
| 13>
| 14>
| 15>                          ****END OF INPUT****

CARTESIAN COORDINATES (ANGSTROEM)
---------------------------------
  C      3.380928    2.083045   -3.350127
  N      4.535924    1.182447   -3.428518
  C      2.495557    1.816150   -2.136364
  C      1.872181    0.427903   -2.077497
  H      2.614270   -0.365825   -2.198894
  H      1.389953    0.273087   -1.112360
  S      0.579024    0.140472   -3.297943
  C      4.671956    0.122273   -4.220598
  C      5.866023   -0.507849   -4.224284
  N      3.698881   -0.312844   -4.986988
  H      2.731405   -0.050091   -4.849000
  H      3.890046   -1.055172   -5.643730
  H      5.251933    1.303459   -2.721014
  H      6.695165   -0.062322   -3.851596
  H      5.975383   -1.396884   -4.691414
  O      0.228860   -1.246868   -3.127871
  O     -0.439269    1.118966   -3.014550
  F      1.247881    0.403474   -4.595647
  H      1.697003    2.561969   -2.141109
  H      3.080787    1.987436   -1.225838
  H      2.806463    1.986511   -4.268484
  H      3.778714    3.098282   -3.307383

 Total Charge           Charge          ....    0
 Multiplicity           Mult            ....    1
 Number of Electrons    NEL             ....   96
 Basis Dimension        Dim             ....  413

ORBITAL ENERGIES
----------------

  NO   OCC          E(Eh)            E(eV)
   0   2.0000     -88.345728     -2404.0095
   1   2.0000     -24.406074      -664.1230
   2   2.0000     -18.796497      -511.4787
   3   2.0000     -18.795617      -511.4548
   4   2.0000     -14.016929      -381.4200
   5   2.0000     -14.005066      -381.0972
   6   2.0000      -9.965570      -271.1770
   7   2.0000      -9.959667      -271.0163
   8   2.0000      -9.951807      -270.8024
   9   2.0000      -9.938812      -270.4488
  10   2.0000      -9.819531      -267.2030
  11   2.0000      -7.877821      -214.3664
  12   2.0000      -5.910484      -160.8324
  13   2.0000      -5.903019      -160.6293
  14   2.0000      -5.902852      -160.6248
  15   2.0000      -1.268565       -34.5194
  16   2.0000      -1.032371       -28.0923
  17   2.0000      -0.944929       -25.7128
  18   2.0000      -0.886955       -24.1353
  19   2.0000      -0.813456       -22.1353
  20   2.0000      -0.755603       -20.5610
  21   2.0000      -0.695129       -18.9154
  22   2.0000      -0.652984       -17.7686
  23   2.0000      -0.628350       -17.0983
  24   2.0000      -0.574283       -15.6270
  25   2.0000      -0.551251       -15.0003
  26   2.0000      -0.541403       -14.7323
  27   2.0000      -0.524119       -14.2620
  28   2.0000      -0.498660       -13.5692
  29   2.0000      -0.477873       -13.0036
  30   2.0000      -0.458049       -12.4642
  31   2.0000      -0.443028       -12.0554
  32   2.0000      -0.436038       -11.8652
  33   2.0000      -0.428413       -11.6577
  34   2.0000      -0.413527       -11.2527
  35   2.0000      -0.404525       -11.0077
  36   2.0000      -0.375171       -10.2089
  37   2.0000      -0.360117        -9.7993
  38   2.0000      -0.353753        -9.6261
  39   2.0000      -0.345805        -9.4098
  40   2.0000      -0.337689        -9.1890
  41   2.0000      -0.331145        -9.0109
  42   2.0000      -0.312845        -8.5129
  43   2.0000      -0.302598        -8.2341
  44   2.0000      -0.295281        -8.0350
  45   2.0000      -0.283885        -7.7249
  46   2.0000      -0.218657        -5.9500
  47   2.0000      -0.129707        -3.5295
  48   0.0000      -0.027400        -0.7456
  49   0.0000      -0.003271        -0.0890
  50   0.0000       0.012492         0.3399
  51   0.0000       0.026476         0.7204
  52   0.0000       0.033890         0.9222

MULLIKEN ATOMIC CHARGES
-----------------------
   0 C :   -0.177104
   1 N :   -0.279226
   2 C :   -0.120974
   3 C :   -0.265175
   4 H :    0.161075
   5 H :    0.143704
   6 S :    0.792117
   7 C :    0.398889
   8 C :   -0.555718
   9 N :   -0.445510
  10 H :    0.216430
  11 H :    0.217029
  12 H :    0.196472
  13 H :    0.076297
  14 H :    0.068559
  15 O :   -0.367851
  16 O :   -0.373357
  17 F :   -0.124061
  18 H :    0.106868
  19 H :    0.093008
  20 H :    0.129623
  21 H :    0.108905
Sum of atomic charges:    0.0000000

LOEWDIN ATOMIC CHARGES
----------------------
   0 C :   -0.285441
   1 N :    0.131311
   2 C :   -0.287120
   3 C :   -0.364318
   4 H :    0.145481
   5 H :    0.149709
   6 S :    0.508260
   7 C :   -0.481919
   8 C :   -0.349769
   9 N :    0.010018
  10 H :    0.126215
  11 H :    0.176722
  12 H :    0.190156
  13 H :    0.090849
  14 H :    0.090404
  15 O :   -0.234851
  16 O :   -0.237069
  17 F :    0.074355
  18 H :    0.143428
  19 H :    0.141094
  20 H :    0.129172
  21 H :    0.133312

  Mayer bond orders larger than 0.100000
B(  0-C ,  1-N ) :   0.9182 B(  0-C ,  2-C ) :   0.9482 B(  0-C , 20-H ) :   0.9719
B(  0-C , 21-H ) :   0.9742 B(  1-N ,  7-C ) :   1.1745 B(  1-N , 12-H ) :   0.9288
B(  2-C ,  3-C ) :   0.9382 B(  2-C , 18-H ) :   0.9486 B(  2-C , 19-H ) :   0.9438
B(  3-C ,  4-H ) :   0.9324 B(  3-C ,  5-H ) :   0.9414 B(  3-C ,  6-S ) :   0.9051
B(  6-S , 15-O ) :   1.9652 B(  6-S , 16-O ) :   1.9478 B(  6-S , 17-F ) :   1.0214
B(  7-C ,  8-C ) :   1.5194 B(  7-C ,  9-N ) :   1.1680 B(  8-C , 13-H ) :   1.0033
B(  8-C , 14-H ) :   1.0062 B(  9-N , 10-H ) :   0.8933 B(  9-N , 11-H ) :   0.9284

Dispersion correction           -0.050796567
FINAL SINGLE POINT ENERGY      -955.179629094128

DIPOLE MOMENT
-------------
                                X             Y             Z
Electronic contribution:    -14.72383      -2.47502      -2.93982
Nuclear contribution   :     14.93782       3.36795       3.35075
                        -----------------------------------------
Total Dipole Moment    :      0.21399       0.89293       0.41093
                        -----------------------------------------
Magnitude (a.u.)       :      1.00597
Magnitude (Debye)      :      2.55698

Rotational constants in cm-1:     0.059219     0.021387     0.018380
Rotational constants in MHz :  1775.354399   641.172207   551.019443

                             ****ORCA TERMINATED NORMALLY****
TOTAL RUN TIME: 0 days 0 hours 0 minutes 12 seconds 452 msec
