                         Program Version 5.0.0 -  RELEASE  -
|  1> !BLYP D3BJ RIJCOSX def2-TZVP def2/J TightSCF xyzfile
|  2>
|  3> *xyzfile 0 1 D9.xyz
|  4>
|  5> %MaxCore 64000
|  6>
|  7> %pal nprocs 18
|  8> end
|  9>
| 10> %scf
| 11>   MaxIter 150
| 12> end
| 13>
| 14>
| 15>                          ****END OF INPUT****

CARTESIAN COORDINATES (ANGSTROEM)
---------------------------------
  C      3.380928    2.083045   -3.350127
  N      4.535924    1.182447   -3.428518
  C      2.495557    1.816150   -2.136364
  C      1.872181    0.427903   -2.077497
  H      2.614270   -0.365825   -2.198894
  H      1.389953    0.273087   -1.112360
  S      0.579024    0.140472   -3.297943
  C      4.671956    0.122273   -4.220598
  N      5.866023   -0.507849   -4.224284
  C      3.698881   -0.312844   -4.986988
  H      2.731405   -0.050091   -4.849000
  H      3.890046   -1.055172   -5.643730
  H      5.251933    1.303459   -2.721014
  H      6.695165   -0.062322   -3.851596
  H      5.975383   -1.396884   -4.691414
  O      0.228860   -1.246868   -3.127871
  O     -0.439269    1.118966   -3.014550
  F      1.247881    0.403474   -4.595647
  H      1.697003    2.561969   -2.141109
  H      3.080787    1.987436   -1.225838
  H      2.806463    1.986511   -4.268484
  H      3.778714    3.098282   -3.307383

 Total Charge           Charge          ....    0
 Multiplicity           Mult            ....    1
 Number of Electrons    NEL             ....   96
 Basis Dimension        Dim             ....  413

ORBITAL ENERGIES
----------------

  NO   OCC          E(Eh)            E(eV)
   0   2.0000     -88.327554     -2403.5149
   1   2.0000     -24.375073      -663.2795
   2   2.0000     -18.779012      -511.0029
   3   2.0000     -18.777437      -510.9600
   4   2.0000     -14.018388      -381.4597
   5   2.0000     -14.007646      -381.1674
   6   2.0000      -9.953255      -270.8418
   7   2.0000      -9.951830      -270.8031
   8   2.0000      -9.951434      -270.7923
   9   2.0000      -9.931124      -270.2396
  10   2.0000      -9.817220      -267.1401
  11   2.0000      -7.859327      -213.8631
  12   2.0000      -5.891697      -160.3212
  13   2.0000      -5.884794      -160.1334
  14   2.0000      -5.884534      -160.1263
  15   2.0000      -1.239092       -33.7174
  16   2.0000      -1.013888       -27.5893
  17   2.0000      -0.927397       -25.2358
  18   2.0000      -0.882995       -24.0275
  19   2.0000      -0.806585       -21.9483
  20   2.0000      -0.742353       -20.2005
  21   2.0000      -0.672734       -18.3060
  22   2.0000      -0.653666       -17.7872
  23   2.0000      -0.621164       -16.9027
  24   2.0000      -0.582313       -15.8455
  25   2.0000      -0.522864       -14.2278
  26   2.0000      -0.514450       -13.9989
  27   2.0000      -0.498284       -13.5590
  28   2.0000      -0.491636       -13.3781
  29   2.0000      -0.478318       -13.0157
  30   2.0000      -0.460669       -12.5354
  31   2.0000      -0.437641       -11.9088
  32   2.0000      -0.423401       -11.5213
  33   2.0000      -0.409965       -11.1557
  34   2.0000      -0.408908       -11.1270
  35   2.0000      -0.388941       -10.5836
  36   2.0000      -0.364730        -9.9248
  37   2.0000      -0.358222        -9.7477
  38   2.0000      -0.343849        -9.3566
  39   2.0000      -0.337842        -9.1931
  40   2.0000      -0.332730        -9.0540
  41   2.0000      -0.321129        -8.7384
  42   2.0000      -0.305948        -8.3253
  43   2.0000      -0.285862        -7.7787
  44   2.0000      -0.279310        -7.6004
  45   2.0000      -0.266304        -7.2465
  46   2.0000      -0.213271        -5.8034
  47   2.0000      -0.142719        -3.8836
  48   0.0000      -0.012146        -0.3305
  49   0.0000      -0.002837        -0.0772
  50   0.0000       0.013239         0.3603
  51   0.0000       0.031930         0.8689
  52   0.0000       0.039545         1.0761

MULLIKEN ATOMIC CHARGES
-----------------------
   0 C :   -0.121165
   1 N :   -0.303457
   2 C :   -0.148952
   3 C :   -0.243353
   4 H :    0.156025
   5 H :    0.135954
   6 S :    0.797510
   7 C :    0.444339
   8 N :   -0.466453
   9 C :   -0.562962
  10 H :    0.102879
  11 H :    0.064769
  12 H :    0.164557
  13 H :    0.190715
  14 H :    0.219966
  15 O :   -0.378105
  16 O :   -0.386928
  17 F :   -0.099087
  18 H :    0.107189
  19 H :    0.084799
  20 H :    0.140101
  21 H :    0.101659
Sum of atomic charges:   -0.0000000

LOEWDIN ATOMIC CHARGES
----------------------
   0 C :   -0.268044
   1 N :    0.125786
   2 C :   -0.287448
   3 C :   -0.363537
   4 H :    0.144647
   5 H :    0.146100
   6 S :    0.512522
   7 C :   -0.475746
   8 N :   -0.013807
   9 C :   -0.335753
  10 H :    0.076563
  11 H :    0.097311
  12 H :    0.171517
  13 H :    0.151504
  14 H :    0.169870
  15 O :   -0.241158
  16 O :   -0.247638
  17 F :    0.086235
  18 H :    0.143934
  19 H :    0.137791
  20 H :    0.137404
  21 H :    0.131949

  Mayer bond orders larger than 0.100000
B(  0-C ,  1-N ) :   0.8894 B(  0-C ,  2-C ) :   0.9661 B(  0-C , 20-H ) :   0.9651
B(  0-C , 21-H ) :   0.9729 B(  1-N ,  7-C ) :   1.1516 B(  1-N , 12-H ) :   0.9298
B(  2-C ,  3-C ) :   0.9473 B(  2-C , 18-H ) :   0.9501 B(  2-C , 19-H ) :   0.9450
B(  3-C ,  4-H ) :   0.9374 B(  3-C ,  5-H ) :   0.9416 B(  3-C ,  6-S ) :   0.9015
B(  6-S , 15-O ) :   1.9587 B(  6-S , 16-O ) :   1.9360 B(  6-S , 17-F ) :   1.0690
B(  7-C ,  8-N ) :   1.0779 B(  7-C ,  9-C ) :   1.5541 B(  8-N , 13-H ) :   0.9300
B(  8-N , 14-H ) :   0.9285 B(  9-C , 10-H ) :   1.0241 B(  9-C , 11-H ) :   1.0028

Dispersion correction           -0.051282438
FINAL SINGLE POINT ENERGY      -955.176325741650

DIPOLE MOMENT
-------------
                                X             Y             Z
Electronic contribution:    -12.66434      -2.68431      -2.44782
Nuclear contribution   :     14.72648       3.38697       3.27638
                        -----------------------------------------
Total Dipole Moment    :      2.06214       0.70265       0.82855
                        -----------------------------------------
Magnitude (a.u.)       :      2.33081
Magnitude (Debye)      :      5.92444

Rotational constants in cm-1:     0.059651     0.020833     0.018010
Rotational constants in MHz :  1788.283887   624.555661   539.921162

                             ****ORCA TERMINATED NORMALLY****
TOTAL RUN TIME: 0 days 0 hours 0 minutes 13 seconds 491 msec
