                         Program Version 5.0.0 -  RELEASE  -
|  1> !PBE D3BJ RIJCOSX def2-SVPD def2/J TightSCF
|  2> *xyz -1 1
|  3> C          0.64866        1.00359       -3.64560
|  4> C          0.13297        2.38587       -4.02462
|  5> C         -1.36646        2.47911       -4.31393
|  6> C         -2.35773        2.30686       -3.13675
|  7> H         -1.63680        1.72709       -5.06399
|  8> H         -1.58235        3.44561       -4.76869
|  9> O         -3.44376        2.84652       -3.25274
| 10> O         -1.97092        1.58304       -2.15123
| 11> H          0.41484        3.10285       -3.24517
| 12> H          0.68317        2.68756       -4.91972
| 13> H          0.37534        0.30051       -4.40446
| 14> H          0.21856        0.70606       -2.71212
| 15> H          1.71431        1.03324       -3.55398
| 16> *
| 17> %MaxCore 64000
| 18>
| 19> %pal nprocs 4
| 20> end
| 21>
| 22> %scf
| 23>   MaxIter 150
| 24> end
| 25>
| 26>
| 27>                          ****END OF INPUT****

CARTESIAN COORDINATES (ANGSTROEM)
---------------------------------
  C      0.648660    1.003590   -3.645600
  C      0.132970    2.385870   -4.024620
  C     -1.366460    2.479110   -4.313930
  C     -2.357730    2.306860   -3.136750
  H     -1.636800    1.727090   -5.063990
  H     -1.582350    3.445610   -4.768690
  O     -3.443760    2.846520   -3.252740
  O     -1.970920    1.583040   -2.151230
  H      0.414840    3.102850   -3.245170
  H      0.683170    2.687560   -4.919720
  H      0.375340    0.300510   -4.404460
  H      0.218560    0.706060   -2.712120
  H      1.714310    1.033240   -3.553980

 Total Charge           Charge          ....   -1
 Multiplicity           Mult            ....    1
 Number of Electrons    NEL             ....   48
 Basis Dimension        Dim             ....  182

ORBITAL ENERGIES
----------------

  NO   OCC          E(Eh)            E(eV)
   0   2.0000     -18.514101      -503.7943
   1   2.0000     -18.505092      -503.5492
   2   2.0000      -9.776837      -266.0413
   3   2.0000      -9.746423      -265.2136
   4   2.0000      -9.733364      -264.8583
   5   2.0000      -9.723497      -264.5898
   6   2.0000      -0.735884       -20.0244
   7   2.0000      -0.640761       -17.4360
   8   2.0000      -0.556034       -15.1305
   9   2.0000      -0.466784       -12.7018
  10   2.0000      -0.378775       -10.3070
  11   2.0000      -0.274057        -7.4575
  12   2.0000      -0.247466        -6.7339
  13   2.0000      -0.236664        -6.4400
  14   2.0000      -0.213661        -5.8140
  15   2.0000      -0.178286        -4.8514
  16   2.0000      -0.171368        -4.6632
  17   2.0000      -0.163049        -4.4368
  18   2.0000      -0.147889        -4.0243
  19   2.0000      -0.134190        -3.6515
  20   2.0000      -0.123113        -3.3501
  21   2.0000      -0.018736        -0.5098
  22   2.0000      -0.002997        -0.0816
  23   2.0000       0.012381         0.3369
  24   0.0000       0.130054         3.5390
  25   0.0000       0.158100         4.3021
  26   0.0000       0.166191         4.5223
  27   0.0000       0.181333         4.9343
  28   0.0000       0.195387         5.3168

MULLIKEN ATOMIC CHARGES
-----------------------
   0 C :    0.734887
   1 C :   -0.359648
   2 C :   -0.048947
   3 C :    0.372693
   4 H :    0.059578
   5 H :   -0.008140
   6 O :   -0.602767
   7 O :   -0.707348
   8 H :   -0.097913
   9 H :   -0.059637
  10 H :   -0.074155
  11 H :   -0.147509
  12 H :   -0.061096
Sum of atomic charges:   -1.0000000

LOEWDIN ATOMIC CHARGES
----------------------
   0 C :    0.098688
   1 C :   -0.100779
   2 C :   -0.000284
   3 C :   -0.314613
   4 H :    0.011774
   5 H :   -0.004217
   6 O :   -0.283288
   7 O :   -0.305904
   8 H :    0.016735
   9 H :   -0.005308
  10 H :   -0.029124
  11 H :   -0.042937
  12 H :   -0.040743

  Mayer bond orders larger than 0.100000
B(  0-C ,  1-C ) :   1.3171 B(  0-C ,  8-H ) :   0.1158 B(  0-C ,  9-H ) :   0.1010
B(  0-C , 10-H ) :   0.7816 B(  0-C , 11-H ) :   0.8380 B(  0-C , 12-H ) :   0.7407
B(  1-C ,  2-C ) :   1.2102 B(  1-C ,  4-H ) :   0.1355 B(  1-C ,  5-H ) :   0.1307
B(  1-C ,  8-H ) :   0.9339 B(  1-C ,  9-H ) :   0.8566 B(  1-C , 10-H ) :   0.2192
B(  1-C , 11-H ) :   0.2350 B(  1-C , 12-H ) :   0.2322 B(  2-C ,  3-C ) :   1.0529
B(  2-C ,  4-H ) :   0.8275 B(  2-C ,  5-H ) :   0.9223 B(  2-C ,  8-H ) :   0.1474
B(  2-C ,  9-H ) :   0.1289 B(  3-C ,  5-H ) :   0.1516 B(  3-C ,  6-O ) :   1.4987
B(  3-C ,  7-O ) :   1.4332

Dispersion correction           -0.009680815
FINAL SINGLE POINT ENERGY      -306.589582606126

DIPOLE MOMENT
-------------
                                X             Y             Z
Electronic contribution:     -7.28906       1.46121       3.19237
Nuclear contribution   :      9.31936      -1.53308      -4.48293
                        -----------------------------------------
Total Dipole Moment    :      2.03030      -0.07187      -1.29056
                        -----------------------------------------
Magnitude (a.u.)       :      2.40683
Magnitude (Debye)      :      6.11767

Rotational constants in cm-1:     0.250458     0.077448     0.063252
Rotational constants in MHz :  7508.538874  2321.842942  1896.252250

                             ****ORCA TERMINATED NORMALLY****
TOTAL RUN TIME: 0 days 0 hours 0 minutes 6 seconds 668 msec
