                         Program Version 5.0.0 -  RELEASE  -
|  1> !PBE D3BJ RIJCOSX def2-SVPD def2/J TightSCF
|  2> *xyz 1 1
|  3> C          0.64866        1.00359       -3.64560
|  4> N          0.28128        0.67645       -2.24018
|  5> C          0.13297        2.38587       -4.02462
|  6> C         -1.36646        2.47911       -4.31393
|  7> H          0.39079       -0.31925       -2.02649
|  8> H         -0.69269        0.99010       -2.13812
|  9> H          0.85421        1.21221       -1.57528
| 10> H          0.19099        0.23965       -4.27575
| 11> H          1.73157        0.93173       -3.75075
| 12> H          0.41484        3.10285       -3.24517
| 13> H          0.68317        2.68756       -4.91972
| 14> H         -1.62719        1.77449       -5.07580
| 15> H         -1.60483        3.46796       -4.64597
| 16> H         -1.91603        2.26007       -3.42236
| 17> *
| 18> %MaxCore 64000
| 19>
| 20> %pal nprocs 4
| 21> end
| 22>
| 23> %scf
| 24>   MaxIter 150
| 25> end
| 26>
| 27>
| 28>                          ****END OF INPUT****

CARTESIAN COORDINATES (ANGSTROEM)
---------------------------------
  C      0.648660    1.003590   -3.645600
  N      0.281280    0.676450   -2.240180
  C      0.132970    2.385870   -4.024620
  C     -1.366460    2.479110   -4.313930
  H      0.390790   -0.319250   -2.026490
  H     -0.692690    0.990100   -2.138120
  H      0.854210    1.212210   -1.575280
  H      0.190990    0.239650   -4.275750
  H      1.731570    0.931730   -3.750750
  H      0.414840    3.102850   -3.245170
  H      0.683170    2.687560   -4.919720
  H     -1.627190    1.774490   -5.075800
  H     -1.604830    3.467960   -4.645970
  H     -1.916030    2.260070   -3.422360

 Total Charge           Charge          ....    1
 Multiplicity           Mult            ....    1
 Number of Electrons    NEL             ....   34
 Basis Dimension        Dim             ....  160

ORBITAL ENERGIES
----------------

  NO   OCC          E(Eh)            E(eV)
   0   2.0000     -14.327905      -389.8821
   1   2.0000     -10.142362      -275.9877
   2   2.0000     -10.077938      -274.2346
   3   2.0000     -10.044239      -273.3176
   4   2.0000      -1.124656       -30.6035
   5   2.0000      -0.898173       -24.4405
   6   2.0000      -0.813875       -22.1467
   7   2.0000      -0.750613       -20.4252
   8   2.0000      -0.744760       -20.2659
   9   2.0000      -0.710387       -19.3306
  10   2.0000      -0.643011       -17.4972
  11   2.0000      -0.583116       -15.8674
  12   2.0000      -0.563961       -15.3462
  13   2.0000      -0.543022       -14.7764
  14   2.0000      -0.489687       -13.3251
  15   2.0000      -0.478553       -13.0221
  16   2.0000      -0.473965       -12.8972
  17   0.0000      -0.211985        -5.7684
  18   0.0000      -0.157885        -4.2963
  19   0.0000      -0.153003        -4.1634
  20   0.0000      -0.139674        -3.8007
  21   0.0000      -0.116192        -3.1618

MULLIKEN ATOMIC CHARGES
-----------------------
   0 C :    0.661685
   1 N :   -0.765407
   2 C :   -0.347974
   3 C :    0.808163
   4 H :    0.307060
   5 H :    0.388601
   6 H :    0.395228
   7 H :   -0.038262
   8 H :   -0.119176
   9 H :   -0.041330
  10 H :   -0.033609
  11 H :    0.013924
  12 H :   -0.036107
  13 H :   -0.192796
Sum of atomic charges:    1.0000000

LOEWDIN ATOMIC CHARGES
----------------------
   0 C :    0.082503
   1 N :    0.341625
   2 C :   -0.052053
   3 C :    0.155514
   4 H :    0.105789
   5 H :    0.082439
   6 H :    0.107930
   7 H :    0.054736
   8 H :    0.053354
   9 H :    0.036377
  10 H :    0.046142
  11 H :    0.000456
  12 H :    0.008891
  13 H :   -0.023703

  Mayer bond orders larger than 0.100000
B(  0-C ,  1-N ) :   0.7758 B(  0-C ,  2-C ) :   1.2036 B(  0-C ,  7-H ) :   0.8742
B(  0-C ,  8-H ) :   0.8683 B(  0-C , 10-H ) :   0.1213 B(  1-N ,  2-C ) :   0.1001
B(  1-N ,  4-H ) :   0.7948 B(  1-N ,  5-H ) :   0.6750 B(  1-N ,  6-H ) :   0.7373
B(  1-N ,  8-H ) :   0.1347 B(  2-C ,  3-C ) :   1.3150 B(  2-C ,  8-H ) :   0.1016
B(  2-C ,  9-H ) :   0.9381 B(  2-C , 10-H ) :   0.8918 B(  2-C , 11-H ) :   0.1907
B(  2-C , 12-H ) :   0.2315 B(  2-C , 13-H ) :   0.1997 B(  3-C , 11-H ) :   0.7708
B(  3-C , 12-H ) :   0.7622 B(  3-C , 13-H ) :   0.8110

Dispersion correction           -0.009341783
FINAL SINGLE POINT ENERGY      -174.493455201189

DIPOLE MOMENT
-------------
                                X             Y             Z
Electronic contribution:      1.30487      -1.44922       1.56461
Nuclear contribution   :     -0.74670       0.28200      -0.02386
                        -----------------------------------------
Total Dipole Moment    :      0.55817      -1.16723       1.54074
                        -----------------------------------------
Magnitude (a.u.)       :      2.01193
Magnitude (Debye)      :      5.11392

Rotational constants in cm-1:     0.472563     0.149855     0.132807
Rotational constants in MHz : 14167.078489  4492.544970  3981.441276

                             ****ORCA TERMINATED NORMALLY****
TOTAL RUN TIME: 0 days 0 hours 0 minutes 4 seconds 923 msec
