                         Program Version 5.0.0 -  RELEASE  -
|  1> !PBE D3BJ RIJCOSX def2-SVPD def2/J TightSCF xyzfile
|  2>
|  3> *xyzfile 0 1 B.xyz
|  4>
|  5> %MaxCore 64000
|  6>
|  7> %pal nprocs 4
|  8> end
|  9>
| 10> %scf
| 11>   MaxIter 150
| 12> end
| 13>
| 14>
| 15>                          ****END OF INPUT****

CARTESIAN COORDINATES (ANGSTROEM)
---------------------------------
  C      0.648656    1.003595   -3.645601
  N      0.281280    0.676454   -2.240179
  C      0.132968    2.385869   -4.024618
  C     -1.366462    2.479106   -4.313932
  C     -2.357732    2.306858   -3.136753
  H     -1.636802    1.727095   -5.063993
  H     -1.582347    3.445605   -4.768687
  H      0.390790   -0.319253   -2.026495
  H     -0.692686    0.990104   -2.138123
  H      0.854206    1.212214   -1.575279
  O     -3.443763    2.846518   -3.252744
  O     -1.970922    1.583042   -2.151229
  H      0.190993    0.239655   -4.275752
  H      1.731572    0.931729   -3.750751
  H      0.414839    3.102847   -3.245165
  H      0.683167    2.687560   -4.919721

 Total Charge           Charge          ....    0
 Multiplicity           Mult            ....    1
 Number of Electrons    NEL             ....   56
 Basis Dimension        Dim             ....  218

ORBITAL ENERGIES
----------------

  NO   OCC          E(Eh)            E(eV)
   0   2.0000     -18.697886      -508.7953
   1   2.0000     -18.676260      -508.2069
   2   2.0000     -14.109093      -383.9279
   3   2.0000      -9.983511      -271.6651
   4   2.0000      -9.951662      -270.7985
   5   2.0000      -9.925656      -270.0908
   6   2.0000      -9.887269      -269.0463
   7   2.0000      -0.932899       -25.3855
   8   2.0000      -0.907615       -24.6975
   9   2.0000      -0.828220       -22.5370
  10   2.0000      -0.735855       -20.0236
  11   2.0000      -0.646916       -17.6035
  12   2.0000      -0.576382       -15.6842
  13   2.0000      -0.551131       -14.9970
  14   2.0000      -0.542330       -14.7576
  15   2.0000      -0.476624       -12.9696
  16   2.0000      -0.431952       -11.7540
  17   2.0000      -0.429857       -11.6970
  18   2.0000      -0.392849       -10.6900
  19   2.0000      -0.373628       -10.1669
  20   2.0000      -0.345748        -9.4083
  21   2.0000      -0.341336        -9.2882
  22   2.0000      -0.332776        -9.0553
  23   2.0000      -0.312483        -8.5031
  24   2.0000      -0.294738        -8.0202
  25   2.0000      -0.199335        -5.4242
  26   2.0000      -0.191664        -5.2155
  27   2.0000      -0.159882        -4.3506
  28   0.0000      -0.052128        -1.4185
  29   0.0000      -0.010847        -0.2952
  30   0.0000      -0.006927        -0.1885
  31   0.0000       0.017644         0.4801
  32   0.0000       0.028109         0.7649

MULLIKEN ATOMIC CHARGES
-----------------------
   0 C :    0.716251
   1 N :   -0.314287
   2 C :    0.070750
   3 C :    0.015447
   4 C :    0.406697
   5 H :    0.119479
   6 H :    0.006424
   7 H :    0.254497
   8 H :   -0.157699
   9 H :    0.392456
  10 O :   -0.520001
  11 O :   -0.611074
  12 H :   -0.029760
  13 H :   -0.237476
  14 H :   -0.059729
  15 H :   -0.051976
Sum of atomic charges:    0.0000000

LOEWDIN ATOMIC CHARGES
----------------------
   0 C :    0.078361
   1 N :    0.320057
   2 C :   -0.021876
   3 C :    0.038369
   4 C :   -0.224266
   5 H :    0.031614
   6 H :    0.023376
   7 H :    0.083010
   8 H :   -0.160414
   9 H :    0.089446
  10 O :   -0.186260
  11 O :   -0.203191
  12 H :    0.043651
  13 H :    0.028237
  14 H :    0.033918
  15 H :    0.025969

  Mayer bond orders larger than 0.100000
B(  0-C ,  1-N ) :   0.8462 B(  0-C ,  2-C ) :   1.1870 B(  0-C , 12-H ) :   0.8317
B(  0-C , 13-H ) :   0.8249 B(  0-C , 15-H ) :   0.1110 B(  1-N ,  7-H ) :   0.8480
B(  1-N ,  8-H ) :   1.1634 B(  1-N ,  9-H ) :   0.7782 B(  1-N , 12-H ) :   0.1084
B(  1-N , 13-H ) :   0.1659 B(  2-C ,  3-C ) :   1.2218 B(  2-C ,  5-H ) :   0.1243
B(  2-C ,  6-H ) :   0.1411 B(  2-C , 13-H ) :   0.1373 B(  2-C , 14-H ) :   0.8851
B(  2-C , 15-H ) :   0.8179 B(  3-C ,  4-C ) :   1.0445 B(  3-C ,  5-H ) :   0.7839
B(  3-C ,  6-H ) :   0.8993 B(  3-C , 10-O ) :   0.1115 B(  3-C , 14-H ) :   0.1110
B(  3-C , 15-H ) :   0.1131 B(  4-C ,  6-H ) :   0.1341 B(  4-C , 10-O ) :   1.5579
B(  4-C , 11-O ) :   1.2579 B(  8-H , 11-O ) :   0.3866 B( 10-O , 11-O ) :   0.1527
B( 12-H , 13-H ) :  -0.1025

Dispersion correction           -0.013710539
FINAL SINGLE POINT ENERGY      -362.385435631299

DIPOLE MOMENT
-------------
                                X             Y             Z
Electronic contribution:     -5.91247       0.96390       2.56213
Nuclear contribution   :      9.92875      -2.62114      -2.63866
                        -----------------------------------------
Total Dipole Moment    :      4.01628      -1.65724      -0.07653
                        -----------------------------------------
Magnitude (a.u.)       :      4.34543
Magnitude (Debye)      :     11.04522

Rotational constants in cm-1:     0.159108     0.062474     0.047603
Rotational constants in MHz :  4769.938632  1872.932224  1427.103830

                             ****ORCA TERMINATED NORMALLY****
TOTAL RUN TIME: 0 days 0 hours 0 minutes 13 seconds 698 msec
