                         Program Version 5.0.0 -  RELEASE  -
|  1> !PBE D3BJ RIJCOSX def2-SVPD def2/J TightSCF
|  2> *xyz 0 1
|  3> C          0.64866        1.00359       -3.64560
|  4> C          0.13297        2.38587       -4.02462
|  5> C         -1.36646        2.47911       -4.31393
|  6> C         -2.35773        2.30686       -3.13675
|  7> H         -1.63680        1.72709       -5.06399
|  8> H         -1.58235        3.44561       -4.76869
|  9> F         -3.44376        2.84652       -3.25274
| 10> O         -1.97092        1.58304       -2.15123
| 11> H          0.41484        3.10285       -3.24517
| 12> H          0.68317        2.68756       -4.91972
| 13> H          0.37534        0.30051       -4.40446
| 14> H          0.21856        0.70606       -2.71212
| 15> H          1.71431        1.03324       -3.55398
| 16> *
| 17> %MaxCore 64000
| 18>
| 19> %pal nprocs 4
| 20> end
| 21>
| 22> %scf
| 23>   MaxIter 150
| 24> end
| 25>
| 26>
| 27>                          ****END OF INPUT****

CARTESIAN COORDINATES (ANGSTROEM)
---------------------------------
  C      0.648660    1.003590   -3.645600
  C      0.132970    2.385870   -4.024620
  C     -1.366460    2.479110   -4.313930
  C     -2.357730    2.306860   -3.136750
  H     -1.636800    1.727090   -5.063990
  H     -1.582350    3.445610   -4.768690
  F     -3.443760    2.846520   -3.252740
  O     -1.970920    1.583040   -2.151230
  H      0.414840    3.102850   -3.245170
  H      0.683170    2.687560   -4.919720
  H      0.375340    0.300510   -4.404460
  H      0.218560    0.706060   -2.712120
  H      1.714310    1.033240   -3.553980

 Total Charge           Charge          ....    0
 Multiplicity           Mult            ....    1
 Number of Electrons    NEL             ....   48
 Basis Dimension        Dim             ....  182

ORBITAL ENERGIES
----------------

  NO   OCC          E(Eh)            E(eV)
   0   2.0000     -24.360008      -662.8695
   1   2.0000     -18.769310      -510.7389
   2   2.0000     -10.071534      -274.0604
   3   2.0000      -9.928183      -270.1596
   4   2.0000      -9.907697      -269.6021
   5   2.0000      -9.876458      -268.7521
   6   2.0000      -1.233947       -33.5774
   7   2.0000      -0.924177       -25.1481
   8   2.0000      -0.729912       -19.8619
   9   2.0000      -0.657670       -17.8961
  10   2.0000      -0.606306       -16.4984
  11   2.0000      -0.548720       -14.9314
  12   2.0000      -0.508834       -13.8461
  13   2.0000      -0.484325       -13.1792
  14   2.0000      -0.450298       -12.2532
  15   2.0000      -0.413212       -11.2441
  16   2.0000      -0.404115       -10.9965
  17   2.0000      -0.376010       -10.2317
  18   2.0000      -0.341304        -9.2873
  19   2.0000      -0.319143        -8.6843
  20   2.0000      -0.316563        -8.6141
  21   2.0000      -0.303305        -8.2533
  22   2.0000      -0.301149        -8.1947
  23   2.0000      -0.238335        -6.4854
  24   0.0000      -0.071253        -1.9389
  25   0.0000      -0.003770        -0.1026
  26   0.0000       0.021636         0.5887
  27   0.0000       0.036036         0.9806
  28   0.0000       0.037595         1.0230

MULLIKEN ATOMIC CHARGES
-----------------------
   0 C :    0.772205
   1 C :   -0.345778
   2 C :   -0.073384
   3 C :    0.697327
   4 H :    0.129864
   5 H :    0.024911
   6 F :   -0.299130
   7 O :   -0.499169
   8 H :   -0.083843
   9 H :   -0.048845
  10 H :   -0.063778
  11 H :   -0.166279
  12 H :   -0.044100
Sum of atomic charges:    0.0000000

LOEWDIN ATOMIC CHARGES
----------------------
   0 C :    0.125540
   1 C :   -0.070972
   2 C :    0.037476
   3 C :   -0.028417
   4 H :    0.041868
   5 H :    0.020998
   6 F :    0.011712
   7 O :   -0.126090
   8 H :    0.030667
   9 H :    0.022082
  10 H :   -0.015348
  11 H :   -0.032998
  12 H :   -0.016516

  Mayer bond orders larger than 0.100000
B(  0-C ,  1-C ) :   1.3458 B(  0-C ,  8-H ) :   0.1110 B(  0-C , 10-H ) :   0.7676
B(  0-C , 11-H ) :   0.8403 B(  0-C , 12-H ) :   0.7369 B(  1-C ,  2-C ) :   1.2718
B(  1-C ,  4-H ) :   0.1312 B(  1-C ,  5-H ) :   0.1377 B(  1-C ,  8-H ) :   0.9304
B(  1-C ,  9-H ) :   0.8534 B(  1-C , 10-H ) :   0.2121 B(  1-C , 11-H ) :   0.2244
B(  1-C , 12-H ) :   0.2235 B(  2-C ,  3-C ) :   1.0943 B(  2-C ,  4-H ) :   0.7973
B(  2-C ,  5-H ) :   0.8734 B(  2-C ,  6-F ) :   0.1077 B(  2-C ,  8-H ) :   0.1332
B(  2-C ,  9-H ) :   0.1166 B(  3-C ,  5-H ) :   0.1119 B(  3-C ,  6-F ) :   0.7954
B(  3-C ,  7-O ) :   1.7505 B(  6-F ,  7-O ) :   0.1047

Dispersion correction           -0.009352366
FINAL SINGLE POINT ENERGY      -331.095054979642

DIPOLE MOMENT
-------------
                                X             Y             Z
Electronic contribution:    -11.47465       2.88939       3.65933
Nuclear contribution   :     11.62992      -2.38586      -4.66016
                        -----------------------------------------
Total Dipole Moment    :      0.15528       0.50353      -1.00083
                        -----------------------------------------
Magnitude (a.u.)       :      1.13107
Magnitude (Debye)      :      2.87495

Rotational constants in cm-1:     0.249088     0.072929     0.060128
Rotational constants in MHz :  7467.482637  2186.350475  1802.579568

                             ****ORCA TERMINATED NORMALLY****
TOTAL RUN TIME: 0 days 0 hours 0 minutes 6 seconds 204 msec
