                         Program Version 5.0.0 -  RELEASE  -
|  1> !PBE D3BJ RIJCOSX def2-SVPD def2/J TightSCF
|  2> *xyz 0 1
|  3> C          0.64866        1.00359       -3.64560
|  4> C          0.28128        0.67645       -2.24018
|  5> C          0.13297        2.38587       -4.02462
|  6> C         -1.36646        2.47911       -4.31393
|  7> H          0.39079       -0.31925       -2.02649
|  8> H         -0.69269        0.99010       -2.13812
|  9> H          0.85421        1.21221       -1.57528
| 10> H          0.19099        0.23965       -4.27575
| 11> H          1.73157        0.93173       -3.75075
| 12> H          0.41484        3.10285       -3.24517
| 13> H          0.68317        2.68756       -4.91972
| 14> H         -1.62719        1.77449       -5.07580
| 15> H         -1.60483        3.46796       -4.64597
| 16> H         -1.91603        2.26007       -3.42236
| 17> *
| 18> %MaxCore 64000
| 19>
| 20> %pal nprocs 4
| 21> end
| 22>
| 23> %scf
| 24>   MaxIter 150
| 25> end
| 26>
| 27>
| 28>                          ****END OF INPUT****

CARTESIAN COORDINATES (ANGSTROEM)
---------------------------------
  C      0.648660    1.003590   -3.645600
  C      0.281280    0.676450   -2.240180
  C      0.132970    2.385870   -4.024620
  C     -1.366460    2.479110   -4.313930
  H      0.390790   -0.319250   -2.026490
  H     -0.692690    0.990100   -2.138120
  H      0.854210    1.212210   -1.575280
  H      0.190990    0.239650   -4.275750
  H      1.731570    0.931730   -3.750750
  H      0.414840    3.102850   -3.245170
  H      0.683170    2.687560   -4.919720
  H     -1.627190    1.774490   -5.075800
  H     -1.604830    3.467960   -4.645970
  H     -1.916030    2.260070   -3.422360

 Total Charge           Charge          ....    0
 Multiplicity           Mult            ....    1
 Number of Electrons    NEL             ....   34
 Basis Dimension        Dim             ....  160

ORBITAL ENERGIES
----------------

  NO   OCC          E(Eh)            E(eV)
   0   2.0000      -9.886713      -269.0311
   1   2.0000      -9.882122      -268.9062
   2   2.0000      -9.878044      -268.7952
   3   2.0000      -9.857344      -268.2320
   4   2.0000      -0.724441       -19.7130
   5   2.0000      -0.655098       -17.8261
   6   2.0000      -0.573644       -15.6097
   7   2.0000      -0.505700       -13.7608
   8   2.0000      -0.420621       -11.4457
   9   2.0000      -0.409227       -11.1356
  10   2.0000      -0.380864       -10.3638
  11   2.0000      -0.349935        -9.5222
  12   2.0000      -0.334446        -9.1007
  13   2.0000      -0.320483        -8.7208
  14   2.0000      -0.286541        -7.7972
  15   2.0000      -0.283742        -7.7210
  16   2.0000      -0.273651        -7.4464
  17   0.0000       0.008586         0.2336
  18   0.0000       0.034625         0.9422
  19   0.0000       0.037487         1.0201
  20   0.0000       0.042106         1.1458
  21   0.0000       0.078269         2.1298

MULLIKEN ATOMIC CHARGES
-----------------------
   0 C :   -0.268047
   1 C :    1.191313
   2 C :   -0.352612
   3 C :    0.768981
   4 H :   -0.242314
   5 H :   -0.434610
   6 H :   -0.078248
   7 H :   -0.025925
   8 H :   -0.162651
   9 H :   -0.051311
  10 H :   -0.102478
  11 H :    0.005670
  12 H :   -0.057724
  13 H :   -0.190044
Sum of atomic charges:   -0.0000000

LOEWDIN ATOMIC CHARGES
----------------------
   0 C :   -0.082974
   1 C :    0.125913
   2 C :   -0.086883
   3 C :    0.126740
   4 H :   -0.031505
   5 H :   -0.045114
   6 H :   -0.026791
   7 H :    0.024022
   8 H :    0.021401
   9 H :    0.025211
  10 H :    0.014139
  11 H :   -0.016479
  12 H :   -0.018293
  13 H :   -0.029385

  Mayer bond orders larger than 0.100000
B(  0-C ,  1-C ) :   1.2457 B(  0-C ,  2-C ) :   1.2149 B(  0-C ,  4-H ) :   0.2302
B(  0-C ,  5-H ) :   0.3255 B(  0-C ,  6-H ) :   0.2324 B(  0-C ,  7-H ) :   0.8728
B(  0-C ,  8-H ) :   0.9316 B(  0-C ,  9-H ) :   0.1252 B(  0-C , 10-H ) :   0.1101
B(  1-C ,  4-H ) :   0.6431 B(  1-C ,  5-H ) :   0.5921 B(  1-C ,  6-H ) :   0.6347
B(  1-C ,  7-H ) :   0.1071 B(  2-C ,  3-C ) :   1.2972 B(  2-C ,  8-H ) :   0.1189
B(  2-C ,  9-H ) :   0.9103 B(  2-C , 10-H ) :   0.9334 B(  2-C , 11-H ) :   0.2146
B(  2-C , 12-H ) :   0.2324 B(  2-C , 13-H ) :   0.2171 B(  3-C , 11-H ) :   0.7647
B(  3-C , 12-H ) :   0.7439 B(  3-C , 13-H ) :   0.8295 B(  5-H ,  6-H ) :   0.1680

Dispersion correction           -0.009351947
FINAL SINGLE POINT ENERGY      -158.095827677206

DIPOLE MOMENT
-------------
                                X             Y             Z
Electronic contribution:      0.65346       0.02203      -0.38867
Nuclear contribution   :     -0.63302      -0.01177       0.37643
                        -----------------------------------------
Total Dipole Moment    :      0.02044       0.01026      -0.01224
                        -----------------------------------------
Magnitude (a.u.)       :      0.02594
Magnitude (Debye)      :      0.06593

Rotational constants in cm-1:     0.480601     0.156500     0.138605
Rotational constants in MHz : 14408.061205  4691.756081  4155.280646

                             ****ORCA TERMINATED NORMALLY****
TOTAL RUN TIME: 0 days 0 hours 0 minutes 4 seconds 987 msec
