                         Program Version 5.0.0 -  RELEASE  -
|  1> !PBE D3BJ RIJCOSX def2-SVPD def2/J TightSCF
|  2> *xyz 0 1
|  3> C          0.64866        1.00359       -3.64560
|  4> C          0.13297        2.38587       -4.02462
|  5> C         -1.36646        2.47911       -4.31393
|  6> C         -2.35773        2.30686       -3.13675
|  7> H         -1.63680        1.72709       -5.06399
|  8> H         -1.58235        3.44561       -4.76869
|  9> O         -3.44376        2.84652       -3.25274
| 10> F         -1.97092        1.58304       -2.15123
| 11> H          0.41484        3.10285       -3.24517
| 12> H          0.68317        2.68756       -4.91972
| 13> H          0.37534        0.30051       -4.40446
| 14> H          0.21856        0.70606       -2.71212
| 15> H          1.71431        1.03324       -3.55398
| 16> *
| 17> %MaxCore 64000
| 18>
| 19> %pal nprocs 4
| 20> end
| 21>
| 22> %scf
| 23>   MaxIter 150
| 24> end
| 25>
| 26>
| 27>                          ****END OF INPUT****

CARTESIAN COORDINATES (ANGSTROEM)
---------------------------------
  C      0.648660    1.003590   -3.645600
  C      0.132970    2.385870   -4.024620
  C     -1.366460    2.479110   -4.313930
  C     -2.357730    2.306860   -3.136750
  H     -1.636800    1.727090   -5.063990
  H     -1.582350    3.445610   -4.768690
  O     -3.443760    2.846520   -3.252740
  F     -1.970920    1.583040   -2.151230
  H      0.414840    3.102850   -3.245170
  H      0.683170    2.687560   -4.919720
  H      0.375340    0.300510   -4.404460
  H      0.218560    0.706060   -2.712120
  H      1.714310    1.033240   -3.553980

 Total Charge           Charge          ....    0
 Multiplicity           Mult            ....    1
 Number of Electrons    NEL             ....   48
 Basis Dimension        Dim             ....  182

ORBITAL ENERGIES
----------------

  NO   OCC          E(Eh)            E(eV)
   0   2.0000     -24.336659      -662.2342
   1   2.0000     -18.777877      -510.9720
   2   2.0000     -10.065662      -273.9006
   3   2.0000      -9.926541      -270.1149
   4   2.0000      -9.912007      -269.7194
   5   2.0000      -9.889846      -269.1164
   6   2.0000      -1.186591       -32.2888
   7   2.0000      -0.961516       -26.1642
   8   2.0000      -0.735285       -20.0081
   9   2.0000      -0.655228       -17.8297
  10   2.0000      -0.588293       -16.0083
  11   2.0000      -0.552301       -15.0289
  12   2.0000      -0.486082       -13.2270
  13   2.0000      -0.473567       -12.8864
  14   2.0000      -0.442444       -12.0395
  15   2.0000      -0.411155       -11.1881
  16   2.0000      -0.408446       -11.1144
  17   2.0000      -0.382113       -10.3978
  18   2.0000      -0.359137        -9.7726
  19   2.0000      -0.334472        -9.1014
  20   2.0000      -0.327587        -8.9141
  21   2.0000      -0.309486        -8.4215
  22   2.0000      -0.306430        -8.3384
  23   2.0000      -0.251888        -6.8542
  24   0.0000      -0.065687        -1.7874
  25   0.0000      -0.006736        -0.1833
  26   0.0000       0.025131         0.6839
  27   0.0000       0.029534         0.8037
  28   0.0000       0.033655         0.9158

MULLIKEN ATOMIC CHARGES
-----------------------
   0 C :    0.776868
   1 C :   -0.311524
   2 C :   -0.076188
   3 C :    0.685463
   4 H :    0.120403
   5 H :    0.021363
   6 O :   -0.409748
   7 F :   -0.386235
   8 H :   -0.092419
   9 H :   -0.044501
  10 H :   -0.059368
  11 H :   -0.180839
  12 H :   -0.043275
Sum of atomic charges:    0.0000000

LOEWDIN ATOMIC CHARGES
----------------------
   0 C :    0.121678
   1 C :   -0.081189
   2 C :    0.047971
   3 C :   -0.028190
   4 H :    0.043348
   5 H :    0.032088
   6 O :   -0.095417
   7 F :   -0.029595
   8 H :    0.027954
   9 H :    0.022431
  10 H :   -0.014258
  11 H :   -0.032116
  12 H :   -0.014705

  Mayer bond orders larger than 0.100000
B(  0-C ,  1-C ) :   1.3353 B(  0-C ,  8-H ) :   0.1031 B(  0-C , 10-H ) :   0.7724
B(  0-C , 11-H ) :   0.8377 B(  0-C , 12-H ) :   0.7451 B(  1-C ,  2-C ) :   1.2445
B(  1-C ,  4-H ) :   0.1355 B(  1-C ,  5-H ) :   0.1267 B(  1-C ,  8-H ) :   0.9291
B(  1-C ,  9-H ) :   0.8424 B(  1-C , 10-H ) :   0.2132 B(  1-C , 11-H ) :   0.2203
B(  1-C , 12-H ) :   0.2235 B(  2-C ,  3-C ) :   1.0664 B(  2-C ,  4-H ) :   0.7939
B(  2-C ,  5-H ) :   0.9045 B(  2-C ,  8-H ) :   0.1369 B(  2-C ,  9-H ) :   0.1299
B(  3-C ,  5-H ) :   0.1306 B(  3-C ,  6-O ) :   1.8272 B(  3-C ,  7-F ) :   0.7227
B(  6-O ,  7-F ) :   0.1163

Dispersion correction           -0.009241867
FINAL SINGLE POINT ENERGY      -331.111455679086

DIPOLE MOMENT
-------------
                                X             Y             Z
Electronic contribution:     -8.92316       0.75859       5.46797
Nuclear contribution   :      9.96624      -0.95867      -5.90440
                        -----------------------------------------
Total Dipole Moment    :      1.04308      -0.20008      -0.43643
                        -----------------------------------------
Magnitude (a.u.)       :      1.14827
Magnitude (Debye)      :      2.91867

Rotational constants in cm-1:     0.233484     0.076940     0.061803
Rotational constants in MHz :  6999.682494  2306.588565  1852.797552

                             ****ORCA TERMINATED NORMALLY****
TOTAL RUN TIME: 0 days 0 hours 0 minutes 5 seconds 699 msec
