                         Program Version 5.0.0 -  RELEASE  -
|  1> !PBE D3BJ RIJCOSX def2-SVPD def2/J TightSCF xyzfile
|  2>
|  3> *xyzfile 0 1 D2.xyz
|  4>
|  5> %MaxCore 64000
|  6>
|  7> %pal nprocs 4
|  8> end
|  9>
| 10> %scf
| 11>   MaxIter 150
| 12> end
| 13>
| 14>
| 15>                          ****END OF INPUT****

CARTESIAN COORDINATES (ANGSTROEM)
---------------------------------
  C      0.648656    1.003595   -3.645601
  C      0.281280    0.676454   -2.240179
  C      0.132968    2.385869   -4.024618
  C     -1.366462    2.479106   -4.313932
  C     -2.357732    2.306858   -3.136753
  H     -1.636802    1.727095   -5.063993
  H     -1.582347    3.445605   -4.768687
  H      0.390790   -0.319253   -2.026495
  H     -0.692686    0.990104   -2.138123
  H      0.854206    1.212214   -1.575279
  O     -3.443763    2.846518   -3.252744
  F     -1.970922    1.583042   -2.151229
  H      0.190993    0.239655   -4.275752
  H      1.731572    0.931729   -3.750751
  H      0.414839    3.102847   -3.245165
  H      0.683167    2.687560   -4.919721

 Total Charge           Charge          ....    0
 Multiplicity           Mult            ....    1
 Number of Electrons    NEL             ....   56
 Basis Dimension        Dim             ....  218

ORBITAL ENERGIES
----------------

  NO   OCC          E(Eh)            E(eV)
   0   2.0000     -24.348181      -662.5477
   1   2.0000     -18.785397      -511.1766
   2   2.0000     -10.073642      -274.1177
   3   2.0000      -9.930811      -270.2311
   4   2.0000      -9.908612      -269.6270
   5   2.0000      -9.891050      -269.1492
   6   2.0000      -9.839488      -267.7461
   7   2.0000      -1.207767       -32.8650
   8   2.0000      -0.969328       -26.3767
   9   2.0000      -0.745397       -20.2833
  10   2.0000      -0.689212       -18.7544
  11   2.0000      -0.615698       -16.7540
  12   2.0000      -0.607122       -16.5206
  13   2.0000      -0.523141       -14.2354
  14   2.0000      -0.501865       -13.6564
  15   2.0000      -0.494382       -13.4528
  16   2.0000      -0.452179       -12.3044
  17   2.0000      -0.421259       -11.4630
  18   2.0000      -0.403993       -10.9932
  19   2.0000      -0.402539       -10.9536
  20   2.0000      -0.375072       -10.2062
  21   2.0000      -0.349837        -9.5196
  22   2.0000      -0.341477        -9.2921
  23   2.0000      -0.326145        -8.8749
  24   2.0000      -0.297108        -8.0847
  25   2.0000      -0.292133        -7.9493
  26   2.0000      -0.280757        -7.6398
  27   2.0000      -0.249555        -6.7907
  28   0.0000      -0.073939        -2.0120
  29   0.0000      -0.005579        -0.1518
  30   0.0000       0.020492         0.5576
  31   0.0000       0.026539         0.7222
  32   0.0000       0.028816         0.7841

MULLIKEN ATOMIC CHARGES
-----------------------
   0 C :   -0.237896
   1 C :    2.215940
   2 C :    0.132096
   3 C :   -0.045913
   4 C :    0.644160
   5 H :    0.189437
   6 H :    0.011279
   7 H :   -0.090199
   8 H :   -1.542867
   9 H :   -0.010301
  10 O :   -0.393386
  11 F :   -0.512303
  12 H :   -0.000147
  13 H :   -0.223255
  14 H :   -0.023590
  15 H :   -0.113056
Sum of atomic charges:    0.0000000

LOEWDIN ATOMIC CHARGES
----------------------
   0 C :   -0.060794
   1 C :    0.142398
   2 C :   -0.035463
   3 C :    0.065511
   4 C :    0.006406
   5 H :    0.046354
   6 H :    0.034134
   7 H :   -0.024928
   8 H :   -0.150472
   9 H :   -0.018981
  10 O :   -0.081778
  11 F :   -0.025292
  12 H :    0.025863
  13 H :    0.021177
  14 H :    0.034001
  15 H :    0.021864

  Mayer bond orders larger than 0.100000
B(  0-C ,  1-C ) :   0.9562 B(  0-C ,  2-C ) :   1.1919 B(  0-C ,  7-H ) :   0.2292
B(  0-C ,  8-H ) :   0.5984 B(  0-C ,  9-H ) :   0.2726 B(  0-C , 12-H ) :   0.8328
B(  0-C , 13-H ) :   0.9269 B(  0-C , 14-H ) :   0.1146 B(  0-C , 15-H ) :   0.1085
B(  1-C ,  7-H ) :   0.4773 B(  1-C ,  8-H ) :  -1.6915 B(  1-C ,  9-H ) :   0.2694
B(  1-C , 11-F ) :  -0.2180 B(  1-C , 12-H ) :   0.1248 B(  2-C ,  3-C ) :   1.2350
B(  2-C ,  5-H ) :   0.1360 B(  2-C ,  6-H ) :   0.1457 B(  2-C , 12-H ) :   0.1138
B(  2-C , 13-H ) :   0.1290 B(  2-C , 14-H ) :   0.8439 B(  2-C , 15-H ) :   0.8480
B(  3-C ,  4-C ) :   1.0755 B(  3-C ,  5-H ) :   0.7514 B(  3-C ,  6-H ) :   0.8830
B(  3-C , 10-O ) :   0.1003 B(  3-C , 11-F ) :   0.1010 B(  3-C , 14-H ) :   0.1275
B(  3-C , 15-H ) :   0.1208 B(  4-C ,  6-H ) :   0.1285 B(  4-C , 10-O ) :   1.8174
B(  4-C , 11-F ) :   0.6753 B(  7-H ,  8-H ) :   0.2295 B(  7-H ,  9-H ) :  -0.1252
B(  8-H ,  9-H ) :   0.4895 B(  8-H , 11-F ) :   0.3891 B(  8-H , 13-H ) :   0.1268
B( 10-O , 11-F ) :   0.1419 B( 12-H , 13-H ) :  -0.1051

Dispersion correction           -0.013183502
FINAL SINGLE POINT ENERGY      -370.289196132609

DIPOLE MOMENT
-------------
                                X             Y             Z
Electronic contribution:    -10.30995       2.34113       3.31700
Nuclear contribution   :     11.08738      -2.45618      -3.73478
                        -----------------------------------------
Total Dipole Moment    :      0.77743      -0.11505      -0.41778
                        -----------------------------------------
Magnitude (a.u.)       :      0.89004
Magnitude (Debye)      :      2.26231

Rotational constants in cm-1:     0.156244     0.063730     0.048063
Rotational constants in MHz :  4684.071402  1910.571278  1440.877811

                             ****ORCA TERMINATED NORMALLY****
TOTAL RUN TIME: 0 days 0 hours 0 minutes 11 seconds 950 msec
