                         Program Version 5.0.0 -  RELEASE  -
|  1> !wB97X-D3 RIJCOSX def2-SVPD def2/J TightSCF
|  2> *xyz -1 1
|  3> C          1.36401        0.46874       -2.81376
|  4> C          0.96805        1.63064       -3.71575
|  5> C         -0.50835        1.72268       -4.12430
|  6> S         -1.32861        0.14674       -4.43578
|  7> H         -0.59151        2.29496       -5.04722
|  8> H         -1.11411        2.23561       -3.37436
|  9> O         -2.57135        0.47573       -5.06834
| 10> O         -1.51496       -0.40051       -3.06342
| 11> H          1.57869        1.52065       -4.61273
| 12> H          1.26665        2.57599       -3.25045
| 13> O         -0.37793       -0.62756       -5.20114
| 14> H          1.07115       -0.45339       -3.27071
| 15> H          0.87480        0.56905       -1.86745
| 16> H          2.42423        0.47442       -2.66954
| 17> *
| 18> %MaxCore 64000
| 19>
| 20> %pal nprocs 18
| 21> end
| 22>
| 23> %scf
| 24>   MaxIter 150
| 25> end
| 26>
| 27>
| 28>                          ****END OF INPUT****

CARTESIAN COORDINATES (ANGSTROEM)
---------------------------------
  C      1.364010    0.468740   -2.813760
  C      0.968050    1.630640   -3.715750
  C     -0.508350    1.722680   -4.124300
  S     -1.328610    0.146740   -4.435780
  H     -0.591510    2.294960   -5.047220
  H     -1.114110    2.235610   -3.374360
  O     -2.571350    0.475730   -5.068340
  O     -1.514960   -0.400510   -3.063420
  H      1.578690    1.520650   -4.612730
  H      1.266650    2.575990   -3.250450
  O     -0.377930   -0.627560   -5.201140
  H      1.071150   -0.453390   -3.270710
  H      0.874800    0.569050   -1.867450
  H      2.424230    0.474420   -2.669540

 Total Charge           Charge          ....   -1
 Multiplicity           Mult            ....    1
 Number of Electrons    NEL             ....   66
 Basis Dimension        Dim             ....  212

ORBITAL ENERGIES
----------------

  NO   OCC          E(Eh)            E(eV)
   0   2.0000     -88.980017     -2421.2693
   1   2.0000     -19.033529      -517.9287
   2   2.0000     -19.031228      -517.8660
   3   2.0000     -19.014266      -517.4045
   4   2.0000     -10.159023      -276.4411
   5   2.0000     -10.151657      -276.2406
   6   2.0000     -10.130984      -275.6781
   7   2.0000      -8.053455      -219.1457
   8   2.0000      -6.013040      -163.6231
   9   2.0000      -6.012880      -163.6188
  10   2.0000      -6.012509      -163.6087
  11   2.0000      -1.054410       -28.6920
  12   2.0000      -0.916098       -24.9283
  13   2.0000      -0.884637       -24.0722
  14   2.0000      -0.764409       -20.8006
  15   2.0000      -0.672528       -18.3004
  16   2.0000      -0.573821       -15.6145
  17   2.0000      -0.485550       -13.2125
  18   2.0000      -0.436302       -11.8724
  19   2.0000      -0.420572       -11.4443
  20   2.0000      -0.400321       -10.8933
  21   2.0000      -0.384524       -10.4634
  22   2.0000      -0.365485        -9.9454
  23   2.0000      -0.347243        -9.4490
  24   2.0000      -0.318579        -8.6690
  25   2.0000      -0.310667        -8.4537
  26   2.0000      -0.289877        -7.8880
  27   2.0000      -0.256111        -6.9691
  28   2.0000      -0.251610        -6.8466
  29   2.0000      -0.219898        -5.9837
  30   2.0000      -0.206282        -5.6132
  31   2.0000      -0.193065        -5.2536
  32   2.0000      -0.165169        -4.4945
  33   0.0000       0.204554         5.5662
  34   0.0000       0.224124         6.0987
  35   0.0000       0.228002         6.2042
  36   0.0000       0.232181         6.3180
  37   0.0000       0.250972         6.8293

MULLIKEN ATOMIC CHARGES
-----------------------
   0 C :    0.686493
   1 C :   -0.308122
   2 C :    0.104398
   3 S :    1.300414
   4 H :   -0.046123
   5 H :    0.033460
   6 O :   -0.825024
   7 O :   -0.831766
   8 H :    0.033283
   9 H :   -0.143829
  10 O :   -0.806216
  11 H :   -0.041022
  12 H :   -0.037126
  13 H :   -0.118821
Sum of atomic charges:   -1.0000000

LOEWDIN ATOMIC CHARGES
----------------------
   0 C :    0.104972
   1 C :   -0.092267
   2 C :   -0.088719
   3 S :    0.864815
   4 H :   -0.000872
   5 H :    0.007377
   6 O :   -0.568227
   7 O :   -0.592490
   8 H :    0.013751
   9 H :    0.006580
  10 O :   -0.567958
  11 H :   -0.038815
  12 H :   -0.016819
  13 H :   -0.031327

  Mayer bond orders larger than 0.100000
B(  0-C ,  1-C ) :   1.3018 B(  0-C , 11-H ) :   0.8335 B(  0-C , 12-H ) :   0.7755
B(  0-C , 13-H ) :   0.7611 B(  1-C ,  2-C ) :   1.2425 B(  1-C ,  4-H ) :   0.1421
B(  1-C ,  5-H ) :   0.1311 B(  1-C ,  8-H ) :   0.8873 B(  1-C ,  9-H ) :   0.8946
B(  1-C , 11-H ) :   0.1930 B(  1-C , 12-H ) :   0.1937 B(  1-C , 13-H ) :   0.2144
B(  2-C ,  3-S ) :   0.9098 B(  2-C ,  4-H ) :   0.9167 B(  2-C ,  5-H ) :   0.9206
B(  2-C ,  8-H ) :   0.1051 B(  2-C ,  9-H ) :   0.1111 B(  3-S ,  6-O ) :   1.3958
B(  3-S ,  7-O ) :   1.2744 B(  3-S , 10-O ) :   1.2965

Dispersion correction           -0.004643711
FINAL SINGLE POINT ENERGY      -741.968257378319

DIPOLE MOMENT
-------------
                                X             Y             Z
Electronic contribution:     -8.29301      -4.39921      -4.06691
Nuclear contribution   :      9.76868       5.90538       4.47074
                        -----------------------------------------
Total Dipole Moment    :      1.47568       1.50617       0.40383
                        -----------------------------------------
Magnitude (a.u.)       :      2.14691
Magnitude (Debye)      :      5.45702

Rotational constants in cm-1:     0.135183     0.058485     0.054837
Rotational constants in MHz :  4052.676901  1753.343161  1643.972690

                             ****ORCA TERMINATED NORMALLY****
TOTAL RUN TIME: 0 days 0 hours 0 minutes 12 seconds 650 msec
