                         Program Version 5.0.0 -  RELEASE  -
|  1> !wB97X-D3 RIJCOSX def2-SVPD def2/J TightSCF
|  2> *xyz 1 1
|  3> C          1.36401        0.46874       -2.81376
|  4> N          0.42884        0.32140       -1.65531
|  5> C          0.96805        1.63064       -3.71575
|  6> C         -0.50835        1.72268       -4.12430
|  7> H          0.74858       -0.40054       -1.00134
|  8> H         -0.46105        0.02333       -2.07773
|  9> H          0.31026        1.20137       -1.13495
| 10> H          1.29485       -0.46874       -3.36468
| 11> H          2.37622        0.59740       -2.43149
| 12> H          1.57869        1.52065       -4.61273
| 13> H          1.26665        2.57599       -3.25045
| 14> H         -0.65192        2.57663       -4.75283
| 15> H         -1.11549        1.81835       -3.24844
| 16> H         -0.78702        0.83723       -4.65648
| 17> *
| 18> %MaxCore 64000
| 19>
| 20> %pal nprocs 18
| 21> end
| 22>
| 23> %scf
| 24>   MaxIter 150
| 25> end
| 26>
| 27>
| 28>                          ****END OF INPUT****

CARTESIAN COORDINATES (ANGSTROEM)
---------------------------------
  C      1.364010    0.468740   -2.813760
  N      0.428840    0.321400   -1.655310
  C      0.968050    1.630640   -3.715750
  C     -0.508350    1.722680   -4.124300
  H      0.748580   -0.400540   -1.001340
  H     -0.461050    0.023330   -2.077730
  H      0.310260    1.201370   -1.134950
  H      1.294850   -0.468740   -3.364680
  H      2.376220    0.597400   -2.431490
  H      1.578690    1.520650   -4.612730
  H      1.266650    2.575990   -3.250450
  H     -0.651920    2.576630   -4.752830
  H     -1.115490    1.818350   -3.248440
  H     -0.787020    0.837230   -4.656480

 Total Charge           Charge          ....    1
 Multiplicity           Mult            ....    1
 Number of Electrons    NEL             ....   34
 Basis Dimension        Dim             ....  160

ORBITAL ENERGIES
----------------

  NO   OCC          E(Eh)            E(eV)
   0   2.0000     -14.768252      -401.8646
   1   2.0000     -10.538753      -286.7740
   2   2.0000     -10.468499      -284.8623
   3   2.0000     -10.440429      -284.0985
   4   2.0000      -1.319045       -35.8931
   5   2.0000      -1.083373       -29.4801
   6   2.0000      -0.993917       -27.0459
   7   2.0000      -0.909250       -24.7419
   8   2.0000      -0.896663       -24.3994
   9   2.0000      -0.875522       -23.8242
  10   2.0000      -0.785136       -21.3646
  11   2.0000      -0.738554       -20.0971
  12   2.0000      -0.707980       -19.2651
  13   2.0000      -0.684689       -18.6313
  14   2.0000      -0.627659       -17.0795
  15   2.0000      -0.618381       -16.8270
  16   2.0000      -0.605734       -16.4829
  17   0.0000      -0.108119        -2.9421
  18   0.0000      -0.049172        -1.3381
  19   0.0000      -0.047476        -1.2919
  20   0.0000      -0.040542        -1.1032
  21   0.0000      -0.012732        -0.3465

MULLIKEN ATOMIC CHARGES
-----------------------
   0 C :    0.496464
   1 N :   -0.711024
   2 C :   -0.394981
   3 C :    0.638139
   4 H :    0.318195
   5 H :    0.412930
   6 H :    0.396272
   7 H :    0.010879
   8 H :   -0.064620
   9 H :    0.032039
  10 H :   -0.018425
  11 H :   -0.055340
  12 H :   -0.066635
  13 H :    0.006105
Sum of atomic charges:    1.0000000

LOEWDIN ATOMIC CHARGES
----------------------
   0 C :    0.090723
   1 N :    0.330972
   2 C :   -0.047348
   3 C :    0.143440
   4 H :    0.107127
   5 H :    0.091263
   6 H :    0.112448
   7 H :    0.055039
   8 H :    0.053244
   9 H :    0.044459
  10 H :    0.036893
  11 H :    0.008218
  12 H :   -0.025563
  13 H :   -0.000913

  Mayer bond orders larger than 0.100000
B(  0-C ,  1-N ) :   0.7924 B(  0-C ,  2-C ) :   1.1803 B(  0-C ,  7-H ) :   0.8705
B(  0-C ,  8-H ) :   0.9536 B(  0-C ,  9-H ) :   0.1394 B(  1-N ,  4-H ) :   0.8168
B(  1-N ,  5-H ) :   0.7434 B(  1-N ,  6-H ) :   0.7712 B(  1-N ,  7-H ) :   0.1120
B(  2-C ,  3-C ) :   1.2851 B(  2-C ,  7-H ) :   0.1036 B(  2-C ,  9-H ) :   0.9063
B(  2-C , 10-H ) :   0.9638 B(  2-C , 11-H ) :   0.1923 B(  2-C , 12-H ) :   0.1592
B(  2-C , 13-H ) :   0.1705 B(  3-C , 11-H ) :   0.8448 B(  3-C , 12-H ) :   0.8445
B(  3-C , 13-H ) :   0.8261

Dispersion correction           -0.002841244
FINAL SINGLE POINT ENERGY      -174.688791588216

DIPOLE MOMENT
-------------
                                X             Y             Z
Electronic contribution:      0.76401      -1.08620       1.96227
Nuclear contribution   :     -0.79558       0.15863      -0.24664
                        -----------------------------------------
Total Dipole Moment    :     -0.03156      -0.92757       1.71563
                        -----------------------------------------
Magnitude (a.u.)       :      1.95059
Magnitude (Debye)      :      4.95799

Rotational constants in cm-1:     0.425244     0.165801     0.135024
Rotational constants in MHz : 12748.492920  4970.589839  4047.903558

                             ****ORCA TERMINATED NORMALLY****
TOTAL RUN TIME: 0 days 0 hours 0 minutes 7 seconds 773 msec
