                         Program Version 5.0.0 -  RELEASE  -
|  1> !wB97X-D3 RIJCOSX def2-SVPD def2/J TightSCF xyzfile
|  2>
|  3> *xyzfile 0 1 B.xyz
|  4>
|  5> %MaxCore 64000
|  6>
|  7> %pal nprocs 18
|  8> end
|  9>
| 10> %scf
| 11>   MaxIter 150
| 12> end
| 13>
| 14>
| 15>                          ****END OF INPUT****

CARTESIAN COORDINATES (ANGSTROEM)
---------------------------------
  C      1.364014    0.468742   -2.813764
  N      0.428844    0.321402   -1.655312
  C      0.968045    1.630639   -3.715749
  C     -0.508347    1.722679   -4.124300
  S     -1.328608    0.146737   -4.435781
  H     -0.591511    2.294958   -5.047219
  H     -1.114114    2.235610   -3.374362
  H      0.748578   -0.400542   -1.001345
  H     -0.461053    0.023332   -2.077731
  H      0.310258    1.201375   -1.134948
  O     -2.571347    0.475733   -5.068341
  O     -1.514963   -0.400512   -3.063420
  H      1.294847   -0.468742   -3.364684
  H      2.376216    0.597400   -2.431495
  H      1.578688    1.520652   -4.612733
  H      1.266653    2.575988   -3.250448
  O     -0.377928   -0.627558   -5.201141

 Total Charge           Charge          ....    0
 Multiplicity           Mult            ....    1
 Number of Electrons    NEL             ....   74
 Basis Dimension        Dim             ....  248

ORBITAL ENERGIES
----------------

  NO   OCC          E(Eh)            E(eV)
   0   2.0000     -89.144861     -2425.7550
   1   2.0000     -19.201434      -522.4976
   2   2.0000     -19.186282      -522.0853
   3   2.0000     -19.184088      -522.0256
   4   2.0000     -14.574887      -396.6028
   5   2.0000     -10.385044      -282.5914
   6   2.0000     -10.336574      -281.2725
   7   2.0000     -10.314923      -280.6833
   8   2.0000      -8.218022      -223.6237
   9   2.0000      -6.178253      -168.1188
  10   2.0000      -6.177169      -168.0893
  11   2.0000      -6.176758      -168.0781
  12   2.0000      -1.219062       -33.1724
  13   2.0000      -1.143041       -31.1037
  14   2.0000      -1.069409       -29.1001
  15   2.0000      -1.067224       -29.0407
  16   2.0000      -0.940328       -25.5876
  17   2.0000      -0.851906       -23.1815
  18   2.0000      -0.764911       -20.8143
  19   2.0000      -0.733524       -19.9602
  20   2.0000      -0.719248       -19.5717
  21   2.0000      -0.653797       -17.7907
  22   2.0000      -0.629825       -17.1384
  23   2.0000      -0.593507       -16.1502
  24   2.0000      -0.576969       -15.7001
  25   2.0000      -0.568327       -15.4650
  26   2.0000      -0.536023       -14.5859
  27   2.0000      -0.526791       -14.3347
  28   2.0000      -0.502483       -13.6733
  29   2.0000      -0.492875       -13.4118
  30   2.0000      -0.475128       -12.9289
  31   2.0000      -0.423393       -11.5211
  32   2.0000      -0.414888       -11.2897
  33   2.0000      -0.383030       -10.4228
  34   2.0000      -0.372628       -10.1397
  35   2.0000      -0.360727        -9.8159
  36   2.0000      -0.332358        -9.0439
  37   0.0000       0.033653         0.9157
  38   0.0000       0.077074         2.0973
  39   0.0000       0.080055         2.1784
  40   0.0000       0.103114         2.8059
  41   0.0000       0.119016         3.2386

MULLIKEN ATOMIC CHARGES
-----------------------
   0 C :    0.541683
   1 N :   -0.353718
   2 C :    0.144675
   3 C :    0.123381
   4 S :    1.421845
   5 H :   -0.172617
   6 H :    0.124813
   7 H :    0.306990
   8 H :   -0.023420
   9 H :    0.415809
  10 O :   -0.786042
  11 O :   -0.888397
  12 H :    0.106348
  13 H :   -0.238279
  14 H :    0.115138
  15 H :   -0.064707
  16 O :   -0.773502
Sum of atomic charges:    0.0000000

LOEWDIN ATOMIC CHARGES
----------------------
   0 C :    0.095158
   1 N :    0.324721
   2 C :   -0.017101
   3 C :   -0.060917
   4 S :    0.950510
   5 H :    0.020579
   6 H :    0.016147
   7 H :    0.096895
   8 H :   -0.113826
   9 H :    0.099252
  10 O :   -0.506429
  11 O :   -0.518006
  12 H :    0.036382
  13 H :    0.035743
  14 H :    0.041367
  15 H :    0.026300
  16 O :   -0.526774

  Mayer bond orders larger than 0.100000
B(  0-C ,  1-N ) :   0.8419 B(  0-C ,  2-C ) :   1.2062 B(  0-C , 12-H ) :   0.8132
B(  0-C , 13-H ) :   0.9274 B(  0-C , 14-H ) :   0.1453 B(  0-C , 15-H ) :   0.1294
B(  1-N ,  7-H ) :   0.8029 B(  1-N ,  8-H ) :   1.2116 B(  1-N ,  9-H ) :   0.7406
B(  1-N , 12-H ) :   0.1225 B(  2-C ,  3-C ) :   1.2457 B(  2-C ,  5-H ) :   0.1500
B(  2-C ,  6-H ) :   0.1054 B(  2-C , 12-H ) :   0.1126 B(  2-C , 14-H ) :   0.8093
B(  2-C , 15-H ) :   0.8309 B(  3-C ,  4-S ) :   0.9079 B(  3-C ,  5-H ) :   0.9202
B(  3-C ,  6-H ) :   0.8870 B(  3-C , 11-O ) :   0.1286 B(  3-C , 14-H ) :   0.1204
B(  4-S , 10-O ) :   1.4617 B(  4-S , 11-O ) :   1.0853 B(  4-S , 16-O ) :   1.3451
B(  8-H , 11-O ) :   0.2619

Dispersion correction           -0.006686850
FINAL SINGLE POINT ENERGY      -797.794410001709

DIPOLE MOMENT
-------------
                                X             Y             Z
Electronic contribution:     -6.84490      -4.08492      -4.23423
Nuclear contribution   :      9.95459       5.57517       7.68169
                        -----------------------------------------
Total Dipole Moment    :      3.10969       1.49025       3.44746
                        -----------------------------------------
Magnitude (a.u.)       :      4.87606
Magnitude (Debye)      :     12.39396

Rotational constants in cm-1:     0.102119     0.045768     0.041299
Rotational constants in MHz :  3061.441288  1372.093000  1238.124534

                             ****ORCA TERMINATED NORMALLY****
TOTAL RUN TIME: 0 days 0 hours 0 minutes 30 seconds 908 msec
