                         Program Version 5.0.0 -  RELEASE  -
|  1> !wB97X-D3 RIJCOSX def2-SVPD def2/J TightSCF
|  2> *xyz 0 1
|  3> C          1.36401        0.46874       -2.81376
|  4> C          0.96805        1.63064       -3.71575
|  5> C         -0.50835        1.72268       -4.12430
|  6> S         -1.32861        0.14674       -4.43578
|  7> H         -0.59151        2.29496       -5.04722
|  8> H         -1.11411        2.23561       -3.37436
|  9> F         -2.57135        0.47573       -5.06834
| 10> O         -1.51496       -0.40051       -3.06342
| 11> H          1.57869        1.52065       -4.61273
| 12> H          1.26665        2.57599       -3.25045
| 13> O         -0.37793       -0.62756       -5.20114
| 14> H          1.07115       -0.45339       -3.27071
| 15> H          0.87480        0.56905       -1.86745
| 16> H          2.42423        0.47442       -2.66954
| 17> *
| 18> %MaxCore 64000
| 19>
| 20> %pal nprocs 18
| 21> end
| 22>
| 23> %scf
| 24>   MaxIter 150
| 25> end
| 26>
| 27>
| 28>                          ****END OF INPUT****

CARTESIAN COORDINATES (ANGSTROEM)
---------------------------------
  C      1.364010    0.468740   -2.813760
  C      0.968050    1.630640   -3.715750
  C     -0.508350    1.722680   -4.124300
  S     -1.328610    0.146740   -4.435780
  H     -0.591510    2.294960   -5.047220
  H     -1.114110    2.235610   -3.374360
  F     -2.571350    0.475730   -5.068340
  O     -1.514960   -0.400510   -3.063420
  H      1.578690    1.520650   -4.612730
  H      1.266650    2.575990   -3.250450
  O     -0.377930   -0.627560   -5.201140
  H      1.071150   -0.453390   -3.270710
  H      0.874800    0.569050   -1.867450
  H      2.424230    0.474420   -2.669540

 Total Charge           Charge          ....    0
 Multiplicity           Mult            ....    1
 Number of Electrons    NEL             ....   66
 Basis Dimension        Dim             ....  212

ORBITAL ENERGIES
----------------

  NO   OCC          E(Eh)            E(eV)
   0   2.0000     -89.238148     -2428.2935
   1   2.0000     -24.929522      -678.3668
   2   2.0000     -19.263133      -524.1765
   3   2.0000     -19.246484      -523.7235
   4   2.0000     -10.351465      -281.6777
   5   2.0000     -10.316967      -280.7389
   6   2.0000     -10.274247      -279.5765
   7   2.0000      -8.312483      -226.1942
   8   2.0000      -6.276105      -170.7815
   9   2.0000      -6.269704      -170.6073
  10   2.0000      -6.268459      -170.5735
  11   2.0000      -1.505679       -40.9716
  12   2.0000      -1.226022       -33.3617
  13   2.0000      -1.117598       -30.4114
  14   2.0000      -0.940430       -25.5904
  15   2.0000      -0.870301       -23.6821
  16   2.0000      -0.820751       -22.3338
  17   2.0000      -0.746061       -20.3013
  18   2.0000      -0.705097       -19.1867
  19   2.0000      -0.689381       -18.7590
  20   2.0000      -0.660498       -17.9731
  21   2.0000      -0.599166       -16.3041
  22   2.0000      -0.587100       -15.9758
  23   2.0000      -0.558420       -15.1954
  24   2.0000      -0.552825       -15.0431
  25   2.0000      -0.519581       -14.1385
  26   2.0000      -0.489998       -13.3335
  27   2.0000      -0.471913       -12.8414
  28   2.0000      -0.461188       -12.5496
  29   2.0000      -0.445607       -12.1256
  30   2.0000      -0.429018       -11.6742
  31   2.0000      -0.412091       -11.2136
  32   2.0000      -0.403812       -10.9883
  33   0.0000       0.063992         1.7413
  34   0.0000       0.085697         2.3319
  35   0.0000       0.094420         2.5693
  36   0.0000       0.098988         2.6936
  37   0.0000       0.117986         3.2106

MULLIKEN ATOMIC CHARGES
-----------------------
   0 C :    0.676860
   1 C :   -0.331048
   2 C :    0.038362
   3 S :    1.510322
   4 H :    0.027363
   5 H :    0.101996
   6 F :   -0.455798
   7 O :   -0.694967
   8 H :    0.064206
   9 H :   -0.097198
  10 O :   -0.672730
  11 H :   -0.061911
  12 H :   -0.017450
  13 H :   -0.088009
Sum of atomic charges:   -0.0000000

LOEWDIN ATOMIC CHARGES
----------------------
   0 C :    0.126365
   1 C :   -0.061605
   2 C :   -0.053092
   3 S :    1.132456
   4 H :    0.015828
   5 H :    0.025474
   6 F :   -0.250215
   7 O :   -0.485328
   8 H :    0.029075
   9 H :    0.032694
  10 O :   -0.463166
  11 H :   -0.033235
  12 H :   -0.005666
  13 H :   -0.009582

  Mayer bond orders larger than 0.100000
B(  0-C ,  1-C ) :   1.3169 B(  0-C , 11-H ) :   0.8373 B(  0-C , 12-H ) :   0.7814
B(  0-C , 13-H ) :   0.7773 B(  1-C ,  2-C ) :   1.2976 B(  1-C ,  4-H ) :   0.1515
B(  1-C ,  5-H ) :   0.1226 B(  1-C ,  8-H ) :   0.8870 B(  1-C ,  9-H ) :   0.9050
B(  1-C , 11-H ) :   0.1781 B(  1-C , 12-H ) :   0.1850 B(  1-C , 13-H ) :   0.2032
B(  2-C ,  3-S ) :   0.9441 B(  2-C ,  4-H ) :   0.8813 B(  2-C ,  5-H ) :   0.9121
B(  2-C ,  8-H ) :   0.1066 B(  2-C ,  9-H ) :   0.1058 B(  3-S ,  6-F ) :   0.6906
B(  3-S ,  7-O ) :   1.4734 B(  3-S , 10-O ) :   1.4922

Dispersion correction           -0.004621743
FINAL SINGLE POINT ENERGY      -766.445102408757

DIPOLE MOMENT
-------------
                                X             Y             Z
Electronic contribution:    -11.76454      -4.27475      -5.81844
Nuclear contribution   :     11.77809       5.83971       5.48704
                        -----------------------------------------
Total Dipole Moment    :      0.01355       1.56497      -0.33140
                        -----------------------------------------
Magnitude (a.u.)       :      1.59973
Magnitude (Debye)      :      4.06619

Rotational constants in cm-1:     0.133968     0.056186     0.052650
Rotational constants in MHz :  4016.256208  1684.422248  1578.415210

                             ****ORCA TERMINATED NORMALLY****
TOTAL RUN TIME: 0 days 0 hours 0 minutes 15 seconds 14 msec
