                         Program Version 5.0.0 -  RELEASE  -
|  1> !wB97X-D3 RIJCOSX def2-SVPD def2/J TightSCF
|  2> *xyz 0 1
|  3> C          1.36401        0.46874       -2.81376
|  4> C          0.42884        0.32140       -1.65531
|  5> C          0.96805        1.63064       -3.71575
|  6> C         -0.50835        1.72268       -4.12430
|  7> H          0.74858       -0.40054       -1.00134
|  8> H         -0.46105        0.02333       -2.07773
|  9> H          0.31026        1.20137       -1.13495
| 10> H          1.29485       -0.46874       -3.36468
| 11> H          2.37622        0.59740       -2.43149
| 12> H          1.57869        1.52065       -4.61273
| 13> H          1.26665        2.57599       -3.25045
| 14> H         -0.65192        2.57663       -4.75283
| 15> H         -1.11549        1.81835       -3.24844
| 16> H         -0.78702        0.83723       -4.65648
| 17> *
| 18> %MaxCore 64000
| 19>
| 20> %pal nprocs 18
| 21> end
| 22>
| 23> %scf
| 24>   MaxIter 150
| 25> end
| 26>
| 27>
| 28>                          ****END OF INPUT****

CARTESIAN COORDINATES (ANGSTROEM)
---------------------------------
  C      1.364010    0.468740   -2.813760
  C      0.428840    0.321400   -1.655310
  C      0.968050    1.630640   -3.715750
  C     -0.508350    1.722680   -4.124300
  H      0.748580   -0.400540   -1.001340
  H     -0.461050    0.023330   -2.077730
  H      0.310260    1.201370   -1.134950
  H      1.294850   -0.468740   -3.364680
  H      2.376220    0.597400   -2.431490
  H      1.578690    1.520650   -4.612730
  H      1.266650    2.575990   -3.250450
  H     -0.651920    2.576630   -4.752830
  H     -1.115490    1.818350   -3.248440
  H     -0.787020    0.837230   -4.656480

 Total Charge           Charge          ....    0
 Multiplicity           Mult            ....    1
 Number of Electrons    NEL             ....   34
 Basis Dimension        Dim             ....  160

ORBITAL ENERGIES
----------------

  NO   OCC          E(Eh)            E(eV)
   0   2.0000     -10.278685      -279.6972
   1   2.0000     -10.275023      -279.5976
   2   2.0000     -10.269842      -279.4566
   3   2.0000     -10.249433      -278.9012
   4   2.0000      -0.913285       -24.8517
   5   2.0000      -0.836021       -22.7493
   6   2.0000      -0.754222       -20.5234
   7   2.0000      -0.665664       -18.1136
   8   2.0000      -0.572608       -15.5815
   9   2.0000      -0.564051       -15.3486
  10   2.0000      -0.524286       -14.2665
  11   2.0000      -0.484973       -13.1968
  12   2.0000      -0.480475       -13.0744
  13   2.0000      -0.461100       -12.5472
  14   2.0000      -0.419893       -11.4259
  15   2.0000      -0.411858       -11.2072
  16   2.0000      -0.408207       -11.1079
  17   0.0000       0.095106         2.5880
  18   0.0000       0.121315         3.3012
  19   0.0000       0.122192         3.3250
  20   0.0000       0.136772         3.7217
  21   0.0000       0.169278         4.6063

MULLIKEN ATOMIC CHARGES
-----------------------
   0 C :   -0.306691
   1 C :    0.906226
   2 C :   -0.338270
   3 C :    0.590097
   4 H :   -0.296265
   5 H :   -0.070114
   6 H :   -0.152128
   7 H :   -0.005404
   8 H :   -0.112377
   9 H :   -0.077174
  10 H :   -0.001842
  11 H :   -0.102903
  12 H :   -0.020335
  13 H :   -0.012818
Sum of atomic charges:    0.0000000

LOEWDIN ATOMIC CHARGES
----------------------
   0 C :   -0.080462
   1 C :    0.115318
   2 C :   -0.082620
   3 C :    0.119333
   4 H :   -0.033200
   5 H :   -0.037934
   6 H :   -0.022792
   7 H :    0.024522
   8 H :    0.021344
   9 H :    0.012798
  10 H :    0.021919
  11 H :   -0.018400
  12 H :   -0.026572
  13 H :   -0.013255

  Mayer bond orders larger than 0.100000
B(  0-C ,  1-C ) :   1.2605 B(  0-C ,  2-C ) :   1.1675 B(  0-C ,  4-H ) :   0.2113
B(  0-C ,  5-H ) :   0.2434 B(  0-C ,  6-H ) :   0.2170 B(  0-C ,  7-H ) :   0.8771
B(  0-C ,  8-H ) :   0.9590 B(  0-C ,  9-H ) :   0.1343 B(  0-C , 10-H ) :   0.1166
B(  1-C ,  4-H ) :   0.7610 B(  1-C ,  5-H ) :   0.7515 B(  1-C ,  6-H ) :   0.7410
B(  1-C ,  7-H ) :   0.1128 B(  2-C ,  3-C ) :   1.2901 B(  2-C ,  7-H ) :   0.1233
B(  2-C ,  9-H ) :   0.9372 B(  2-C , 10-H ) :   0.9249 B(  2-C , 11-H ) :   0.2048
B(  2-C , 12-H ) :   0.1710 B(  2-C , 13-H ) :   0.1762 B(  3-C , 11-H ) :   0.8117
B(  3-C , 12-H ) :   0.8533 B(  3-C , 13-H ) :   0.8247

Dispersion correction           -0.002747771
FINAL SINGLE POINT ENERGY      -158.289677997365

DIPOLE MOMENT
-------------
                                X             Y             Z
Electronic contribution:      0.84219       0.05338      -0.18631
Nuclear contribution   :     -0.83100      -0.05970       0.18742
                        -----------------------------------------
Total Dipole Moment    :      0.01119      -0.00632       0.00111
                        -----------------------------------------
Magnitude (a.u.)       :      0.01290
Magnitude (Debye)      :      0.03278

Rotational constants in cm-1:     0.433656     0.172838     0.140497
Rotational constants in MHz : 13000.688694  5181.547473  4211.992439

                             ****ORCA TERMINATED NORMALLY****
TOTAL RUN TIME: 0 days 0 hours 0 minutes 8 seconds 61 msec
