                         Program Version 5.0.0 -  RELEASE  -
|  1> !wB97X-D3 RIJCOSX def2-SVPD def2/J TightSCF
|  2> *xyz 0 1
|  3> C          1.36401        0.46874       -2.81376
|  4> C          0.96805        1.63064       -3.71575
|  5> C         -0.50835        1.72268       -4.12430
|  6> S         -1.32861        0.14674       -4.43578
|  7> H         -0.59151        2.29496       -5.04722
|  8> H         -1.11411        2.23561       -3.37436
|  9> O         -2.57135        0.47573       -5.06834
| 10> F         -1.51496       -0.40051       -3.06342
| 11> H          1.57869        1.52065       -4.61273
| 12> H          1.26665        2.57599       -3.25045
| 13> O         -0.37793       -0.62756       -5.20114
| 14> H          1.07115       -0.45339       -3.27071
| 15> H          0.87480        0.56905       -1.86745
| 16> H          2.42423        0.47442       -2.66954
| 17> *
| 18> %MaxCore 64000
| 19>
| 20> %pal nprocs 18
| 21> end
| 22>
| 23> %scf
| 24>   MaxIter 150
| 25> end
| 26>
| 27>
| 28>                          ****END OF INPUT****

CARTESIAN COORDINATES (ANGSTROEM)
---------------------------------
  C      1.364010    0.468740   -2.813760
  C      0.968050    1.630640   -3.715750
  C     -0.508350    1.722680   -4.124300
  S     -1.328610    0.146740   -4.435780
  H     -0.591510    2.294960   -5.047220
  H     -1.114110    2.235610   -3.374360
  O     -2.571350    0.475730   -5.068340
  F     -1.514960   -0.400510   -3.063420
  H      1.578690    1.520650   -4.612730
  H      1.266650    2.575990   -3.250450
  O     -0.377930   -0.627560   -5.201140
  H      1.071150   -0.453390   -3.270710
  H      0.874800    0.569050   -1.867450
  H      2.424230    0.474420   -2.669540

 Total Charge           Charge          ....    0
 Multiplicity           Mult            ....    1
 Number of Electrons    NEL             ....   66
 Basis Dimension        Dim             ....  212

ORBITAL ENERGIES
----------------

  NO   OCC          E(Eh)            E(eV)
   0   2.0000     -89.235215     -2428.2137
   1   2.0000     -24.900541      -677.5782
   2   2.0000     -19.265322      -524.2361
   3   2.0000     -19.261490      -524.1318
   4   2.0000     -10.350453      -281.6501
   5   2.0000     -10.318804      -280.7889
   6   2.0000     -10.288763      -279.9715
   7   2.0000      -8.309350      -226.1089
   8   2.0000      -6.272928      -170.6950
   9   2.0000      -6.266764      -170.5273
  10   2.0000      -6.265476      -170.4923
  11   2.0000      -1.457736       -39.6670
  12   2.0000      -1.239737       -33.7350
  13   2.0000      -1.143812       -31.1247
  14   2.0000      -0.944891       -25.7118
  15   2.0000      -0.862616       -23.4730
  16   2.0000      -0.809380       -22.0244
  17   2.0000      -0.744331       -20.2543
  18   2.0000      -0.674897       -18.3649
  19   2.0000      -0.671869       -18.2825
  20   2.0000      -0.656773       -17.8717
  21   2.0000      -0.605828       -16.4854
  22   2.0000      -0.579780       -15.7766
  23   2.0000      -0.565684       -15.3930
  24   2.0000      -0.555978       -15.1289
  25   2.0000      -0.535461       -14.5706
  26   2.0000      -0.500027       -13.6064
  27   2.0000      -0.479953       -13.0602
  28   2.0000      -0.476383       -12.9630
  29   2.0000      -0.450798       -12.2668
  30   2.0000      -0.441990       -12.0272
  31   2.0000      -0.424530       -11.5520
  32   2.0000      -0.419131       -11.4051
  33   0.0000       0.068114         1.8535
  34   0.0000       0.088870         2.4183
  35   0.0000       0.096009         2.6125
  36   0.0000       0.097362         2.6494
  37   0.0000       0.117544         3.1985

MULLIKEN ATOMIC CHARGES
-----------------------
   0 C :    0.660165
   1 C :   -0.279825
   2 C :    0.036743
   3 S :    1.460393
   4 H :    0.024521
   5 H :    0.096359
   6 O :   -0.694209
   7 F :   -0.405268
   8 H :    0.069332
   9 H :   -0.093568
  10 O :   -0.681587
  11 H :   -0.081538
  12 H :   -0.030883
  13 H :   -0.080637
Sum of atomic charges:   -0.0000000

LOEWDIN ATOMIC CHARGES
----------------------
   0 C :    0.121945
   1 C :   -0.071296
   2 C :   -0.042161
   3 S :    1.121059
   4 H :    0.030667
   5 H :    0.024919
   6 O :   -0.457692
   7 F :   -0.273088
   8 H :    0.029988
   9 H :    0.030076
  10 O :   -0.461067
  11 H :   -0.037090
  12 H :   -0.009177
  13 H :   -0.007082

  Mayer bond orders larger than 0.100000
B(  0-C ,  1-C ) :   1.3152 B(  0-C , 11-H ) :   0.8463 B(  0-C , 12-H ) :   0.7841
B(  0-C , 13-H ) :   0.7904 B(  1-C ,  2-C ) :   1.2832 B(  1-C ,  4-H ) :   0.1309
B(  1-C ,  5-H ) :   0.1210 B(  1-C ,  8-H ) :   0.8918 B(  1-C ,  9-H ) :   0.9016
B(  1-C , 11-H ) :   0.1731 B(  1-C , 12-H ) :   0.1801 B(  1-C , 13-H ) :   0.2005
B(  2-C ,  3-S ) :   0.9744 B(  2-C ,  4-H ) :   0.9074 B(  2-C ,  5-H ) :   0.9186
B(  2-C ,  8-H ) :   0.1092 B(  3-S ,  6-O ) :   1.5980 B(  3-S ,  7-F ) :   0.6126
B(  3-S , 10-O ) :   1.5255

Dispersion correction           -0.004614094
FINAL SINGLE POINT ENERGY      -766.469942430773

DIPOLE MOMENT
-------------
                                X             Y             Z
Electronic contribution:     -9.88895      -5.77163      -2.33683
Nuclear contribution   :     10.64200       6.78206       3.33086
                        -----------------------------------------
Total Dipole Moment    :      0.75305       1.01043       0.99403
                        -----------------------------------------
Magnitude (a.u.)       :      1.60504
Magnitude (Debye)      :      4.07968

Rotational constants in cm-1:     0.128573     0.057881     0.053975
Rotational constants in MHz :  3854.523324  1735.233387  1618.120420

                             ****ORCA TERMINATED NORMALLY****
TOTAL RUN TIME: 0 days 0 hours 0 minutes 15 seconds 536 msec
