                         Program Version 5.0.0 -  RELEASE  -
|  1> !wB97X-D3 RIJCOSX def2-SVPD def2/J TightSCF
|  2> *xyz 0 1
|  3> C          1.36401        0.46874       -2.81376
|  4> C          0.96805        1.63064       -3.71575
|  5> C         -0.50835        1.72268       -4.12430
|  6> S         -1.32861        0.14674       -4.43578
|  7> H         -0.59151        2.29496       -5.04722
|  8> H         -1.11411        2.23561       -3.37436
|  9> O         -2.57135        0.47573       -5.06834
| 10> O         -1.51496       -0.40051       -3.06342
| 11> H          1.57869        1.52065       -4.61273
| 12> H          1.26665        2.57599       -3.25045
| 13> F         -0.37793       -0.62756       -5.20114
| 14> H          1.07115       -0.45339       -3.27071
| 15> H          0.87480        0.56905       -1.86745
| 16> H          2.42423        0.47442       -2.66954
| 17> *
| 18> %MaxCore 64000
| 19>
| 20> %pal nprocs 18
| 21> end
| 22>
| 23> %scf
| 24>   MaxIter 150
| 25> end
| 26>
| 27>
| 28>                          ****END OF INPUT****

CARTESIAN COORDINATES (ANGSTROEM)
---------------------------------
  C      1.364010    0.468740   -2.813760
  C      0.968050    1.630640   -3.715750
  C     -0.508350    1.722680   -4.124300
  S     -1.328610    0.146740   -4.435780
  H     -0.591510    2.294960   -5.047220
  H     -1.114110    2.235610   -3.374360
  O     -2.571350    0.475730   -5.068340
  O     -1.514960   -0.400510   -3.063420
  H      1.578690    1.520650   -4.612730
  H      1.266650    2.575990   -3.250450
  F     -0.377930   -0.627560   -5.201140
  H      1.071150   -0.453390   -3.270710
  H      0.874800    0.569050   -1.867450
  H      2.424230    0.474420   -2.669540

 Total Charge           Charge          ....    0
 Multiplicity           Mult            ....    1
 Number of Electrons    NEL             ....   66
 Basis Dimension        Dim             ....  212

ORBITAL ENERGIES
----------------

  NO   OCC          E(Eh)            E(eV)
   0   2.0000     -89.236818     -2428.2573
   1   2.0000     -24.923941      -678.2149
   2   2.0000     -19.265480      -524.2404
   3   2.0000     -19.244740      -523.6760
   4   2.0000     -10.351003      -281.6651
   5   2.0000     -10.321894      -280.8730
   6   2.0000     -10.287556      -279.9386
   7   2.0000      -8.311098      -226.1565
   8   2.0000      -6.274953      -170.7502
   9   2.0000      -6.268220      -170.5670
  10   2.0000      -6.266998      -170.5337
  11   2.0000      -1.495447       -40.6932
  12   2.0000      -1.230232       -33.4763
  13   2.0000      -1.119372       -30.4597
  14   2.0000      -0.946429       -25.7537
  15   2.0000      -0.866634       -23.5823
  16   2.0000      -0.824051       -22.4236
  17   2.0000      -0.748492       -20.3675
  18   2.0000      -0.699965       -19.0470
  19   2.0000      -0.697891       -18.9906
  20   2.0000      -0.650997       -17.7145
  21   2.0000      -0.599856       -16.3229
  22   2.0000      -0.584705       -15.9106
  23   2.0000      -0.568382       -15.4665
  24   2.0000      -0.549754       -14.9596
  25   2.0000      -0.530774       -14.4431
  26   2.0000      -0.492729       -13.4078
  27   2.0000      -0.482991       -13.1429
  28   2.0000      -0.475675       -12.9438
  29   2.0000      -0.451472       -12.2852
  30   2.0000      -0.430496       -11.7144
  31   2.0000      -0.413679       -11.2568
  32   2.0000      -0.402333       -10.9480
  33   0.0000       0.062474         1.7000
  34   0.0000       0.088167         2.3992
  35   0.0000       0.095584         2.6010
  36   0.0000       0.097540         2.6542
  37   0.0000       0.118480         3.2240

MULLIKEN ATOMIC CHARGES
-----------------------
   0 C :    0.704094
   1 C :   -0.304936
   2 C :    0.050454
   3 S :    1.447964
   4 H :    0.015431
   5 H :    0.104510
   6 O :   -0.682763
   7 O :   -0.694822
   8 H :    0.041718
   9 H :   -0.099540
  10 F :   -0.399054
  11 H :   -0.082199
  12 H :   -0.017458
  13 H :   -0.083398
Sum of atomic charges:   -0.0000000

LOEWDIN ATOMIC CHARGES
----------------------
   0 C :    0.121944
   1 C :   -0.075781
   2 C :   -0.040398
   3 S :    1.124200
   4 H :    0.019298
   5 H :    0.038469
   6 O :   -0.457314
   7 O :   -0.484073
   8 H :    0.023599
   9 H :    0.031461
  10 F :   -0.253627
  11 H :   -0.036469
  12 H :   -0.002371
  13 H :   -0.008938

  Mayer bond orders larger than 0.100000
B(  0-C ,  1-C ) :   1.3095 B(  0-C , 11-H ) :   0.8322 B(  0-C , 12-H ) :   0.7869
B(  0-C , 13-H ) :   0.7781 B(  1-C ,  2-C ) :   1.2529 B(  1-C ,  4-H ) :   0.1352
B(  1-C ,  5-H ) :   0.1263 B(  1-C ,  8-H ) :   0.8976 B(  1-C ,  9-H ) :   0.9070
B(  1-C , 11-H ) :   0.1786 B(  1-C , 12-H ) :   0.1917 B(  1-C , 13-H ) :   0.2038
B(  2-C ,  3-S ) :   0.9811 B(  2-C ,  4-H ) :   0.9225 B(  2-C ,  5-H ) :   0.9111
B(  2-C ,  9-H ) :   0.1067 B(  3-S ,  6-O ) :   1.5984 B(  3-S ,  7-O ) :   1.5021
B(  3-S , 10-F ) :   0.6551

Dispersion correction           -0.004616749
FINAL SINGLE POINT ENERGY      -766.449099987135

DIPOLE MOMENT
-------------
                                X             Y             Z
Electronic contribution:     -7.94408      -6.13889      -5.99275
Nuclear contribution   :      9.41919       7.02624       5.62986
                        -----------------------------------------
Total Dipole Moment    :      1.47511       0.88735      -0.36289
                        -----------------------------------------
Magnitude (a.u.)       :      1.75927
Magnitude (Debye)      :      4.47171

Rotational constants in cm-1:     0.128702     0.057313     0.054552
Rotational constants in MHz :  3858.395793  1718.208003  1635.420361

                             ****ORCA TERMINATED NORMALLY****
TOTAL RUN TIME: 0 days 0 hours 0 minutes 15 seconds 779 msec
