                         Program Version 5.0.0 -  RELEASE  -
|  1> !wB97X-D3 RIJCOSX def2-SVPD def2/J TightSCF xyzfile
|  2>
|  3> *xyzfile 0 1 D1.xyz
|  4>
|  5> %MaxCore 64000
|  6>
|  7> %pal nprocs 18
|  8> end
|  9>
| 10> %scf
| 11>   MaxIter 150
| 12> end
| 13>
| 14>
| 15>                          ****END OF INPUT****

CARTESIAN COORDINATES (ANGSTROEM)
---------------------------------
  C      1.364014    0.468742   -2.813764
  C      0.428844    0.321402   -1.655312
  C      0.968045    1.630639   -3.715749
  C     -0.508347    1.722679   -4.124300
  S     -1.328608    0.146737   -4.435781
  H     -0.591511    2.294958   -5.047219
  H     -1.114114    2.235610   -3.374362
  H      0.748578   -0.400542   -1.001345
  H     -0.461053    0.023332   -2.077731
  H      0.310258    1.201375   -1.134948
  F     -2.571347    0.475733   -5.068341
  O     -1.514963   -0.400512   -3.063420
  H      1.294847   -0.468742   -3.364684
  H      2.376216    0.597400   -2.431495
  H      1.578688    1.520652   -4.612733
  H      1.266653    2.575988   -3.250448
  O     -0.377928   -0.627558   -5.201141

 Total Charge           Charge          ....    0
 Multiplicity           Mult            ....    1
 Number of Electrons    NEL             ....   74
 Basis Dimension        Dim             ....  248

ORBITAL ENERGIES
----------------

  NO   OCC          E(Eh)            E(eV)
   0   2.0000     -89.244824     -2428.4751
   1   2.0000     -24.933899      -678.4859
   2   2.0000     -19.267461      -524.2943
   3   2.0000     -19.253322      -523.9095
   4   2.0000     -10.354613      -281.7633
   5   2.0000     -10.313415      -280.6423
   6   2.0000     -10.276118      -279.6274
   7   2.0000     -10.217327      -278.0276
   8   2.0000      -8.318855      -226.3676
   9   2.0000      -6.282609      -170.9585
  10   2.0000      -6.276238      -170.7851
  11   2.0000      -6.274654      -170.7420
  12   2.0000      -1.510009       -41.0894
  13   2.0000      -1.233860       -33.5750
  14   2.0000      -1.130226       -30.7550
  15   2.0000      -0.946379       -25.7523
  16   2.0000      -0.889133       -24.1945
  17   2.0000      -0.836545       -22.7635
  18   2.0000      -0.789596       -21.4860
  19   2.0000      -0.721028       -19.6202
  20   2.0000      -0.710581       -19.3359
  21   2.0000      -0.687153       -18.6984
  22   2.0000      -0.654183       -17.8012
  23   2.0000      -0.614328       -16.7167
  24   2.0000      -0.600789       -16.3483
  25   2.0000      -0.567175       -15.4336
  26   2.0000      -0.561560       -15.2808
  27   2.0000      -0.524515       -14.2728
  28   2.0000      -0.505187       -13.7468
  29   2.0000      -0.501211       -13.6386
  30   2.0000      -0.485738       -13.2176
  31   2.0000      -0.455048       -12.3825
  32   2.0000      -0.444011       -12.0822
  33   2.0000      -0.417927       -11.3724
  34   2.0000      -0.416708       -11.3392
  35   2.0000      -0.411051       -11.1853
  36   2.0000      -0.371626       -10.1125
  37   0.0000       0.061983         1.6866
  38   0.0000       0.083381         2.2689
  39   0.0000       0.090740         2.4692
  40   0.0000       0.100651         2.7389
  41   0.0000       0.113793         3.0965

MULLIKEN ATOMIC CHARGES
-----------------------
   0 C :   -0.398586
   1 C :    1.964134
   2 C :    0.198013
   3 C :   -0.005080
   4 S :    1.669764
   5 H :   -0.141363
   6 H :    0.255062
   7 H :   -0.095455
   8 H :   -1.159211
   9 H :   -0.131608
  10 F :   -0.491804
  11 O :   -0.862943
  12 H :    0.097726
  13 H :   -0.280965
  14 H :    0.048740
  15 H :    0.010046
  16 O :   -0.676470
Sum of atomic charges:    0.0000000

LOEWDIN ATOMIC CHARGES
----------------------
   0 C :   -0.048153
   1 C :    0.137699
   2 C :   -0.019053
   3 C :   -0.035678
   4 S :    1.182789
   5 H :    0.016138
   6 H :    0.029443
   7 H :   -0.020725
   8 H :   -0.174420
   9 H :   -0.020293
  10 F :   -0.245283
  11 O :   -0.457209
  12 H :    0.017952
  13 H :    0.024274
  14 H :    0.028243
  15 H :    0.037965
  16 O :   -0.453689

  Mayer bond orders larger than 0.100000
B(  0-C ,  1-C ) :   0.9814 B(  0-C ,  2-C ) :   1.1914 B(  0-C ,  7-H ) :   0.2244
B(  0-C ,  8-H ) :   0.5261 B(  0-C ,  9-H ) :   0.2705 B(  0-C , 12-H ) :   0.8371
B(  0-C , 13-H ) :   1.0007 B(  0-C , 14-H ) :   0.1404 B(  0-C , 15-H ) :   0.1561
B(  1-C ,  7-H ) :   0.5119 B(  1-C ,  8-H ) :  -0.5817 B(  1-C ,  9-H ) :   0.2558
B(  1-C , 11-O ) :  -0.1786 B(  1-C , 12-H ) :   0.1275 B(  2-C ,  3-C ) :   1.2886
B(  2-C ,  5-H ) :   0.2009 B(  2-C , 12-H ) :   0.1328 B(  2-C , 14-H ) :   0.8421
B(  2-C , 15-H ) :   0.8044 B(  3-C ,  4-S ) :   0.9549 B(  3-C ,  5-H ) :   0.8866
B(  3-C ,  6-H ) :   0.8434 B(  3-C ,  8-H ) :   0.1266 B(  3-C , 11-O ) :   0.1376
B(  3-C , 14-H ) :   0.1256 B(  4-S ,  8-H ) :  -0.1451 B(  4-S , 10-F ) :   0.6504
B(  4-S , 11-O ) :   1.3553 B(  4-S , 16-O ) :   1.5088 B(  7-H ,  8-H ) :   0.2698
B(  7-H ,  9-H ) :  -0.1854 B(  8-H ,  9-H ) :   0.5236 B(  8-H , 11-O ) :   0.3048

Dispersion correction           -0.006515488
FINAL SINGLE POINT ENERGY      -805.681716006215

DIPOLE MOMENT
-------------
                                X             Y             Z
Electronic contribution:    -12.45986      -4.02646      -9.72588
Nuclear contribution   :     12.25227       5.48563       9.26621
                        -----------------------------------------
Total Dipole Moment    :     -0.20759       1.45917      -0.45967
                        -----------------------------------------
Magnitude (a.u.)       :      1.54388
Magnitude (Debye)      :      3.92424

Rotational constants in cm-1:     0.103176     0.044975     0.040960
Rotational constants in MHz :  3093.138469  1348.317425  1227.945122

                             ****ORCA TERMINATED NORMALLY****
TOTAL RUN TIME: 0 days 0 hours 0 minutes 22 seconds 681 msec
