                         Program Version 5.0.0 -  RELEASE  -
|  1> !wB97X-D3 RIJCOSX def2-SVP def2/J TightSCF
|  2> *xyz -1 1
|  3> C          0.64866        1.00359       -3.64560
|  4> C          0.13297        2.38587       -4.02462
|  5> C         -1.36646        2.47911       -4.31393
|  6> C         -2.35773        2.30686       -3.13675
|  7> H         -1.63680        1.72709       -5.06399
|  8> H         -1.58235        3.44561       -4.76869
|  9> O         -3.44376        2.84652       -3.25274
| 10> O         -1.97092        1.58304       -2.15123
| 11> H          0.41484        3.10285       -3.24517
| 12> H          0.68317        2.68756       -4.91972
| 13> H          0.37534        0.30051       -4.40446
| 14> H          0.21856        0.70606       -2.71212
| 15> H          1.71431        1.03324       -3.55398
| 16> *
| 17> %MaxCore 64000
| 18>
| 19> %pal nprocs 18
| 20> end
| 21>
| 22> %scf
| 23>   MaxIter 150
| 24> end
| 25>
| 26>
| 27>                          ****END OF INPUT****

CARTESIAN COORDINATES (ANGSTROEM)
---------------------------------
  C      0.648660    1.003590   -3.645600
  C      0.132970    2.385870   -4.024620
  C     -1.366460    2.479110   -4.313930
  C     -2.357730    2.306860   -3.136750
  H     -1.636800    1.727090   -5.063990
  H     -1.582350    3.445610   -4.768690
  O     -3.443760    2.846520   -3.252740
  O     -1.970920    1.583040   -2.151230
  H      0.414840    3.102850   -3.245170
  H      0.683170    2.687560   -4.919720
  H      0.375340    0.300510   -4.404460
  H      0.218560    0.706060   -2.712120
  H      1.714310    1.033240   -3.553980

 Total Charge           Charge          ....   -1
 Multiplicity           Mult            ....    1
 Number of Electrons    NEL             ....   48
 Basis Dimension        Dim             ....  119

ORBITAL ENERGIES
----------------

  NO   OCC          E(Eh)            E(eV)
   0   2.0000     -18.951246      -515.6896
   1   2.0000     -18.942347      -515.4475
   2   2.0000     -10.151581      -276.2386
   3   2.0000     -10.131047      -275.6798
   4   2.0000     -10.120795      -275.4008
   5   2.0000     -10.101892      -274.8865
   6   2.0000      -0.906613       -24.6702
   7   2.0000      -0.803633       -21.8680
   8   2.0000      -0.735579       -20.0161
   9   2.0000      -0.636809       -17.3285
  10   2.0000      -0.538948       -14.6655
  11   2.0000      -0.416757       -11.3405
  12   2.0000      -0.387511       -10.5447
  13   2.0000      -0.374206       -10.1827
  14   2.0000      -0.347321        -9.4511
  15   2.0000      -0.305624        -8.3165
  16   2.0000      -0.299194        -8.1415
  17   2.0000      -0.288537        -7.8515
  18   2.0000      -0.275532        -7.4976
  19   2.0000      -0.254127        -6.9151
  20   2.0000      -0.240845        -6.5537
  21   2.0000      -0.114437        -3.1140
  22   2.0000      -0.110088        -2.9957
  23   2.0000      -0.097845        -2.6625
  24   0.0000       0.284761         7.7487
  25   0.0000       0.328710         8.9446
  26   0.0000       0.333914         9.0862
  27   0.0000       0.350140         9.5278
  28   0.0000       0.365900         9.9566

MULLIKEN ATOMIC CHARGES
-----------------------
   0 C :    0.000047
   1 C :   -0.038900
   2 C :   -0.050744
   3 C :    0.076131
   4 H :   -0.018607
   5 H :   -0.027632
   6 O :   -0.400831
   7 O :   -0.473845
   8 H :   -0.005049
   9 H :   -0.042236
  10 H :   -0.021587
  11 H :    0.038717
  12 H :   -0.035464
Sum of atomic charges:   -1.0000000

LOEWDIN ATOMIC CHARGES
----------------------
   0 C :   -0.066124
   1 C :   -0.045582
   2 C :   -0.100568
   3 C :   -0.041362
   4 H :    0.010193
   5 H :    0.003929
   6 O :   -0.356436
   7 O :   -0.432070
   8 H :    0.011636
   9 H :   -0.005381
  10 H :    0.004430
  11 H :    0.021329
  12 H :   -0.003993

  Mayer bond orders larger than 0.100000
B(  0-C ,  1-C ) :   1.0794 B(  0-C , 10-H ) :   0.9712 B(  0-C , 11-H ) :   0.9580
B(  0-C , 12-H ) :   0.9661 B(  1-C ,  2-C ) :   1.0501 B(  1-C ,  8-H ) :   0.9548
B(  1-C ,  9-H ) :   0.9507 B(  2-C ,  3-C ) :   0.8988 B(  2-C ,  4-H ) :   0.9414
B(  2-C ,  5-H ) :   0.9451 B(  3-C ,  6-O ) :   1.9028 B(  3-C ,  7-O ) :   1.7894
B(  6-O ,  7-O ) :   0.1089

Dispersion correction           -0.003229898
FINAL SINGLE POINT ENERGY      -306.822785577912

DIPOLE MOMENT
-------------
                                X             Y             Z
Electronic contribution:     -7.39619       1.44597       3.24742
Nuclear contribution   :      9.31936      -1.53308      -4.48293
                        -----------------------------------------
Total Dipole Moment    :      1.92317      -0.08711      -1.23551
                        -----------------------------------------
Magnitude (a.u.)       :      2.28750
Magnitude (Debye)      :      5.81436

Rotational constants in cm-1:     0.250458     0.077448     0.063252
Rotational constants in MHz :  7508.538874  2321.842942  1896.252250

                             ****ORCA TERMINATED NORMALLY****
TOTAL RUN TIME: 0 days 0 hours 0 minutes 8 seconds 378 msec
