                         Program Version 5.0.0 -  RELEASE  -
|  1> !wB97X-D3 RIJCOSX def2-SVP def2/J TightSCF
|  2> *xyz 1 1
|  3> C          0.64866        1.00359       -3.64560
|  4> N          0.28128        0.67645       -2.24018
|  5> C          0.13297        2.38587       -4.02462
|  6> C         -1.36646        2.47911       -4.31393
|  7> H          0.39079       -0.31925       -2.02649
|  8> H         -0.69269        0.99010       -2.13812
|  9> H          0.85421        1.21221       -1.57528
| 10> H          0.19099        0.23965       -4.27575
| 11> H          1.73157        0.93173       -3.75075
| 12> H          0.41484        3.10285       -3.24517
| 13> H          0.68317        2.68756       -4.91972
| 14> H         -1.62719        1.77449       -5.07580
| 15> H         -1.60483        3.46796       -4.64597
| 16> H         -1.91603        2.26007       -3.42236
| 17> *
| 18> %MaxCore 64000
| 19>
| 20> %pal nprocs 18
| 21> end
| 22>
| 23> %scf
| 24>   MaxIter 150
| 25> end
| 26>
| 27>
| 28>                          ****END OF INPUT****

CARTESIAN COORDINATES (ANGSTROEM)
---------------------------------
  C      0.648660    1.003590   -3.645600
  N      0.281280    0.676450   -2.240180
  C      0.132970    2.385870   -4.024620
  C     -1.366460    2.479110   -4.313930
  H      0.390790   -0.319250   -2.026490
  H     -0.692690    0.990100   -2.138120
  H      0.854210    1.212210   -1.575280
  H      0.190990    0.239650   -4.275750
  H      1.731570    0.931730   -3.750750
  H      0.414840    3.102850   -3.245170
  H      0.683170    2.687560   -4.919720
  H     -1.627190    1.774490   -5.075800
  H     -1.604830    3.467960   -4.645970
  H     -1.916030    2.260070   -3.422360

 Total Charge           Charge          ....    1
 Multiplicity           Mult            ....    1
 Number of Electrons    NEL             ....   34
 Basis Dimension        Dim             ....  106

ORBITAL ENERGIES
----------------

  NO   OCC          E(Eh)            E(eV)
   0   2.0000     -14.770890      -401.9363
   1   2.0000     -10.536899      -286.7236
   2   2.0000     -10.468222      -284.8548
   3   2.0000     -10.435361      -283.9606
   4   2.0000      -1.323679       -36.0191
   5   2.0000      -1.084474       -29.5100
   6   2.0000      -0.991060       -26.9681
   7   2.0000      -0.911425       -24.8011
   8   2.0000      -0.902883       -24.5687
   9   2.0000      -0.872768       -23.7492
  10   2.0000      -0.792144       -21.5553
  11   2.0000      -0.729915       -19.8620
  12   2.0000      -0.708483       -19.2788
  13   2.0000      -0.684507       -18.6264
  14   2.0000      -0.623957       -16.9787
  15   2.0000      -0.612528       -16.6677
  16   2.0000      -0.608916       -16.5695
  17   0.0000      -0.089652        -2.4395
  18   0.0000      -0.032132        -0.8744
  19   0.0000      -0.026999        -0.7347
  20   0.0000       0.000566         0.0154
  21   0.0000       0.031335         0.8527

MULLIKEN ATOMIC CHARGES
-----------------------
   0 C :   -0.018898
   1 N :   -0.017234
   2 C :   -0.172459
   3 C :   -0.034928
   4 H :    0.228246
   5 H :    0.212086
   6 H :    0.222672
   7 H :    0.107119
   8 H :    0.117353
   9 H :    0.067284
  10 H :    0.103619
  11 H :    0.065913
  12 H :    0.094165
  13 H :    0.025060
Sum of atomic charges:    1.0000000

LOEWDIN ATOMIC CHARGES
----------------------
   0 C :    0.052152
   1 N :    0.294168
   2 C :   -0.054482
   3 C :   -0.044757
   4 H :    0.147309
   5 H :    0.140591
   6 H :    0.146843
   7 H :    0.053016
   8 H :    0.056187
   9 H :    0.036925
  10 H :    0.061745
  11 H :    0.038477
  12 H :    0.054566
  13 H :    0.017259

  Mayer bond orders larger than 0.100000
B(  0-C ,  1-N ) :   0.9160 B(  0-C ,  2-C ) :   1.0529 B(  0-C ,  7-H ) :   0.9538
B(  0-C ,  8-H ) :   0.9557 B(  1-N ,  4-H ) :   0.9279 B(  1-N ,  5-H ) :   0.9314
B(  1-N ,  6-H ) :   0.9311 B(  2-C ,  3-C ) :   1.0641 B(  2-C ,  9-H ) :   0.9566
B(  2-C , 10-H ) :   0.9414 B(  3-C , 11-H ) :   0.9745 B(  3-C , 12-H ) :   0.9643
B(  3-C , 13-H ) :   0.9705

Dispersion correction           -0.002772360
FINAL SINGLE POINT ENERGY      -174.678049629773

DIPOLE MOMENT
-------------
                                X             Y             Z
Electronic contribution:      1.32289      -1.51803       1.64793
Nuclear contribution   :     -0.74670       0.28200      -0.02386
                        -----------------------------------------
Total Dipole Moment    :      0.57619      -1.23604       1.62407
                        -----------------------------------------
Magnitude (a.u.)       :      2.12070
Magnitude (Debye)      :      5.39040

Rotational constants in cm-1:     0.472563     0.149855     0.132807
Rotational constants in MHz : 14167.078489  4492.544970  3981.441276

                             ****ORCA TERMINATED NORMALLY****
TOTAL RUN TIME: 0 days 0 hours 0 minutes 7 seconds 159 msec
