                         Program Version 5.0.0 -  RELEASE  -
|  1> !wB97X-D3 RIJCOSX def2-SVP def2/J TightSCF
|  2> *xyz 0 1
|  3> C          0.64866        1.00359       -3.64560
|  4> C          0.13297        2.38587       -4.02462
|  5> C         -1.36646        2.47911       -4.31393
|  6> C         -2.35773        2.30686       -3.13675
|  7> H         -1.63680        1.72709       -5.06399
|  8> H         -1.58235        3.44561       -4.76869
|  9> F         -3.44376        2.84652       -3.25274
| 10> O         -1.97092        1.58304       -2.15123
| 11> H          0.41484        3.10285       -3.24517
| 12> H          0.68317        2.68756       -4.91972
| 13> H          0.37534        0.30051       -4.40446
| 14> H          0.21856        0.70606       -2.71212
| 15> H          1.71431        1.03324       -3.55398
| 16> *
| 17> %MaxCore 64000
| 18>
| 19> %pal nprocs 18
| 20> end
| 21>
| 22> %scf
| 23>   MaxIter 150
| 24> end
| 25>
| 26>
| 27>                          ****END OF INPUT****

CARTESIAN COORDINATES (ANGSTROEM)
---------------------------------
  C      0.648660    1.003590   -3.645600
  C      0.132970    2.385870   -4.024620
  C     -1.366460    2.479110   -4.313930
  C     -2.357730    2.306860   -3.136750
  H     -1.636800    1.727090   -5.063990
  H     -1.582350    3.445610   -4.768690
  F     -3.443760    2.846520   -3.252740
  O     -1.970920    1.583040   -2.151230
  H      0.414840    3.102850   -3.245170
  H      0.683170    2.687560   -4.919720
  H      0.375340    0.300510   -4.404460
  H      0.218560    0.706060   -2.712120
  H      1.714310    1.033240   -3.553980

 Total Charge           Charge          ....    0
 Multiplicity           Mult            ....    1
 Number of Electrons    NEL             ....   48
 Basis Dimension        Dim             ....  119

ORBITAL ENERGIES
----------------

  NO   OCC          E(Eh)            E(eV)
   0   2.0000     -24.875166      -676.8877
   1   2.0000     -19.238045      -523.4938
   2   2.0000     -10.468774      -284.8698
   3   2.0000     -10.318146      -280.7710
   4   2.0000     -10.297565      -280.2110
   5   2.0000     -10.267121      -279.3826
   6   2.0000      -1.445863       -39.3439
   7   2.0000      -1.117500       -30.4087
   8   2.0000      -0.916543       -24.9404
   9   2.0000      -0.836243       -22.7553
  10   2.0000      -0.773331       -21.0434
  11   2.0000      -0.715599       -19.4725
  12   2.0000      -0.668057       -18.1788
  13   2.0000      -0.645542       -17.5661
  14   2.0000      -0.604121       -16.4390
  15   2.0000      -0.560365       -15.2483
  16   2.0000      -0.549886       -14.9631
  17   2.0000      -0.516582       -14.0569
  18   2.0000      -0.480802       -13.0833
  19   2.0000      -0.451390       -12.2829
  20   2.0000      -0.448657       -12.2086
  21   2.0000      -0.438146       -11.9226
  22   2.0000      -0.428705       -11.6657
  23   2.0000      -0.374232       -10.1834
  24   0.0000       0.064407         1.7526
  25   0.0000       0.141441         3.8488
  26   0.0000       0.181654         4.9431
  27   0.0000       0.192235         5.2310
  28   0.0000       0.203708         5.5432

MULLIKEN ATOMIC CHARGES
-----------------------
   0 C :   -0.026250
   1 C :   -0.075236
   2 C :   -0.120369
   3 C :    0.271134
   4 H :    0.067996
   5 H :    0.049323
   6 F :   -0.034795
   7 O :   -0.295671
   8 H :    0.038113
   9 H :    0.030297
  10 H :    0.014135
  11 H :    0.055380
  12 H :    0.025943
Sum of atomic charges:    0.0000000

LOEWDIN ATOMIC CHARGES
----------------------
   0 C :   -0.056718
   1 C :   -0.036340
   2 C :   -0.079983
   3 C :    0.106835
   4 H :    0.049073
   5 H :    0.034332
   6 F :    0.088419
   7 O :   -0.230616
   8 H :    0.028598
   9 H :    0.028136
  10 H :    0.017955
  11 H :    0.027233
  12 H :    0.023076

  Mayer bond orders larger than 0.100000
B(  0-C ,  1-C ) :   1.0797 B(  0-C , 10-H ) :   0.9750 B(  0-C , 11-H ) :   0.9720
B(  0-C , 12-H ) :   0.9713 B(  1-C ,  2-C ) :   1.0634 B(  1-C ,  8-H ) :   0.9603
B(  1-C ,  9-H ) :   0.9538 B(  2-C ,  3-C ) :   0.9832 B(  2-C ,  4-H ) :   0.9268
B(  2-C ,  5-H ) :   0.9447 B(  3-C ,  6-F ) :   1.2369 B(  3-C ,  7-O ) :   2.0317

Dispersion correction           -0.003188271
FINAL SINGLE POINT ENERGY      -331.360776344331

DIPOLE MOMENT
-------------
                                X             Y             Z
Electronic contribution:    -11.53587       2.88686       3.67478
Nuclear contribution   :     11.62992      -2.38586      -4.66016
                        -----------------------------------------
Total Dipole Moment    :      0.09405       0.50100      -0.98538
                        -----------------------------------------
Magnitude (a.u.)       :      1.10942
Magnitude (Debye)      :      2.81993

Rotational constants in cm-1:     0.249088     0.072929     0.060128
Rotational constants in MHz :  7467.482637  2186.350475  1802.579568

                             ****ORCA TERMINATED NORMALLY****
TOTAL RUN TIME: 0 days 0 hours 0 minutes 8 seconds 768 msec
