                         Program Version 5.0.0 -  RELEASE  -
|  1> !wB97X-D3 RIJCOSX def2-SVP def2/J TightSCF
|  2> *xyz 0 1
|  3> C          0.64866        1.00359       -3.64560
|  4> C          0.28128        0.67645       -2.24018
|  5> C          0.13297        2.38587       -4.02462
|  6> C         -1.36646        2.47911       -4.31393
|  7> H          0.39079       -0.31925       -2.02649
|  8> H         -0.69269        0.99010       -2.13812
|  9> H          0.85421        1.21221       -1.57528
| 10> H          0.19099        0.23965       -4.27575
| 11> H          1.73157        0.93173       -3.75075
| 12> H          0.41484        3.10285       -3.24517
| 13> H          0.68317        2.68756       -4.91972
| 14> H         -1.62719        1.77449       -5.07580
| 15> H         -1.60483        3.46796       -4.64597
| 16> H         -1.91603        2.26007       -3.42236
| 17> *
| 18> %MaxCore 64000
| 19>
| 20> %pal nprocs 18
| 21> end
| 22>
| 23> %scf
| 24>   MaxIter 150
| 25> end
| 26>
| 27>
| 28>                          ****END OF INPUT****

CARTESIAN COORDINATES (ANGSTROEM)
---------------------------------
  C      0.648660    1.003590   -3.645600
  C      0.281280    0.676450   -2.240180
  C      0.132970    2.385870   -4.024620
  C     -1.366460    2.479110   -4.313930
  H      0.390790   -0.319250   -2.026490
  H     -0.692690    0.990100   -2.138120
  H      0.854210    1.212210   -1.575280
  H      0.190990    0.239650   -4.275750
  H      1.731570    0.931730   -3.750750
  H      0.414840    3.102850   -3.245170
  H      0.683170    2.687560   -4.919720
  H     -1.627190    1.774490   -5.075800
  H     -1.604830    3.467960   -4.645970
  H     -1.916030    2.260070   -3.422360

 Total Charge           Charge          ....    0
 Multiplicity           Mult            ....    1
 Number of Electrons    NEL             ....   34
 Basis Dimension        Dim             ....  106

ORBITAL ENERGIES
----------------

  NO   OCC          E(Eh)            E(eV)
   0   2.0000     -10.277049      -279.6527
   1   2.0000     -10.272199      -279.5207
   2   2.0000     -10.270194      -279.4662
   3   2.0000     -10.248701      -278.8813
   4   2.0000      -0.913251       -24.8508
   5   2.0000      -0.837070       -22.7778
   6   2.0000      -0.747425       -20.3385
   7   2.0000      -0.670959       -18.2577
   8   2.0000      -0.570814       -15.5326
   9   2.0000      -0.558177       -15.1888
  10   2.0000      -0.525593       -14.3021
  11   2.0000      -0.491039       -13.3618
  12   2.0000      -0.473345       -12.8804
  13   2.0000      -0.457533       -12.4501
  14   2.0000      -0.418385       -11.3848
  15   2.0000      -0.416159       -11.3243
  16   2.0000      -0.405170       -11.0252
  17   0.0000       0.147740         4.0202
  18   0.0000       0.185162         5.0385
  19   0.0000       0.188664         5.1338
  20   0.0000       0.193242         5.2584
  21   0.0000       0.226167         6.1543

MULLIKEN ATOMIC CHARGES
-----------------------
   0 C :   -0.085262
   1 C :    0.055226
   2 C :   -0.106937
   3 C :   -0.014980
   4 H :    0.007367
   5 H :   -0.012071
   6 H :    0.001529
   7 H :    0.015540
   8 H :    0.021978
   9 H :    0.019577
  10 H :    0.020394
  11 H :    0.023647
  12 H :    0.029745
  13 H :    0.024246
Sum of atomic charges:   -0.0000000

LOEWDIN ATOMIC CHARGES
----------------------
   0 C :   -0.041348
   1 C :   -0.044391
   2 C :   -0.046087
   3 C :   -0.054730
   4 H :    0.014287
   5 H :    0.012775
   6 H :    0.014599
   7 H :    0.019065
   8 H :    0.020247
   9 H :    0.019878
  10 H :    0.020777
  11 H :    0.021530
  12 H :    0.025083
  13 H :    0.018314

  Mayer bond orders larger than 0.100000
B(  0-C ,  1-C ) :   1.0848 B(  0-C ,  2-C ) :   1.0698 B(  0-C ,  7-H ) :   0.9581
B(  0-C ,  8-H ) :   0.9581 B(  1-C ,  4-H ) :   0.9677 B(  1-C ,  5-H ) :   0.9726
B(  1-C ,  6-H ) :   0.9682 B(  2-C ,  3-C ) :   1.0800 B(  2-C ,  9-H ) :   0.9594
B(  2-C , 10-H ) :   0.9569 B(  3-C , 11-H ) :   0.9748 B(  3-C , 12-H ) :   0.9719
B(  3-C , 13-H ) :   0.9739

Dispersion correction           -0.002677149
FINAL SINGLE POINT ENERGY      -158.280837992150

DIPOLE MOMENT
-------------
                                X             Y             Z
Electronic contribution:      0.63401       0.02147      -0.37979
Nuclear contribution   :     -0.63302      -0.01177       0.37643
                        -----------------------------------------
Total Dipole Moment    :      0.00099       0.00970      -0.00337
                        -----------------------------------------
Magnitude (a.u.)       :      0.01032
Magnitude (Debye)      :      0.02623

Rotational constants in cm-1:     0.480601     0.156500     0.138605
Rotational constants in MHz : 14408.061205  4691.756081  4155.280646

                             ****ORCA TERMINATED NORMALLY****
TOTAL RUN TIME: 0 days 0 hours 0 minutes 6 seconds 564 msec
