                         Program Version 5.0.0 -  RELEASE  -
|  1> !wB97X-D3 RIJCOSX def2-SVP def2/J TightSCF
|  2> *xyz 0 1
|  3> C          0.64866        1.00359       -3.64560
|  4> C          0.13297        2.38587       -4.02462
|  5> C         -1.36646        2.47911       -4.31393
|  6> C         -2.35773        2.30686       -3.13675
|  7> H         -1.63680        1.72709       -5.06399
|  8> H         -1.58235        3.44561       -4.76869
|  9> O         -3.44376        2.84652       -3.25274
| 10> F         -1.97092        1.58304       -2.15123
| 11> H          0.41484        3.10285       -3.24517
| 12> H          0.68317        2.68756       -4.91972
| 13> H          0.37534        0.30051       -4.40446
| 14> H          0.21856        0.70606       -2.71212
| 15> H          1.71431        1.03324       -3.55398
| 16> *
| 17> %MaxCore 64000
| 18>
| 19> %pal nprocs 18
| 20> end
| 21>
| 22> %scf
| 23>   MaxIter 150
| 24> end
| 25>
| 26>
| 27>                          ****END OF INPUT****

CARTESIAN COORDINATES (ANGSTROEM)
---------------------------------
  C      0.648660    1.003590   -3.645600
  C      0.132970    2.385870   -4.024620
  C     -1.366460    2.479110   -4.313930
  C     -2.357730    2.306860   -3.136750
  H     -1.636800    1.727090   -5.063990
  H     -1.582350    3.445610   -4.768690
  O     -3.443760    2.846520   -3.252740
  F     -1.970920    1.583040   -2.151230
  H      0.414840    3.102850   -3.245170
  H      0.683170    2.687560   -4.919720
  H      0.375340    0.300510   -4.404460
  H      0.218560    0.706060   -2.712120
  H      1.714310    1.033240   -3.553980

 Total Charge           Charge          ....    0
 Multiplicity           Mult            ....    1
 Number of Electrons    NEL             ....   48
 Basis Dimension        Dim             ....  119

ORBITAL ENERGIES
----------------

  NO   OCC          E(Eh)            E(eV)
   0   2.0000     -24.850997      -676.2300
   1   2.0000     -19.246338      -523.7195
   2   2.0000     -10.462644      -284.7030
   3   2.0000     -10.316349      -280.7221
   4   2.0000     -10.302252      -280.3385
   5   2.0000     -10.281407      -279.7713
   6   2.0000      -1.396419       -37.9985
   7   2.0000      -1.156319       -31.4650
   8   2.0000      -0.922738       -25.1090
   9   2.0000      -0.834113       -22.6974
  10   2.0000      -0.752777       -20.4841
  11   2.0000      -0.718645       -19.5553
  12   2.0000      -0.643983       -17.5237
  13   2.0000      -0.631898       -17.1948
  14   2.0000      -0.595957       -16.2168
  15   2.0000      -0.557666       -15.1749
  16   2.0000      -0.555251       -15.1091
  17   2.0000      -0.524008       -14.2590
  18   2.0000      -0.503292       -13.6953
  19   2.0000      -0.467285       -12.7155
  20   2.0000      -0.462594       -12.5878
  21   2.0000      -0.440802       -11.9948
  22   2.0000      -0.438791       -11.9401
  23   2.0000      -0.386354       -10.5132
  24   0.0000       0.070912         1.9296
  25   0.0000       0.135813         3.6957
  26   0.0000       0.179029         4.8716
  27   0.0000       0.187556         5.1037
  28   0.0000       0.198808         5.4098

MULLIKEN ATOMIC CHARGES
-----------------------
   0 C :   -0.031917
   1 C :   -0.100319
   2 C :   -0.117322
   3 C :    0.279226
   4 H :    0.070843
   5 H :    0.072798
   6 O :   -0.227619
   7 F :   -0.114180
   8 H :    0.038597
   9 H :    0.035604
  10 H :    0.023639
  11 H :    0.035213
  12 H :    0.035436
Sum of atomic charges:   -0.0000000

LOEWDIN ATOMIC CHARGES
----------------------
   0 C :   -0.058909
   1 C :   -0.049241
   2 C :   -0.076246
   3 C :    0.114672
   4 H :    0.049519
   5 H :    0.049597
   6 O :   -0.162744
   7 F :    0.009451
   8 H :    0.026202
   9 H :    0.030260
  10 H :    0.021054
  11 H :    0.019338
  12 H :    0.027047

  Mayer bond orders larger than 0.100000
B(  0-C ,  1-C ) :   1.0741 B(  0-C , 10-H ) :   0.9758 B(  0-C , 11-H ) :   0.9771
B(  0-C , 12-H ) :   0.9723 B(  1-C ,  2-C ) :   1.0422 B(  1-C ,  8-H ) :   0.9614
B(  1-C ,  9-H ) :   0.9515 B(  2-C ,  3-C ) :   0.9809 B(  2-C ,  4-H ) :   0.9359
B(  2-C ,  5-H ) :   0.9514 B(  3-C ,  6-O ) :   2.1227 B(  3-C ,  7-F ) :   1.1455

Dispersion correction           -0.003170670
FINAL SINGLE POINT ENERGY      -331.378422358399

DIPOLE MOMENT
-------------
                                X             Y             Z
Electronic contribution:     -8.96988       0.74912       5.48700
Nuclear contribution   :      9.96624      -0.95867      -5.90440
                        -----------------------------------------
Total Dipole Moment    :      0.99636      -0.20955      -0.41740
                        -----------------------------------------
Magnitude (a.u.)       :      1.10039
Magnitude (Debye)      :      2.79698

Rotational constants in cm-1:     0.233484     0.076940     0.061803
Rotational constants in MHz :  6999.682494  2306.588565  1852.797552

                             ****ORCA TERMINATED NORMALLY****
TOTAL RUN TIME: 0 days 0 hours 0 minutes 7 seconds 889 msec
