                         Program Version 5.0.0 -  RELEASE  -
|  1> !wB97X-D3 RIJCOSX def2-SVP def2/J TightSCF xyzfile
|  2>
|  3> *xyzfile 0 1 D2.xyz
|  4>
|  5> %MaxCore 64000
|  6>
|  7> %pal nprocs 18
|  8> end
|  9>
| 10> %scf
| 11>   MaxIter 150
| 12> end
| 13>
| 14>
| 15>                          ****END OF INPUT****

CARTESIAN COORDINATES (ANGSTROEM)
---------------------------------
  C      0.648656    1.003595   -3.645601
  C      0.281280    0.676454   -2.240179
  C      0.132968    2.385869   -4.024618
  C     -1.366462    2.479106   -4.313932
  C     -2.357732    2.306858   -3.136753
  H     -1.636802    1.727095   -5.063993
  H     -1.582347    3.445605   -4.768687
  H      0.390790   -0.319253   -2.026495
  H     -0.692686    0.990104   -2.138123
  H      0.854206    1.212214   -1.575279
  O     -3.443763    2.846518   -3.252744
  F     -1.970922    1.583042   -2.151229
  H      0.190993    0.239655   -4.275752
  H      1.731572    0.931729   -3.750751
  H      0.414839    3.102847   -3.245165
  H      0.683167    2.687560   -4.919721

 Total Charge           Charge          ....    0
 Multiplicity           Mult            ....    1
 Number of Electrons    NEL             ....   56
 Basis Dimension        Dim             ....  143

ORBITAL ENERGIES
----------------

  NO   OCC          E(Eh)            E(eV)
   0   2.0000     -24.864081      -676.5860
   1   2.0000     -19.255424      -523.9667
   2   2.0000     -10.472236      -284.9640
   3   2.0000     -10.321505      -280.8624
   4   2.0000     -10.299595      -280.2662
   5   2.0000     -10.280800      -279.7548
   6   2.0000     -10.228538      -278.3327
   7   2.0000      -1.420556       -38.6553
   8   2.0000      -1.165889       -31.7255
   9   2.0000      -0.934601       -25.4318
  10   2.0000      -0.871447       -23.7133
  11   2.0000      -0.783844       -21.3295
  12   2.0000      -0.780999       -21.2521
  13   2.0000      -0.687971       -18.7206
  14   2.0000      -0.665645       -18.1131
  15   2.0000      -0.654029       -17.7970
  16   2.0000      -0.606147       -16.4941
  17   2.0000      -0.571010       -15.5380
  18   2.0000      -0.551982       -15.0202
  19   2.0000      -0.546850       -14.8805
  20   2.0000      -0.518501       -14.1091
  21   2.0000      -0.486620       -13.2416
  22   2.0000      -0.479834       -13.0570
  23   2.0000      -0.458052       -12.4642
  24   2.0000      -0.430004       -11.7010
  25   2.0000      -0.424283       -11.5453
  26   2.0000      -0.415879       -11.3166
  27   2.0000      -0.383436       -10.4338
  28   0.0000       0.061460         1.6724
  29   0.0000       0.135624         3.6905
  30   0.0000       0.169961         4.6249
  31   0.0000       0.180352         4.9076
  32   0.0000       0.194114         5.2821

MULLIKEN ATOMIC CHARGES
-----------------------
   0 C :   -0.080071
   1 C :   -0.009473
   2 C :   -0.074516
   3 C :   -0.104163
   4 C :    0.284479
   5 H :    0.075264
   6 H :    0.076534
   7 H :   -0.000811
   8 H :    0.040581
   9 H :   -0.006928
  10 O :   -0.215064
  11 F :   -0.093511
  12 H :    0.014014
  13 H :    0.027662
  14 H :    0.032355
  15 H :    0.033648
Sum of atomic charges:    0.0000000

LOEWDIN ATOMIC CHARGES
----------------------
   0 C :   -0.041051
   1 C :   -0.069415
   2 C :   -0.046498
   3 C :   -0.071181
   4 C :    0.123475
   5 H :    0.051960
   6 H :    0.051999
   7 H :    0.009441
   8 H :   -0.035540
   9 H :    0.009290
  10 O :   -0.153463
  11 F :    0.074282
  12 H :    0.017891
  13 H :    0.021845
  14 H :    0.025343
  15 H :    0.031622

  Mayer bond orders larger than 0.100000
B(  0-C ,  1-C ) :   1.0796 B(  0-C ,  2-C ) :   1.0565 B(  0-C , 12-H ) :   0.9577
B(  0-C , 13-H ) :   0.9572 B(  1-C ,  7-H ) :   0.9576 B(  1-C ,  8-H ) :   0.9546
B(  1-C ,  9-H ) :   0.9589 B(  2-C ,  3-C ) :   1.0398 B(  2-C , 14-H ) :   0.9602
B(  2-C , 15-H ) :   0.9442 B(  3-C ,  4-C ) :   0.9850 B(  3-C ,  5-H ) :   0.9324
B(  3-C ,  6-H ) :   0.9498 B(  4-C , 10-O ) :   2.1411 B(  4-C , 11-F ) :   1.0660
B(  8-H , 11-F ) :   0.1049

Dispersion correction           -0.004650496
FINAL SINGLE POINT ENERGY      -370.599071143930

DIPOLE MOMENT
-------------
                                X             Y             Z
Electronic contribution:    -10.37334       2.35630       3.32302
Nuclear contribution   :     11.08738      -2.45618      -3.73478
                        -----------------------------------------
Total Dipole Moment    :      0.71405      -0.09988      -0.41177
                        -----------------------------------------
Magnitude (a.u.)       :      0.83030
Magnitude (Debye)      :      2.11044

Rotational constants in cm-1:     0.156244     0.063730     0.048063
Rotational constants in MHz :  4684.071402  1910.571278  1440.877811

                             ****ORCA TERMINATED NORMALLY****
TOTAL RUN TIME: 0 days 0 hours 0 minutes 9 seconds 979 msec
