                         Program Version 5.0.0 -  RELEASE  -
|  1> !wB97X-D3 RIJCOSX def2-TZVPD def2/J TightSCF
|  2> *xyz -1 1
|  3> C          3.76678       -2.26611       -6.51175
|  4> C          2.49670       -1.84416       -5.73570
|  5> H          1.62642       -2.21743       -6.30895
|  6> H          2.48182       -2.45607       -4.79341
|  7> O          2.45973       -0.50920       -5.50576
|  8> H          3.82914       -1.70941       -7.42340
|  9> H          3.71764       -3.31144       -6.73483
| 10> H          4.63199       -2.06931       -5.91377
| 11> *
| 12>
| 13> %MaxCore 64000
| 14>
| 15> %pal nprocs 4
| 16> end
| 17>
| 18> %scf
| 19>   MaxIter 150
| 20> end
| 21>
| 22>
| 23>                          ****END OF INPUT****

CARTESIAN COORDINATES (ANGSTROEM)
---------------------------------
  C      3.766780   -2.266110   -6.511750
  C      2.496700   -1.844160   -5.735700
  H      1.626420   -2.217430   -6.308950
  H      2.481820   -2.456070   -4.793410
  O      2.459730   -0.509200   -5.505760
  H      3.829140   -1.709410   -7.423400
  H      3.717640   -3.311440   -6.734830
  H      4.631990   -2.069310   -5.913770

 Total Charge           Charge          ....   -1
 Multiplicity           Mult            ....    1
 Number of Electrons    NEL             ....   26
 Basis Dimension        Dim             ....  159

ORBITAL ENERGIES
----------------

  NO   OCC          E(Eh)            E(eV)
   0   2.0000     -18.894095      -514.1345
   1   2.0000     -10.088571      -274.5240
   2   2.0000     -10.062471      -273.8138
   3   2.0000      -0.798753       -21.7352
   4   2.0000      -0.638147       -17.3649
   5   2.0000      -0.480309       -13.0699
   6   2.0000      -0.349205        -9.5024
   7   2.0000      -0.325557        -8.8588
   8   2.0000      -0.268051        -7.2940
   9   2.0000      -0.251190        -6.8352
  10   2.0000      -0.209886        -5.7113
  11   2.0000      -0.060288        -1.6405
  12   2.0000      -0.059222        -1.6115
  13   0.0000       0.213185         5.8011
  14   0.0000       0.232891         6.3373
  15   0.0000       0.262032         7.1303
  16   0.0000       0.263667         7.1747
  17   0.0000       0.287772         7.8307

MULLIKEN ATOMIC CHARGES
-----------------------
   0 C :   -0.894672
   1 C :   -0.231652
   2 H :    0.134424
   3 H :    0.119865
   4 O :   -0.912201
   5 H :    0.234935
   6 H :    0.317066
   7 H :    0.232234
Sum of atomic charges:   -1.0000000

LOEWDIN ATOMIC CHARGES
----------------------
   0 C :   -0.168523
   1 C :   -0.630383
   2 H :    0.053588
   3 H :    0.059560
   4 O :   -0.417953
   5 H :    0.038827
   6 H :    0.026994
   7 H :    0.037891

  Mayer bond orders larger than 0.100000
B(  0-C ,  1-C ) :   0.7848 B(  0-C ,  4-O ) :   0.2222 B(  0-C ,  5-H ) :   0.9939
B(  0-C ,  6-H ) :   0.9408 B(  0-C ,  7-H ) :   0.9917 B(  1-C ,  2-H ) :   1.0732
B(  1-C ,  3-H ) :   1.0678 B(  1-C ,  4-O ) :   1.0719

Dispersion correction           -0.000860927
FINAL SINGLE POINT ENERGY      -154.440523416778

DIPOLE MOMENT
-------------
                                X             Y             Z
Electronic contribution:     -1.05845       2.46182       0.93638
Nuclear contribution   :      1.63615      -3.79938      -1.48621
                        -----------------------------------------
Total Dipole Moment    :      0.57771      -1.33756      -0.54983
                        -----------------------------------------
Magnitude (a.u.)       :      1.55728
Magnitude (Debye)      :      3.95830

Rotational constants in cm-1:     1.265582     0.329289     0.289024
Rotational constants in MHz : 37941.194363  9871.829581  8664.719106

                             ****ORCA TERMINATED NORMALLY****
TOTAL RUN TIME: 0 days 0 hours 0 minutes 19 seconds 879 msec
