                         Program Version 5.0.0 -  RELEASE  -
|  1> !wB97X-D3 RIJCOSX def2-TZVPD def2/J TightSCF
|  2> *xyz 1 1
|  3> C          4.99986       -1.59613       -5.92488
|  4> N          5.28156       -1.97413       -4.53576
|  5> C          3.76678       -2.26611       -6.51175
|  6> C          4.79250       -1.36132       -3.45730
|  7> N          3.93990       -0.37492       -3.55736
|  8> N          5.25986       -1.75422       -2.23913
|  9> H          5.92282       -2.52145       -2.18672
| 10> H          4.65468       -1.64040       -1.44202
| 11> H          5.70914       -2.87560       -4.38702
| 12> H          3.33010       -0.31764       -4.36125
| 13> H          3.69849        0.11447       -2.70833
| 14> H          4.84333       -0.51793       -5.94302
| 15> H          5.90170       -1.82250       -6.49647
| 16> H          3.63046       -1.94025       -7.52177
| 17> H          2.90710       -2.00116       -5.93240
| 18> H          3.89538       -3.32820       -6.49392
| 19> *
| 20>
| 21> %MaxCore 64000
| 22>
| 23> %pal nprocs 4
| 24> end
| 25>
| 26> %scf
| 27>   MaxIter 150
| 28> end
| 29>
| 30>
| 31>                          ****END OF INPUT****

CARTESIAN COORDINATES (ANGSTROEM)
---------------------------------
  C      4.999860   -1.596130   -5.924880
  N      5.281560   -1.974130   -4.535760
  C      3.766780   -2.266110   -6.511750
  C      4.792500   -1.361320   -3.457300
  N      3.939900   -0.374920   -3.557360
  N      5.259860   -1.754220   -2.239130
  H      5.922820   -2.521450   -2.186720
  H      4.654680   -1.640400   -1.442020
  H      5.709140   -2.875600   -4.387020
  H      3.330100   -0.317640   -4.361250
  H      3.698490    0.114470   -2.708330
  H      4.843330   -0.517930   -5.943020
  H      5.901700   -1.822500   -6.496470
  H      3.630460   -1.940250   -7.521770
  H      2.907100   -2.001160   -5.932400
  H      3.895380   -3.328200   -6.493920

 Total Charge           Charge          ....    1
 Multiplicity           Mult            ....    1
 Number of Electrons    NEL             ....   48
 Basis Dimension        Dim             ....  312

ORBITAL ENERGIES
----------------

  NO   OCC          E(Eh)            E(eV)
   0   2.0000     -14.649700      -398.6386
   1   2.0000     -14.646141      -398.5417
   2   2.0000     -14.639967      -398.3738
   3   2.0000     -10.614462      -288.8342
   4   2.0000     -10.481177      -285.2073
   5   2.0000     -10.412365      -283.3349
   6   2.0000      -1.334138       -36.3037
   7   2.0000      -1.222306       -33.2606
   8   2.0000      -1.206690       -32.8357
   9   2.0000      -1.046942       -28.4888
  10   2.0000      -0.951373       -25.8882
  11   2.0000      -0.911971       -24.8160
  12   2.0000      -0.892610       -24.2891
  13   2.0000      -0.842730       -22.9318
  14   2.0000      -0.795630       -21.6502
  15   2.0000      -0.791092       -21.5267
  16   2.0000      -0.740416       -20.1478
  17   2.0000      -0.732974       -19.9452
  18   2.0000      -0.706519       -19.2254
  19   2.0000      -0.659179       -17.9372
  20   2.0000      -0.630046       -17.1444
  21   2.0000      -0.610052       -16.6004
  22   2.0000      -0.574750       -15.6397
  23   2.0000      -0.543147       -14.7798
  24   0.0000      -0.098763        -2.6875
  25   0.0000      -0.084339        -2.2950
  26   0.0000      -0.055840        -1.5195
  27   0.0000      -0.047139        -1.2827
  28   0.0000      -0.024936        -0.6785

MULLIKEN ATOMIC CHARGES
-----------------------
   0 C :   -0.639296
   1 N :   -0.147037
   2 C :   -0.986969
   3 C :    0.692308
   4 N :   -0.351383
   5 N :   -0.444329
   6 H :    0.240904
   7 H :    0.249126
   8 H :    0.250818
   9 H :    0.242881
  10 H :    0.225563
  11 H :    0.390240
  12 H :    0.291102
  13 H :    0.343096
  14 H :    0.317743
  15 H :    0.325234
Sum of atomic charges:    1.0000000

LOEWDIN ATOMIC CHARGES
----------------------
   0 C :   -0.202593
   1 N :    0.083352
   2 C :   -0.064577
   3 C :   -0.423695
   4 N :    0.223246
   5 N :    0.188509
   6 H :    0.135609
   7 H :    0.129817
   8 H :    0.164767
   9 H :    0.134899
  10 H :    0.147076
  11 H :    0.119919
  12 H :    0.131897
  13 H :    0.085570
  14 H :    0.066737
  15 H :    0.079467

  Mayer bond orders larger than 0.100000
B(  0-C ,  1-N ) :   0.9233 B(  0-C ,  2-C ) :   0.7236 B(  0-C ,  3-C ) :  -0.1073
B(  0-C ,  4-N ) :   0.1328 B(  0-C , 11-H ) :   0.8589 B(  0-C , 12-H ) :   0.9400
B(  1-N ,  3-C ) :   1.2327 B(  1-N ,  8-H ) :   0.9578 B(  2-C , 13-H ) :   0.9630
B(  2-C , 14-H ) :   0.9195 B(  2-C , 15-H ) :   0.9678 B(  3-C ,  4-N ) :   1.2149
B(  3-C ,  5-N ) :   1.0724 B(  4-N ,  9-H ) :   0.9285 B(  4-N , 10-H ) :   0.9915
B(  5-N ,  6-H ) :   0.9478 B(  5-N ,  7-H ) :   0.9687

Dispersion correction           -0.003771172
FINAL SINGLE POINT ENERGY      -284.430123824947

DIPOLE MOMENT
-------------
                                X             Y             Z
Electronic contribution:      1.74649       1.09584       4.73470
Nuclear contribution   :     -1.95709      -1.20097      -3.70214
                        -----------------------------------------
Total Dipole Moment    :     -0.21060      -0.10513       1.03256
                        -----------------------------------------
Magnitude (a.u.)       :      1.05905
Magnitude (Debye)      :      2.69190

Rotational constants in cm-1:     0.241661     0.071598     0.061743
Rotational constants in MHz :  7244.800091  2146.442409  1851.001864

                             ****ORCA TERMINATED NORMALLY****
TOTAL RUN TIME: 0 days 0 hours 1 minutes 22 seconds 853 msec
