                         Program Version 5.0.0 -  RELEASE  -
|  1> !wB97X-D3 RIJCOSX def2-TZVPD def2/J TightSCF xyzfile
|  2>
|  3> *xyzfile 0 1 B.xyz
|  4>
|  5> %MaxCore 64000
|  6>
|  7> %pal nprocs 18
|  8> end
|  9>
| 10> %scf
| 11>   MaxIter 150
| 12> end
| 13>
| 14>
| 15>                          ****END OF INPUT****

CARTESIAN COORDINATES (ANGSTROEM)
---------------------------------
  C      4.999862   -1.596133   -5.924876
  N      5.281560   -1.974132   -4.535764
  C      3.766779   -2.266110   -6.511752
  C      2.496702   -1.844161   -5.735704
  H      1.626416   -2.217434   -6.308950
  H      2.481824   -2.456069   -4.793414
  O      2.459729   -0.509204   -5.505757
  C      4.792500   -1.361316   -3.457295
  N      3.939898   -0.374925   -3.557359
  N      5.259860   -1.754224   -2.239133
  H      5.922824   -2.521451   -2.186720
  H      4.654678   -1.640404   -1.442016
  H      5.709139   -2.875599   -4.387021
  H      3.330101   -0.317639   -4.361247
  H      3.698494    0.114468   -2.708333
  H      4.843333   -0.517930   -5.943019
  H      5.901695   -1.822503   -6.496467
  H      3.886191   -3.357076   -6.533604
  H      3.685602   -1.922168   -7.547128

 Total Charge           Charge          ....    0
 Multiplicity           Mult            ....    1
 Number of Electrons    NEL             ....   64
 Basis Dimension        Dim             ....  398

ORBITAL ENERGIES
----------------

  NO   OCC          E(Eh)            E(eV)
   0   2.0000     -19.080580      -519.2090
   1   2.0000     -14.486764      -394.2049
   2   2.0000     -14.479532      -394.0081
   3   2.0000     -14.436122      -392.8269
   4   2.0000     -10.438773      -284.0535
   5   2.0000     -10.308653      -280.5127
   6   2.0000     -10.256677      -279.0984
   7   2.0000     -10.243180      -278.7311
   8   2.0000      -1.161126       -31.5958
   9   2.0000      -1.052578       -28.6421
  10   2.0000      -1.035028       -28.1645
  11   2.0000      -0.994654       -27.0659
  12   2.0000      -0.871767       -23.7220
  13   2.0000      -0.788031       -21.4434
  14   2.0000      -0.741812       -20.1857
  15   2.0000      -0.716587       -19.4993
  16   2.0000      -0.690465       -18.7885
  17   2.0000      -0.647969       -17.6321
  18   2.0000      -0.621044       -16.8995
  19   2.0000      -0.606638       -16.5075
  20   2.0000      -0.569737       -15.5033
  21   2.0000      -0.561701       -15.2847
  22   2.0000      -0.535226       -14.5642
  23   2.0000      -0.503730       -13.7072
  24   2.0000      -0.458277       -12.4704
  25   2.0000      -0.437411       -11.9026
  26   2.0000      -0.425797       -11.5865
  27   2.0000      -0.403389       -10.9768
  28   2.0000      -0.391465       -10.6523
  29   2.0000      -0.368932       -10.0392
  30   2.0000      -0.256522        -6.9803
  31   2.0000      -0.252256        -6.8642
  32   0.0000       0.035475         0.9653
  33   0.0000       0.069697         1.8966
  34   0.0000       0.072559         1.9744
  35   0.0000       0.084099         2.2884
  36   0.0000       0.100989         2.7480

MULLIKEN ATOMIC CHARGES
-----------------------
   0 C :   -0.625000
   1 N :   -0.153486
   2 C :   -0.295404
   3 C :   -0.432767
   4 H :    0.251751
   5 H :    0.151101
   6 O :   -0.915337
   7 C :    0.522362
   8 N :   -0.249962
   9 N :   -0.467396
  10 H :    0.209126
  11 H :    0.222355
  12 H :    0.246873
  13 H :    0.230852
  14 H :    0.171185
  15 H :    0.338426
  16 H :    0.269986
  17 H :    0.249860
  18 H :    0.275476
Sum of atomic charges:   -0.0000000

LOEWDIN ATOMIC CHARGES
----------------------
   0 C :   -0.177982
   1 N :    0.077842
   2 C :   -0.187200
   3 C :   -0.451167
   4 H :    0.096172
   5 H :    0.091751
   6 O :   -0.305487
   7 C :   -0.447389
   8 N :    0.215987
   9 N :    0.149046
  10 H :    0.114032
  11 H :    0.113038
  12 H :    0.149800
  13 H :   -0.018129
  14 H :    0.132135
  15 H :    0.121309
  16 H :    0.115708
  17 H :    0.101446
  18 H :    0.109089

  Mayer bond orders larger than 0.100000
B(  0-C ,  1-N ) :   0.9920 B(  0-C ,  2-C ) :   0.9431 B(  0-C ,  6-O ) :   0.1265
B(  0-C , 15-H ) :   0.8407 B(  0-C , 16-H ) :   0.9279 B(  1-N ,  7-C ) :   1.2136
B(  1-N , 12-H ) :   0.9320 B(  2-C ,  3-C ) :   0.9158 B(  2-C , 17-H ) :   0.9881
B(  2-C , 18-H ) :   0.9050 B(  3-C ,  4-H ) :   1.0177 B(  3-C ,  5-H ) :   1.0008
B(  3-C ,  6-O ) :   1.1129 B(  6-O ,  8-N ) :  -0.1009 B(  6-O , 13-H ) :   0.2435
B(  7-C ,  8-N ) :   1.3487 B(  7-C ,  9-N ) :   1.0040 B(  8-N , 13-H ) :   0.7318
B(  8-N , 14-H ) :   1.0276 B(  9-N , 10-H ) :   0.9695 B(  9-N , 11-H ) :   0.9819

Dispersion correction           -0.006193557
FINAL SINGLE POINT ENERGY      -398.542528454311

DIPOLE MOMENT
-------------
                                X             Y             Z
Electronic contribution:      1.92781       1.93817       3.71117
Nuclear contribution   :      0.51577      -3.31768      -1.36804
                        -----------------------------------------
Total Dipole Moment    :      2.44358      -1.37951       2.34314
                        -----------------------------------------
Magnitude (a.u.)       :      3.65574
Magnitude (Debye)      :      9.29215

Rotational constants in cm-1:     0.111492     0.050787     0.040163
Rotational constants in MHz :  3342.457536  1522.560798  1204.057148

                             ****ORCA TERMINATED NORMALLY****
TOTAL RUN TIME: 0 days 0 hours 0 minutes 51 seconds 103 msec
