                         Program Version 5.0.0 -  RELEASE  -
|  1> !wB97X-D3 RIJCOSX def2-TZVPD def2/J TightSCF
|  2> *xyz 0 1
|  3> C          3.76678       -2.26611       -6.51175
|  4> C          2.49670       -1.84416       -5.73570
|  5> H          1.62642       -2.21743       -6.30895
|  6> H          2.48182       -2.45607       -4.79341
|  7> F          2.45973       -0.50920       -5.50576
|  8> H          3.82914       -1.70941       -7.42340
|  9> H          3.71764       -3.31144       -6.73483
| 10> H          4.63199       -2.06931       -5.91377
| 11> *
| 12>
| 13> %MaxCore 64000
| 14>
| 15> %pal nprocs 4
| 16> end
| 17>
| 18> %scf
| 19>   MaxIter 150
| 20> end
| 21>
| 22>
| 23>                          ****END OF INPUT****

CARTESIAN COORDINATES (ANGSTROEM)
---------------------------------
  C      3.766780   -2.266110   -6.511750
  C      2.496700   -1.844160   -5.735700
  H      1.626420   -2.217430   -6.308950
  H      2.481820   -2.456070   -4.793410
  F      2.459730   -0.509200   -5.505760
  H      3.829140   -1.709410   -7.423400
  H      3.717640   -3.311440   -6.734830
  H      4.631990   -2.069310   -5.913770

 Total Charge           Charge          ....    0
 Multiplicity           Mult            ....    1
 Number of Electrons    NEL             ....   26
 Basis Dimension        Dim             ....  159

ORBITAL ENERGIES
----------------

  NO   OCC          E(Eh)            E(eV)
   0   2.0000     -24.774584      -674.1507
   1   2.0000     -10.354832      -281.7693
   2   2.0000     -10.267591      -279.3953
   3   2.0000      -1.321411       -35.9574
   4   2.0000      -0.878098       -23.8943
   5   2.0000      -0.743286       -20.2259
   6   2.0000      -0.614301       -16.7160
   7   2.0000      -0.600328       -16.3357
   8   2.0000      -0.562912       -15.3176
   9   2.0000      -0.504988       -13.7414
  10   2.0000      -0.497920       -13.5491
  11   2.0000      -0.429440       -11.6857
  12   2.0000      -0.424821       -11.5600
  13   0.0000       0.073154         1.9906
  14   0.0000       0.095635         2.6024
  15   0.0000       0.117765         3.2045
  16   0.0000       0.121147         3.2966
  17   0.0000       0.149828         4.0770

MULLIKEN ATOMIC CHARGES
-----------------------
   0 C :   -0.975202
   1 C :   -0.068261
   2 H :    0.221919
   3 H :    0.210048
   4 F :   -0.296460
   5 H :    0.290515
   6 H :    0.333914
   7 H :    0.283526
Sum of atomic charges:   -0.0000000

LOEWDIN ATOMIC CHARGES
----------------------
   0 C :   -0.085587
   1 C :   -0.296101
   2 H :    0.109272
   3 H :    0.117032
   4 F :   -0.038109
   5 H :    0.064359
   6 H :    0.065711
   7 H :    0.063424

  Mayer bond orders larger than 0.100000
B(  0-C ,  1-C ) :   0.8123 B(  0-C ,  5-H ) :   0.9518 B(  0-C ,  6-H ) :   0.9207
B(  0-C ,  7-H ) :   0.9564 B(  1-C ,  2-H ) :   0.9816 B(  1-C ,  3-H ) :   0.9823
B(  1-C ,  4-F ) :   0.7793

Dispersion correction           -0.000877181
FINAL SINGLE POINT ENERGY      -179.085884961565

DIPOLE MOMENT
-------------
                                X             Y             Z
Electronic contribution:     -2.08083       4.34039       1.81348
Nuclear contribution   :      2.16248      -5.01128      -1.96962
                        -----------------------------------------
Total Dipole Moment    :      0.08164      -0.67089      -0.15614
                        -----------------------------------------
Magnitude (a.u.)       :      0.69365
Magnitude (Debye)      :      1.76311

Rotational constants in cm-1:     1.244010     0.306580     0.270375
Rotational constants in MHz : 37294.476802  9191.037795  8105.639967

                             ****ORCA TERMINATED NORMALLY****
TOTAL RUN TIME: 0 days 0 hours 0 minutes 18 seconds 301 msec
