                         Program Version 5.0.0 -  RELEASE  -
|  1> !wB97X-D3 RIJCOSX def2-TZVPD def2/J TightSCF
|  2> *xyz 0 1
|  3> C          4.99986       -1.59613       -5.92488
|  4> C          5.28156       -1.97413       -4.53576
|  5> C          3.76678       -2.26611       -6.51175
|  6> C          4.79250       -1.36132       -3.45730
|  7> N          3.93990       -0.37492       -3.55736
|  8> N          5.25986       -1.75422       -2.23913
|  9> H          5.92282       -2.52145       -2.18672
| 10> H          4.65468       -1.64040       -1.44202
| 11> H          5.70914       -2.87560       -4.38702
| 12> H          3.33010       -0.31764       -4.36125
| 13> H          3.69849        0.11447       -2.70833
| 14> H          4.84333       -0.51793       -5.94302
| 15> H          5.90170       -1.82250       -6.49647
| 16> H          3.63046       -1.94025       -7.52177
| 17> H          2.90710       -2.00116       -5.93240
| 18> H          3.89538       -3.32820       -6.49392
| 19> *
| 20>
| 21> %MaxCore 64000
| 22>
| 23> %pal nprocs 4
| 24> end
| 25>
| 26> %scf
| 27>   MaxIter 150
| 28> end
| 29>
| 30>
| 31>                          ****END OF INPUT****

CARTESIAN COORDINATES (ANGSTROEM)
---------------------------------
  C      4.999860   -1.596130   -5.924880
  C      5.281560   -1.974130   -4.535760
  C      3.766780   -2.266110   -6.511750
  C      4.792500   -1.361320   -3.457300
  N      3.939900   -0.374920   -3.557360
  N      5.259860   -1.754220   -2.239130
  H      5.922820   -2.521450   -2.186720
  H      4.654680   -1.640400   -1.442020
  H      5.709140   -2.875600   -4.387020
  H      3.330100   -0.317640   -4.361250
  H      3.698490    0.114470   -2.708330
  H      4.843330   -0.517930   -5.943020
  H      5.901700   -1.822500   -6.496470
  H      3.630460   -1.940250   -7.521770
  H      2.907100   -2.001160   -5.932400
  H      3.895380   -3.328200   -6.493920

 Total Charge           Charge          ....    0
 Multiplicity           Mult            ....    1
 Number of Electrons    NEL             ....   48
 Basis Dimension        Dim             ....  312

ORBITAL ENERGIES
----------------

  NO   OCC          E(Eh)            E(eV)
   0   2.0000     -14.425582      -392.5400
   1   2.0000     -14.417502      -392.3202
   2   2.0000     -10.319028      -280.7950
   3   2.0000     -10.247137      -278.8388
   4   2.0000     -10.241170      -278.6764
   5   2.0000     -10.196859      -277.4706
   6   2.0000      -1.080429       -29.4000
   7   2.0000      -0.986359       -26.8402
   8   2.0000      -0.889942       -24.2166
   9   2.0000      -0.808405       -21.9978
  10   2.0000      -0.725085       -19.7306
  11   2.0000      -0.683321       -18.5941
  12   2.0000      -0.648579       -17.6487
  13   2.0000      -0.606714       -16.5095
  14   2.0000      -0.576107       -15.6767
  15   2.0000      -0.543461       -14.7883
  16   2.0000      -0.514709       -14.0060
  17   2.0000      -0.495210       -13.4754
  18   2.0000      -0.481253       -13.0956
  19   2.0000      -0.447916       -12.1884
  20   2.0000      -0.420285       -11.4365
  21   2.0000      -0.412677       -11.2295
  22   2.0000      -0.360659        -9.8140
  23   2.0000      -0.248527        -6.7628
  24   0.0000       0.063343         1.7237
  25   0.0000       0.088814         2.4168
  26   0.0000       0.095077         2.5872
  27   0.0000       0.104277         2.8375
  28   0.0000       0.118914         3.2358

MULLIKEN ATOMIC CHARGES
-----------------------
   0 C :   -0.544744
   1 C :   -0.808193
   2 C :   -1.044573
   3 C :    0.646524
   4 N :   -0.395338
   5 N :   -0.496120
   6 H :    0.204052
   7 H :    0.192897
   8 H :    0.381669
   9 H :    0.204932
  10 H :    0.191352
  11 H :    0.299971
  12 H :    0.249879
  13 H :    0.281551
  14 H :    0.315731
  15 H :    0.320409
Sum of atomic charges:   -0.0000000

LOEWDIN ATOMIC CHARGES
----------------------
   0 C :   -0.285631
   1 C :   -0.141281
   2 C :   -0.111543
   3 C :   -0.544345
   4 N :    0.129355
   5 N :    0.093176
   6 H :    0.105732
   7 H :    0.088259
   8 H :    0.063030
   9 H :    0.107820
  10 H :    0.108619
  11 H :    0.097661
  12 H :    0.103661
  13 H :    0.060162
  14 H :    0.058201
  15 H :    0.067124

  Mayer bond orders larger than 0.100000
B(  0-C ,  1-C ) :   0.8188 B(  0-C ,  2-C ) :   0.5647 B(  0-C ,  3-C ) :   0.1206
B(  0-C ,  4-N ) :   0.1072 B(  0-C , 11-H ) :   0.9850 B(  0-C , 12-H ) :   1.0434
B(  1-C ,  2-C ) :   0.1170 B(  1-C ,  3-C ) :   1.3365 B(  1-C ,  4-N ) :   0.1002
B(  1-C ,  5-N ) :   0.1450 B(  1-C ,  8-H ) :   0.8990 B(  2-C , 13-H ) :   0.9728
B(  2-C , 14-H ) :   0.9423 B(  2-C , 15-H ) :   0.9797 B(  3-C ,  4-N ) :   1.0492
B(  3-C ,  5-N ) :   0.9061 B(  3-C ,  8-H ) :  -0.1261 B(  4-N ,  9-H ) :   0.9533
B(  4-N , 10-H ) :   1.0070 B(  5-N ,  6-H ) :   0.9749 B(  5-N ,  7-H ) :   1.0146

Dispersion correction           -0.003764804
FINAL SINGLE POINT ENERGY      -267.946603207640

DIPOLE MOMENT
-------------
                                X             Y             Z
Electronic contribution:      1.21742       1.38359       4.49981
Nuclear contribution   :     -1.82485      -1.28952      -3.74132
                        -----------------------------------------
Total Dipole Moment    :     -0.60743       0.09407       0.75850
                        -----------------------------------------
Magnitude (a.u.)       :      0.97629
Magnitude (Debye)      :      2.48153

Rotational constants in cm-1:     0.245790     0.071632     0.062004
Rotational constants in MHz :  7368.599517  2147.482078  1858.844841

                             ****ORCA TERMINATED NORMALLY****
TOTAL RUN TIME: 0 days 0 hours 1 minutes 29 seconds 847 msec
