                         Program Version 5.0.0 -  RELEASE  -
|  1> !wB97X-D3 RIJCOSX def2-TZVPD def2/J TightSCF
|  2> *xyz 0 1
|  3> C          4.99986       -1.59613       -5.92488
|  4> N          5.28156       -1.97413       -4.53576
|  5> C          3.76678       -2.26611       -6.51175
|  6> C          4.79250       -1.36132       -3.45730
|  7> C          3.93990       -0.37492       -3.55736
|  8> N          5.25986       -1.75422       -2.23913
|  9> H          5.92282       -2.52145       -2.18672
| 10> H          4.65468       -1.64040       -1.44202
| 11> H          5.70914       -2.87560       -4.38702
| 12> H          3.33010       -0.31764       -4.36125
| 13> H          3.69849        0.11447       -2.70833
| 14> H          4.84333       -0.51793       -5.94302
| 15> H          5.90170       -1.82250       -6.49647
| 16> H          3.63046       -1.94025       -7.52177
| 17> H          2.90710       -2.00116       -5.93240
| 18> H          3.89538       -3.32820       -6.49392
| 19> *
| 20>
| 21> %MaxCore 64000
| 22>
| 23> %pal nprocs 4
| 24> end
| 25>
| 26> %scf
| 27>   MaxIter 150
| 28> end
| 29>
| 30>
| 31>                          ****END OF INPUT****

CARTESIAN COORDINATES (ANGSTROEM)
---------------------------------
  C      4.999860   -1.596130   -5.924880
  N      5.281560   -1.974130   -4.535760
  C      3.766780   -2.266110   -6.511750
  C      4.792500   -1.361320   -3.457300
  C      3.939900   -0.374920   -3.557360
  N      5.259860   -1.754220   -2.239130
  H      5.922820   -2.521450   -2.186720
  H      4.654680   -1.640400   -1.442020
  H      5.709140   -2.875600   -4.387020
  H      3.330100   -0.317640   -4.361250
  H      3.698490    0.114470   -2.708330
  H      4.843330   -0.517930   -5.943020
  H      5.901700   -1.822500   -6.496470
  H      3.630460   -1.940250   -7.521770
  H      2.907100   -2.001160   -5.932400
  H      3.895380   -3.328200   -6.493920

 Total Charge           Charge          ....    0
 Multiplicity           Mult            ....    1
 Number of Electrons    NEL             ....   48
 Basis Dimension        Dim             ....  312

ORBITAL ENERGIES
----------------

  NO   OCC          E(Eh)            E(eV)
   0   2.0000     -14.423411      -392.4810
   1   2.0000     -14.418783      -392.3550
   2   2.0000     -10.321350      -280.8582
   3   2.0000     -10.306058      -280.4421
   4   2.0000     -10.257654      -279.1250
   5   2.0000     -10.185374      -277.1581
   6   2.0000      -1.080034       -29.3892
   7   2.0000      -0.994939       -27.0737
   8   2.0000      -0.871748       -23.7215
   9   2.0000      -0.831162       -22.6171
  10   2.0000      -0.748132       -20.3577
  11   2.0000      -0.669937       -18.2299
  12   2.0000      -0.645852       -17.5745
  13   2.0000      -0.613601       -16.6969
  14   2.0000      -0.555568       -15.1178
  15   2.0000      -0.546197       -14.8628
  16   2.0000      -0.526333       -14.3222
  17   2.0000      -0.496589       -13.5129
  18   2.0000      -0.481199       -13.0941
  19   2.0000      -0.466852       -12.7037
  20   2.0000      -0.450221       -12.2511
  21   2.0000      -0.441836       -12.0230
  22   2.0000      -0.343547        -9.3484
  23   2.0000      -0.261300        -7.1103
  24   0.0000       0.065207         1.7744
  25   0.0000       0.086135         2.3438
  26   0.0000       0.092863         2.5269
  27   0.0000       0.097757         2.6601
  28   0.0000       0.121462         3.3051

MULLIKEN ATOMIC CHARGES
-----------------------
   0 C :   -0.654535
   1 N :   -0.177248
   2 C :   -0.997950
   3 C :    0.801628
   4 C :   -1.435156
   5 N :   -0.457820
   6 H :    0.187977
   7 H :    0.227423
   8 H :    0.217980
   9 H :    0.328686
  10 H :    0.352777
  11 H :    0.403487
  12 H :    0.272209
  13 H :    0.328402
  14 H :    0.307485
  15 H :    0.294654
Sum of atomic charges:    0.0000000

LOEWDIN ATOMIC CHARGES
----------------------
   0 C :   -0.237892
   1 N :    0.006600
   2 C :   -0.089483
   3 C :   -0.553923
   4 C :    0.000524
   5 N :    0.100215
   6 H :    0.096083
   7 H :    0.100585
   8 H :    0.133644
   9 H :    0.010998
  10 H :    0.017375
  11 H :    0.109424
  12 H :    0.111145
  13 H :    0.066638
  14 H :    0.063442
  15 H :    0.064626

  Mayer bond orders larger than 0.100000
B(  0-C ,  1-N ) :   0.9313 B(  0-C ,  2-C ) :   0.6679 B(  0-C ,  4-C ) :   0.2322
B(  0-C , 11-H ) :   0.8754 B(  0-C , 12-H ) :   0.9270 B(  1-N ,  3-C ) :   1.0937
B(  1-N ,  8-H ) :   0.9637 B(  2-C , 13-H ) :   0.9503 B(  2-C , 14-H ) :   0.9674
B(  2-C , 15-H ) :   0.9704 B(  3-C ,  4-C ) :   1.2159 B(  3-C ,  5-N ) :   0.9534
B(  4-C ,  9-H ) :   0.8871 B(  4-C , 10-H ) :   1.0075 B(  5-N ,  6-H ) :   0.9945
B(  5-N ,  7-H ) :   0.9641

Dispersion correction           -0.003763430
FINAL SINGLE POINT ENERGY      -267.940180763272

DIPOLE MOMENT
-------------
                                X             Y             Z
Electronic contribution:      2.40437      -0.09627       3.48486
Nuclear contribution   :     -2.10948      -0.95026      -3.53375
                        -----------------------------------------
Total Dipole Moment    :      0.29489      -1.04653      -0.04889
                        -----------------------------------------
Magnitude (a.u.)       :      1.08838
Magnitude (Debye)      :      2.76644

Rotational constants in cm-1:     0.255209     0.072067     0.062929
Rotational constants in MHz :  7650.964615  2160.525743  1886.569524

                             ****ORCA TERMINATED NORMALLY****
TOTAL RUN TIME: 0 days 0 hours 1 minutes 24 seconds 58 msec
