                         Program Version 5.0.0 -  RELEASE  -
|  1> !wB97X-D3 RIJCOSX def2-TZVPD def2/J TightSCF
|  2> *xyz 0 1
|  3> C          4.99986       -1.59613       -5.92488
|  4> N          5.28156       -1.97413       -4.53576
|  5> C          3.76678       -2.26611       -6.51175
|  6> C          4.79250       -1.36132       -3.45730
|  7> N          3.93990       -0.37492       -3.55736
|  8> C          5.25986       -1.75422       -2.23913
|  9> H          5.92282       -2.52145       -2.18672
| 10> H          4.65468       -1.64040       -1.44202
| 11> H          5.70914       -2.87560       -4.38702
| 12> H          3.33010       -0.31764       -4.36125
| 13> H          3.69849        0.11447       -2.70833
| 14> H          4.84333       -0.51793       -5.94302
| 15> H          5.90170       -1.82250       -6.49647
| 16> H          3.63046       -1.94025       -7.52177
| 17> H          2.90710       -2.00116       -5.93240
| 18> H          3.89538       -3.32820       -6.49392
| 19> *
| 20>
| 21> %MaxCore 64000
| 22>
| 23> %pal nprocs 4
| 24> end
| 25>
| 26> %scf
| 27>   MaxIter 150
| 28> end
| 29>
| 30>
| 31>                          ****END OF INPUT****

CARTESIAN COORDINATES (ANGSTROEM)
---------------------------------
  C      4.999860   -1.596130   -5.924880
  N      5.281560   -1.974130   -4.535760
  C      3.766780   -2.266110   -6.511750
  C      4.792500   -1.361320   -3.457300
  N      3.939900   -0.374920   -3.557360
  C      5.259860   -1.754220   -2.239130
  H      5.922820   -2.521450   -2.186720
  H      4.654680   -1.640400   -1.442020
  H      5.709140   -2.875600   -4.387020
  H      3.330100   -0.317640   -4.361250
  H      3.698490    0.114470   -2.708330
  H      4.843330   -0.517930   -5.943020
  H      5.901700   -1.822500   -6.496470
  H      3.630460   -1.940250   -7.521770
  H      2.907100   -2.001160   -5.932400
  H      3.895380   -3.328200   -6.493920

 Total Charge           Charge          ....    0
 Multiplicity           Mult            ....    1
 Number of Electrons    NEL             ....   48
 Basis Dimension        Dim             ....  312

ORBITAL ENERGIES
----------------

  NO   OCC          E(Eh)            E(eV)
   0   2.0000     -14.426554      -392.5665
   1   2.0000     -14.423659      -392.4877
   2   2.0000     -10.326291      -280.9927
   3   2.0000     -10.315197      -280.6908
   4   2.0000     -10.268969      -279.4328
   5   2.0000     -10.180891      -277.0361
   6   2.0000      -1.090887       -29.6845
   7   2.0000      -1.006181       -27.3796
   8   2.0000      -0.889544       -24.2057
   9   2.0000      -0.811043       -22.0696
  10   2.0000      -0.739883       -20.1332
  11   2.0000      -0.710008       -19.3203
  12   2.0000      -0.649747       -17.6805
  13   2.0000      -0.601446       -16.3662
  14   2.0000      -0.582874       -15.8608
  15   2.0000      -0.545539       -14.8449
  16   2.0000      -0.531881       -14.4732
  17   2.0000      -0.503630       -13.7045
  18   2.0000      -0.485325       -13.2064
  19   2.0000      -0.462702       -12.5908
  20   2.0000      -0.459570       -12.5055
  21   2.0000      -0.444002       -12.0819
  22   2.0000      -0.350595        -9.5402
  23   2.0000      -0.246709        -6.7133
  24   0.0000       0.061655         1.6777
  25   0.0000       0.088983         2.4213
  26   0.0000       0.090445         2.4611
  27   0.0000       0.095149         2.5891
  28   0.0000       0.121406         3.3036

MULLIKEN ATOMIC CHARGES
-----------------------
   0 C :   -0.646787
   1 N :   -0.149723
   2 C :   -0.984703
   3 C :    0.858162
   4 N :   -0.395136
   5 C :   -1.548980
   6 H :    0.321153
   7 H :    0.347890
   8 H :    0.213775
   9 H :    0.191417
  10 H :    0.211590
  11 H :    0.379038
  12 H :    0.274263
  13 H :    0.324819
  14 H :    0.312440
  15 H :    0.290783
Sum of atomic charges:    0.0000000

LOEWDIN ATOMIC CHARGES
----------------------
   0 C :   -0.239701
   1 N :    0.016333
   2 C :   -0.092105
   3 C :   -0.566855
   4 N :    0.126845
   5 C :   -0.014441
   6 H :    0.000333
   7 H :   -0.005104
   8 H :    0.142325
   9 H :    0.099514
  10 H :    0.118792
  11 H :    0.107066
  12 H :    0.112507
  13 H :    0.066523
  14 H :    0.060316
  15 H :    0.067651

  Mayer bond orders larger than 0.100000
B(  0-C ,  1-N ) :   0.9217 B(  0-C ,  2-C ) :   0.6600 B(  0-C ,  4-N ) :   0.1548
B(  0-C , 11-H ) :   0.8901 B(  0-C , 12-H ) :   0.9650 B(  1-N ,  3-C ) :   1.1371
B(  1-N ,  5-C ) :   0.1074 B(  1-N ,  8-H ) :   0.9468 B(  2-C , 13-H ) :   0.9719
B(  2-C , 14-H ) :   0.9453 B(  2-C , 15-H ) :   0.9870 B(  3-C ,  4-N ) :   1.1133
B(  3-C ,  5-C ) :   0.9449 B(  4-N ,  5-C ) :   0.1198 B(  4-N ,  9-H ) :   0.9666
B(  4-N , 10-H ) :   0.9863 B(  5-C ,  6-H ) :   0.9810 B(  5-C ,  7-H ) :   0.9840

Dispersion correction           -0.003798810
FINAL SINGLE POINT ENERGY      -267.933801596336

DIPOLE MOMENT
-------------
                                X             Y             Z
Electronic contribution:      1.13158       1.24804       2.10126
Nuclear contribution   :     -1.82946      -1.24287      -3.25410
                        -----------------------------------------
Total Dipole Moment    :     -0.69788       0.00518      -1.15284
                        -----------------------------------------
Magnitude (a.u.)       :      1.34763
Magnitude (Debye)      :      3.42540

Rotational constants in cm-1:     0.244672     0.074506     0.064043
Rotational constants in MHz :  7335.067153  2233.624025  1919.970379

                             ****ORCA TERMINATED NORMALLY****
TOTAL RUN TIME: 0 days 0 hours 1 minutes 25 seconds 197 msec
