                         Program Version 5.0.0 -  RELEASE  -
|  1> !wB97X-D3 RIJCOSX def2-TZVPD def2/J TightSCF xyzfile
|  2>
|  3> *xyzfile 0 1 D1.xyz
|  4>
|  5> %MaxCore 64000
|  6>
|  7> %pal nprocs 18
|  8> end
|  9>
| 10> %scf
| 11>   MaxIter 150
| 12> end
| 13>
| 14>
| 15>                          ****END OF INPUT****

CARTESIAN COORDINATES (ANGSTROEM)
---------------------------------
  C      4.999862   -1.596133   -5.924876
  C      5.281560   -1.974132   -4.535764
  C      3.766779   -2.266110   -6.511752
  C      2.496702   -1.844161   -5.735704
  H      1.626416   -2.217434   -6.308950
  H      2.481824   -2.456069   -4.793414
  F      2.459729   -0.509204   -5.505757
  C      4.792500   -1.361316   -3.457295
  N      3.939898   -0.374925   -3.557359
  N      5.259860   -1.754224   -2.239133
  H      5.922824   -2.521451   -2.186720
  H      4.654678   -1.640404   -1.442016
  H      5.709139   -2.875599   -4.387021
  H      3.330101   -0.317639   -4.361247
  H      3.698494    0.114468   -2.708333
  H      4.843333   -0.517930   -5.943019
  H      5.901695   -1.822503   -6.496467
  H      3.886191   -3.357076   -6.533604
  H      3.685602   -1.922168   -7.547128

 Total Charge           Charge          ....    0
 Multiplicity           Mult            ....    1
 Number of Electrons    NEL             ....   64
 Basis Dimension        Dim             ....  398

ORBITAL ENERGIES
----------------

  NO   OCC          E(Eh)            E(eV)
   0   2.0000     -24.807090      -675.0352
   1   2.0000     -14.412195      -392.1758
   2   2.0000     -14.397324      -391.7711
   3   2.0000     -10.358201      -281.8610
   4   2.0000     -10.313241      -280.6375
   5   2.0000     -10.270192      -279.4661
   6   2.0000     -10.249384      -278.8999
   7   2.0000     -10.192376      -277.3487
   8   2.0000      -1.362191       -37.0671
   9   2.0000      -1.069057       -29.0905
  10   2.0000      -0.976265       -26.5655
  11   2.0000      -0.912107       -24.8197
  12   2.0000      -0.838761       -22.8238
  13   2.0000      -0.784235       -21.3401
  14   2.0000      -0.709735       -19.3129
  15   2.0000      -0.694374       -18.8949
  16   2.0000      -0.648688       -17.6517
  17   2.0000      -0.631136       -17.1741
  18   2.0000      -0.617811       -16.8115
  19   2.0000      -0.599440       -16.3116
  20   2.0000      -0.591833       -16.1046
  21   2.0000      -0.553442       -15.0599
  22   2.0000      -0.523169       -14.2362
  23   2.0000      -0.505733       -13.7617
  24   2.0000      -0.492740       -13.4081
  25   2.0000      -0.469044       -12.7633
  26   2.0000      -0.448011       -12.1910
  27   2.0000      -0.430695       -11.7198
  28   2.0000      -0.418156       -11.3786
  29   2.0000      -0.408340       -11.1115
  30   2.0000      -0.348867        -9.4932
  31   2.0000      -0.244401        -6.6505
  32   0.0000       0.066882         1.8199
  33   0.0000       0.082240         2.2379
  34   0.0000       0.090789         2.4705
  35   0.0000       0.093883         2.5547
  36   0.0000       0.109550         2.9810

MULLIKEN ATOMIC CHARGES
-----------------------
   0 C :   -0.371708
   1 C :   -1.151330
   2 C :   -0.453025
   3 C :   -0.274210
   4 H :    0.278373
   5 H :    0.252751
   6 F :   -0.378078
   7 C :    0.722149
   8 N :   -0.390811
   9 N :   -0.503918
  10 H :    0.198965
  11 H :    0.191747
  12 H :    0.364624
  13 H :    0.269813
  14 H :    0.162227
  15 H :    0.262374
  16 H :    0.249816
  17 H :    0.325089
  18 H :    0.245153
Sum of atomic charges:    0.0000000

LOEWDIN ATOMIC CHARGES
----------------------
   0 C :   -0.234201
   1 C :   -0.135341
   2 C :   -0.176310
   3 C :   -0.217442
   4 H :    0.119985
   5 H :    0.132124
   6 F :   -0.029175
   7 C :   -0.540157
   8 N :    0.145314
   9 N :    0.096192
  10 H :    0.103805
  11 H :    0.088077
  12 H :    0.062423
  13 H :    0.030297
  14 H :    0.112184
  15 H :    0.108815
  16 H :    0.109578
  17 H :    0.119379
  18 H :    0.104452

  Mayer bond orders larger than 0.100000
B(  0-C ,  1-C ) :   0.8381 B(  0-C ,  2-C ) :   0.7633 B(  0-C , 15-H ) :   0.9378
B(  0-C , 16-H ) :   1.0761 B(  1-C ,  2-C ) :   0.2072 B(  1-C ,  3-C ) :   0.1666
B(  1-C ,  7-C ) :   1.2566 B(  1-C ,  8-N ) :   0.1357 B(  1-C ,  9-N ) :   0.1263
B(  1-C , 12-H ) :   0.9399 B(  2-C ,  3-C ) :   0.9941 B(  2-C , 17-H ) :   0.9341
B(  2-C , 18-H ) :   0.9315 B(  3-C ,  4-H ) :   0.9390 B(  3-C ,  5-H ) :   0.9663
B(  3-C ,  6-F ) :   0.7487 B(  7-C ,  8-N ) :   1.0371 B(  7-C ,  9-N ) :   0.8918
B(  7-C , 12-H ) :  -0.1529 B(  8-N , 13-H ) :   0.8527 B(  8-N , 14-H ) :   1.0314
B(  9-N , 10-H ) :   0.9792 B(  9-N , 11-H ) :   1.0104

Dispersion correction           -0.006125443
FINAL SINGLE POINT ENERGY      -406.505779898904

DIPOLE MOMENT
-------------
                                X             Y             Z
Electronic contribution:     -3.35236       3.98882       0.77828
Nuclear contribution   :      2.63975      -4.51113      -0.34926
                        -----------------------------------------
Total Dipole Moment    :     -0.71262      -0.52231       0.42902
                        -----------------------------------------
Magnitude (a.u.)       :      0.98218
Magnitude (Debye)      :      2.49651

Rotational constants in cm-1:     0.109429     0.049838     0.039337
Rotational constants in MHz :  3280.611039  1494.113088  1179.280063

                             ****ORCA TERMINATED NORMALLY****
TOTAL RUN TIME: 0 days 0 hours 0 minutes 40 seconds 91 msec
