                         Program Version 5.0.0 -  RELEASE  -
|  1> !wB97X-D3 RIJCOSX def2-TZVPD def2/J TightSCF xyzfile
|  2>
|  3> *xyzfile 0 1 D2.xyz
|  4>
|  5> %MaxCore 64000
|  6>
|  7> %pal nprocs 18
|  8> end
|  9>
| 10> %scf
| 11>   MaxIter 150
| 12> end
| 13>
| 14>
| 15>                          ****END OF INPUT****

CARTESIAN COORDINATES (ANGSTROEM)
---------------------------------
  C      4.999862   -1.596133   -5.924876
  N      5.281560   -1.974132   -4.535764
  C      3.766779   -2.266110   -6.511752
  C      2.496702   -1.844161   -5.735704
  H      1.626416   -2.217434   -6.308950
  H      2.481824   -2.456069   -4.793414
  F      2.459729   -0.509204   -5.505757
  C      4.792500   -1.361316   -3.457295
  C      3.939898   -0.374925   -3.557359
  N      5.259860   -1.754224   -2.239133
  H      5.922824   -2.521451   -2.186720
  H      4.654678   -1.640404   -1.442016
  H      5.709139   -2.875599   -4.387021
  H      3.330101   -0.317639   -4.361247
  H      3.698494    0.114468   -2.708333
  H      4.843333   -0.517930   -5.943019
  H      5.901695   -1.822503   -6.496467
  H      3.886191   -3.357076   -6.533604
  H      3.685602   -1.922168   -7.547128

 Total Charge           Charge          ....    0
 Multiplicity           Mult            ....    1
 Number of Electrons    NEL             ....   64
 Basis Dimension        Dim             ....  398

ORBITAL ENERGIES
----------------

  NO   OCC          E(Eh)            E(eV)
   0   2.0000     -24.784757      -674.4275
   1   2.0000     -14.420365      -392.3981
   2   2.0000     -14.410641      -392.1335
   3   2.0000     -10.357530      -281.8427
   4   2.0000     -10.309417      -280.5335
   5   2.0000     -10.308650      -280.5126
   6   2.0000     -10.285515      -279.8831
   7   2.0000     -10.159130      -276.4440
   8   2.0000      -1.342327       -36.5266
   9   2.0000      -1.075020       -29.2528
  10   2.0000      -0.991065       -26.9683
  11   2.0000      -0.900969       -24.5166
  12   2.0000      -0.825514       -22.4634
  13   2.0000      -0.806111       -21.9354
  14   2.0000      -0.722962       -19.6728
  15   2.0000      -0.674499       -18.3540
  16   2.0000      -0.652349       -17.7513
  17   2.0000      -0.620477       -16.8840
  18   2.0000      -0.618118       -16.8198
  19   2.0000      -0.599342       -16.3089
  20   2.0000      -0.585140       -15.9225
  21   2.0000      -0.556071       -15.1315
  22   2.0000      -0.526324       -14.3220
  23   2.0000      -0.507352       -13.8058
  24   2.0000      -0.484416       -13.1816
  25   2.0000      -0.475402       -12.9363
  26   2.0000      -0.454833       -12.3766
  27   2.0000      -0.439870       -11.9695
  28   2.0000      -0.429337       -11.6829
  29   2.0000      -0.400737       -10.9046
  30   2.0000      -0.339883        -9.2487
  31   2.0000      -0.249603        -6.7920
  32   0.0000       0.061563         1.6752
  33   0.0000       0.081529         2.2185
  34   0.0000       0.086964         2.3664
  35   0.0000       0.092089         2.5059
  36   0.0000       0.109287         2.9739

MULLIKEN ATOMIC CHARGES
-----------------------
   0 C :   -0.756678
   1 N :   -0.188670
   2 C :   -0.353540
   3 C :   -0.312008
   4 H :    0.275264
   5 H :    0.278642
   6 F :   -0.313207
   7 C :    0.834623
   8 C :   -1.583856
   9 N :   -0.487566
  10 H :    0.179565
  11 H :    0.218911
  12 H :    0.208556
  13 H :    0.431893
  14 H :    0.369003
  15 H :    0.379439
  16 H :    0.276892
  17 H :    0.263641
  18 H :    0.279098
Sum of atomic charges:   -0.0000000

LOEWDIN ATOMIC CHARGES
----------------------
   0 C :   -0.185665
   1 N :    0.018101
   2 C :   -0.160161
   3 C :   -0.221145
   4 H :    0.119657
   5 H :    0.131491
   6 F :   -0.047184
   7 C :   -0.549789
   8 C :    0.019919
   9 N :    0.097491
  10 H :    0.092418
  11 H :    0.098927
  12 H :    0.133414
  13 H :   -0.038065
  14 H :    0.027776
  15 H :    0.121125
  16 H :    0.116981
  17 H :    0.115535
  18 H :    0.109173

  Mayer bond orders larger than 0.100000
B(  0-C ,  1-N ) :   0.9995 B(  0-C ,  2-C ) :   0.8909 B(  0-C ,  8-C ) :   0.1335
B(  0-C , 15-H ) :   0.8347 B(  0-C , 16-H ) :   0.9543 B(  1-N ,  7-C ) :   1.0413
B(  1-N , 12-H ) :   0.9670 B(  2-C ,  3-C ) :   1.0169 B(  2-C , 17-H ) :   0.9588
B(  2-C , 18-H ) :   0.9255 B(  3-C ,  4-H ) :   0.9428 B(  3-C ,  5-H ) :   0.9448
B(  3-C ,  6-F ) :   0.7861 B(  3-C ,  8-C ) :   0.1130 B(  6-F , 13-H ) :  -0.2380
B(  7-C ,  8-C ) :   0.9975 B(  7-C ,  9-N ) :   0.9071 B(  7-C , 14-H ) :  -0.1111
B(  8-C , 13-H ) :   0.9320 B(  8-C , 14-H ) :   1.0486 B(  9-N , 10-H ) :   1.0021
B(  9-N , 11-H ) :   0.9716

Dispersion correction           -0.006084770
FINAL SINGLE POINT ENERGY      -406.474723536481

DIPOLE MOMENT
-------------
                                X             Y             Z
Electronic contribution:     -2.28652       2.69294      -0.16520
Nuclear contribution   :      2.43398      -4.26587      -0.19921
                        -----------------------------------------
Total Dipole Moment    :      0.14747      -1.57293      -0.36441
                        -----------------------------------------
Magnitude (a.u.)       :      1.62131
Magnitude (Debye)      :      4.12104

Rotational constants in cm-1:     0.110089     0.049944     0.039407
Rotational constants in MHz :  3300.378855  1497.273856  1181.385913

                             ****ORCA TERMINATED NORMALLY****
TOTAL RUN TIME: 0 days 0 hours 0 minutes 53 seconds 677 msec
