                         Program Version 5.0.0 -  RELEASE  -
|  1> !DLPNO-CCSD(T) aug-cc-pVTZ aug-cc-pVTZ/C TightSCF TightPNO RIJCOSX def2/J
|  2> *xyz -1 1
|  3> C         -0.95121        1.33498       -0.97250
|  4> C         -0.77455        2.78833       -0.54394
|  5> H         -1.35261        3.45937       -1.19259
|  6> H         -1.17101        2.90233        0.46997
|  7> C          0.69721        3.22791       -0.52513
|  8> O          1.48929        2.37470        0.19919
|  9> H          0.71600        4.26403       -0.13077
| 10> H          1.03615        3.33092       -1.58367
| 11> H         -0.56808        1.20618       -1.96322
| 12> H         -1.99081        1.08225       -0.95647
| 13> H         -0.41866        0.69710       -0.29841
| 14> *
| 15>
| 16> %MaxCore 64000
| 17> %pal nprocs 8
| 18> end
| 19>
| 20> %scf
| 21>   MaxIter 150
| 22> end
| 23>
| 24>
| 25>                          ****END OF INPUT****

CARTESIAN COORDINATES (ANGSTROEM)
---------------------------------
  C     -0.951210    1.334980   -0.972500
  C     -0.774550    2.788330   -0.543940
  H     -1.352610    3.459370   -1.192590
  H     -1.171010    2.902330    0.469970
  C      0.697210    3.227910   -0.525130
  O      1.489290    2.374700    0.199190
  H      0.716000    4.264030   -0.130770
  H      1.036150    3.330920   -1.583670
  H     -0.568080    1.206180   -1.963220
  H     -1.990810    1.082250   -0.956470
  H     -0.418660    0.697100   -0.298410

 Total Charge           Charge          ....   -1
 Multiplicity           Mult            ....    1
 Number of Electrons    NEL             ....   34
 Basis Dimension        Dim             ....  345

ORBITAL ENERGIES
----------------

  NO   OCC          E(Eh)            E(eV)
   0   2.0000     -20.206841      -549.8561
   1   2.0000     -11.038726      -300.3790
   2   2.0000     -11.035163      -300.2821
   3   2.0000     -11.029543      -300.1291
   4   2.0000      -0.998367       -27.1669
   5   2.0000      -0.849995       -23.1295
   6   2.0000      -0.705842       -19.2069
   7   2.0000      -0.573053       -15.5936
   8   2.0000      -0.439068       -11.9476
   9   2.0000      -0.426266       -11.5993
  10   2.0000      -0.369572       -10.0566
  11   2.0000      -0.337269        -9.1775
  12   2.0000      -0.303104        -8.2479
  13   2.0000      -0.291658        -7.9364
  14   2.0000      -0.257346        -7.0027
  15   2.0000      -0.116616        -3.1733
  16   2.0000      -0.113426        -3.0865
  17   0.0000       0.122821         3.3421
  18   0.0000       0.134471         3.6591
  19   0.0000       0.137728         3.7478
  20   0.0000       0.148651         4.0450
  21   0.0000       0.154985         4.2174

MULLIKEN ATOMIC CHARGES
-----------------------
   0 C :   -0.943078
   1 C :   -0.489214
   2 H :    0.231556
   3 H :    0.247974
   4 C :   -0.181836
   5 O :   -1.140287
   6 H :    0.208001
   7 H :    0.180756
   8 H :    0.307740
   9 H :    0.246684
  10 H :    0.331703
Sum of atomic charges:   -1.0000000

LOEWDIN ATOMIC CHARGES
----------------------
   0 C :    0.537920
   1 C :    0.174256
   2 H :   -0.182925
   3 H :   -0.179481
   4 C :   -0.393633
   5 O :    0.124195
   6 H :   -0.231895
   7 H :   -0.221707
   8 H :   -0.199273
   9 H :   -0.216250
  10 H :   -0.211206

  Mayer bond orders larger than 0.100000
B(  0-C ,  1-C ) :   0.7993 B(  0-C ,  8-H ) :   0.9143 B(  0-C ,  9-H ) :   1.0037
B(  0-C , 10-H ) :   0.9121 B(  1-C ,  2-H ) :   0.9566 B(  1-C ,  3-H ) :   0.9595
B(  1-C ,  4-C ) :   0.8653 B(  4-C ,  5-O ) :   1.1201 B(  4-C ,  6-H ) :   1.0301
B(  4-C ,  7-H ) :   1.0070

E(0)                                       ...   -192.559172495
E(0)                                       ...   -192.559172495
E(CORR)(strong-pairs)                      ...     -0.838679864
E(CORR)(weak-pairs)                        ...     -0.000686630
E(CORR)(corrected)                         ...     -0.839366493
E(TOT)                                     ...   -193.398538988
E(CCSD(T))                                 ...   -193.432624564
FINAL SINGLE POINT ENERGY      -193.432624563900

DIPOLE MOMENT
-------------
                                X             Y             Z
Electronic contribution:      2.41896       0.05205       1.39702
Nuclear contribution   :     -4.35230      -0.04018      -2.29108
                        -----------------------------------------
Total Dipole Moment    :     -1.93335       0.01187      -0.89406
                        -----------------------------------------
Magnitude (a.u.)       :      2.13010
Magnitude (Debye)      :      5.41428

Rotational constants in cm-1:     0.489965     0.184028     0.151025
Rotational constants in MHz : 14688.769521  5517.006179  4527.605157

                             ****ORCA TERMINATED NORMALLY****
TOTAL RUN TIME: 0 days 0 hours 4 minutes 58 seconds 951 msec
