                         Program Version 5.0.0 -  RELEASE  -
|  1> !DLPNO-CCSD(T) aug-cc-pVTZ aug-cc-pVTZ/C TightSCF TightPNO RIJCOSX def2/J
|  2> *xyz 1 1
|  3> C          3.95643        0.50147       -0.37910
|  4> H          3.16840        0.02920        0.20738
|  5> N          3.80389        1.96157       -0.15675
|  6> C          3.84232        0.14849       -1.85406
|  7> H          4.92323        0.17798        0.00937
|  8> H          4.62002        0.69450       -2.40215
|  9> H          4.09601       -0.91093       -1.95510
| 10> C          2.47562        0.41271       -2.48538
| 11> H          4.20643        2.24441        0.74536
| 12> H          2.80827        2.21132       -0.09610
| 13> H          4.28076        2.50155       -0.89104
| 14> H          2.49958        0.13290       -3.51787
| 15> H          2.23992        1.45318       -2.40319
| 16> H          1.73061       -0.16300       -1.97702
| 17> *
| 18>
| 19> %MaxCore 64000
| 20> %pal nprocs 8
| 21> end
| 22>
| 23> %scf
| 24>   MaxIter 150
| 25> end
| 26>
| 27>
| 28>                          ****END OF INPUT****

CARTESIAN COORDINATES (ANGSTROEM)
---------------------------------
  C      3.956430    0.501470   -0.379100
  H      3.168400    0.029200    0.207380
  N      3.803890    1.961570   -0.156750
  C      3.842320    0.148490   -1.854060
  H      4.923230    0.177980    0.009370
  H      4.620020    0.694500   -2.402150
  H      4.096010   -0.910930   -1.955100
  C      2.475620    0.412710   -2.485380
  H      4.206430    2.244410    0.745360
  H      2.808270    2.211320   -0.096100
  H      4.280760    2.501550   -0.891040
  H      2.499580    0.132900   -3.517870
  H      2.239920    1.453180   -2.403190
  H      1.730610   -0.163000   -1.977020

 Total Charge           Charge          ....    1
 Multiplicity           Mult            ....    1
 Number of Electrons    NEL             ....   34
 Basis Dimension        Dim             ....  414

ORBITAL ENERGIES
----------------

  NO   OCC          E(Eh)            E(eV)
   0   2.0000     -15.896660      -432.5701
   1   2.0000     -11.473704      -312.2154
   2   2.0000     -11.400518      -310.2239
   3   2.0000     -11.365554      -309.2724
   4   2.0000      -1.517393       -41.2904
   5   2.0000      -1.240972       -33.7686
   6   2.0000      -1.125200       -30.6182
   7   2.0000      -1.008138       -27.4328
   8   2.0000      -0.972811       -26.4715
   9   2.0000      -0.959286       -26.1035
  10   2.0000      -0.854073       -23.2405
  11   2.0000      -0.793299       -21.5868
  12   2.0000      -0.767007       -20.8713
  13   2.0000      -0.740364       -20.1463
  14   2.0000      -0.668299       -18.1853
  15   2.0000      -0.660823       -17.9819
  16   2.0000      -0.656366       -17.8606
  17   0.0000      -0.115440        -3.1413
  18   0.0000      -0.081544        -2.2189
  19   0.0000      -0.079678        -2.1681
  20   0.0000      -0.068888        -1.8745
  21   0.0000      -0.046667        -1.2699

MULLIKEN ATOMIC CHARGES
-----------------------
   0 C :   -0.326205
   1 H :    0.353401
   2 N :    0.107016
   3 C :   -0.446908
   4 H :    0.330179
   5 H :    0.273924
   6 H :    0.343524
   7 C :   -0.923703
   8 H :    0.084628
   9 H :    0.173410
  10 H :    0.140123
  11 H :    0.325646
  12 H :    0.285147
  13 H :    0.279815
Sum of atomic charges:    1.0000000

LOEWDIN ATOMIC CHARGES
----------------------
   0 C :    0.331913
   1 H :   -0.110134
   2 N :    1.096488
   3 C :    0.309288
   4 H :   -0.106201
   5 H :   -0.133615
   6 H :   -0.124070
   7 C :    0.630409
   8 H :   -0.122961
   9 H :   -0.129138
  10 H :   -0.127857
  11 H :   -0.159290
  12 H :   -0.185384
  13 H :   -0.169450

  Mayer bond orders larger than 0.100000
B(  0-C ,  1-H ) :   0.8854 B(  0-C ,  2-N ) :   0.7952 B(  0-C ,  3-C ) :   0.8884
B(  0-C ,  4-H ) :   0.9151 B(  2-N ,  8-H ) :   1.0690 B(  2-N ,  9-H ) :   0.9838
B(  2-N , 10-H ) :   0.9867 B(  3-C ,  5-H ) :   0.9488 B(  3-C ,  6-H ) :   0.8931
B(  3-C ,  7-C ) :   0.8283 B(  7-C , 11-H ) :   0.9458 B(  7-C , 12-H ) :   0.9387
B(  7-C , 13-H ) :   0.9562

E(0)                                       ...   -173.720280041
E(0)                                       ...   -173.720280041
E(CORR)(strong-pairs)                      ...     -0.802590466
E(CORR)(weak-pairs)                        ...     -0.000701053
E(CORR)(corrected)                         ...     -0.803291519
E(TOT)                                     ...   -174.523571560
E(CCSD(T))                                 ...   -174.552029184
FINAL SINGLE POINT ENERGY      -174.552029184486

DIPOLE MOMENT
-------------
                                X             Y             Z
Electronic contribution:      1.01858       1.18067       1.85271
Nuclear contribution   :     -0.57302       0.26376      -0.39709
                        -----------------------------------------
Total Dipole Moment    :      0.44556       1.44444       1.45561
                        -----------------------------------------
Magnitude (a.u.)       :      2.09850
Magnitude (Debye)      :      5.33398

Rotational constants in cm-1:     0.449370     0.157244     0.134525
Rotational constants in MHz : 13471.775278  4714.062641  4032.958796

                             ****ORCA TERMINATED NORMALLY****
TOTAL RUN TIME: 0 days 0 hours 5 minutes 41 seconds 72 msec
