                         Program Version 5.0.0 -  RELEASE  -
|  1> !DLPNO-CCSD(T) aug-cc-pVTZ aug-cc-pVTZ/C TightSCF TightPNO RIJCOSX def2/J
|  2> *xyz 0 1
|  3> C         -0.95121        1.33498       -0.97250
|  4> C         -0.77455        2.78833       -0.54394
|  5> H         -1.35261        3.45937       -1.19259
|  6> H         -1.17101        2.90233        0.46997
|  7> C          0.69721        3.22791       -0.52513
|  8> F          1.48929        2.37470        0.19919
|  9> H          0.71600        4.26403       -0.13077
| 10> H          1.03615        3.33092       -1.58367
| 11> H         -0.56808        1.20618       -1.96322
| 12> H         -1.99081        1.08225       -0.95647
| 13> H         -0.41866        0.69710       -0.29841
| 14> *
| 15>
| 16> %MaxCore 64000
| 17> %pal nprocs 8
| 18> end
| 19>
| 20> %scf
| 21>   MaxIter 150
| 22> end
| 23>
| 24>
| 25>                          ****END OF INPUT****

CARTESIAN COORDINATES (ANGSTROEM)
---------------------------------
  C     -0.951210    1.334980   -0.972500
  C     -0.774550    2.788330   -0.543940
  H     -1.352610    3.459370   -1.192590
  H     -1.171010    2.902330    0.469970
  C      0.697210    3.227910   -0.525130
  F      1.489290    2.374700    0.199190
  H      0.716000    4.264030   -0.130770
  H      1.036150    3.330920   -1.583670
  H     -0.568080    1.206180   -1.963220
  H     -1.990810    1.082250   -0.956470
  H     -0.418660    0.697100   -0.298410

 Total Charge           Charge          ....    0
 Multiplicity           Mult            ....    1
 Number of Electrons    NEL             ....   34
 Basis Dimension        Dim             ....  345

ORBITAL ENERGIES
----------------

  NO   OCC          E(Eh)            E(eV)
   0   2.0000     -26.283928      -715.2220
   1   2.0000     -11.309031      -307.7344
   2   2.0000     -11.229534      -305.5712
   3   2.0000     -11.207132      -304.9616
   4   2.0000      -1.595666       -43.4203
   5   2.0000      -1.063012       -28.9260
   6   2.0000      -0.938553       -25.5393
   7   2.0000      -0.816699       -22.2235
   8   2.0000      -0.704726       -19.1766
   9   2.0000      -0.700018       -19.0485
  10   2.0000      -0.665758       -18.1162
  11   2.0000      -0.608643       -16.5620
  12   2.0000      -0.575718       -15.6661
  13   2.0000      -0.537164       -14.6170
  14   2.0000      -0.503098       -13.6900
  15   2.0000      -0.474719       -12.9178
  16   2.0000      -0.473089       -12.8734
  17   0.0000       0.030239         0.8228
  18   0.0000       0.038683         1.0526
  19   0.0000       0.040298         1.0966
  20   0.0000       0.045684         1.2431
  21   0.0000       0.062557         1.7023

MULLIKEN ATOMIC CHARGES
-----------------------
   0 C :   -0.946841
   1 C :   -0.506416
   2 H :    0.295333
   3 H :    0.263666
   4 C :   -0.109211
   5 F :   -0.504358
   6 H :    0.312239
   7 H :    0.273767
   8 H :    0.319252
   9 H :    0.283102
  10 H :    0.319467
Sum of atomic charges:   -0.0000000

LOEWDIN ATOMIC CHARGES
----------------------
   0 C :    0.585083
   1 C :    0.244153
   2 H :   -0.146115
   3 H :   -0.159322
   4 C :   -0.104878
   5 F :    0.466245
   6 H :   -0.167029
   7 H :   -0.156856
   8 H :   -0.185857
   9 H :   -0.186155
  10 H :   -0.189268

  Mayer bond orders larger than 0.100000
B(  0-C ,  1-C ) :   0.8207 B(  0-C ,  8-H ) :   0.9026 B(  0-C ,  9-H ) :   0.9805
B(  0-C , 10-H ) :   0.9251 B(  1-C ,  2-H ) :   0.9158 B(  1-C ,  3-H ) :   0.9475
B(  1-C ,  4-C ) :   0.9218 B(  4-C ,  5-F ) :   0.6311 B(  4-C ,  6-H ) :   0.9450
B(  4-C ,  7-H ) :   0.9497

E(0)                                       ...   -217.194749040
E(0)                                       ...   -217.194749040
E(CORR)(strong-pairs)                      ...     -0.831923046
E(CORR)(weak-pairs)                        ...     -0.000652179
E(CORR)(corrected)                         ...     -0.832575224
E(TOT)                                     ...   -218.027324265
E(CCSD(T))                                 ...   -218.056077750
FINAL SINGLE POINT ENERGY      -218.056077749821

DIPOLE MOMENT
-------------
                                X             Y             Z
Electronic contribution:      5.47989       0.38455       2.71042
Nuclear contribution   :     -6.00193       0.02246      -3.08821
                        -----------------------------------------
Total Dipole Moment    :     -0.52204       0.40702      -0.37778
                        -----------------------------------------
Magnitude (a.u.)       :      0.76217
Magnitude (Debye)      :      1.93729

Rotational constants in cm-1:     0.475356     0.173608     0.142756
Rotational constants in MHz : 14250.818869  5204.623090  4279.716550

                             ****ORCA TERMINATED NORMALLY****
TOTAL RUN TIME: 0 days 0 hours 3 minutes 34 seconds 543 msec
