                         Program Version 5.0.0 -  RELEASE  -
|  1> !DLPNO-CCSD(T) aug-cc-pVTZ aug-cc-pVTZ/C TightSCF TightPNO RIJCOSX def2/J
|  2> *xyz 0 1
|  3> C          3.95643        0.50147       -0.37910
|  4> H          3.16840        0.02920        0.20738
|  5> C          3.80389        1.96157       -0.15675
|  6> C          3.84232        0.14849       -1.85406
|  7> H          4.92323        0.17798        0.00937
|  8> H          4.62002        0.69450       -2.40215
|  9> H          4.09601       -0.91093       -1.95510
| 10> C          2.47562        0.41271       -2.48538
| 11> H          4.20643        2.24441        0.74536
| 12> H          2.80827        2.21132       -0.09610
| 13> H          4.28076        2.50155       -0.89104
| 14> H          2.49958        0.13290       -3.51787
| 15> H          2.23992        1.45318       -2.40319
| 16> H          1.73061       -0.16300       -1.97702
| 17> *
| 18>
| 19> %MaxCore 64000
| 20> %pal nprocs 8
| 21> end
| 22>
| 23> %scf
| 24>   MaxIter 150
| 25> end
| 26>
| 27>
| 28>                          ****END OF INPUT****

CARTESIAN COORDINATES (ANGSTROEM)
---------------------------------
  C      3.956430    0.501470   -0.379100
  H      3.168400    0.029200    0.207380
  C      3.803890    1.961570   -0.156750
  C      3.842320    0.148490   -1.854060
  H      4.923230    0.177980    0.009370
  H      4.620020    0.694500   -2.402150
  H      4.096010   -0.910930   -1.955100
  C      2.475620    0.412710   -2.485380
  H      4.206430    2.244410    0.745360
  H      2.808270    2.211320   -0.096100
  H      4.280760    2.501550   -0.891040
  H      2.499580    0.132900   -3.517870
  H      2.239920    1.453180   -2.403190
  H      1.730610   -0.163000   -1.977020

 Total Charge           Charge          ....    0
 Multiplicity           Mult            ....    1
 Number of Electrons    NEL             ....   34
 Basis Dimension        Dim             ....  414

ORBITAL ENERGIES
----------------

  NO   OCC          E(Eh)            E(eV)
   0   2.0000     -11.210765      -305.0604
   1   2.0000     -11.205413      -304.9148
   2   2.0000     -11.200660      -304.7855
   3   2.0000     -11.177487      -304.1549
   4   2.0000      -1.080540       -29.4030
   5   2.0000      -0.988805       -26.9067
   6   2.0000      -0.880265       -23.9532
   7   2.0000      -0.778130       -21.1740
   8   2.0000      -0.634255       -17.2590
   9   2.0000      -0.628563       -17.1041
  10   2.0000      -0.586456       -15.9583
  11   2.0000      -0.545091       -14.8327
  12   2.0000      -0.532128       -14.4799
  13   2.0000      -0.509868       -13.8742
  14   2.0000      -0.463005       -12.5990
  15   2.0000      -0.457598       -12.4519
  16   2.0000      -0.455356       -12.3909
  17   0.0000       0.032787         0.8922
  18   0.0000       0.038581         1.0499
  19   0.0000       0.039907         1.0859
  20   0.0000       0.041476         1.1286
  21   0.0000       0.058070         1.5802

MULLIKEN ATOMIC CHARGES
-----------------------
   0 C :   -0.383853
   1 H :    0.279918
   2 C :   -1.041352
   3 C :   -0.408675
   4 H :    0.242592
   5 H :    0.218832
   6 H :    0.289250
   7 C :   -0.974801
   8 H :    0.289662
   9 H :    0.299793
  10 H :    0.327572
  11 H :    0.298977
  12 H :    0.306433
  13 H :    0.255652
Sum of atomic charges:   -0.0000000

LOEWDIN ATOMIC CHARGES
----------------------
   0 C :    0.265878
   1 H :   -0.141113
   2 C :    0.601618
   3 C :    0.264422
   4 H :   -0.137958
   5 H :   -0.144258
   6 H :   -0.150671
   7 C :    0.603155
   8 H :   -0.204392
   9 H :   -0.204420
  10 H :   -0.201150
  11 H :   -0.182722
  12 H :   -0.188469
  13 H :   -0.179920

  Mayer bond orders larger than 0.100000
B(  0-C ,  1-H ) :   0.9422 B(  0-C ,  2-C ) :   0.7827 B(  0-C ,  3-C ) :   0.8327
B(  0-C ,  4-H ) :   0.9915 B(  2-C ,  8-H ) :   0.9762 B(  2-C ,  9-H ) :   0.9646
B(  2-C , 10-H ) :   0.9298 B(  3-C ,  5-H ) :   0.9914 B(  3-C ,  6-H ) :   0.9511
B(  3-C ,  7-C ) :   0.8016 B(  7-C , 11-H ) :   0.9641 B(  7-C , 12-H ) :   0.9288
B(  7-C , 13-H ) :   0.9851

E(0)                                       ...   -157.342732619
E(0)                                       ...   -157.342732619
E(CORR)(strong-pairs)                      ...     -0.777624516
E(CORR)(weak-pairs)                        ...     -0.000695969
E(CORR)(corrected)                         ...     -0.778320485
E(TOT)                                     ...   -158.121053104
E(CCSD(T))                                 ...   -158.149156554
FINAL SINGLE POINT ENERGY      -158.149156554176

DIPOLE MOMENT
-------------
                                X             Y             Z
Electronic contribution:      0.49112      -0.62007       0.09397
Nuclear contribution   :     -0.48267       0.62853      -0.07145
                        -----------------------------------------
Total Dipole Moment    :      0.00845       0.00846       0.02252
                        -----------------------------------------
Magnitude (a.u.)       :      0.02549
Magnitude (Debye)      :      0.06480

Rotational constants in cm-1:     0.457318     0.164089     0.140183
Rotational constants in MHz : 13710.038687  4919.250587  4202.581436

                             ****ORCA TERMINATED NORMALLY****
TOTAL RUN TIME: 0 days 0 hours 6 minutes 2 seconds 199 msec
