                         Program Version 5.0.0 -  RELEASE  -
|  1> !M062X D3Zero RIJCOSX def2-SVPD def2/J TightSCF
|  2> *xyz -1 1
|  3> C          0.61188        1.65763       -4.50029
|  4> C          1.69499        1.54179       -5.57045
|  5> H          2.69733        1.73466       -5.18400
|  6> H          1.50666        2.27224       -6.35808
|  7> S          1.78029       -0.03313       -6.42874
|  8> O          2.56929        0.21366       -7.60736
|  9> O          0.41688       -0.46297       -6.61859
| 10> C          0.68036        0.65542       -3.34804
| 11> H         -0.35687        1.54923       -4.99113
| 12> H          0.65023        2.67544       -4.09600
| 13> O          2.50513       -0.93326       -5.48257
| 14> H          0.64318       -0.34009       -3.73853
| 15> H         -0.14865        0.81153       -2.68980
| 16> H          1.59447        0.79330       -2.80925
| 17> *
| 18> %MaxCore 64000
| 19>
| 20> %pal nprocs 8
| 21> end
| 22>
| 23> %scf
| 24>   MaxIter 150
| 25> end
| 26>
| 27>
| 28>                          ****END OF INPUT****

CARTESIAN COORDINATES (ANGSTROEM)
---------------------------------
  C      0.611880    1.657630   -4.500290
  C      1.694990    1.541790   -5.570450
  H      2.697330    1.734660   -5.184000
  H      1.506660    2.272240   -6.358080
  S      1.780290   -0.033130   -6.428740
  O      2.569290    0.213660   -7.607360
  O      0.416880   -0.462970   -6.618590
  C      0.680360    0.655420   -3.348040
  H     -0.356870    1.549230   -4.991130
  H      0.650230    2.675440   -4.096000
  O      2.505130   -0.933260   -5.482570
  H      0.643180   -0.340090   -3.738530
  H     -0.148650    0.811530   -2.689800
  H      1.594470    0.793300   -2.809250

 Total Charge           Charge          ....   -1
 Multiplicity           Mult            ....    1
 Number of Electrons    NEL             ....   66
 Basis Dimension        Dim             ....  212

ORBITAL ENERGIES
----------------

  NO   OCC          E(Eh)            E(eV)
   0   2.0000     -89.938384     -2447.3478
   1   2.0000     -19.422712      -528.5189
   2   2.0000     -19.420888      -528.4692
   3   2.0000     -19.402376      -527.9655
   4   2.0000     -10.422134      -283.6007
   5   2.0000     -10.413861      -283.3756
   6   2.0000     -10.403147      -283.0840
   7   2.0000      -8.261761      -224.8139
   8   2.0000      -6.187171      -168.3615
   9   2.0000      -6.186887      -168.3537
  10   2.0000      -6.186573      -168.3452
  11   2.0000      -1.052430       -28.6381
  12   2.0000      -0.912630       -24.8339
  13   2.0000      -0.877159       -23.8687
  14   2.0000      -0.748631       -20.3713
  15   2.0000      -0.654172       -17.8009
  16   2.0000      -0.551718       -15.0130
  17   2.0000      -0.462835       -12.5944
  18   2.0000      -0.409538       -11.1441
  19   2.0000      -0.391007       -10.6398
  20   2.0000      -0.371476       -10.1084
  21   2.0000      -0.356784        -9.7086
  22   2.0000      -0.343093        -9.3360
  23   2.0000      -0.326685        -8.8896
  24   2.0000      -0.288376        -7.8471
  25   2.0000      -0.279279        -7.5996
  26   2.0000      -0.264359        -7.1936
  27   2.0000      -0.228742        -6.2244
  28   2.0000      -0.226441        -6.1618
  29   2.0000      -0.192835        -5.2473
  30   2.0000      -0.177442        -4.8284
  31   2.0000      -0.163687        -4.4542
  32   2.0000      -0.137626        -3.7450
  33   0.0000       0.152145         4.1401
  34   0.0000       0.171299         4.6613
  35   0.0000       0.176324         4.7980
  36   0.0000       0.184148         5.0109
  37   0.0000       0.202757         5.5173

MULLIKEN ATOMIC CHARGES
-----------------------
   0 C :   -0.281791
   1 C :    0.077900
   2 H :   -0.040412
   3 H :   -0.032206
   4 S :    1.400795
   5 O :   -0.852945
   6 O :   -0.822862
   7 C :    0.788750
   8 H :   -0.007325
   9 H :   -0.176841
  10 O :   -0.855056
  11 H :   -0.088091
  12 H :   -0.082320
  13 H :   -0.027595
Sum of atomic charges:   -1.0000000

LOEWDIN ATOMIC CHARGES
----------------------
   0 C :   -0.098098
   1 C :   -0.094302
   2 H :    0.009595
   3 H :    0.001145
   4 S :    0.893719
   5 O :   -0.585440
   6 O :   -0.579777
   7 C :    0.122945
   8 H :    0.013686
   9 H :    0.006595
  10 O :   -0.613049
  11 H :   -0.026866
  12 H :   -0.031871
  13 H :   -0.018281

  Mayer bond orders larger than 0.100000
B(  0-C ,  1-C ) :   1.2524 B(  0-C ,  2-H ) :   0.1241 B(  0-C ,  3-H ) :   0.1346
B(  0-C ,  7-C ) :   1.2694 B(  0-C ,  8-H ) :   0.8982 B(  0-C ,  9-H ) :   0.9125
B(  0-C , 11-H ) :   0.2380 B(  0-C , 12-H ) :   0.2128 B(  0-C , 13-H ) :   0.2306
B(  1-C ,  2-H ) :   0.9382 B(  1-C ,  3-H ) :   0.9172 B(  1-C ,  4-S ) :   0.8996
B(  1-C ,  8-H ) :   0.1368 B(  1-C ,  9-H ) :   0.1339 B(  4-S ,  5-O ) :   1.3190
B(  4-S ,  6-O ) :   1.2627 B(  4-S , 10-O ) :   1.2231 B(  7-C , 11-H ) :   0.8161
B(  7-C , 12-H ) :   0.7553 B(  7-C , 13-H ) :   0.7456

Dispersion correction           -0.000288038
FINAL SINGLE POINT ENERGY      -741.891380363918

DIPOLE MOMENT
-------------
                                X             Y             Z
Electronic contribution:      3.16251      -5.22691      -8.58423
Nuclear contribution   :     -3.81113       6.97418       9.97106
                        -----------------------------------------
Total Dipole Moment    :     -0.64863       1.74728       1.38682
                        -----------------------------------------
Magnitude (a.u.)       :      2.32314
Magnitude (Debye)      :      5.90495

Rotational constants in cm-1:     0.136135     0.055477     0.052562
Rotational constants in MHz :  4081.221574  1663.170947  1575.772362

                             ****ORCA TERMINATED NORMALLY****
TOTAL RUN TIME: 0 days 0 hours 0 minutes 14 seconds 785 msec
