                         Program Version 5.0.0 -  RELEASE  -
|  1> !M062X D3Zero RIJCOSX def2-SVPD def2/J TightSCF
|  2> *xyz 1 1
|  3> C          1.96337       -1.74915       -1.89689
|  4> N          2.73849       -2.01517       -3.09711
|  5> C          4.04974       -2.15472       -3.15204
|  6> N          4.65821       -1.98629       -4.31866
|  7> N          4.76423       -2.45444       -2.05049
|  8> H          4.28736       -2.77626       -1.21750
|  9> H          5.75082       -2.65835       -2.12599
| 10> H          2.34518       -1.69027       -3.97145
| 11> H          4.10900       -1.59268       -5.07176
| 12> H          5.64910       -2.15646       -4.42724
| 13> C          2.08852       -0.30091       -1.41520
| 14> H          2.23127       -2.45162       -1.10264
| 15> H          0.93025       -1.97780       -2.15544
| 16> C          1.96899        0.73358       -2.53565
| 17> H          3.05136       -0.16860       -0.91187
| 18> H          1.31650       -0.13623       -0.65725
| 19> H          2.73046        0.55745       -3.26643
| 20> H          2.08619        1.71595       -2.12808
| 21> H          1.00672        0.65098       -2.99620
| 22> *
| 23> %MaxCore 64000
| 24>
| 25> %pal nprocs 8
| 26> end
| 27>
| 28> %scf
| 29>   MaxIter 150
| 30> end
| 31>
| 32>
| 33>                          ****END OF INPUT****

CARTESIAN COORDINATES (ANGSTROEM)
---------------------------------
  C      1.963370   -1.749150   -1.896890
  N      2.738490   -2.015170   -3.097110
  C      4.049740   -2.154720   -3.152040
  N      4.658210   -1.986290   -4.318660
  N      4.764230   -2.454440   -2.050490
  H      4.287360   -2.776260   -1.217500
  H      5.750820   -2.658350   -2.125990
  H      2.345180   -1.690270   -3.971450
  H      4.109000   -1.592680   -5.071760
  H      5.649100   -2.156460   -4.427240
  C      2.088520   -0.300910   -1.415200
  H      2.231270   -2.451620   -1.102640
  H      0.930250   -1.977800   -2.155440
  C      1.968990    0.733580   -2.535650
  H      3.051360   -0.168600   -0.911870
  H      1.316500   -0.136230   -0.657250
  H      2.730460    0.557450   -3.266430
  H      2.086190    1.715950   -2.128080
  H      1.006720    0.650980   -2.996200

 Total Charge           Charge          ....    1
 Multiplicity           Mult            ....    1
 Number of Electrons    NEL             ....   56
 Basis Dimension        Dim             ....  236

ORBITAL ENERGIES
----------------

  NO   OCC          E(Eh)            E(eV)
   0   2.0000     -14.986464      -407.8024
   1   2.0000     -14.983821      -407.7305
   2   2.0000     -14.983373      -407.7183
   3   2.0000     -10.890141      -296.3358
   4   2.0000     -10.754763      -292.6520
   5   2.0000     -10.693263      -290.9785
   6   2.0000     -10.670622      -290.3624
   7   2.0000      -1.319346       -35.9012
   8   2.0000      -1.199201       -32.6319
   9   2.0000      -1.185313       -32.2540
  10   2.0000      -1.029502       -28.0142
  11   2.0000      -0.950405       -25.8618
  12   2.0000      -0.906016       -24.6539
  13   2.0000      -0.861859       -23.4524
  14   2.0000      -0.847084       -23.0503
  15   2.0000      -0.802366       -21.8335
  16   2.0000      -0.763732       -20.7822
  17   2.0000      -0.755952       -20.5705
  18   2.0000      -0.731430       -19.9032
  19   2.0000      -0.696851       -18.9623
  20   2.0000      -0.669636       -18.2217
  21   2.0000      -0.654426       -17.8078
  22   2.0000      -0.614781       -16.7290
  23   2.0000      -0.571065       -15.5395
  24   2.0000      -0.556366       -15.1395
  25   2.0000      -0.546135       -14.8611
  26   2.0000      -0.535489       -14.5714
  27   2.0000      -0.505631       -13.7589
  28   0.0000      -0.132711        -3.6113
  29   0.0000      -0.130100        -3.5402
  30   0.0000      -0.101144        -2.7523
  31   0.0000      -0.089703        -2.4410
  32   0.0000      -0.063431        -1.7260

MULLIKEN ATOMIC CHARGES
-----------------------
   0 C :    0.761694
   1 N :   -0.510560
   2 C :    1.521437
   3 N :   -0.195812
   4 N :   -0.062426
   5 H :   -0.012132
   6 H :   -0.153856
   7 H :   -0.121448
   8 H :    0.033814
   9 H :   -0.090143
  10 C :   -0.323060
  11 H :   -0.090568
  12 H :   -0.248565
  13 C :    0.750599
  14 H :   -0.008616
  15 H :   -0.080589
  16 H :   -0.139836
  17 H :   -0.061258
  18 H :    0.031327
Sum of atomic charges:    1.0000000

LOEWDIN ATOMIC CHARGES
----------------------
   0 C :    0.078693
   1 N :    0.033466
   2 C :   -0.026922
   3 N :    0.260309
   4 N :    0.276196
   5 H :    0.022970
   6 H :    0.037694
   7 H :    0.052121
   8 H :    0.039495
   9 H :    0.044865
  10 C :   -0.046260
  11 H :    0.027344
  12 H :    0.043122
  13 C :    0.137955
  14 H :    0.021380
  15 H :    0.037545
  16 H :   -0.034017
  17 H :   -0.000750
  18 H :   -0.005204

  Mayer bond orders larger than 0.100000
B(  0-C ,  1-N ) :   0.9452 B(  0-C ,  7-H ) :  -0.1474 B(  0-C , 10-C ) :   1.0741
B(  0-C , 11-H ) :   0.8933 B(  0-C , 12-H ) :   0.7479 B(  0-C , 15-H ) :   0.1055
B(  1-N ,  2-C ) :   1.0586 B(  1-N ,  3-N ) :   0.3129 B(  1-N ,  4-N ) :   0.2044
B(  1-N ,  7-H ) :   1.2294 B(  1-N , 11-H ) :   0.1129 B(  1-N , 12-H ) :   0.2776
B(  2-C ,  3-N ) :   0.6906 B(  2-C ,  4-N ) :   0.8888 B(  2-C ,  5-H ) :  -0.1228
B(  2-C ,  6-H ) :  -0.1787 B(  2-C ,  7-H ) :  -0.2025 B(  2-C ,  8-H ) :  -0.1420
B(  2-C ,  9-H ) :  -0.1802 B(  3-N ,  4-N ) :   0.1554 B(  3-N ,  8-H ) :   1.1230
B(  3-N ,  9-H ) :   1.3053 B(  4-N ,  5-H ) :   1.0735 B(  4-N ,  6-H ) :   1.3056
B(  5-H ,  6-H ) :  -0.2207 B(  8-H ,  9-H ) :  -0.1886 B( 10-C , 12-H ) :   0.1340
B( 10-C , 13-C ) :   1.3059 B( 10-C , 14-H ) :   0.9462 B( 10-C , 15-H ) :   0.9792
B( 10-C , 16-H ) :   0.2101 B( 10-C , 17-H ) :   0.2027 B( 10-C , 18-H ) :   0.2059
B( 11-H , 12-H ) :  -0.1398 B( 13-C , 16-H ) :   0.8326 B( 13-C , 17-H ) :   0.8137
B( 13-C , 18-H ) :   0.7517 B( 16-H , 18-H ) :   0.1091

Dispersion correction           -0.000500543
FINAL SINGLE POINT ENERGY      -323.332660896694

DIPOLE MOMENT
-------------
                                X             Y             Z
Electronic contribution:      3.87864      -4.88098      -2.30951
Nuclear contribution   :     -2.72963       4.05673       1.67650
                        -----------------------------------------
Total Dipole Moment    :      1.14902      -0.82425      -0.63300
                        -----------------------------------------
Magnitude (a.u.)       :      1.54930
Magnitude (Debye)      :      3.93801

Rotational constants in cm-1:     0.140891     0.054763     0.048590
Rotational constants in MHz :  4223.814968  1641.764475  1456.690885

                             ****ORCA TERMINATED NORMALLY****
TOTAL RUN TIME: 0 days 0 hours 0 minutes 19 seconds 457 msec
