                         Program Version 5.0.0 -  RELEASE  -
|  1> !M062X D3Zero RIJCOSX def2-SVPD def2/J TightSCF xyzfile
|  2>
|  3> *xyzfile 0 1 B.xyz
|  4>
|  5> %MaxCore 64000
|  6>
|  7> %pal nprocs 4
|  8> end
|  9>
| 10> %scf
| 11>   MaxIter 150
| 12> end
| 13>
| 14>
| 15>                          ****END OF INPUT****

CARTESIAN COORDINATES (ANGSTROEM)
---------------------------------
  C      1.963365   -1.749150   -1.896887
  N      2.738490   -2.015170   -3.097113
  C      0.611877    1.657634   -4.500288
  C      1.694991    1.541794   -5.570447
  H      2.697326    1.734659   -5.183996
  H      1.506656    2.272239   -6.358076
  S      1.780287   -0.033128   -6.428739
  C      4.049736   -2.154717   -3.152044
  N      4.658206   -1.986293   -4.318655
  N      4.764231   -2.454435   -2.050491
  H      4.287363   -2.776259   -1.217496
  H      5.750825   -2.658351   -2.125988
  H      2.345176   -1.690274   -3.971447
  H      4.109004   -1.592677   -5.071760
  H      5.649095   -2.156462   -4.427237
  O      2.569287    0.213657   -7.607360
  O      0.416880   -0.462969   -6.618595
  C      2.088520   -0.300912   -1.415204
  H      2.231272   -2.451616   -1.102643
  H      0.930249   -1.977801   -2.155438
  C      0.680356    0.655418   -3.348038
  H     -0.356865    1.549231   -4.991128
  H      0.650228    2.675438   -4.096000
  C      1.968993    0.733582   -2.535654
  H      3.051356   -0.168602   -0.911868
  H      1.316501   -0.136231   -0.657252
  O      2.505129   -0.933263   -5.482570
  H      2.824195    0.624726   -3.208464
  H      2.058919    1.730331   -2.093112
  H      0.542252   -0.344731   -3.766662
  H     -0.174219    0.829692   -2.685182

 Total Charge           Charge          ....    0
 Multiplicity           Mult            ....    1
 Number of Electrons    NEL             ....  120
 Basis Dimension        Dim             ....  432

ORBITAL ENERGIES
----------------

  NO   OCC          E(Eh)            E(eV)
   0   2.0000     -90.085330     -2451.3465
   1   2.0000     -19.578657      -532.7623
   2   2.0000     -19.557459      -532.1855
   3   2.0000     -19.556058      -532.1474
   4   2.0000     -14.851562      -404.1316
   5   2.0000     -14.822577      -403.3428
   6   2.0000     -14.818214      -403.2241
   7   2.0000     -10.740771      -292.2712
   8   2.0000     -10.625957      -289.1470
   9   2.0000     -10.575053      -287.7618
  10   2.0000     -10.555992      -287.2431
  11   2.0000     -10.544536      -286.9314
  12   2.0000     -10.541337      -286.8444
  13   2.0000     -10.540847      -286.8310
  14   2.0000      -8.407621      -228.7830
  15   2.0000      -6.333796      -172.3513
  16   2.0000      -6.332641      -172.3199
  17   2.0000      -6.332043      -172.3037
  18   2.0000      -1.198570       -32.6148
  19   2.0000      -1.169474       -31.8230
  20   2.0000      -1.055880       -28.7320
  21   2.0000      -1.047423       -28.5018
  22   2.0000      -1.044280       -28.4163
  23   2.0000      -1.035580       -28.1796
  24   2.0000      -0.915306       -24.9068
  25   2.0000      -0.874545       -23.7976
  26   2.0000      -0.823214       -22.4008
  27   2.0000      -0.781678       -21.2705
  28   2.0000      -0.753049       -20.4915
  29   2.0000      -0.716930       -19.5087
  30   2.0000      -0.709518       -19.3070
  31   2.0000      -0.674040       -18.3416
  32   2.0000      -0.651964       -17.7409
  33   2.0000      -0.632707       -17.2168
  34   2.0000      -0.615775       -16.7561
  35   2.0000      -0.597845       -16.2682
  36   2.0000      -0.581478       -15.8228
  37   2.0000      -0.554008       -15.0753
  38   2.0000      -0.551544       -15.0083
  39   2.0000      -0.544086       -14.8053
  40   2.0000      -0.530656       -14.4399
  41   2.0000      -0.517246       -14.0750
  42   2.0000      -0.503092       -13.6898
  43   2.0000      -0.492279       -13.3956
  44   2.0000      -0.479309       -13.0427
  45   2.0000      -0.466687       -12.6992
  46   2.0000      -0.444638       -12.0992
  47   2.0000      -0.436721       -11.8838
  48   2.0000      -0.429461       -11.6862
  49   2.0000      -0.402664       -10.9570
  50   2.0000      -0.400356       -10.8942
  51   2.0000      -0.393053       -10.6955
  52   2.0000      -0.378544       -10.3007
  53   2.0000      -0.375638       -10.2216
  54   2.0000      -0.371348       -10.1049
  55   2.0000      -0.357723        -9.7341
  56   2.0000      -0.335006        -9.1160
  57   2.0000      -0.325907        -8.8684
  58   2.0000      -0.308639        -8.3985
  59   2.0000      -0.292183        -7.9507
  60   0.0000      -0.011733        -0.3193
  61   0.0000       0.010461         0.2847
  62   0.0000       0.018432         0.5016
  63   0.0000       0.039851         1.0844
  64   0.0000       0.046444         1.2638

MULLIKEN ATOMIC CHARGES
-----------------------
   0 C :    1.011382
   1 N :   -0.012965
   2 C :    0.469848
   3 C :    0.185777
   4 H :    0.054875
   5 H :   -0.134619
   6 S :    1.446291
   7 C :    1.520307
   8 N :    0.133028
   9 N :   -0.028895
  10 H :   -0.034153
  11 H :   -0.181236
  12 H :   -0.744032
  13 H :   -0.162476
  14 H :   -0.211358
  15 O :   -0.825664
  16 O :   -0.837844
  17 C :    0.464208
  18 H :   -0.453110
  19 H :   -0.087183
  20 C :    0.039209
  21 H :   -0.004903
  22 H :   -0.058714
  23 C :    0.038529
  24 H :   -0.081233
  25 H :   -0.038673
  26 O :   -0.875759
  27 H :    0.086976
  28 H :   -0.373093
  29 H :   -0.081856
  30 H :   -0.222664
Sum of atomic charges:   -0.0000000

LOEWDIN ATOMIC CHARGES
----------------------
   0 C :    0.080027
   1 N :    0.067051
   2 C :   -0.032355
   3 C :   -0.065206
   4 H :    0.008158
   5 H :    0.017873
   6 S :    0.982207
   7 C :   -0.023704
   8 N :    0.277406
   9 N :    0.247965
  10 H :    0.006053
  11 H :    0.019972
  12 H :   -0.067222
  13 H :   -0.055504
  14 H :    0.030024
  15 O :   -0.536153
  16 O :   -0.532755
  17 C :   -0.011897
  18 H :    0.011576
  19 H :    0.033303
  20 C :   -0.025173
  21 H :    0.027828
  22 H :    0.026058
  23 C :   -0.027227
  24 H :    0.015177
  25 H :    0.028051
  26 O :   -0.571690
  27 H :    0.006168
  28 H :    0.028851
  29 H :    0.004922
  30 H :    0.030219

  Mayer bond orders larger than 0.100000
B(  0-C ,  1-N ) :   0.8823 B(  0-C , 12-H ) :  -0.3900 B(  0-C , 17-C ) :   1.0542
B(  0-C , 18-H ) :   0.8946 B(  0-C , 19-H ) :   0.6502 B(  0-C , 23-C ) :   0.1059
B(  0-C , 25-H ) :   0.1031 B(  1-N ,  7-C ) :   1.1383 B(  1-N ,  8-N ) :   0.1332
B(  1-N ,  9-N ) :   0.2162 B(  1-N , 12-H ) :   1.2578 B(  1-N , 13-H ) :   0.1017
B(  1-N , 19-H ) :   0.1681 B(  2-C ,  3-C ) :   1.2412 B(  2-C ,  5-H ) :   0.1635
B(  2-C , 20-C ) :   1.2652 B(  2-C , 21-H ) :   0.6597 B(  2-C , 22-H ) :   0.7998
B(  3-C ,  4-H ) :   0.8826 B(  3-C ,  5-H ) :   0.8770 B(  3-C ,  6-S ) :   0.9507
B(  3-C , 21-H ) :   0.1151 B(  3-C , 22-H ) :   0.1254 B(  6-S , 15-O ) :   1.3460
B(  6-S , 16-O ) :   1.2597 B(  6-S , 26-O ) :   1.0473 B(  7-C ,  8-N ) :   0.7570
B(  7-C ,  9-N ) :   0.8196 B(  7-C , 10-H ) :  -0.1256 B(  7-C , 11-H ) :  -0.1432
B(  7-C , 12-H ) :  -0.5180 B(  7-C , 13-H ) :  -0.2267 B(  7-C , 14-H ) :  -0.2458
B(  8-N ,  9-N ) :   0.1407 B(  8-N , 13-H ) :   1.1721 B(  8-N , 14-H ) :   1.3796
B(  9-N , 10-H ) :   1.0813 B(  9-N , 11-H ) :   1.2974 B( 10-H , 11-H ) :  -0.2288
B( 12-H , 19-H ) :   0.1859 B( 12-H , 24-H ) :   0.1213 B( 12-H , 27-H ) :   0.1252
B( 12-H , 28-H ) :  -0.1304 B( 13-H , 14-H ) :  -0.2232 B( 13-H , 26-O ) :   0.1906
B( 17-C , 18-H ) :   0.1319 B( 17-C , 23-C ) :   1.2657 B( 17-C , 24-H ) :   0.7719
B( 17-C , 25-H ) :   0.8544 B( 18-H , 19-H ) :  -0.1833 B( 20-C , 21-H ) :   0.2808
B( 20-C , 23-C ) :   1.1658 B( 20-C , 27-H ) :   0.1073 B( 20-C , 28-H ) :   0.1203
B( 20-C , 29-H ) :   0.9649 B( 20-C , 30-H ) :   0.8751 B( 21-H , 22-H ) :  -0.1263
B( 23-C , 24-H ) :   0.2068 B( 23-C , 25-H ) :   0.1103 B( 23-C , 27-H ) :   0.8649
B( 23-C , 28-H ) :   0.9796 B( 23-C , 30-H ) :   0.1435 B( 24-H , 25-H ) :  -0.1127

Dispersion correction           -0.001931847
FINAL SINGLE POINT ENERGY     -1064.205010321728

DIPOLE MOMENT
-------------
                                X             Y             Z
Electronic contribution:      2.25665      -4.93845     -14.12362
Nuclear contribution   :      0.44641       3.59123      19.13564
                        -----------------------------------------
Total Dipole Moment    :      2.70306      -1.34722       5.01202
                        -----------------------------------------
Magnitude (a.u.)       :      5.85166
Magnitude (Debye)      :     14.87374

Rotational constants in cm-1:     0.029186     0.014646     0.011115
Rotational constants in MHz :   874.975540   439.070287   333.231642

                             ****ORCA TERMINATED NORMALLY****
TOTAL RUN TIME: 0 days 0 hours 2 minutes 54 seconds 700 msec
