                         Program Version 5.0.0 -  RELEASE  -
|  1> !M062X D3Zero RIJCOSX def2-SVPD def2/J TightSCF
|  2> *xyz 0 1
|  3> C          0.61188        1.65763       -4.50029
|  4> C          1.69499        1.54179       -5.57045
|  5> H          2.69733        1.73466       -5.18400
|  6> H          1.50666        2.27224       -6.35808
|  7> S          1.78029       -0.03313       -6.42874
|  8> F          2.56929        0.21366       -7.60736
|  9> O          0.41688       -0.46297       -6.61859
| 10> C          0.68036        0.65542       -3.34804
| 11> H         -0.35687        1.54923       -4.99113
| 12> H          0.65023        2.67544       -4.09600
| 13> O          2.50513       -0.93326       -5.48257
| 14> H          0.64318       -0.34009       -3.73853
| 15> H         -0.14865        0.81153       -2.68980
| 16> H          1.59447        0.79330       -2.80925
| 17> *
| 18> %MaxCore 64000
| 19>
| 20> %pal nprocs 8
| 21> end
| 22>
| 23> %scf
| 24>   MaxIter 150
| 25> end
| 26>
| 27>
| 28>                          ****END OF INPUT****

CARTESIAN COORDINATES (ANGSTROEM)
---------------------------------
  C      0.611880    1.657630   -4.500290
  C      1.694990    1.541790   -5.570450
  H      2.697330    1.734660   -5.184000
  H      1.506660    2.272240   -6.358080
  S      1.780290   -0.033130   -6.428740
  F      2.569290    0.213660   -7.607360
  O      0.416880   -0.462970   -6.618590
  C      0.680360    0.655420   -3.348040
  H     -0.356870    1.549230   -4.991130
  H      0.650230    2.675440   -4.096000
  O      2.505130   -0.933260   -5.482570
  H      0.643180   -0.340090   -3.738530
  H     -0.148650    0.811530   -2.689800
  H      1.594470    0.793300   -2.809250

 Total Charge           Charge          ....    0
 Multiplicity           Mult            ....    1
 Number of Electrons    NEL             ....   66
 Basis Dimension        Dim             ....  212

ORBITAL ENERGIES
----------------

  NO   OCC          E(Eh)            E(eV)
   0   2.0000     -90.197835     -2454.4079
   1   2.0000     -25.381837      -690.6749
   2   2.0000     -19.656033      -534.8678
   3   2.0000     -19.635700      -534.3146
   4   2.0000     -10.614880      -288.8456
   5   2.0000     -10.580918      -287.9214
   6   2.0000     -10.542830      -286.8850
   7   2.0000      -8.522334      -231.9045
   8   2.0000      -6.450657      -175.5313
   9   2.0000      -6.445448      -175.3896
  10   2.0000      -6.444386      -175.3607
  11   2.0000      -1.521113       -41.3916
  12   2.0000      -1.226516       -33.3752
  13   2.0000      -1.112884       -30.2831
  14   2.0000      -0.925577       -25.1862
  15   2.0000      -0.853846       -23.2343
  16   2.0000      -0.802996       -21.8506
  17   2.0000      -0.724576       -19.7167
  18   2.0000      -0.692578       -18.8460
  19   2.0000      -0.673306       -18.3216
  20   2.0000      -0.639813       -17.4102
  21   2.0000      -0.571931       -15.5630
  22   2.0000      -0.560137       -15.2421
  23   2.0000      -0.529506       -14.4086
  24   2.0000      -0.523953       -14.2575
  25   2.0000      -0.496546       -13.5117
  26   2.0000      -0.463511       -12.6128
  27   2.0000      -0.439599       -11.9621
  28   2.0000      -0.436529       -11.8786
  29   2.0000      -0.418884       -11.3984
  30   2.0000      -0.407938       -11.1006
  31   2.0000      -0.382977       -10.4213
  32   2.0000      -0.377775       -10.2798
  33   0.0000       0.009913         0.2698
  34   0.0000       0.034199         0.9306
  35   0.0000       0.040817         1.1107
  36   0.0000       0.046509         1.2656
  37   0.0000       0.068214         1.8562

MULLIKEN ATOMIC CHARGES
-----------------------
   0 C :   -0.307282
   1 C :   -0.006980
   2 H :    0.033226
   3 H :    0.045927
   4 S :    1.583473
   5 F :   -0.456839
   6 O :   -0.688769
   7 C :    0.778528
   8 H :    0.022895
   9 H :   -0.128358
  10 O :   -0.726253
  11 H :   -0.096702
  12 H :   -0.047851
  13 H :   -0.005015
Sum of atomic charges:    0.0000000

LOEWDIN ATOMIC CHARGES
----------------------
   0 C :   -0.067315
   1 C :   -0.058958
   2 H :    0.028127
   3 H :    0.017653
   4 S :    1.156397
   5 F :   -0.265922
   6 O :   -0.472165
   7 C :    0.145042
   8 H :    0.027343
   9 H :    0.033286
  10 O :   -0.503827
  11 H :   -0.022253
  12 H :   -0.010903
  13 H :   -0.006505

  Mayer bond orders larger than 0.100000
B(  0-C ,  1-C ) :   1.3086 B(  0-C ,  2-H ) :   0.1173 B(  0-C ,  3-H ) :   0.1418
B(  0-C ,  7-C ) :   1.2880 B(  0-C ,  8-H ) :   0.8971 B(  0-C ,  9-H ) :   0.9205
B(  0-C , 11-H ) :   0.2204 B(  0-C , 12-H ) :   0.2042 B(  0-C , 13-H ) :   0.2213
B(  1-C ,  2-H ) :   0.9445 B(  1-C ,  3-H ) :   0.8777 B(  1-C ,  4-S ) :   0.9445
B(  1-C ,  8-H ) :   0.1332 B(  1-C ,  9-H ) :   0.1301 B(  4-S ,  5-F ) :   0.6317
B(  4-S ,  6-O ) :   1.4812 B(  4-S , 10-O ) :   1.4307 B(  7-C , 11-H ) :   0.8260
B(  7-C , 12-H ) :   0.7654 B(  7-C , 13-H ) :   0.7530

Dispersion correction           -0.000278434
FINAL SINGLE POINT ENERGY      -766.370799027125

DIPOLE MOMENT
-------------
                                X             Y             Z
Electronic contribution:      5.10217      -5.35818     -11.96595
Nuclear contribution   :     -4.93724       7.05784      11.92827
                        -----------------------------------------
Total Dipole Moment    :      0.16493       1.69966      -0.03767
                        -----------------------------------------
Magnitude (a.u.)       :      1.70805
Magnitude (Debye)      :      4.34153

Rotational constants in cm-1:     0.134572     0.053398     0.050578
Rotational constants in MHz :  4034.377338  1600.833917  1516.302250

                             ****ORCA TERMINATED NORMALLY****
TOTAL RUN TIME: 0 days 0 hours 0 minutes 16 seconds 885 msec
