                         Program Version 5.0.0 -  RELEASE  -
|  1> !M062X D3Zero RIJCOSX def2-SVPD def2/J TightSCF
|  2> *xyz 0 1
|  3> C          1.96337       -1.74915       -1.89689
|  4> C          2.73849       -2.01517       -3.09711
|  5> C          4.04974       -2.15472       -3.15204
|  6> N          4.65821       -1.98629       -4.31866
|  7> N          4.76423       -2.45444       -2.05049
|  8> H          4.28736       -2.77626       -1.21750
|  9> H          5.75082       -2.65835       -2.12599
| 10> H          2.34518       -1.69027       -3.97145
| 11> H          4.10900       -1.59268       -5.07176
| 12> H          5.64910       -2.15646       -4.42724
| 13> C          2.08852       -0.30091       -1.41520
| 14> H          2.23127       -2.45162       -1.10264
| 15> H          0.93025       -1.97780       -2.15544
| 16> C          1.96899        0.73358       -2.53565
| 17> H          3.05136       -0.16860       -0.91187
| 18> H          1.31650       -0.13623       -0.65725
| 19> H          2.73046        0.55745       -3.26643
| 20> H          2.08619        1.71595       -2.12808
| 21> H          1.00672        0.65098       -2.99620
| 22> *
| 23> %MaxCore 64000
| 24>
| 25> %pal nprocs 8
| 26> end
| 27>
| 28> %scf
| 29>   MaxIter 150
| 30> end
| 31>
| 32>
| 33>                          ****END OF INPUT****

CARTESIAN COORDINATES (ANGSTROEM)
---------------------------------
  C      1.963370   -1.749150   -1.896890
  C      2.738490   -2.015170   -3.097110
  C      4.049740   -2.154720   -3.152040
  N      4.658210   -1.986290   -4.318660
  N      4.764230   -2.454440   -2.050490
  H      4.287360   -2.776260   -1.217500
  H      5.750820   -2.658350   -2.125990
  H      2.345180   -1.690270   -3.971450
  H      4.109000   -1.592680   -5.071760
  H      5.649100   -2.156460   -4.427240
  C      2.088520   -0.300910   -1.415200
  H      2.231270   -2.451620   -1.102640
  H      0.930250   -1.977800   -2.155440
  C      1.968990    0.733580   -2.535650
  H      3.051360   -0.168600   -0.911870
  H      1.316500   -0.136230   -0.657250
  H      2.730460    0.557450   -3.266430
  H      2.086190    1.715950   -2.128080
  H      1.006720    0.650980   -2.996200

 Total Charge           Charge          ....    0
 Multiplicity           Mult            ....    1
 Number of Electrons    NEL             ....   56
 Basis Dimension        Dim             ....  236

ORBITAL ENERGIES
----------------

  NO   OCC          E(Eh)            E(eV)
   0   2.0000     -14.763734      -401.7416
   1   2.0000     -14.761889      -401.6914
   2   2.0000     -10.596294      -288.3398
   3   2.0000     -10.526152      -286.4311
   4   2.0000     -10.523567      -286.3608
   5   2.0000     -10.516815      -286.1771
   6   2.0000     -10.470857      -284.9265
   7   2.0000      -1.060735       -28.8641
   8   2.0000      -0.963767       -26.2254
   9   2.0000      -0.877107       -23.8673
  10   2.0000      -0.805790       -21.9267
  11   2.0000      -0.742197       -20.1962
  12   2.0000      -0.675291       -18.3756
  13   2.0000      -0.645223       -17.5574
  14   2.0000      -0.618093       -16.8192
  15   2.0000      -0.577310       -15.7094
  16   2.0000      -0.542911       -14.7734
  17   2.0000      -0.515310       -14.0223
  18   2.0000      -0.504517       -13.7286
  19   2.0000      -0.473866       -12.8945
  20   2.0000      -0.459232       -12.4963
  21   2.0000      -0.438051       -11.9200
  22   2.0000      -0.419873       -11.4253
  23   2.0000      -0.390890       -10.6367
  24   2.0000      -0.372853       -10.1458
  25   2.0000      -0.367849       -10.0097
  26   2.0000      -0.330969        -9.0061
  27   2.0000      -0.211830        -5.7642
  28   0.0000       0.032867         0.8944
  29   0.0000       0.059287         1.6133
  30   0.0000       0.059815         1.6277
  31   0.0000       0.077187         2.1004
  32   0.0000       0.088802         2.4164

MULLIKEN ATOMIC CHARGES
-----------------------
   0 C :    0.244127
   1 C :   -0.335916
   2 C :    0.910553
   3 N :   -0.164916
   4 N :   -0.151183
   5 H :    0.003646
   6 H :   -0.255485
   7 H :   -0.087532
   8 H :    0.060049
   9 H :   -0.199447
  10 C :   -0.256889
  11 H :   -0.099356
  12 H :   -0.071153
  13 C :    0.733418
  14 H :   -0.049249
  15 H :   -0.079312
  16 H :   -0.140613
  17 H :   -0.062627
  18 H :    0.001885
Sum of atomic charges:    0.0000000

LOEWDIN ATOMIC CHARGES
----------------------
   0 C :   -0.064668
   1 C :   -0.047277
   2 C :   -0.217059
   3 N :    0.172960
   4 N :    0.194455
   5 H :   -0.006156
   6 H :   -0.009850
   7 H :   -0.050490
   8 H :    0.008474
   9 H :   -0.004031
  10 C :   -0.072039
  11 H :    0.003608
  12 H :    0.015323
  13 C :    0.119952
  14 H :    0.013399
  15 H :    0.012603
  16 H :   -0.030915
  17 H :   -0.022625
  18 H :   -0.015663

  Mayer bond orders larger than 0.100000
B(  0-C ,  1-C ) :   1.2350 B(  0-C ,  7-H ) :   0.3065 B(  0-C , 10-C ) :   1.1211
B(  0-C , 11-H ) :   0.8532 B(  0-C , 12-H ) :   0.7378 B(  0-C , 14-H ) :   0.1084
B(  0-C , 15-H ) :   0.1498 B(  1-C ,  2-C ) :   1.8373 B(  1-C ,  3-N ) :   0.2722
B(  1-C ,  4-N ) :   0.2166 B(  1-C ,  7-H ) :   0.6113 B(  1-C , 11-H ) :   0.2334
B(  1-C , 12-H ) :   0.2926 B(  2-C ,  3-N ) :   0.7614 B(  2-C ,  4-N ) :   0.8259
B(  2-C ,  6-H ) :  -0.2236 B(  2-C ,  7-H ) :   0.3463 B(  2-C ,  9-H ) :  -0.1690
B(  2-C , 11-H ) :  -0.1119 B(  3-N ,  4-N ) :   0.1120 B(  3-N ,  8-H ) :   1.0879
B(  3-N ,  9-H ) :   1.3407 B(  4-N ,  5-H ) :   1.0357 B(  4-N ,  6-H ) :   1.3899
B(  5-H ,  6-H ) :  -0.2214 B(  8-H ,  9-H ) :  -0.1904 B( 10-C , 12-H ) :   0.1077
B( 10-C , 13-C ) :   1.2944 B( 10-C , 14-H ) :   0.9632 B( 10-C , 15-H ) :   0.8957
B( 10-C , 16-H ) :   0.2483 B( 10-C , 17-H ) :   0.2176 B( 10-C , 18-H ) :   0.2223
B( 13-C , 16-H ) :   0.8320 B( 13-C , 17-H ) :   0.7733 B( 13-C , 18-H ) :   0.7479
B( 16-H , 18-H ) :   0.1005

Dispersion correction           -0.000496985
FINAL SINGLE POINT ENERGY      -306.863137382339

DIPOLE MOMENT
-------------
                                X             Y             Z
Electronic contribution:      3.81895      -4.05433      -1.72442
Nuclear contribution   :     -2.83106       3.92601       1.57906
                        -----------------------------------------
Total Dipole Moment    :      0.98788      -0.12832      -0.14535
                        -----------------------------------------
Magnitude (a.u.)       :      1.00673
Magnitude (Debye)      :      2.55891

Rotational constants in cm-1:     0.142679     0.055043     0.048600
Rotational constants in MHz :  4277.395781  1650.135877  1456.977167

                             ****ORCA TERMINATED NORMALLY****
TOTAL RUN TIME: 0 days 0 hours 0 minutes 21 seconds 318 msec
