                         Program Version 5.0.0 -  RELEASE  -
|  1> !M062X D3Zero RIJCOSX def2-SVPD def2/J TightSCF
|  2> *xyz 0 1
|  3> C          0.61188        1.65763       -4.50029
|  4> C          1.69499        1.54179       -5.57045
|  5> H          2.69733        1.73466       -5.18400
|  6> H          1.50666        2.27224       -6.35808
|  7> S          1.78029       -0.03313       -6.42874
|  8> O          2.56929        0.21366       -7.60736
|  9> F          0.41688       -0.46297       -6.61859
| 10> C          0.68036        0.65542       -3.34804
| 11> H         -0.35687        1.54923       -4.99113
| 12> H          0.65023        2.67544       -4.09600
| 13> O          2.50513       -0.93326       -5.48257
| 14> H          0.64318       -0.34009       -3.73853
| 15> H         -0.14865        0.81153       -2.68980
| 16> H          1.59447        0.79330       -2.80925
| 17> *
| 18> %MaxCore 64000
| 19>
| 20> %pal nprocs 8
| 21> end
| 22>
| 23> %scf
| 24>   MaxIter 150
| 25> end
| 26>
| 27>
| 28>                          ****END OF INPUT****

CARTESIAN COORDINATES (ANGSTROEM)
---------------------------------
  C      0.611880    1.657630   -4.500290
  C      1.694990    1.541790   -5.570450
  H      2.697330    1.734660   -5.184000
  H      1.506660    2.272240   -6.358080
  S      1.780290   -0.033130   -6.428740
  O      2.569290    0.213660   -7.607360
  F      0.416880   -0.462970   -6.618590
  C      0.680360    0.655420   -3.348040
  H     -0.356870    1.549230   -4.991130
  H      0.650230    2.675440   -4.096000
  O      2.505130   -0.933260   -5.482570
  H      0.643180   -0.340090   -3.738530
  H     -0.148650    0.811530   -2.689800
  H      1.594470    0.793300   -2.809250

 Total Charge           Charge          ....    0
 Multiplicity           Mult            ....    1
 Number of Electrons    NEL             ....   66
 Basis Dimension        Dim             ....  212

ORBITAL ENERGIES
----------------

  NO   OCC          E(Eh)            E(eV)
   0   2.0000     -90.197334     -2454.3942
   1   2.0000     -25.381924      -690.6773
   2   2.0000     -19.654649      -534.8302
   3   2.0000     -19.634960      -534.2944
   4   2.0000     -10.614648      -288.8393
   5   2.0000     -10.586391      -288.0703
   6   2.0000     -10.552036      -287.1355
   7   2.0000      -8.521816      -231.8904
   8   2.0000      -6.450357      -175.5231
   9   2.0000      -6.444790      -175.3716
  10   2.0000      -6.443784      -175.3443
  11   2.0000      -1.519769       -41.3550
  12   2.0000      -1.226928       -33.3864
  13   2.0000      -1.112129       -30.2626
  14   2.0000      -0.931028       -25.3346
  15   2.0000      -0.851071       -23.1588
  16   2.0000      -0.808541       -22.0015
  17   2.0000      -0.725391       -19.7389
  18   2.0000      -0.693055       -18.8590
  19   2.0000      -0.688863       -18.7449
  20   2.0000      -0.628910       -17.1135
  21   2.0000      -0.569713       -15.5027
  22   2.0000      -0.561238       -15.2721
  23   2.0000      -0.538103       -14.6425
  24   2.0000      -0.521292       -14.1851
  25   2.0000      -0.505308       -13.7501
  26   2.0000      -0.464720       -12.6457
  27   2.0000      -0.452058       -12.3011
  28   2.0000      -0.443172       -12.0593
  29   2.0000      -0.427104       -11.6221
  30   2.0000      -0.402471       -10.9518
  31   2.0000      -0.385180       -10.4813
  32   2.0000      -0.374921       -10.2021
  33   0.0000       0.007936         0.2159
  34   0.0000       0.035884         0.9764
  35   0.0000       0.042176         1.1477
  36   0.0000       0.042878         1.1668
  37   0.0000       0.066322         1.8047

MULLIKEN ATOMIC CHARGES
-----------------------
   0 C :   -0.283549
   1 C :    0.019326
   2 H :    0.028037
   3 H :    0.030388
   4 S :    1.534199
   5 O :   -0.706047
   6 F :   -0.422357
   7 C :    0.797192
   8 H :    0.002969
   9 H :   -0.130702
  10 O :   -0.719563
  11 H :   -0.107366
  12 H :   -0.045911
  13 H :    0.003383
Sum of atomic charges:    0.0000000

LOEWDIN ATOMIC CHARGES
----------------------
   0 C :   -0.082327
   1 C :   -0.045951
   2 H :    0.040557
   3 H :    0.021618
   4 S :    1.152163
   5 O :   -0.473000
   6 F :   -0.263259
   7 C :    0.141106
   8 H :    0.021892
   9 H :    0.031726
  10 O :   -0.502102
  11 H :   -0.027888
  12 H :   -0.011165
  13 H :   -0.003369

  Mayer bond orders larger than 0.100000
B(  0-C ,  1-C ) :   1.2461 B(  0-C ,  2-H ) :   0.1174 B(  0-C ,  3-H ) :   0.1256
B(  0-C ,  7-C ) :   1.2919 B(  0-C ,  8-H ) :   0.8975 B(  0-C ,  9-H ) :   0.9251
B(  0-C , 11-H ) :   0.2236 B(  0-C , 12-H ) :   0.2039 B(  0-C , 13-H ) :   0.2264
B(  1-C ,  2-H ) :   0.9376 B(  1-C ,  3-H ) :   0.9343 B(  1-C ,  4-S ) :   0.9739
B(  1-C ,  8-H ) :   0.1240 B(  1-C ,  9-H ) :   0.1274 B(  4-S ,  5-O ) :   1.5503
B(  4-S ,  6-F ) :   0.6175 B(  4-S , 10-O ) :   1.4582 B(  7-C , 11-H ) :   0.8171
B(  7-C , 12-H ) :   0.7669 B(  7-C , 13-H ) :   0.7543

Dispersion correction           -0.000289711
FINAL SINGLE POINT ENERGY      -766.369843310126

DIPOLE MOMENT
-------------
                                X             Y             Z
Electronic contribution:      1.40316      -6.49651     -10.20631
Nuclear contribution   :     -2.62245       7.78551      10.86491
                        -----------------------------------------
Total Dipole Moment    :     -1.21930       1.28900       0.65859
                        -----------------------------------------
Magnitude (a.u.)       :      1.89260
Magnitude (Debye)      :      4.81062

Rotational constants in cm-1:     0.129509     0.054228     0.052367
Rotational constants in MHz :  3882.596420  1625.701900  1569.934536

                             ****ORCA TERMINATED NORMALLY****
TOTAL RUN TIME: 0 days 0 hours 0 minutes 15 seconds 625 msec
