                         Program Version 5.0.0 -  RELEASE  -
|  1> !M062X D3Zero RIJCOSX def2-SVPD def2/J TightSCF
|  2> *xyz 0 1
|  3> C          1.96337       -1.74915       -1.89689
|  4> N          2.73849       -2.01517       -3.09711
|  5> C          4.04974       -2.15472       -3.15204
|  6> C          4.65821       -1.98629       -4.31866
|  7> N          4.76423       -2.45444       -2.05049
|  8> H          4.28736       -2.77626       -1.21750
|  9> H          5.75082       -2.65835       -2.12599
| 10> H          2.34518       -1.69027       -3.97145
| 11> H          4.10900       -1.59268       -5.07176
| 12> H          5.64910       -2.15646       -4.42724
| 13> C          2.08852       -0.30091       -1.41520
| 14> H          2.23127       -2.45162       -1.10264
| 15> H          0.93025       -1.97780       -2.15544
| 16> C          1.96899        0.73358       -2.53565
| 17> H          3.05136       -0.16860       -0.91187
| 18> H          1.31650       -0.13623       -0.65725
| 19> H          2.73046        0.55745       -3.26643
| 20> H          2.08619        1.71595       -2.12808
| 21> H          1.00672        0.65098       -2.99620
| 22> *
| 23> %MaxCore 64000
| 24>
| 25> %pal nprocs 8
| 26> end
| 27>
| 28> %scf
| 29>   MaxIter 150
| 30> end
| 31>
| 32>
| 33>                          ****END OF INPUT****

CARTESIAN COORDINATES (ANGSTROEM)
---------------------------------
  C      1.963370   -1.749150   -1.896890
  N      2.738490   -2.015170   -3.097110
  C      4.049740   -2.154720   -3.152040
  C      4.658210   -1.986290   -4.318660
  N      4.764230   -2.454440   -2.050490
  H      4.287360   -2.776260   -1.217500
  H      5.750820   -2.658350   -2.125990
  H      2.345180   -1.690270   -3.971450
  H      4.109000   -1.592680   -5.071760
  H      5.649100   -2.156460   -4.427240
  C      2.088520   -0.300910   -1.415200
  H      2.231270   -2.451620   -1.102640
  H      0.930250   -1.977800   -2.155440
  C      1.968990    0.733580   -2.535650
  H      3.051360   -0.168600   -0.911870
  H      1.316500   -0.136230   -0.657250
  H      2.730460    0.557450   -3.266430
  H      2.086190    1.715950   -2.128080
  H      1.006720    0.650980   -2.996200

 Total Charge           Charge          ....    0
 Multiplicity           Mult            ....    1
 Number of Electrons    NEL             ....   56
 Basis Dimension        Dim             ....  236

ORBITAL ENERGIES
----------------

  NO   OCC          E(Eh)            E(eV)
   0   2.0000     -14.761782      -401.6885
   1   2.0000     -14.759546      -401.6277
   2   2.0000     -10.597255      -288.3660
   3   2.0000     -10.589058      -288.1429
   4   2.0000     -10.548631      -287.0428
   5   2.0000     -10.535667      -286.6901
   6   2.0000     -10.463875      -284.7365
   7   2.0000      -1.069350       -29.0985
   8   2.0000      -0.977218       -26.5915
   9   2.0000      -0.876796       -23.8588
  10   2.0000      -0.812233       -22.1020
  11   2.0000      -0.753686       -20.5088
  12   2.0000      -0.688427       -18.7331
  13   2.0000      -0.663713       -18.0605
  14   2.0000      -0.608591       -16.5606
  15   2.0000      -0.567411       -15.4400
  16   2.0000      -0.550327       -14.9752
  17   2.0000      -0.529441       -14.4068
  18   2.0000      -0.512226       -13.9384
  19   2.0000      -0.470273       -12.7968
  20   2.0000      -0.464037       -12.6271
  21   2.0000      -0.455135       -12.3849
  22   2.0000      -0.438177       -11.9234
  23   2.0000      -0.414452       -11.2778
  24   2.0000      -0.410331       -11.1657
  25   2.0000      -0.397528       -10.8173
  26   2.0000      -0.316695        -8.6177
  27   2.0000      -0.215843        -5.8734
  28   0.0000       0.031611         0.8602
  29   0.0000       0.051706         1.4070
  30   0.0000       0.061052         1.6613
  31   0.0000       0.065958         1.7948
  32   0.0000       0.091677         2.4946

MULLIKEN ATOMIC CHARGES
-----------------------
   0 C :    0.798660
   1 N :   -0.454243
   2 C :    0.770405
   3 C :    0.327886
   4 N :    0.040286
   5 H :   -0.091426
   6 H :   -0.179782
   7 H :   -0.159796
   8 H :   -0.232989
   9 H :   -0.447971
  10 C :   -0.335513
  11 H :   -0.132155
  12 H :   -0.302164
  13 C :    0.754063
  14 H :   -0.002090
  15 H :   -0.151289
  16 H :   -0.122903
  17 H :   -0.088163
  18 H :    0.009184
Sum of atomic charges:    0.0000000

LOEWDIN ATOMIC CHARGES
----------------------
   0 C :    0.048725
   1 N :   -0.029301
   2 C :   -0.238954
   3 C :    0.150641
   4 N :    0.193060
   5 H :   -0.021037
   6 H :    0.006710
   7 H :    0.029145
   8 H :   -0.100622
   9 H :   -0.098995
  10 C :   -0.065686
  11 H :    0.010131
  12 H :    0.021092
  13 C :    0.125515
  14 H :    0.015054
  15 H :    0.016081
  16 H :   -0.027417
  17 H :   -0.017691
  18 H :   -0.016449

  Mayer bond orders larger than 0.100000
B(  0-C ,  1-N ) :   0.9303 B(  0-C ,  7-H ) :  -0.1557 B(  0-C , 10-C ) :   1.0487
B(  0-C , 11-H ) :   0.8844 B(  0-C , 12-H ) :   0.7368 B(  0-C , 15-H ) :   0.1071
B(  1-N ,  2-C ) :   1.0468 B(  1-N ,  3-C ) :   0.2823 B(  1-N ,  4-N ) :   0.1430
B(  1-N ,  7-H ) :   1.1645 B(  1-N , 11-H ) :   0.1308 B(  1-N , 12-H ) :   0.2837
B(  2-C ,  3-C ) :   1.3338 B(  2-C ,  4-N ) :   0.9329 B(  2-C ,  6-H ) :  -0.1353
B(  2-C ,  7-H ) :  -0.1443 B(  2-C ,  9-H ) :   0.1637 B(  3-C ,  4-N ) :   0.2006
B(  3-C ,  8-H ) :   0.8847 B(  3-C ,  9-H ) :   0.7955 B(  4-N ,  5-H ) :   1.0449
B(  4-N ,  6-H ) :   1.2584 B(  4-N , 11-H ) :   0.1008 B(  5-H ,  6-H ) :  -0.2155
B( 10-C , 12-H ) :   0.1442 B( 10-C , 13-C ) :   1.2992 B( 10-C , 14-H ) :   0.9375
B( 10-C , 15-H ) :   1.0072 B( 10-C , 16-H ) :   0.2181 B( 10-C , 17-H ) :   0.2062
B( 10-C , 18-H ) :   0.2107 B( 11-H , 12-H ) :  -0.1512 B( 13-C , 16-H ) :   0.8407
B( 13-C , 17-H ) :   0.7957 B( 13-C , 18-H ) :   0.7512 B( 16-H , 18-H ) :   0.1064

Dispersion correction           -0.000494522
FINAL SINGLE POINT ENERGY      -306.859341427959

DIPOLE MOMENT
-------------
                                X             Y             Z
Electronic contribution:      1.94427      -3.91659      -0.43242
Nuclear contribution   :     -2.41054       3.93233       1.31148
                        -----------------------------------------
Total Dipole Moment    :     -0.46627       0.01574       0.87906
                        -----------------------------------------
Magnitude (a.u.)       :      0.99519
Magnitude (Debye)      :      2.52956

Rotational constants in cm-1:     0.144008     0.056232     0.050126
Rotational constants in MHz :  4317.255215  1685.791221  1502.728769

                             ****ORCA TERMINATED NORMALLY****
TOTAL RUN TIME: 0 days 0 hours 0 minutes 21 seconds 180 msec
