                         Program Version 5.0.0 -  RELEASE  -
|  1> !M062X D3Zero RIJCOSX def2-SVPD def2/J TightSCF
|  2> *xyz 0 1
|  3> C          0.61188        1.65763       -4.50029
|  4> C          1.69499        1.54179       -5.57045
|  5> H          2.69733        1.73466       -5.18400
|  6> H          1.50666        2.27224       -6.35808
|  7> S          1.78029       -0.03313       -6.42874
|  8> O          2.56929        0.21366       -7.60736
|  9> O          0.41688       -0.46297       -6.61859
| 10> C          0.68036        0.65542       -3.34804
| 11> H         -0.35687        1.54923       -4.99113
| 12> H          0.65023        2.67544       -4.09600
| 13> F          2.50513       -0.93326       -5.48257
| 14> H          0.64318       -0.34009       -3.73853
| 15> H         -0.14865        0.81153       -2.68980
| 16> H          1.59447        0.79330       -2.80925
| 17> *
| 18> %MaxCore 64000
| 19>
| 20> %pal nprocs 8
| 21> end
| 22>
| 23> %scf
| 24>   MaxIter 150
| 25> end
| 26>
| 27>
| 28>                          ****END OF INPUT****

CARTESIAN COORDINATES (ANGSTROEM)
---------------------------------
  C      0.611880    1.657630   -4.500290
  C      1.694990    1.541790   -5.570450
  H      2.697330    1.734660   -5.184000
  H      1.506660    2.272240   -6.358080
  S      1.780290   -0.033130   -6.428740
  O      2.569290    0.213660   -7.607360
  O      0.416880   -0.462970   -6.618590
  C      0.680360    0.655420   -3.348040
  H     -0.356870    1.549230   -4.991130
  H      0.650230    2.675440   -4.096000
  F      2.505130   -0.933260   -5.482570
  H      0.643180   -0.340090   -3.738530
  H     -0.148650    0.811530   -2.689800
  H      1.594470    0.793300   -2.809250

 Total Charge           Charge          ....    0
 Multiplicity           Mult            ....    1
 Number of Electrons    NEL             ....   66
 Basis Dimension        Dim             ....  212

ORBITAL ENERGIES
----------------

  NO   OCC          E(Eh)            E(eV)
   0   2.0000     -90.195574     -2454.3463
   1   2.0000     -25.353447      -689.9024
   2   2.0000     -19.655012      -534.8401
   3   2.0000     -19.653912      -534.8101
   4   2.0000     -10.613612      -288.8111
   5   2.0000     -10.581827      -287.9461
   6   2.0000     -10.556258      -287.2504
   7   2.0000      -8.519699      -231.8328
   8   2.0000      -6.447927      -175.4570
   9   2.0000      -6.443075      -175.3250
  10   2.0000      -6.441954      -175.2945
  11   2.0000      -1.473829       -40.1049
  12   2.0000      -1.239003       -33.7150
  13   2.0000      -1.141524       -31.0624
  14   2.0000      -0.928226       -25.2583
  15   2.0000      -0.843854       -22.9624
  16   2.0000      -0.791582       -21.5400
  17   2.0000      -0.720962       -19.6184
  18   2.0000      -0.661314       -17.9953
  19   2.0000      -0.656970       -17.8771
  20   2.0000      -0.636390       -17.3171
  21   2.0000      -0.577325       -15.7098
  22   2.0000      -0.554407       -15.0862
  23   2.0000      -0.539840       -14.6898
  24   2.0000      -0.530190       -14.4272
  25   2.0000      -0.508601       -13.8397
  26   2.0000      -0.472485       -12.8570
  27   2.0000      -0.453308       -12.3351
  28   2.0000      -0.440203       -11.9785
  29   2.0000      -0.425778       -11.5860
  30   2.0000      -0.415687       -11.3114
  31   2.0000      -0.398330       -10.8391
  32   2.0000      -0.395674       -10.7668
  33   0.0000       0.015037         0.4092
  34   0.0000       0.036109         0.9826
  35   0.0000       0.042513         1.1568
  36   0.0000       0.043798         1.1918
  37   0.0000       0.070326         1.9137

MULLIKEN ATOMIC CHARGES
-----------------------
   0 C :   -0.257540
   1 C :   -0.003983
   2 H :    0.038264
   3 H :    0.038735
   4 S :    1.541093
   5 O :   -0.717573
   6 O :   -0.701374
   7 C :    0.768415
   8 H :    0.025313
   9 H :   -0.126759
  10 F :   -0.431626
  11 H :   -0.125044
  12 H :   -0.041792
  13 H :   -0.006130
Sum of atomic charges:   -0.0000000

LOEWDIN ATOMIC CHARGES
----------------------
   0 C :   -0.077157
   1 C :   -0.048567
   2 H :    0.027046
   3 H :    0.032384
   4 S :    1.145770
   5 O :   -0.474229
   6 O :   -0.470790
   7 C :    0.139886
   8 H :    0.027751
   9 H :    0.031764
  10 F :   -0.290406
  11 H :   -0.025536
  12 H :   -0.008782
  13 H :   -0.009132

  Mayer bond orders larger than 0.100000
B(  0-C ,  1-C ) :   1.2911 B(  0-C ,  2-H ) :   0.1198 B(  0-C ,  3-H ) :   0.1209
B(  0-C ,  7-C ) :   1.2833 B(  0-C ,  8-H ) :   0.9026 B(  0-C ,  9-H ) :   0.9129
B(  0-C , 11-H ) :   0.2170 B(  0-C , 12-H ) :   0.2021 B(  0-C , 13-H ) :   0.2199
B(  1-C ,  2-H ) :   0.9400 B(  1-C ,  3-H ) :   0.9096 B(  1-C ,  4-S ) :   0.9780
B(  1-C ,  8-H ) :   0.1371 B(  1-C ,  9-H ) :   0.1304 B(  4-S ,  5-O ) :   1.5436
B(  4-S ,  6-O ) :   1.5029 B(  4-S , 10-F ) :   0.5617 B(  7-C , 11-H ) :   0.8229
B(  7-C , 12-H ) :   0.7746 B(  7-C , 13-H ) :   0.7568

Dispersion correction           -0.000291570
FINAL SINGLE POINT ENERGY      -766.394869588236

DIPOLE MOMENT
-------------
                                X             Y             Z
Electronic contribution:      4.97932      -7.32222      -8.23717
Nuclear contribution   :     -4.86824       8.29128       9.64318
                        -----------------------------------------
Total Dipole Moment    :      0.11108       0.96906       1.40601
                        -----------------------------------------
Magnitude (a.u.)       :      1.71122
Magnitude (Debye)      :      4.34959

Rotational constants in cm-1:     0.129339     0.055092     0.051542
Rotational constants in MHz :  3877.477482  1651.602611  1545.182728

                             ****ORCA TERMINATED NORMALLY****
TOTAL RUN TIME: 0 days 0 hours 0 minutes 16 seconds 622 msec
