                         Program Version 5.0.0 -  RELEASE  -
|  1> !M062X D3Zero RIJCOSX def2-SVPD def2/J TightSCF
|  2> *xyz 0 1
|  3> C          1.96337       -1.74915       -1.89689
|  4> N          2.73849       -2.01517       -3.09711
|  5> C          4.04974       -2.15472       -3.15204
|  6> N          4.65821       -1.98629       -4.31866
|  7> C          4.76423       -2.45444       -2.05049
|  8> H          4.28736       -2.77626       -1.21750
|  9> H          5.75082       -2.65835       -2.12599
| 10> H          2.34518       -1.69027       -3.97145
| 11> H          4.10900       -1.59268       -5.07176
| 12> H          5.64910       -2.15646       -4.42724
| 13> C          2.08852       -0.30091       -1.41520
| 14> H          2.23127       -2.45162       -1.10264
| 15> H          0.93025       -1.97780       -2.15544
| 16> C          1.96899        0.73358       -2.53565
| 17> H          3.05136       -0.16860       -0.91187
| 18> H          1.31650       -0.13623       -0.65725
| 19> H          2.73046        0.55745       -3.26643
| 20> H          2.08619        1.71595       -2.12808
| 21> H          1.00672        0.65098       -2.99620
| 22> *
| 23> %MaxCore 64000
| 24>
| 25> %pal nprocs 8
| 26> end
| 27>
| 28> %scf
| 29>   MaxIter 150
| 30> end
| 31>
| 32>
| 33>                          ****END OF INPUT****

CARTESIAN COORDINATES (ANGSTROEM)
---------------------------------
  C      1.963370   -1.749150   -1.896890
  N      2.738490   -2.015170   -3.097110
  C      4.049740   -2.154720   -3.152040
  N      4.658210   -1.986290   -4.318660
  C      4.764230   -2.454440   -2.050490
  H      4.287360   -2.776260   -1.217500
  H      5.750820   -2.658350   -2.125990
  H      2.345180   -1.690270   -3.971450
  H      4.109000   -1.592680   -5.071760
  H      5.649100   -2.156460   -4.427240
  C      2.088520   -0.300910   -1.415200
  H      2.231270   -2.451620   -1.102640
  H      0.930250   -1.977800   -2.155440
  C      1.968990    0.733580   -2.535650
  H      3.051360   -0.168600   -0.911870
  H      1.316500   -0.136230   -0.657250
  H      2.730460    0.557450   -3.266430
  H      2.086190    1.715950   -2.128080
  H      1.006720    0.650980   -2.996200

 Total Charge           Charge          ....    0
 Multiplicity           Mult            ....    1
 Number of Electrons    NEL             ....   56
 Basis Dimension        Dim             ....  236

ORBITAL ENERGIES
----------------

  NO   OCC          E(Eh)            E(eV)
   0   2.0000     -14.764210      -401.7546
   1   2.0000     -14.763479      -401.7347
   2   2.0000     -10.598927      -288.4115
   3   2.0000     -10.583073      -287.9801
   4   2.0000     -10.543079      -286.8918
   5   2.0000     -10.535382      -286.6823
   6   2.0000     -10.463967      -284.7390
   7   2.0000      -1.075382       -29.2626
   8   2.0000      -0.981914       -26.7192
   9   2.0000      -0.866790       -23.5865
  10   2.0000      -0.797079       -21.6896
  11   2.0000      -0.776260       -21.1231
  12   2.0000      -0.687177       -18.6990
  13   2.0000      -0.629114       -17.1191
  14   2.0000      -0.622407       -16.9366
  15   2.0000      -0.598204       -16.2779
  16   2.0000      -0.545417       -14.8416
  17   2.0000      -0.521083       -14.1794
  18   2.0000      -0.505790       -13.7632
  19   2.0000      -0.469334       -12.7712
  20   2.0000      -0.464151       -12.6302
  21   2.0000      -0.447768       -12.1844
  22   2.0000      -0.436534       -11.8787
  23   2.0000      -0.414126       -11.2689
  24   2.0000      -0.407445       -11.0871
  25   2.0000      -0.390814       -10.6346
  26   2.0000      -0.314012        -8.5447
  27   2.0000      -0.216560        -5.8929
  28   0.0000       0.029034         0.7900
  29   0.0000       0.054202         1.4749
  30   0.0000       0.062252         1.6940
  31   0.0000       0.067431         1.8349
  32   0.0000       0.087562         2.3827

MULLIKEN ATOMIC CHARGES
-----------------------
   0 C :    0.748109
   1 N :   -0.484768
   2 C :    0.791210
   3 N :   -0.089012
   4 C :    0.365726
   5 H :   -0.028513
   6 H :   -0.621700
   7 H :   -0.235316
   8 H :   -0.069217
   9 H :   -0.117031
  10 C :   -0.292411
  11 H :    0.004350
  12 H :   -0.332525
  13 C :    0.754799
  14 H :   -0.059134
  15 H :   -0.124775
  16 H :   -0.136161
  17 H :   -0.085662
  18 H :    0.012031
Sum of atomic charges:   -0.0000000

LOEWDIN ATOMIC CHARGES
----------------------
   0 C :    0.057815
   1 N :   -0.032543
   2 C :   -0.241341
   3 N :    0.178474
   4 C :    0.166785
   5 H :   -0.112446
   6 H :   -0.105858
   7 H :    0.016683
   8 H :   -0.006958
   9 H :    0.013812
  10 C :   -0.059132
  11 H :    0.018220
  12 H :    0.020952
  13 C :    0.120783
  14 H :    0.015215
  15 H :    0.018281
  16 H :   -0.032445
  17 H :   -0.018142
  18 H :   -0.018155

  Mayer bond orders larger than 0.100000
B(  0-C ,  1-N ) :   0.9085 B(  0-C ,  4-C ) :   0.1046 B(  0-C ,  7-H ) :  -0.1496
B(  0-C , 10-C ) :   1.0307 B(  0-C , 11-H ) :   0.8729 B(  0-C , 12-H ) :   0.8085
B(  0-C , 14-H ) :   0.1063 B(  0-C , 15-H ) :   0.1051 B(  1-N ,  2-C ) :   0.9180
B(  1-N ,  3-N ) :   0.2219 B(  1-N ,  4-C ) :   0.3552 B(  1-N ,  7-H ) :   1.2545
B(  1-N , 12-H ) :   0.2269 B(  2-C ,  3-N ) :   0.7572 B(  2-C ,  4-C ) :   1.6450
B(  2-C ,  5-H ) :   0.2858 B(  2-C ,  6-H ) :   0.1343 B(  2-C ,  7-H ) :  -0.2011
B(  2-C ,  9-H ) :  -0.1336 B(  3-N ,  4-C ) :   0.2124 B(  3-N ,  8-H ) :   1.1291
B(  3-N ,  9-H ) :   1.2779 B(  4-C ,  5-H ) :   0.5884 B(  4-C ,  6-H ) :   0.9395
B(  5-H , 11-H ) :   0.1457 B(  5-H , 12-H ) :  -0.1128 B(  8-H ,  9-H ) :  -0.1786
B( 10-C , 12-H ) :   0.1397 B( 10-C , 13-C ) :   1.2897 B( 10-C , 14-H ) :   0.9683
B( 10-C , 15-H ) :   0.9743 B( 10-C , 16-H ) :   0.2269 B( 10-C , 17-H ) :   0.2048
B( 10-C , 18-H ) :   0.2128 B( 11-H , 12-H ) :  -0.1974 B( 13-C , 16-H ) :   0.8357
B( 13-C , 17-H ) :   0.7956 B( 13-C , 18-H ) :   0.7442 B( 16-H , 18-H ) :   0.1031

Dispersion correction           -0.000496200
FINAL SINGLE POINT ENERGY      -306.858506424073

DIPOLE MOMENT
-------------
                                X             Y             Z
Electronic contribution:      1.87327      -3.41247      -2.60215
Nuclear contribution   :     -2.38731       3.82978       1.80833
                        -----------------------------------------
Total Dipole Moment    :     -0.51404       0.41732      -0.79382
                        -----------------------------------------
Magnitude (a.u.)       :      1.03370
Magnitude (Debye)      :      2.62747

Rotational constants in cm-1:     0.144922     0.055791     0.049560
Rotational constants in MHz :  4344.653038  1672.561873  1485.775629

                             ****ORCA TERMINATED NORMALLY****
TOTAL RUN TIME: 0 days 0 hours 0 minutes 19 seconds 689 msec
