                         Program Version 5.0.0 -  RELEASE  -
|  1> !M062X D3Zero RIJCOSX def2-SVPD def2/J TightSCF xyzfile
|  2>
|  3> *xyzfile 0 1 D1.xyz
|  4>
|  5> %MaxCore 64000
|  6>
|  7> %pal nprocs 4
|  8> end
|  9>
| 10> %scf
| 11>   MaxIter 150
| 12> end
| 13>
| 14>
| 15>                          ****END OF INPUT****

CARTESIAN COORDINATES (ANGSTROEM)
---------------------------------
  C      1.963365   -1.749150   -1.896887
  C      2.738490   -2.015170   -3.097113
  C      0.611877    1.657634   -4.500288
  C      1.694991    1.541794   -5.570447
  H      2.697326    1.734659   -5.183996
  H      1.506656    2.272239   -6.358076
  S      1.780287   -0.033128   -6.428739
  C      4.049736   -2.154717   -3.152044
  N      4.658206   -1.986293   -4.318655
  N      4.764231   -2.454435   -2.050491
  H      4.287363   -2.776259   -1.217496
  H      5.750825   -2.658351   -2.125988
  H      2.345176   -1.690274   -3.971447
  H      4.109004   -1.592677   -5.071760
  H      5.649095   -2.156462   -4.427237
  F      2.569287    0.213657   -7.607360
  O      0.416880   -0.462969   -6.618595
  C      2.088520   -0.300912   -1.415204
  H      2.231272   -2.451616   -1.102643
  H      0.930249   -1.977801   -2.155438
  C      0.680356    0.655418   -3.348038
  H     -0.356865    1.549231   -4.991128
  H      0.650228    2.675438   -4.096000
  C      1.968993    0.733582   -2.535654
  H      3.051356   -0.168602   -0.911868
  H      1.316501   -0.136231   -0.657252
  O      2.505129   -0.933263   -5.482570
  H      2.824195    0.624726   -3.208464
  H      2.058919    1.730331   -2.093112
  H      0.542252   -0.344731   -3.766662
  H     -0.174219    0.829692   -2.685182

 Total Charge           Charge          ....    0
 Multiplicity           Mult            ....    1
 Number of Electrons    NEL             ....  120
 Basis Dimension        Dim             ....  432

ORBITAL ENERGIES
----------------

  NO   OCC          E(Eh)            E(eV)
   0   2.0000     -90.209081     -2454.7139
   1   2.0000     -25.390576      -690.9127
   2   2.0000     -19.664596      -535.1009
   3   2.0000     -19.650906      -534.7283
   4   2.0000     -14.745876      -401.2557
   5   2.0000     -14.730323      -400.8325
   6   2.0000     -10.618322      -288.9392
   7   2.0000     -10.577952      -287.8407
   8   2.0000     -10.572981      -287.7055
   9   2.0000     -10.545845      -286.9670
  10   2.0000     -10.533901      -286.6420
  11   2.0000     -10.523281      -286.3530
  12   2.0000     -10.511289      -286.0267
  13   2.0000     -10.439577      -284.0753
  14   2.0000      -8.532676      -232.1859
  15   2.0000      -6.461103      -175.8155
  16   2.0000      -6.455931      -175.6748
  17   2.0000      -6.454720      -175.6419
  18   2.0000      -1.529537       -41.6208
  19   2.0000      -1.237772       -33.6815
  20   2.0000      -1.130542       -30.7636
  21   2.0000      -1.037658       -28.2361
  22   2.0000      -0.941607       -25.6224
  23   2.0000      -0.932080       -25.3632
  24   2.0000      -0.885727       -24.1019
  25   2.0000      -0.851045       -23.1581
  26   2.0000      -0.818771       -22.2799
  27   2.0000      -0.780189       -21.2300
  28   2.0000      -0.738843       -20.1049
  29   2.0000      -0.707945       -19.2642
  30   2.0000      -0.704092       -19.1593
  31   2.0000      -0.677943       -18.4478
  32   2.0000      -0.670921       -18.2567
  33   2.0000      -0.631025       -17.1711
  34   2.0000      -0.627241       -17.0681
  35   2.0000      -0.600575       -16.3425
  36   2.0000      -0.577106       -15.7039
  37   2.0000      -0.569565       -15.4987
  38   2.0000      -0.559829       -15.2337
  39   2.0000      -0.543419       -14.7872
  40   2.0000      -0.537089       -14.6149
  41   2.0000      -0.516019       -14.0416
  42   2.0000      -0.504435       -13.7264
  43   2.0000      -0.495267       -13.4769
  44   2.0000      -0.483222       -13.1491
  45   2.0000      -0.474040       -12.8993
  46   2.0000      -0.450706       -12.2643
  47   2.0000      -0.445482       -12.1222
  48   2.0000      -0.437879       -11.9153
  49   2.0000      -0.429634       -11.6909
  50   2.0000      -0.420784       -11.4501
  51   2.0000      -0.398656       -10.8480
  52   2.0000      -0.395367       -10.7585
  53   2.0000      -0.393701       -10.7131
  54   2.0000      -0.387649       -10.5485
  55   2.0000      -0.372815       -10.1448
  56   2.0000      -0.358801        -9.7635
  57   2.0000      -0.346253        -9.4220
  58   2.0000      -0.308723        -8.4008
  59   2.0000      -0.189289        -5.1508
  60   0.0000       0.004637         0.1262
  61   0.0000       0.028953         0.7878
  62   0.0000       0.034265         0.9324
  63   0.0000       0.044028         1.1981
  64   0.0000       0.056844         1.5468

MULLIKEN ATOMIC CHARGES
-----------------------
   0 C :    0.279482
   1 C :    0.132398
   2 C :    0.424497
   3 C :    0.101471
   4 H :    0.136777
   5 H :   -0.081367
   6 S :    1.698311
   7 C :    0.867903
   8 N :    0.026892
   9 N :   -0.118083
  10 H :   -0.013884
  11 H :   -0.258371
  12 H :   -0.532209
  13 H :   -0.157835
  14 H :   -0.263390
  15 F :   -0.499608
  16 O :   -0.729832
  17 C :    0.653036
  18 H :   -0.396408
  19 H :    0.140688
  20 C :    0.060249
  21 H :   -0.011287
  22 H :   -0.041410
  23 C :   -0.099179
  24 H :   -0.049652
  25 H :    0.030528
  26 O :   -0.744207
  27 H :    0.036283
  28 H :   -0.257939
  29 H :   -0.111280
  30 H :   -0.222573
Sum of atomic charges:   -0.0000000

LOEWDIN ATOMIC CHARGES
----------------------
   0 C :   -0.048792
   1 C :   -0.021392
   2 C :   -0.019243
   3 C :   -0.042372
   4 H :    0.022895
   5 H :    0.019131
   6 S :    1.222098
   7 C :   -0.195788
   8 N :    0.192815
   9 N :    0.188705
  10 H :   -0.010514
  11 H :   -0.014351
  12 H :   -0.131834
  13 H :   -0.078100
  14 H :   -0.007769
  15 F :   -0.257604
  16 O :   -0.452770
  17 C :   -0.020805
  18 H :    0.000435
  19 H :    0.011085
  20 C :   -0.015964
  21 H :    0.029481
  22 H :    0.038544
  23 C :   -0.028548
  24 H :    0.017706
  25 H :    0.015548
  26 O :   -0.488880
  27 H :    0.007465
  28 H :    0.021839
  29 H :    0.011994
  30 H :    0.034984

  Mayer bond orders larger than 0.100000
B(  0-C ,  1-C ) :   1.0322 B(  0-C ,  7-C ) :   0.1303 B(  0-C , 12-H ) :   0.4248
B(  0-C , 17-C ) :   1.0954 B(  0-C , 18-H ) :   0.8488 B(  0-C , 19-H ) :   0.6567
B(  0-C , 23-C ) :   0.1284 B(  0-C , 24-H ) :   0.1304 B(  0-C , 25-H ) :   0.1982
B(  1-C ,  7-C ) :   1.7170 B(  1-C ,  8-N ) :   0.2410 B(  1-C ,  9-N ) :   0.2577
B(  1-C , 18-H ) :   0.2357 B(  1-C , 19-H ) :   0.2904 B(  1-C , 26-O ) :  -0.1304
B(  1-C , 27-H ) :  -0.1099 B(  1-C , 28-H ) :   0.1274 B(  2-C ,  3-C ) :   1.2987
B(  2-C ,  5-H ) :   0.1892 B(  2-C , 20-C ) :   1.2469 B(  2-C , 21-H ) :   0.6795
B(  2-C , 22-H ) :   0.8035 B(  3-C ,  4-H ) :   0.8708 B(  3-C ,  5-H ) :   0.8223
B(  3-C ,  6-S ) :   1.0141 B(  3-C , 22-H ) :   0.1244 B(  6-S , 15-F ) :   0.5464
B(  6-S , 16-O ) :   1.4494 B(  6-S , 26-O ) :   1.2713 B(  7-C ,  8-N ) :   0.6924
B(  7-C ,  9-N ) :   0.7948 B(  7-C , 11-H ) :  -0.2028 B(  7-C , 12-H ) :   0.6401
B(  7-C , 13-H ) :  -0.1404 B(  7-C , 14-H ) :  -0.2713 B(  8-N , 12-H ) :   0.1054
B(  8-N , 13-H ) :   1.1963 B(  8-N , 14-H ) :   1.3895 B(  9-N , 10-H ) :   1.0578
B(  9-N , 11-H ) :   1.3737 B( 10-H , 11-H ) :  -0.2276 B( 12-H , 23-C ) :   0.1219
B( 12-H , 26-O ) :   0.1071 B( 12-H , 27-H ) :   0.1296 B( 12-H , 28-H ) :  -0.1454
B( 13-H , 14-H ) :  -0.2058 B( 16-O , 26-O ) :   0.1118 B( 17-C , 23-C ) :   1.2384
B( 17-C , 24-H ) :   0.7393 B( 17-C , 25-H ) :   0.6672 B( 19-H , 29-H ) :   0.1012
B( 20-C , 21-H ) :   0.2763 B( 20-C , 23-C ) :   1.1685 B( 20-C , 27-H ) :   0.1030
B( 20-C , 28-H ) :   0.1504 B( 20-C , 29-H ) :   0.9619 B( 20-C , 30-H ) :   0.8758
B( 21-H , 22-H ) :  -0.1259 B( 23-C , 24-H ) :   0.2567 B( 23-C , 25-H ) :   0.1496
B( 23-C , 27-H ) :   0.9298 B( 23-C , 28-H ) :   0.9207 B( 23-C , 29-H ) :   0.1012
B( 23-C , 30-H ) :   0.1596 B( 24-H , 25-H ) :  -0.1386

Dispersion correction           -0.001893218
FINAL SINGLE POINT ENERGY     -1072.045073378614

DIPOLE MOMENT
-------------
                                X             Y             Z
Electronic contribution:      0.71746      -0.93534     -23.49000
Nuclear contribution   :      0.18720       2.58739      22.98820
                        -----------------------------------------
Total Dipole Moment    :      0.90466       1.65205      -0.50180
                        -----------------------------------------
Magnitude (a.u.)       :      1.94923
Magnitude (Debye)      :      4.95455

Rotational constants in cm-1:     0.028798     0.014448     0.010940
Rotational constants in MHz :   863.355869   433.126694   327.985023

                             ****ORCA TERMINATED NORMALLY****
TOTAL RUN TIME: 0 days 0 hours 3 minutes 3 seconds 920 msec
