                         Program Version 5.0.0 -  RELEASE  -
|  1> !M062X D3Zero RIJCOSX def2-SVPD def2/J TightSCF xyzfile
|  2>
|  3> *xyzfile 0 1 D2.xyz
|  4>
|  5> %MaxCore 64000
|  6>
|  7> %pal nprocs 4
|  8> end
|  9>
| 10> %scf
| 11>   MaxIter 150
| 12> end
| 13>
| 14>
| 15>                          ****END OF INPUT****

CARTESIAN COORDINATES (ANGSTROEM)
---------------------------------
  C      1.963365   -1.749150   -1.896887
  N      2.738490   -2.015170   -3.097113
  C      0.611877    1.657634   -4.500288
  C      1.694991    1.541794   -5.570447
  H      2.697326    1.734659   -5.183996
  H      1.506656    2.272239   -6.358076
  S      1.780287   -0.033128   -6.428739
  C      4.049736   -2.154717   -3.152044
  C      4.658206   -1.986293   -4.318655
  N      4.764231   -2.454435   -2.050491
  H      4.287363   -2.776259   -1.217496
  H      5.750825   -2.658351   -2.125988
  H      2.345176   -1.690274   -3.971447
  H      4.109004   -1.592677   -5.071760
  H      5.649095   -2.156462   -4.427237
  F      2.569287    0.213657   -7.607360
  O      0.416880   -0.462969   -6.618595
  C      2.088520   -0.300912   -1.415204
  H      2.231272   -2.451616   -1.102643
  H      0.930249   -1.977801   -2.155438
  C      0.680356    0.655418   -3.348038
  H     -0.356865    1.549231   -4.991128
  H      0.650228    2.675438   -4.096000
  C      1.968993    0.733582   -2.535654
  H      3.051356   -0.168602   -0.911868
  H      1.316501   -0.136231   -0.657252
  O      2.505129   -0.933263   -5.482570
  H      2.824195    0.624726   -3.208464
  H      2.058919    1.730331   -2.093112
  H      0.542252   -0.344731   -3.766662
  H     -0.174219    0.829692   -2.685182

 Total Charge           Charge          ....    0
 Multiplicity           Mult            ....    1
 Number of Electrons    NEL             ....  120
 Basis Dimension        Dim             ....  432

ORBITAL ENERGIES
----------------

  NO   OCC          E(Eh)            E(eV)
   0   2.0000     -90.211876     -2454.7900
   1   2.0000     -25.391904      -690.9488
   2   2.0000     -19.666313      -535.1476
   3   2.0000     -19.650386      -534.7142
   4   2.0000     -14.743241      -401.1840
   5   2.0000     -14.727399      -400.7529
   6   2.0000     -10.621590      -289.0281
   7   2.0000     -10.585689      -288.0512
   8   2.0000     -10.574625      -287.7502
   9   2.0000     -10.573172      -287.7106
  10   2.0000     -10.559544      -287.3398
  11   2.0000     -10.549035      -287.0538
  12   2.0000     -10.543490      -286.9029
  13   2.0000     -10.432762      -283.8899
  14   2.0000      -8.535179      -232.2540
  15   2.0000      -6.463493      -175.8806
  16   2.0000      -6.458547      -175.7460
  17   2.0000      -6.457318      -175.7125
  18   2.0000      -1.530366       -41.6434
  19   2.0000      -1.239384       -33.7253
  20   2.0000      -1.131325       -30.7849
  21   2.0000      -1.046102       -28.4659
  22   2.0000      -0.957879       -26.0652
  23   2.0000      -0.938330       -25.5332
  24   2.0000      -0.887037       -24.1375
  25   2.0000      -0.855511       -23.2796
  26   2.0000      -0.816911       -22.2293
  27   2.0000      -0.785554       -21.3760
  28   2.0000      -0.745812       -20.2946
  29   2.0000      -0.714487       -19.4422
  30   2.0000      -0.705127       -19.1875
  31   2.0000      -0.682895       -18.5825
  32   2.0000      -0.675740       -18.3878
  33   2.0000      -0.645112       -17.5544
  34   2.0000      -0.638367       -17.3709
  35   2.0000      -0.591773       -16.1030
  36   2.0000      -0.581371       -15.8199
  37   2.0000      -0.575053       -15.6480
  38   2.0000      -0.552722       -15.0403
  39   2.0000      -0.550781       -14.9875
  40   2.0000      -0.539162       -14.6713
  41   2.0000      -0.530007       -14.4222
  42   2.0000      -0.512250       -13.9390
  43   2.0000      -0.500902       -13.6302
  44   2.0000      -0.486662       -13.2428
  45   2.0000      -0.473101       -12.8737
  46   2.0000      -0.456980       -12.4351
  47   2.0000      -0.450294       -12.2531
  48   2.0000      -0.439436       -11.9577
  49   2.0000      -0.432067       -11.7571
  50   2.0000      -0.422135       -11.4869
  51   2.0000      -0.419496       -11.4151
  52   2.0000      -0.417192       -11.3524
  53   2.0000      -0.400903       -10.9091
  54   2.0000      -0.391823       -10.6620
  55   2.0000      -0.385763       -10.4971
  56   2.0000      -0.380387       -10.3509
  57   2.0000      -0.372995       -10.1497
  58   2.0000      -0.295215        -8.0332
  59   2.0000      -0.191760        -5.2180
  60   0.0000       0.006133         0.1669
  61   0.0000       0.029135         0.7928
  62   0.0000       0.035096         0.9550
  63   0.0000       0.040265         1.0957
  64   0.0000       0.054668         1.4876

MULLIKEN ATOMIC CHARGES
-----------------------
   0 C :    1.014985
   1 N :    0.021676
   2 C :    0.431173
   3 C :    0.094680
   4 H :    0.140151
   5 H :   -0.074973
   6 S :    1.717248
   7 C :    0.859433
   8 C :    0.573477
   9 N :    0.084776
  10 H :   -0.050143
  11 H :   -0.197941
  12 H :   -0.758608
  13 H :   -0.253729
  14 H :   -0.689951
  15 F :   -0.494985
  16 O :   -0.733515
  17 C :    0.446056
  18 H :   -0.443033
  19 H :   -0.140456
  20 C :    0.047374
  21 H :   -0.000878
  22 H :   -0.035260
  23 C :    0.061557
  24 H :   -0.041741
  25 H :   -0.110340
  26 O :   -0.879265
  27 H :    0.109567
  28 H :   -0.387261
  29 H :   -0.098260
  30 H :   -0.211814
Sum of atomic charges:   -0.0000000

LOEWDIN ATOMIC CHARGES
----------------------
   0 C :    0.062502
   1 N :    0.000191
   2 C :   -0.017491
   3 C :   -0.040842
   4 H :    0.024852
   5 H :    0.020028
   6 S :    1.223997
   7 C :   -0.218776
   8 C :    0.170211
   9 N :    0.187125
  10 H :   -0.025531
  11 H :    0.002374
  12 H :   -0.072944
  13 H :   -0.167324
  14 H :   -0.101240
  15 F :   -0.249023
  16 O :   -0.457493
  17 C :   -0.014942
  18 H :    0.007153
  19 H :    0.017276
  20 C :   -0.020831
  21 H :    0.030411
  22 H :    0.039729
  23 C :   -0.025296
  24 H :    0.018402
  25 H :    0.018498
  26 O :   -0.488375
  27 H :    0.009506
  28 H :    0.024792
  29 H :    0.007833
  30 H :    0.035229

  Mayer bond orders larger than 0.100000
B(  0-C ,  1-N ) :   0.9293 B(  0-C , 12-H ) :  -0.4165 B(  0-C , 17-C ) :   1.0426
B(  0-C , 18-H ) :   0.8855 B(  0-C , 19-H ) :   0.6339 B(  0-C , 23-C ) :   0.1161
B(  0-C , 25-H ) :   0.1026 B(  1-N ,  7-C ) :   1.0451 B(  1-N ,  8-C ) :   0.2262
B(  1-N ,  9-N ) :   0.2169 B(  1-N , 12-H ) :   1.1111 B(  1-N , 19-H ) :   0.1262
B(  2-C ,  3-C ) :   1.2971 B(  2-C ,  5-H ) :   0.1837 B(  2-C , 20-C ) :   1.2571
B(  2-C , 21-H ) :   0.6755 B(  2-C , 22-H ) :   0.8042 B(  3-C ,  4-H ) :   0.8768
B(  3-C ,  5-H ) :   0.8290 B(  3-C ,  6-S ) :   1.0021 B(  3-C , 21-H ) :   0.1008
B(  3-C , 22-H ) :   0.1322 B(  6-S , 15-F ) :   0.5531 B(  6-S , 16-O ) :   1.4499
B(  6-S , 26-O ) :   1.2822 B(  7-C ,  8-C ) :   1.3257 B(  7-C ,  9-N ) :   0.8684
B(  7-C , 11-H ) :  -0.1546 B(  7-C , 12-H ) :  -0.4221 B(  7-C , 13-H ) :   0.1228
B(  7-C , 14-H ) :   0.2205 B(  8-C ,  9-N ) :   0.2650 B(  8-C , 13-H ) :   0.5960
B(  8-C , 14-H ) :   0.7317 B(  9-N , 10-H ) :   0.9626 B(  9-N , 11-H ) :   1.2686
B(  9-N , 18-H ) :   0.1063 B( 10-H , 11-H ) :  -0.2210 B( 12-H , 19-H ) :   0.2330
B( 12-H , 24-H ) :   0.1590 B( 12-H , 27-H ) :   0.1265 B( 12-H , 28-H ) :  -0.1197
B( 13-H , 14-H ) :  -0.2775 B( 13-H , 26-O ) :   0.2075 B( 16-O , 26-O ) :   0.1072
B( 17-C , 18-H ) :   0.1219 B( 17-C , 19-H ) :   0.1057 B( 17-C , 23-C ) :   1.2734
B( 17-C , 24-H ) :   0.7580 B( 17-C , 25-H ) :   0.8984 B( 18-H , 19-H ) :  -0.1905
B( 19-H , 23-C ) :  -0.1118 B( 19-H , 29-H ) :   0.1002 B( 20-C , 21-H ) :   0.2771
B( 20-C , 23-C ) :   1.1406 B( 20-C , 27-H ) :   0.1035 B( 20-C , 28-H ) :   0.1191
B( 20-C , 29-H ) :   0.9759 B( 20-C , 30-H ) :   0.8805 B( 21-H , 22-H ) :  -0.1242
B( 23-C , 24-H ) :   0.2147 B( 23-C , 25-H ) :   0.1071 B( 23-C , 27-H ) :   0.8627
B( 23-C , 28-H ) :   0.9804 B( 23-C , 30-H ) :   0.1340 B( 24-H , 25-H ) :  -0.1295

Dispersion correction           -0.001889559
FINAL SINGLE POINT ENERGY     -1072.041144003236

DIPOLE MOMENT
-------------
                                X             Y             Z
Electronic contribution:     -0.88740      -0.75561     -22.46124
Nuclear contribution   :      0.43347       2.59110      22.83150
                        -----------------------------------------
Total Dipole Moment    :     -0.45393       1.83549       0.37026
                        -----------------------------------------
Magnitude (a.u.)       :      1.92670
Magnitude (Debye)      :      4.89728

Rotational constants in cm-1:     0.029257     0.014415     0.010996
Rotational constants in MHz :   877.098782   432.159206   329.643335

                             ****ORCA TERMINATED NORMALLY****
TOTAL RUN TIME: 0 days 0 hours 3 minutes 7 seconds 142 msec
