                         Program Version 5.0.0 -  RELEASE  -
|  1> !M062X D3Zero RIJCOSX def2-SVPD def2/J TightSCF xyzfile
|  2>
|  3> *xyzfile 0 1 D3.xyz
|  4>
|  5> %MaxCore 64000
|  6>
|  7> %pal nprocs 4
|  8> end
|  9>
| 10> %scf
| 11>   MaxIter 150
| 12> end
| 13>
| 14>
| 15>                          ****END OF INPUT****

CARTESIAN COORDINATES (ANGSTROEM)
---------------------------------
  C      1.963365   -1.749150   -1.896887
  N      2.738490   -2.015170   -3.097113
  C      0.611877    1.657634   -4.500288
  C      1.694991    1.541794   -5.570447
  H      2.697326    1.734659   -5.183996
  H      1.506656    2.272239   -6.358076
  S      1.780287   -0.033128   -6.428739
  C      4.049736   -2.154717   -3.152044
  N      4.658206   -1.986293   -4.318655
  C      4.764231   -2.454435   -2.050491
  H      4.287363   -2.776259   -1.217496
  H      5.750825   -2.658351   -2.125988
  H      2.345176   -1.690274   -3.971447
  H      4.109004   -1.592677   -5.071760
  H      5.649095   -2.156462   -4.427237
  F      2.569287    0.213657   -7.607360
  O      0.416880   -0.462969   -6.618595
  C      2.088520   -0.300912   -1.415204
  H      2.231272   -2.451616   -1.102643
  H      0.930249   -1.977801   -2.155438
  C      0.680356    0.655418   -3.348038
  H     -0.356865    1.549231   -4.991128
  H      0.650228    2.675438   -4.096000
  C      1.968993    0.733582   -2.535654
  H      3.051356   -0.168602   -0.911868
  H      1.316501   -0.136231   -0.657252
  O      2.505129   -0.933263   -5.482570
  H      2.824195    0.624726   -3.208464
  H      2.058919    1.730331   -2.093112
  H      0.542252   -0.344731   -3.766662
  H     -0.174219    0.829692   -2.685182

 Total Charge           Charge          ....    0
 Multiplicity           Mult            ....    1
 Number of Electrons    NEL             ....  120
 Basis Dimension        Dim             ....  432

ORBITAL ENERGIES
----------------

  NO   OCC          E(Eh)            E(eV)
   0   2.0000     -90.227965     -2455.2278
   1   2.0000     -25.406551      -691.3474
   2   2.0000     -19.680633      -535.5373
   3   2.0000     -19.671811      -535.2972
   4   2.0000     -14.729586      -400.8124
   5   2.0000     -14.728925      -400.7944
   6   2.0000     -10.632351      -289.3210
   7   2.0000     -10.591792      -288.2173
   8   2.0000     -10.574936      -287.7586
   9   2.0000     -10.567900      -287.5672
  10   2.0000     -10.562597      -287.4229
  11   2.0000     -10.549895      -287.0772
  12   2.0000     -10.538056      -286.7551
  13   2.0000     -10.441532      -284.1285
  14   2.0000      -8.551307      -232.6929
  15   2.0000      -6.479657      -176.3204
  16   2.0000      -6.474745      -176.1868
  17   2.0000      -6.473331      -176.1483
  18   2.0000      -1.545200       -42.0470
  19   2.0000      -1.255511       -34.1642
  20   2.0000      -1.149993       -31.2929
  21   2.0000      -1.047471       -28.5031
  22   2.0000      -0.956947       -26.0399
  23   2.0000      -0.945727       -25.7345
  24   2.0000      -0.891724       -24.2650
  25   2.0000      -0.857155       -23.3244
  26   2.0000      -0.816896       -22.2289
  27   2.0000      -0.776691       -21.1348
  28   2.0000      -0.765843       -20.8397
  29   2.0000      -0.727763       -19.8034
  30   2.0000      -0.718193       -19.5430
  31   2.0000      -0.696125       -18.9425
  32   2.0000      -0.674817       -18.3627
  33   2.0000      -0.650708       -17.7067
  34   2.0000      -0.618452       -16.8289
  35   2.0000      -0.600813       -16.3489
  36   2.0000      -0.594128       -16.1670
  37   2.0000      -0.584644       -15.9090
  38   2.0000      -0.572986       -15.5917
  39   2.0000      -0.555702       -15.1214
  40   2.0000      -0.539193       -14.6722
  41   2.0000      -0.527894       -14.3647
  42   2.0000      -0.511825       -13.9275
  43   2.0000      -0.495429       -13.4813
  44   2.0000      -0.489906       -13.3310
  45   2.0000      -0.488573       -13.2947
  46   2.0000      -0.458386       -12.4733
  47   2.0000      -0.452792       -12.3211
  48   2.0000      -0.443045       -12.0559
  49   2.0000      -0.435347       -11.8464
  50   2.0000      -0.429528       -11.6880
  51   2.0000      -0.419439       -11.4135
  52   2.0000      -0.415930       -11.3180
  53   2.0000      -0.409413       -11.1407
  54   2.0000      -0.405145       -11.0246
  55   2.0000      -0.392197       -10.6722
  56   2.0000      -0.387653       -10.5486
  57   2.0000      -0.375447       -10.2164
  58   2.0000      -0.286749        -7.8028
  59   2.0000      -0.193694        -5.2707
  60   0.0000      -0.004170        -0.1135
  61   0.0000       0.020471         0.5570
  62   0.0000       0.026323         0.7163
  63   0.0000       0.038470         1.0468
  64   0.0000       0.049485         1.3465

MULLIKEN ATOMIC CHARGES
-----------------------
   0 C :    0.954814
   1 N :    0.108435
   2 C :    0.429365
   3 C :    0.094655
   4 H :    0.145489
   5 H :   -0.079772
   6 S :    1.715248
   7 C :    0.855427
   8 N :    0.296169
   9 C :    0.382096
  10 H :    0.046080
  11 H :   -0.701752
  12 H :   -0.940516
  13 H :   -0.293993
  14 H :   -0.242464
  15 F :   -0.491532
  16 O :   -0.722547
  17 C :    0.506590
  18 H :   -0.327682
  19 H :   -0.168414
  20 C :    0.031599
  21 H :    0.000040
  22 H :   -0.033814
  23 C :    0.059722
  24 H :   -0.131896
  25 H :   -0.049892
  26 O :   -0.835885
  27 H :    0.070269
  28 H :   -0.363279
  29 H :   -0.095691
  30 H :   -0.216870
Sum of atomic charges:    0.0000000

LOEWDIN ATOMIC CHARGES
----------------------
   0 C :    0.071084
   1 N :   -0.001227
   2 C :   -0.016790
   3 C :   -0.039510
   4 H :    0.024677
   5 H :    0.021641
   6 S :    1.226784
   7 C :   -0.221700
   8 N :    0.198589
   9 C :    0.155624
  10 H :   -0.119639
  11 H :   -0.112726
  12 H :   -0.083251
  13 H :   -0.090661
  14 H :    0.010301
  15 F :   -0.249172
  16 O :   -0.448608
  17 C :   -0.008474
  18 H :    0.015003
  19 H :    0.016943
  20 C :   -0.020944
  21 H :    0.030908
  22 H :    0.041178
  23 C :   -0.027328
  24 H :    0.018431
  25 H :    0.020763
  26 O :   -0.488199
  27 H :    0.007530
  28 H :    0.024945
  29 H :    0.007225
  30 H :    0.036602

  Mayer bond orders larger than 0.100000
B(  0-C ,  1-N ) :   0.9663 B(  0-C , 12-H ) :  -0.4395 B(  0-C , 17-C ) :   1.0132
B(  0-C , 18-H ) :   0.9157 B(  0-C , 19-H ) :   0.7087 B(  0-C , 23-C ) :   0.1077
B(  1-N ,  7-C ) :   0.9137 B(  1-N ,  9-C ) :   0.4768 B(  1-N , 12-H ) :   1.0021
B(  1-N , 13-H ) :   0.1174 B(  1-N , 19-H ) :   0.1484 B(  1-N , 26-O ) :  -0.1035
B(  2-C ,  3-C ) :   1.2979 B(  2-C ,  5-H ) :   0.1854 B(  2-C , 20-C ) :   1.2508
B(  2-C , 21-H ) :   0.6726 B(  2-C , 22-H ) :   0.8101 B(  3-C ,  4-H ) :   0.8729
B(  3-C ,  5-H ) :   0.8283 B(  3-C ,  6-S ) :   1.0041 B(  3-C , 22-H ) :   0.1253
B(  6-S , 15-F ) :   0.5550 B(  6-S , 16-O ) :   1.4625 B(  6-S , 26-O ) :   1.2575
B(  7-C ,  8-N ) :   0.7437 B(  7-C ,  9-C ) :   1.5125 B(  7-C , 10-H ) :   0.3367
B(  7-C , 11-H ) :   0.2419 B(  7-C , 12-H ) :  -0.4329 B(  7-C , 13-H ) :  -0.1050
B(  7-C , 14-H ) :  -0.2092 B(  8-N ,  9-C ) :   0.2290 B(  8-N , 13-H ) :   1.0839
B(  8-N , 14-H ) :   1.3254 B(  9-C , 10-H ) :   0.5346 B(  9-C , 11-H ) :   0.8160
B(  9-C , 12-H ) :  -0.1263 B( 10-H , 11-H ) :  -0.1017 B( 10-H , 18-H ) :   0.1796
B( 10-H , 19-H ) :  -0.1268 B( 12-H , 19-H ) :   0.1364 B( 12-H , 23-C ) :  -0.1178
B( 12-H , 26-O ) :   0.1018 B( 12-H , 27-H ) :   0.1391 B( 12-H , 28-H ) :  -0.1246
B( 13-H , 14-H ) :  -0.2081 B( 13-H , 26-O ) :   0.1864 B( 16-O , 26-O ) :   0.1114
B( 17-C , 23-C ) :   1.2635 B( 17-C , 24-H ) :   0.7969 B( 17-C , 25-H ) :   0.8390
B( 18-H , 19-H ) :  -0.2378 B( 19-H , 29-H ) :   0.1006 B( 20-C , 21-H ) :   0.2750
B( 20-C , 23-C ) :   1.1518 B( 20-C , 27-H ) :   0.1104 B( 20-C , 28-H ) :   0.1429
B( 20-C , 29-H ) :   0.9780 B( 20-C , 30-H ) :   0.8805 B( 21-H , 22-H ) :  -0.1221
B( 23-C , 24-H ) :   0.2268 B( 23-C , 25-H ) :   0.1157 B( 23-C , 27-H ) :   0.8551
B( 23-C , 28-H ) :   0.9494 B( 23-C , 30-H ) :   0.1370 B( 24-H , 25-H ) :  -0.1423

Dispersion correction           -0.001905070
FINAL SINGLE POINT ENERGY     -1072.053204254716

DIPOLE MOMENT
-------------
                                X             Y             Z
Electronic contribution:     -1.11785      -0.17117     -24.47446
Nuclear contribution   :      0.44707       2.53104      23.12246
                        -----------------------------------------
Total Dipole Moment    :     -0.67078       2.35988      -1.35200
                        -----------------------------------------
Magnitude (a.u.)       :      2.80123
Magnitude (Debye)      :      7.12015

Rotational constants in cm-1:     0.028906     0.014696     0.011110
Rotational constants in MHz :   866.591909   440.585554   333.081943

                             ****ORCA TERMINATED NORMALLY****
TOTAL RUN TIME: 0 days 0 hours 3 minutes 7 seconds 918 msec
