                         Program Version 5.0.0 -  RELEASE  -
|  1> !M062X D3Zero RIJCOSX def2-SVPD def2/J TightSCF xyzfile
|  2>
|  3> *xyzfile 0 1 D9.xyz
|  4>
|  5> %MaxCore 64000
|  6>
|  7> %pal nprocs 4
|  8> end
|  9>
| 10> %scf
| 11>   MaxIter 150
| 12> end
| 13>
| 14>
| 15>                          ****END OF INPUT****

CARTESIAN COORDINATES (ANGSTROEM)
---------------------------------
  C      1.963365   -1.749150   -1.896887
  N      2.738490   -2.015170   -3.097113
  C      0.611877    1.657634   -4.500288
  C      1.694991    1.541794   -5.570447
  H      2.697326    1.734659   -5.183996
  H      1.506656    2.272239   -6.358076
  S      1.780287   -0.033128   -6.428739
  C      4.049736   -2.154717   -3.152044
  N      4.658206   -1.986293   -4.318655
  C      4.764231   -2.454435   -2.050491
  H      4.287363   -2.776259   -1.217496
  H      5.750825   -2.658351   -2.125988
  H      2.345176   -1.690274   -3.971447
  H      4.109004   -1.592677   -5.071760
  H      5.649095   -2.156462   -4.427237
  O      2.569287    0.213657   -7.607360
  O      0.416880   -0.462969   -6.618595
  C      2.088520   -0.300912   -1.415204
  H      2.231272   -2.451616   -1.102643
  H      0.930249   -1.977801   -2.155438
  C      0.680356    0.655418   -3.348038
  H     -0.356865    1.549231   -4.991128
  H      0.650228    2.675438   -4.096000
  C      1.968993    0.733582   -2.535654
  H      3.051356   -0.168602   -0.911868
  H      1.316501   -0.136231   -0.657252
  F      2.505129   -0.933263   -5.482570
  H      2.824195    0.624726   -3.208464
  H      2.058919    1.730331   -2.093112
  H      0.542252   -0.344731   -3.766662
  H     -0.174219    0.829692   -2.685182

 Total Charge           Charge          ....    0
 Multiplicity           Mult            ....    1
 Number of Electrons    NEL             ....  120
 Basis Dimension        Dim             ....  432

ORBITAL ENERGIES
----------------

  NO   OCC          E(Eh)            E(eV)
   0   2.0000     -90.214620     -2454.8646
   1   2.0000     -25.387783      -690.8367
   2   2.0000     -19.672089      -535.3047
   3   2.0000     -19.671586      -535.2911
   4   2.0000     -14.759845      -401.6358
   5   2.0000     -14.759262      -401.6199
   6   2.0000     -10.625424      -289.1325
   7   2.0000     -10.598270      -288.3936
   8   2.0000     -10.588945      -288.1398
   9   2.0000     -10.586550      -288.0747
  10   2.0000     -10.572771      -287.6997
  11   2.0000     -10.563221      -287.4399
  12   2.0000     -10.552404      -287.1455
  13   2.0000     -10.463495      -284.7262
  14   2.0000      -8.538083      -232.3331
  15   2.0000      -6.466665      -175.9669
  16   2.0000      -6.461312      -175.8212
  17   2.0000      -6.460159      -175.7899
  18   2.0000      -1.510950       -41.1150
  19   2.0000      -1.258156       -34.2362
  20   2.0000      -1.158297       -31.5189
  21   2.0000      -1.075796       -29.2739
  22   2.0000      -0.982644       -26.7391
  23   2.0000      -0.946210       -25.7477
  24   2.0000      -0.895215       -24.3600
  25   2.0000      -0.859745       -23.3948
  26   2.0000      -0.826756       -22.4972
  27   2.0000      -0.787820       -21.4377
  28   2.0000      -0.780457       -21.2373
  29   2.0000      -0.727475       -19.7956
  30   2.0000      -0.705197       -19.1894
  31   2.0000      -0.691647       -18.8207
  32   2.0000      -0.674560       -18.3557
  33   2.0000      -0.650261       -17.6945
  34   2.0000      -0.626851       -17.0575
  35   2.0000      -0.619661       -16.8618
  36   2.0000      -0.595944       -16.2165
  37   2.0000      -0.588609       -16.0169
  38   2.0000      -0.576932       -15.6991
  39   2.0000      -0.562960       -15.3189
  40   2.0000      -0.554035       -15.0761
  41   2.0000      -0.536894       -14.6096
  42   2.0000      -0.519270       -14.1300
  43   2.0000      -0.510342       -13.8871
  44   2.0000      -0.498933       -13.5766
  45   2.0000      -0.487050       -13.2533
  46   2.0000      -0.472709       -12.8631
  47   2.0000      -0.468503       -12.7486
  48   2.0000      -0.450113       -12.2482
  49   2.0000      -0.442010       -12.0277
  50   2.0000      -0.438673       -11.9369
  51   2.0000      -0.433832       -11.8052
  52   2.0000      -0.430654       -11.7187
  53   2.0000      -0.416347       -11.3294
  54   2.0000      -0.412431       -11.2228
  55   2.0000      -0.405211       -11.0264
  56   2.0000      -0.400952       -10.9105
  57   2.0000      -0.389406       -10.5963
  58   2.0000      -0.313336        -8.5263
  59   2.0000      -0.216589        -5.8937
  60   0.0000       0.010242         0.2787
  61   0.0000       0.026554         0.7226
  62   0.0000       0.028857         0.7852
  63   0.0000       0.037840         1.0297
  64   0.0000       0.055786         1.5180

MULLIKEN ATOMIC CHARGES
-----------------------
   0 C :    0.962235
   1 N :    0.081154
   2 C :    0.492217
   3 C :    0.116806
   4 H :    0.150858
   5 H :   -0.153629
   6 S :    1.593679
   7 C :    0.867349
   8 N :    0.316797
   9 C :    0.381206
  10 H :    0.062016
  11 H :   -0.683586
  12 H :   -0.947869
  13 H :   -0.341477
  14 H :   -0.208848
  15 O :   -0.721751
  16 O :   -0.743492
  17 C :    0.494179
  18 H :   -0.314201
  19 H :   -0.169140
  20 C :    0.037506
  21 H :   -0.009072
  22 H :   -0.031561
  23 C :    0.027159
  24 H :   -0.128786
  25 H :   -0.052927
  26 F :   -0.496252
  27 H :    0.077609
  28 H :   -0.341135
  29 H :   -0.142471
  30 H :   -0.174575
Sum of atomic charges:   -0.0000000

LOEWDIN ATOMIC CHARGES
----------------------
   0 C :    0.073243
   1 N :   -0.007134
   2 C :   -0.027703
   3 C :   -0.033049
   4 H :    0.022428
   5 H :    0.034900
   6 S :    1.172163
   7 C :   -0.222617
   8 N :    0.200024
   9 C :    0.166656
  10 H :   -0.112829
  11 H :   -0.105324
  12 H :   -0.056689
  13 H :   -0.060611
  14 H :    0.018654
  15 O :   -0.457972
  16 O :   -0.454625
  17 C :   -0.006816
  18 H :    0.018357
  19 H :    0.019040
  20 C :   -0.025292
  21 H :    0.031006
  22 H :    0.038570
  23 C :   -0.029688
  24 H :    0.019901
  25 H :    0.023693
  26 F :   -0.312151
  27 H :    0.004507
  28 H :    0.028435
  29 H :    0.002909
  30 H :    0.038013

  Mayer bond orders larger than 0.100000
B(  0-C ,  1-N ) :   0.9476 B(  0-C , 12-H ) :  -0.4284 B(  0-C , 17-C ) :   1.0117
B(  0-C , 18-H ) :   0.9123 B(  0-C , 19-H ) :   0.7101 B(  0-C , 23-C ) :   0.1039
B(  1-N ,  7-C ) :   0.9128 B(  1-N ,  9-C ) :   0.4796 B(  1-N , 12-H ) :   1.0272
B(  1-N , 13-H ) :   0.1085 B(  1-N , 19-H ) :   0.1608 B(  1-N , 26-F ) :  -0.1022
B(  2-C ,  3-C ) :   1.2483 B(  2-C ,  4-H ) :   0.1038 B(  2-C ,  5-H ) :   0.1634
B(  2-C , 20-C ) :   1.2526 B(  2-C , 21-H ) :   0.6736 B(  2-C , 22-H ) :   0.7916
B(  3-C ,  4-H ) :   0.8756 B(  3-C ,  5-H ) :   0.8412 B(  3-C ,  6-S ) :   1.0337
B(  3-C , 21-H ) :   0.1132 B(  3-C , 22-H ) :   0.1142 B(  6-S , 15-O ) :   1.5037
B(  6-S , 16-O ) :   1.4492 B(  6-S , 26-F ) :   0.5236 B(  7-C ,  8-N ) :   0.7297
B(  7-C ,  9-C ) :   1.5351 B(  7-C , 10-H ) :   0.3393 B(  7-C , 11-H ) :   0.2207
B(  7-C , 12-H ) :  -0.4717 B(  7-C , 13-H ) :  -0.1014 B(  7-C , 14-H ) :  -0.2033
B(  8-N ,  9-C ) :   0.2400 B(  8-N , 13-H ) :   1.0836 B(  8-N , 14-H ) :   1.3037
B(  9-C , 10-H ) :   0.5264 B(  9-C , 11-H ) :   0.8443 B(  9-C , 12-H ) :  -0.1326
B( 10-H , 11-H ) :  -0.1049 B( 10-H , 18-H ) :   0.1828 B( 10-H , 19-H ) :  -0.1272
B( 12-H , 19-H ) :   0.1270 B( 12-H , 27-H ) :   0.1109 B( 13-H , 14-H ) :  -0.1811
B( 13-H , 26-F ) :   0.2303 B( 17-C , 23-C ) :   1.2514 B( 17-C , 24-H ) :   0.8032
B( 17-C , 25-H ) :   0.8528 B( 18-H , 19-H ) :  -0.2404 B( 20-C , 21-H ) :   0.2762
B( 20-C , 23-C ) :   1.1658 B( 20-C , 28-H ) :   0.1448 B( 20-C , 29-H ) :   0.9736
B( 20-C , 30-H ) :   0.8620 B( 21-H , 22-H ) :  -0.1226 B( 23-C , 24-H ) :   0.2268
B( 23-C , 25-H ) :   0.1173 B( 23-C , 27-H ) :   0.8469 B( 23-C , 28-H ) :   0.9703
B( 23-C , 30-H ) :   0.1534 B( 24-H , 25-H ) :  -0.1385

Dispersion correction           -0.001927384
FINAL SINGLE POINT ENERGY     -1072.063176892754

DIPOLE MOMENT
-------------
                                X             Y             Z
Electronic contribution:     -1.04063      -2.33971     -20.24364
Nuclear contribution   :      0.52036       3.84122      20.69523
                        -----------------------------------------
Total Dipole Moment    :     -0.52027       1.50151       0.45159
                        -----------------------------------------
Magnitude (a.u.)       :      1.65202
Magnitude (Debye)      :      4.19909

Rotational constants in cm-1:     0.029184     0.014996     0.011314
Rotational constants in MHz :   874.907122   449.569665   339.178205

                             ****ORCA TERMINATED NORMALLY****
TOTAL RUN TIME: 0 days 0 hours 2 minutes 55 seconds 638 msec
