                         Program Version 5.0.0 -  RELEASE  -
|  1> !BLYP D3BJ RIJCOSX def2-SVPD def2/J TightSCF
|  2> *xyz -1 1
|  3> C          1.44442        5.26658       -0.97546
|  4> O          1.56525        4.23349       -1.86489
|  5> C         -1.07389        4.84473       -0.97990
|  6> C          0.14812        5.21087       -0.13809
|  7> H          1.47425        6.26464       -1.47692
|  8> H          2.28962        5.30327       -0.26445
|  9> H          0.26183        4.45094        0.64071
| 10> H         -0.00252        6.17103        0.37148
| 11> H         -1.20745        5.57445       -1.75098
| 12> H         -1.94291        4.82190       -0.35605
| 13> H         -0.92683        3.88150       -1.42201
| 14> *
| 15> %MaxCore 64000
| 16>
| 17> %pal nprocs 4
| 18> end
| 19>
| 20> %scf
| 21>   MaxIter 150
| 22> end
| 23>
| 24>
| 25>                          ****END OF INPUT****

CARTESIAN COORDINATES (ANGSTROEM)
---------------------------------
  C      1.444420    5.266580   -0.975460
  O      1.565250    4.233490   -1.864890
  C     -1.073890    4.844730   -0.979900
  C      0.148120    5.210870   -0.138090
  H      1.474250    6.264640   -1.476920
  H      2.289620    5.303270   -0.264450
  H      0.261830    4.450940    0.640710
  H     -0.002520    6.171030    0.371480
  H     -1.207450    5.574450   -1.750980
  H     -1.942910    4.821900   -0.356050
  H     -0.926830    3.881500   -1.422010

 Total Charge           Charge          ....   -1
 Multiplicity           Mult            ....    1
 Number of Electrons    NEL             ....   34
 Basis Dimension        Dim             ....  139

ORBITAL ENERGIES
----------------

  NO   OCC          E(Eh)            E(eV)
   0   2.0000     -18.473990      -502.7028
   1   2.0000      -9.741072      -265.0680
   2   2.0000      -9.737138      -264.9610
   3   2.0000      -9.731962      -264.8201
   4   2.0000      -0.593457       -16.1488
   5   2.0000      -0.497425       -13.5356
   6   2.0000      -0.392689       -10.6856
   7   2.0000      -0.297068        -8.0836
   8   2.0000      -0.223206        -6.0738
   9   2.0000      -0.212723        -5.7885
  10   2.0000      -0.165363        -4.4998
  11   2.0000      -0.143272        -3.8986
  12   2.0000      -0.117519        -3.1978
  13   2.0000      -0.106383        -2.8948
  14   2.0000      -0.070837        -1.9276
  15   2.0000       0.062640         1.7045
  16   2.0000       0.067709         1.8425
  17   0.0000       0.149722         4.0741
  18   0.0000       0.173575         4.7232
  19   0.0000       0.190206         5.1758
  20   0.0000       0.210175         5.7192
  21   0.0000       0.230511         6.2725

MULLIKEN ATOMIC CHARGES
-----------------------
   0 C :    0.628624
   1 O :   -0.798518
   2 C :    0.985264
   3 C :   -0.296551
   4 H :   -0.227829
   5 H :   -0.326458
   6 H :   -0.176948
   7 H :   -0.208802
   8 H :   -0.192899
   9 H :   -0.257460
  10 H :   -0.128423
Sum of atomic charges:   -1.0000000

LOEWDIN ATOMIC CHARGES
----------------------
   0 C :   -0.214753
   1 O :   -0.511967
   2 C :    0.092604
   3 C :   -0.102879
   4 H :   -0.040810
   5 H :   -0.047691
   6 H :   -0.012205
   7 H :   -0.023101
   8 H :   -0.038139
   9 H :   -0.058550
  10 H :   -0.042510

  Mayer bond orders larger than 0.100000
B(  0-C ,  1-O ) :   1.1844 B(  0-C ,  3-C ) :   1.0360 B(  0-C ,  4-H ) :   0.8774
B(  0-C ,  5-H ) :   0.8828 B(  0-C ,  6-H ) :   0.1367 B(  0-C ,  7-H ) :   0.1285
B(  1-O ,  3-C ) :   0.1875 B(  2-C ,  3-C ) :   1.2743 B(  2-C ,  6-H ) :   0.1252
B(  2-C ,  7-H ) :   0.1129 B(  2-C ,  8-H ) :   0.7302 B(  2-C ,  9-H ) :   0.6856
B(  2-C , 10-H ) :   0.7380 B(  3-C ,  4-H ) :   0.2118 B(  3-C ,  5-H ) :   0.2075
B(  3-C ,  6-H ) :   0.8758 B(  3-C ,  7-H ) :   0.9568 B(  3-C ,  8-H ) :   0.2595
B(  3-C ,  9-H ) :   0.2776 B(  3-C , 10-H ) :   0.2587 B(  4-H ,  5-H ) :   0.1215

Dispersion correction           -0.013584906
FINAL SINGLE POINT ENERGY      -193.534841861644

DIPOLE MOMENT
-------------
                                X             Y             Z
Electronic contribution:      2.13090      -1.43862      -1.57854
Nuclear contribution   :     -3.50495       2.13585       2.58010
                        -----------------------------------------
Total Dipole Moment    :     -1.37405       0.69723       1.00156
                        -----------------------------------------
Magnitude (a.u.)       :      1.83773
Magnitude (Debye)      :      4.67115

Rotational constants in cm-1:     0.478988     0.188199     0.150738
Rotational constants in MHz : 14359.706344  5642.078771  4519.011003

                             ****ORCA TERMINATED NORMALLY****
TOTAL RUN TIME: 0 days 0 hours 0 minutes 4 seconds 648 msec
