                         Program Version 5.0.0 -  RELEASE  -
|  1> !BLYP D3BJ RIJCOSX def2-SVPD def2/J TightSCF
|  2> *xyz 1 1
|  3> C         -0.70169        4.07250       -4.00392
|  4> N          0.68053        4.61482       -4.04800
|  5> H          0.69993        5.58489       -4.38827
|  6> H          1.27804        4.05598       -4.66824
|  7> H          1.08573        4.53358       -3.10652
|  8> C         -1.70347        5.09320       -3.47740
|  9> H         -0.99590        3.74039       -5.00065
| 10> H         -0.64358        3.20191       -3.35153
| 11> C         -1.31400        5.78600       -2.16927
| 12> H         -1.87706        5.85010       -4.25115
| 13> H         -2.65326        4.56448       -3.35480
| 14> H         -0.38448        6.29945       -2.30062
| 15> H         -1.21111        5.05451       -1.39516
| 16> H         -2.07413        6.48833       -1.89758
| 17> *
| 18> %MaxCore 64000
| 19>
| 20> %pal nprocs 4
| 21> end
| 22>
| 23> %scf
| 24>   MaxIter 150
| 25> end
| 26>
| 27>
| 28>                          ****END OF INPUT****

CARTESIAN COORDINATES (ANGSTROEM)
---------------------------------
  C     -0.701690    4.072500   -4.003920
  N      0.680530    4.614820   -4.048000
  H      0.699930    5.584890   -4.388270
  H      1.278040    4.055980   -4.668240
  H      1.085730    4.533580   -3.106520
  C     -1.703470    5.093200   -3.477400
  H     -0.995900    3.740390   -5.000650
  H     -0.643580    3.201910   -3.351530
  C     -1.314000    5.786000   -2.169270
  H     -1.877060    5.850100   -4.251150
  H     -2.653260    4.564480   -3.354800
  H     -0.384480    6.299450   -2.300620
  H     -1.211110    5.054510   -1.395160
  H     -2.074130    6.488330   -1.897580

 Total Charge           Charge          ....    1
 Multiplicity           Mult            ....    1
 Number of Electrons    NEL             ....   34
 Basis Dimension        Dim             ....  160

ORBITAL ENERGIES
----------------

  NO   OCC          E(Eh)            E(eV)
   0   2.0000     -14.352602      -390.5542
   1   2.0000     -10.168504      -276.6991
   2   2.0000     -10.101370      -274.8722
   3   2.0000     -10.072833      -274.0957
   4   2.0000      -1.117904       -30.4197
   5   2.0000      -0.889851       -24.2141
   6   2.0000      -0.809652       -22.0317
   7   2.0000      -0.749255       -20.3883
   8   2.0000      -0.733054       -19.9474
   9   2.0000      -0.709688       -19.3116
  10   2.0000      -0.633994       -17.2518
  11   2.0000      -0.585001       -15.9187
  12   2.0000      -0.558655       -15.2018
  13   2.0000      -0.537949       -14.6383
  14   2.0000      -0.485063       -13.1992
  15   2.0000      -0.480758       -13.0821
  16   2.0000      -0.467738       -12.7278
  17   0.0000      -0.216313        -5.8862
  18   0.0000      -0.161633        -4.3983
  19   0.0000      -0.159118        -4.3298
  20   0.0000      -0.141893        -3.8611
  21   0.0000      -0.114141        -3.1059

MULLIKEN ATOMIC CHARGES
-----------------------
   0 C :    0.844836
   1 N :   -0.535763
   2 H :    0.333251
   3 H :    0.231814
   4 H :    0.374954
   5 C :   -0.067360
   6 H :   -0.242227
   7 H :   -0.185148
   8 C :    1.161731
   9 H :   -0.166803
  10 H :   -0.194023
  11 H :   -0.198839
  12 H :   -0.126077
  13 H :   -0.230345
Sum of atomic charges:    1.0000000

LOEWDIN ATOMIC CHARGES
----------------------
   0 C :    0.088096
   1 N :    0.344290
   2 H :    0.102146
   3 H :    0.101733
   4 H :    0.098373
   5 C :   -0.034771
   6 H :    0.049476
   7 H :    0.049730
   8 C :    0.162083
   9 H :    0.032581
  10 H :    0.042894
  11 H :   -0.032567
  12 H :   -0.006510
  13 H :    0.002445

  Mayer bond orders larger than 0.100000
B(  0-C ,  1-N ) :   0.8507 B(  0-C ,  5-C ) :   1.1884 B(  0-C ,  6-H ) :   0.8158
B(  0-C ,  7-H ) :   0.7259 B(  0-C ,  9-H ) :   0.1458 B(  0-C , 10-H ) :   0.1866
B(  1-N ,  2-H ) :   0.7563 B(  1-N ,  3-H ) :   0.8651 B(  1-N ,  4-H ) :   0.7615
B(  1-N ,  7-H ) :   0.1622 B(  5-C ,  6-H ) :   0.1037 B(  5-C ,  7-H ) :   0.1425
B(  5-C ,  8-C ) :   1.3106 B(  5-C ,  9-H ) :   0.8340 B(  5-C , 10-H ) :   0.8286
B(  5-C , 11-H ) :   0.2411 B(  5-C , 12-H ) :   0.2432 B(  5-C , 13-H ) :   0.2825
B(  8-C , 11-H ) :   0.7299 B(  8-C , 12-H ) :   0.7072 B(  8-C , 13-H ) :   0.6674

Dispersion correction           -0.019028716
FINAL SINGLE POINT ENERGY      -174.637951543778

DIPOLE MOMENT
-------------
                                X             Y             Z
Electronic contribution:      1.51577      -0.90301      -1.44845
Nuclear contribution   :      0.19992       0.44181       0.60618
                        -----------------------------------------
Total Dipole Moment    :      1.71569      -0.46120      -0.84226
                        -----------------------------------------
Magnitude (a.u.)       :      1.96614
Magnitude (Debye)      :      4.99752

Rotational constants in cm-1:     0.427003     0.166237     0.135950
Rotational constants in MHz : 12801.234133  4983.663157  4075.681698

                             ****ORCA TERMINATED NORMALLY****
TOTAL RUN TIME: 0 days 0 hours 0 minutes 4 seconds 958 msec
