                         Program Version 5.0.0 -  RELEASE  -
|  1> !BLYP D3BJ RIJCOSX def2-SVPD def2/J TightSCF xyzfile
|  2>
|  3> *xyzfile 0 1 B.xyz
|  4>
|  5> %MaxCore 64000
|  6>
|  7> %pal nprocs 4
|  8> end
|  9>
| 10> %scf
| 11>   MaxIter 150
| 12> end
| 13>
| 14>
| 15>                          ****END OF INPUT****

CARTESIAN COORDINATES (ANGSTROEM)
---------------------------------
  C     -0.701686    4.072499   -4.003920
  N      0.680528    4.614820   -4.048005
  C      1.444422    5.266576   -0.975463
  O      1.565248    4.233493   -1.864885
  H      0.699926    5.584890   -4.388272
  H      1.278044    4.055977   -4.668235
  H      1.085729    4.533581   -3.106524
  C     -1.703475    5.093197   -3.477396
  H     -0.995895    3.740394   -5.000654
  H     -0.643580    3.201910   -3.351533
  C     -1.313997    5.785995   -2.169271
  H     -1.877057    5.850103   -4.251154
  H     -2.653264    4.564475   -3.354796
  H     -2.097137    6.509395   -1.929558
  H     -0.416875    6.387594   -2.339097
  C     -1.073895    4.844728   -0.979904
  H     -1.968893    4.809608   -0.352568
  C      0.148120    5.210874   -0.138092
  H     -0.909754    3.827531   -1.338975
  H      1.474250    6.264638   -1.476917
  H      2.289622    5.303267   -0.264450
  H      0.261827    4.450942    0.640711
  H     -0.002516    6.171031    0.371483

 Total Charge           Charge          ....    0
 Multiplicity           Mult            ....    1
 Number of Electrons    NEL             ....   66
 Basis Dimension        Dim             ....  283

ORBITAL ENERGIES
----------------

  NO   OCC          E(Eh)            E(eV)
   0   2.0000     -18.665770      -507.9214
   1   2.0000     -14.102229      -383.7412
   2   2.0000      -9.987070      -271.7620
   3   2.0000      -9.943262      -270.5699
   4   2.0000      -9.918182      -269.8874
   5   2.0000      -9.908470      -269.6232
   6   2.0000      -9.897194      -269.3164
   7   2.0000      -9.879525      -268.8355
   8   2.0000      -0.894736       -24.3470
   9   2.0000      -0.794082       -21.6081
  10   2.0000      -0.725276       -19.7358
  11   2.0000      -0.665493       -18.1090
  12   2.0000      -0.617822       -16.8118
  13   2.0000      -0.565230       -15.3807
  14   2.0000      -0.521702       -14.1962
  15   2.0000      -0.516300       -14.0492
  16   2.0000      -0.508485       -13.8366
  17   2.0000      -0.456788       -12.4298
  18   2.0000      -0.439770       -11.9668
  19   2.0000      -0.411340       -11.1931
  20   2.0000      -0.405132       -11.0242
  21   2.0000      -0.370229       -10.0744
  22   2.0000      -0.360015        -9.7965
  23   2.0000      -0.348469        -9.4823
  24   2.0000      -0.329902        -8.9771
  25   2.0000      -0.310337        -8.4447
  26   2.0000      -0.304826        -8.2947
  27   2.0000      -0.286380        -7.7928
  28   2.0000      -0.266623        -7.2552
  29   2.0000      -0.259399        -7.0586
  30   2.0000      -0.251705        -6.8492
  31   2.0000      -0.138745        -3.7754
  32   2.0000      -0.131681        -3.5832
  33   0.0000      -0.035786        -0.9738
  34   0.0000      -0.000222        -0.0060
  35   0.0000       0.006805         0.1852
  36   0.0000       0.024329         0.6620
  37   0.0000       0.034885         0.9493

MULLIKEN ATOMIC CHARGES
-----------------------
   0 C :    1.001453
   1 N :    0.138098
   2 C :    0.763283
   3 O :   -0.537410
   4 H :    0.299304
   5 H :    0.230961
   6 H :   -0.632034
   7 C :    0.485136
   8 H :   -0.486327
   9 H :   -0.044168
  10 C :    0.422842
  11 H :   -0.139209
  12 H :   -0.307359
  13 H :   -0.417206
  14 H :   -0.148577
  15 C :    0.379269
  16 H :   -0.427447
  17 C :    0.507949
  18 H :   -0.044535
  19 H :    0.067917
  20 H :   -0.662967
  21 H :   -0.139155
  22 H :   -0.309819
Sum of atomic charges:    0.0000000

LOEWDIN ATOMIC CHARGES
----------------------
   0 C :    0.084175
   1 N :    0.329960
   2 C :   -0.077443
   3 O :   -0.353966
   4 H :    0.077704
   5 H :    0.080874
   6 H :   -0.204975
   7 C :   -0.009673
   8 H :    0.020967
   9 H :    0.029593
  10 C :   -0.007042
  11 H :    0.016570
  12 H :    0.026426
  13 H :    0.016513
  14 H :   -0.011187
  15 C :   -0.015911
  16 H :    0.010036
  17 C :   -0.019101
  18 H :   -0.004736
  19 H :   -0.011438
  20 H :   -0.000794
  21 H :    0.013102
  22 H :    0.010347

  Mayer bond orders larger than 0.100000
B(  0-C ,  1-N ) :   0.8494 B(  0-C ,  7-C ) :   1.1700 B(  0-C ,  8-H ) :   0.7219
B(  0-C ,  9-H ) :   0.6433 B(  0-C , 11-H ) :   0.1665 B(  0-C , 12-H ) :   0.1861
B(  1-N ,  4-H ) :   0.7773 B(  1-N ,  5-H ) :   0.8203 B(  1-N ,  6-H ) :   1.3857
B(  1-N ,  8-H ) :   0.1402 B(  1-N ,  9-H ) :   0.1946 B(  1-N , 13-H ) :  -0.1160
B(  2-C ,  3-O ) :   1.1143 B(  2-C , 17-C ) :   1.0829 B(  2-C , 19-H ) :   0.7186
B(  2-C , 20-H ) :   0.8528 B(  2-C , 21-H ) :   0.1514 B(  2-C , 22-H ) :   0.1358
B(  3-O ,  6-H ) :   0.4449 B(  3-O , 20-H ) :  -0.1079 B(  4-H ,  6-H ) :  -0.1202
B(  7-C ,  8-H ) :   0.1438 B(  7-C ,  9-H ) :   0.1622 B(  7-C , 10-C ) :   1.2085
B(  7-C , 11-H ) :   0.6019 B(  7-C , 12-H ) :   0.7611 B(  7-C , 13-H ) :   0.1747
B(  7-C , 14-H ) :   0.1375 B(  8-H ,  9-H ) :  -0.2192 B( 10-C , 11-H ) :   0.2446
B( 10-C , 12-H ) :   0.1127 B( 10-C , 13-H ) :   0.5713 B( 10-C , 14-H ) :   0.7821
B( 10-C , 15-C ) :   1.1808 B( 10-C , 16-H ) :   0.2544 B( 10-C , 17-C ) :   0.1141
B( 10-C , 18-H ) :   0.1262 B( 11-H , 12-H ) :  -0.1102 B( 13-H , 14-H ) :  -0.1084
B( 13-H , 15-C ) :   0.1800 B( 14-H , 15-C ) :   0.1688 B( 15-C , 16-H ) :   0.6786
B( 15-C , 17-C ) :   1.2446 B( 15-C , 18-H ) :   0.7305 B( 15-C , 21-H ) :   0.2705
B( 15-C , 22-H ) :   0.1539 B( 16-H , 18-H ) :  -0.1369 B( 17-C , 18-H ) :   0.1508
B( 17-C , 19-H ) :   0.1380 B( 17-C , 20-H ) :   0.2113 B( 17-C , 21-H ) :   0.5757
B( 17-C , 22-H ) :   0.7862 B( 19-H , 20-H ) :  -0.1581

Dispersion correction           -0.044059256
FINAL SINGLE POINT ENERGY      -367.201692788248

DIPOLE MOMENT
-------------
                                X             Y             Z
Electronic contribution:      2.01534      -1.56633      -1.25213
Nuclear contribution   :     -3.16446       1.92310      -1.11926
                        -----------------------------------------
Total Dipole Moment    :     -1.14912       0.35678      -2.37138
                        -----------------------------------------
Magnitude (a.u.)       :      2.65918
Magnitude (Debye)      :      6.75910

Rotational constants in cm-1:     0.085554     0.055600     0.038553
Rotational constants in MHz :  2564.854379  1666.836664  1155.798427

                             ****ORCA TERMINATED NORMALLY****
TOTAL RUN TIME: 0 days 0 hours 0 minutes 24 seconds 249 msec
