                         Program Version 5.0.0 -  RELEASE  -
|  1> !BLYP D3BJ RIJCOSX def2-SVPD def2/J TightSCF
|  2> *xyz 0 1
|  3> C          1.44442        5.26658       -0.97546
|  4> F          1.56525        4.23349       -1.86489
|  5> C         -1.07389        4.84473       -0.97990
|  6> C          0.14812        5.21087       -0.13809
|  7> H          1.47425        6.26464       -1.47692
|  8> H          2.28962        5.30327       -0.26445
|  9> H          0.26183        4.45094        0.64071
| 10> H         -0.00252        6.17103        0.37148
| 11> H         -1.20745        5.57445       -1.75098
| 12> H         -1.94291        4.82190       -0.35605
| 13> H         -0.92683        3.88150       -1.42201
| 14> *
| 15> %MaxCore 64000
| 16>
| 17> %pal nprocs 4
| 18> end
| 19>
| 20> %scf
| 21>   MaxIter 150
| 22> end
| 23>
| 24>
| 25>                          ****END OF INPUT****

CARTESIAN COORDINATES (ANGSTROEM)
---------------------------------
  C      1.444420    5.266580   -0.975460
  F      1.565250    4.233490   -1.864890
  C     -1.073890    4.844730   -0.979900
  C      0.148120    5.210870   -0.138090
  H      1.474250    6.264640   -1.476920
  H      2.289620    5.303270   -0.264450
  H      0.261830    4.450940    0.640710
  H     -0.002520    6.171030    0.371480
  H     -1.207450    5.574450   -1.750980
  H     -1.942910    4.821900   -0.356050
  H     -0.926830    3.881500   -1.422010

 Total Charge           Charge          ....    0
 Multiplicity           Mult            ....    1
 Number of Electrons    NEL             ....   34
 Basis Dimension        Dim             ....  139

ORBITAL ENERGIES
----------------

  NO   OCC          E(Eh)            E(eV)
   0   2.0000     -24.296202      -661.1333
   1   2.0000      -9.999283      -272.0943
   2   2.0000      -9.928935      -270.1801
   3   2.0000      -9.909687      -269.6563
   4   2.0000      -1.080167       -29.3928
   5   2.0000      -0.702772       -19.1234
   6   2.0000      -0.612653       -16.6711
   7   2.0000      -0.526655       -14.3310
   8   2.0000      -0.452691       -12.3184
   9   2.0000      -0.435673       -11.8553
  10   2.0000      -0.417456       -11.3596
  11   2.0000      -0.383047       -10.4233
  12   2.0000      -0.344607        -9.3772
  13   2.0000      -0.325064        -8.8455
  14   2.0000      -0.311392        -8.4734
  15   2.0000      -0.280681        -7.6377
  16   2.0000      -0.276559        -7.5256
  17   0.0000       0.001145         0.0312
  18   0.0000       0.026336         0.7166
  19   0.0000       0.037944         1.0325
  20   0.0000       0.047286         1.2867
  21   0.0000       0.066485         1.8091

MULLIKEN ATOMIC CHARGES
-----------------------
   0 C :    0.933514
   1 F :   -0.383305
   2 C :    1.013695
   3 C :   -0.187288
   4 H :   -0.156152
   5 H :   -0.251746
   6 H :   -0.192915
   7 H :   -0.215767
   8 H :   -0.187896
   9 H :   -0.236335
  10 H :   -0.135805
Sum of atomic charges:   -0.0000000

LOEWDIN ATOMIC CHARGES
----------------------
   0 C :    0.090935
   1 F :   -0.186509
   2 C :    0.133694
   3 C :   -0.053492
   4 H :    0.029198
   5 H :    0.020262
   6 H :    0.013700
   7 H :    0.021040
   8 H :   -0.020588
   9 H :   -0.024808
  10 H :   -0.023431

  Mayer bond orders larger than 0.100000
B(  0-C ,  1-F ) :   0.8067 B(  0-C ,  3-C ) :   1.1930 B(  0-C ,  4-H ) :   0.8134
B(  0-C ,  5-H ) :   0.8300 B(  2-C ,  3-C ) :   1.3335 B(  2-C ,  8-H ) :   0.7190
B(  2-C ,  9-H ) :   0.7046 B(  2-C , 10-H ) :   0.7360 B(  3-C ,  4-H ) :   0.1650
B(  3-C ,  5-H ) :   0.1588 B(  3-C ,  6-H ) :   0.8391 B(  3-C ,  7-H ) :   0.8796
B(  3-C ,  8-H ) :   0.2330 B(  3-C ,  9-H ) :   0.2596 B(  3-C , 10-H ) :   0.2255

Dispersion correction           -0.012791952
FINAL SINGLE POINT ENERGY      -218.143927538083

DIPOLE MOMENT
-------------
                                X             Y             Z
Electronic contribution:      4.60477      -2.46207      -3.15945
Nuclear contribution   :     -4.76356       2.92420       3.62609
                        -----------------------------------------
Total Dipole Moment    :     -0.15879       0.46213       0.46664
                        -----------------------------------------
Magnitude (a.u.)       :      0.67567
Magnitude (Debye)      :      1.71742

Rotational constants in cm-1:     0.464485     0.177633     0.142630
Rotational constants in MHz : 13924.923489  5325.290206  4275.938589

                             ****ORCA TERMINATED NORMALLY****
TOTAL RUN TIME: 0 days 0 hours 0 minutes 4 seconds 33 msec
