                         Program Version 5.0.0 -  RELEASE  -
|  1> !BLYP D3BJ RIJCOSX def2-SVPD def2/J TightSCF
|  2> *xyz 0 1
|  3> C         -0.70169        4.07250       -4.00392
|  4> C          0.68053        4.61482       -4.04800
|  5> H          0.69993        5.58489       -4.38827
|  6> H          1.27804        4.05598       -4.66824
|  7> H          1.08573        4.53358       -3.10652
|  8> C         -1.70347        5.09320       -3.47740
|  9> H         -0.99590        3.74039       -5.00065
| 10> H         -0.64358        3.20191       -3.35153
| 11> C         -1.31400        5.78600       -2.16927
| 12> H         -1.87706        5.85010       -4.25115
| 13> H         -2.65326        4.56448       -3.35480
| 14> H         -0.38448        6.29945       -2.30062
| 15> H         -1.21111        5.05451       -1.39516
| 16> H         -2.07413        6.48833       -1.89758
| 17> *
| 18> %MaxCore 64000
| 19>
| 20> %pal nprocs 4
| 21> end
| 22>
| 23> %scf
| 24>   MaxIter 150
| 25> end
| 26>
| 27>
| 28>                          ****END OF INPUT****

CARTESIAN COORDINATES (ANGSTROEM)
---------------------------------
  C     -0.701690    4.072500   -4.003920
  C      0.680530    4.614820   -4.048000
  H      0.699930    5.584890   -4.388270
  H      1.278040    4.055980   -4.668240
  H      1.085730    4.533580   -3.106520
  C     -1.703470    5.093200   -3.477400
  H     -0.995900    3.740390   -5.000650
  H     -0.643580    3.201910   -3.351530
  C     -1.314000    5.786000   -2.169270
  H     -1.877060    5.850100   -4.251150
  H     -2.653260    4.564480   -3.354800
  H     -0.384480    6.299450   -2.300620
  H     -1.211110    5.054510   -1.395160
  H     -2.074130    6.488330   -1.897580

 Total Charge           Charge          ....    0
 Multiplicity           Mult            ....    1
 Number of Electrons    NEL             ....   34
 Basis Dimension        Dim             ....  160

ORBITAL ENERGIES
----------------

  NO   OCC          E(Eh)            E(eV)
   0   2.0000      -9.911451      -269.7043
   1   2.0000      -9.907194      -269.5885
   2   2.0000      -9.902990      -269.4741
   3   2.0000      -9.885142      -268.9884
   4   2.0000      -0.715659       -19.4741
   5   2.0000      -0.646594       -17.5947
   6   2.0000      -0.571610       -15.5543
   7   2.0000      -0.495739       -13.4897
   8   2.0000      -0.414625       -11.2825
   9   2.0000      -0.407681       -11.0936
  10   2.0000      -0.374794       -10.1987
  11   2.0000      -0.339888        -9.2488
  12   2.0000      -0.336442        -9.1551
  13   2.0000      -0.317902        -8.6506
  14   2.0000      -0.280502        -7.6329
  15   2.0000      -0.277865        -7.5611
  16   2.0000      -0.274573        -7.4715
  17   0.0000       0.006077         0.1654
  18   0.0000       0.033066         0.8998
  19   0.0000       0.035732         0.9723
  20   0.0000       0.044812         1.2194
  21   0.0000       0.072573         1.9748

MULLIKEN ATOMIC CHARGES
-----------------------
   0 C :    0.022255
   1 C :    1.405577
   2 H :   -0.321375
   3 H :   -0.585503
   4 H :   -0.137135
   5 C :   -0.082791
   6 H :   -0.261077
   7 H :   -0.179926
   8 C :    1.074708
   9 H :   -0.116958
  10 H :   -0.270581
  11 H :   -0.145430
  12 H :   -0.154782
  13 H :   -0.246981
Sum of atomic charges:   -0.0000000

LOEWDIN ATOMIC CHARGES
----------------------
   0 C :   -0.070574
   1 C :    0.126295
   2 H :   -0.031773
   3 H :   -0.040264
   4 H :   -0.033534
   5 C :   -0.071924
   6 H :    0.016730
   7 H :    0.018164
   8 C :    0.138409
   9 H :    0.017127
  10 H :    0.009382
  11 H :   -0.032414
  12 H :   -0.020221
  13 H :   -0.025402

  Mayer bond orders larger than 0.100000
B(  0-C ,  1-C ) :   1.2579 B(  0-C ,  2-H ) :   0.3003 B(  0-C ,  3-H ) :   0.3052
B(  0-C ,  4-H ) :   0.3453 B(  0-C ,  5-C ) :   1.2113 B(  0-C ,  6-H ) :   0.8065
B(  0-C ,  7-H ) :   0.7428 B(  0-C ,  9-H ) :   0.1673 B(  0-C , 10-H ) :   0.1886
B(  1-C ,  2-H ) :   0.5793 B(  1-C ,  3-H ) :   0.4799 B(  1-C ,  4-H ) :   0.5732
B(  1-C ,  5-C ) :   0.1184 B(  1-C ,  7-H ) :   0.1885 B(  2-H ,  3-H ) :  -0.1194
B(  5-C ,  6-H ) :   0.1132 B(  5-C ,  7-H ) :   0.1649 B(  5-C ,  8-C ) :   1.3158
B(  5-C ,  9-H ) :   0.8000 B(  5-C , 10-H ) :   0.8259 B(  5-C , 11-H ) :   0.2479
B(  5-C , 12-H ) :   0.2454 B(  5-C , 13-H ) :   0.2877 B(  8-C ,  9-H ) :   0.1201
B(  8-C , 11-H ) :   0.7541 B(  8-C , 12-H ) :   0.7042 B(  8-C , 13-H ) :   0.6288

Dispersion correction           -0.019155522
FINAL SINGLE POINT ENERGY      -158.226979813381

DIPOLE MOMENT
-------------
                                X             Y             Z
Electronic contribution:     -0.62547      -0.37253      -0.43013
Nuclear contribution   :      0.63648       0.35464       0.41252
                        -----------------------------------------
Total Dipole Moment    :      0.01100      -0.01789      -0.01761
                        -----------------------------------------
Magnitude (a.u.)       :      0.02741
Magnitude (Debye)      :      0.06967

Rotational constants in cm-1:     0.435124     0.173315     0.141457
Rotational constants in MHz : 13044.691962  5195.845291  4240.763698

                             ****ORCA TERMINATED NORMALLY****
TOTAL RUN TIME: 0 days 0 hours 0 minutes 4 seconds 956 msec
