                         Program Version 5.0.0 -  RELEASE  -
|  1> !M062X D3Zero RIJCOSX def2-SVPD def2/J TightSCF
|  2> *xyz -1 1
|  3> C          4.93020       -7.37532       -2.64962
|  4> C          3.84189       -6.95161       -3.63283
|  5> H          3.45814       -5.95442       -3.40712
|  6> H          2.98848       -7.64361       -3.56708
|  7> S          4.31812       -6.91593       -5.36869
|  8> O          5.40615       -5.89948       -5.51297
|  9> O          3.11191       -6.44508       -6.04379
| 10> C          6.17399       -6.48552       -2.60631
| 11> H          4.46961       -7.40617       -1.65588
| 12> H          5.23013       -8.39868       -2.88591
| 13> O          4.76340       -8.23942       -5.69863
| 14> H          6.62449       -6.45478       -3.57637
| 15> H          6.87304       -6.88376       -1.90088
| 16> H          5.89434       -5.49571       -2.31140
| 17> *
| 18>
| 19> %MaxCore 64000
| 20>
| 21> %pal nprocs 8
| 22> end
| 23>
| 24> %scf
| 25>   MaxIter 150
| 26> end
| 27>
| 28>
| 29>                          ****END OF INPUT****

CARTESIAN COORDINATES (ANGSTROEM)
---------------------------------
  C      4.930200   -7.375320   -2.649620
  C      3.841890   -6.951610   -3.632830
  H      3.458140   -5.954420   -3.407120
  H      2.988480   -7.643610   -3.567080
  S      4.318120   -6.915930   -5.368690
  O      5.406150   -5.899480   -5.512970
  O      3.111910   -6.445080   -6.043790
  C      6.173990   -6.485520   -2.606310
  H      4.469610   -7.406170   -1.655880
  H      5.230130   -8.398680   -2.885910
  O      4.763400   -8.239420   -5.698630
  H      6.624490   -6.454780   -3.576370
  H      6.873040   -6.883760   -1.900880
  H      5.894340   -5.495710   -2.311400

 Total Charge           Charge          ....   -1
 Multiplicity           Mult            ....    1
 Number of Electrons    NEL             ....   66
 Basis Dimension        Dim             ....  212

ORBITAL ENERGIES
----------------

  NO   OCC          E(Eh)            E(eV)
   0   2.0000     -89.939855     -2447.3879
   1   2.0000     -19.424757      -528.5745
   2   2.0000     -19.414589      -528.2978
   3   2.0000     -19.407864      -528.1148
   4   2.0000     -10.424044      -283.6527
   5   2.0000     -10.418195      -283.4935
   6   2.0000     -10.402823      -283.0752
   7   2.0000      -8.262919      -224.8455
   8   2.0000      -6.188279      -168.3916
   9   2.0000      -6.188037      -168.3850
  10   2.0000      -6.187742      -168.3770
  11   2.0000      -1.049338       -28.5539
  12   2.0000      -0.907699       -24.6997
  13   2.0000      -0.877378       -23.8747
  14   2.0000      -0.750261       -20.4156
  15   2.0000      -0.653847       -17.7921
  16   2.0000      -0.552757       -15.0413
  17   2.0000      -0.465885       -12.6774
  18   2.0000      -0.409807       -11.1514
  19   2.0000      -0.391557       -10.6548
  20   2.0000      -0.370217       -10.0741
  21   2.0000      -0.354840        -9.6557
  22   2.0000      -0.343150        -9.3376
  23   2.0000      -0.328324        -8.9342
  24   2.0000      -0.288490        -7.8502
  25   2.0000      -0.278906        -7.5894
  26   2.0000      -0.267037        -7.2665
  27   2.0000      -0.227812        -6.1991
  28   2.0000      -0.225612        -6.1392
  29   2.0000      -0.190013        -5.1705
  30   2.0000      -0.175096        -4.7646
  31   2.0000      -0.167657        -4.5622
  32   2.0000      -0.137744        -3.7482
  33   0.0000       0.151184         4.1139
  34   0.0000       0.171448         4.6653
  35   0.0000       0.176396         4.8000
  36   0.0000       0.185164         5.0386
  37   0.0000       0.201361         5.4793

MULLIKEN ATOMIC CHARGES
-----------------------
   0 C :   -0.287077
   1 C :    0.022610
   2 H :   -0.024067
   3 H :   -0.012317
   4 S :    1.431468
   5 O :   -0.865177
   6 O :   -0.865685
   7 C :    0.797832
   8 H :   -0.125770
   9 H :   -0.046277
  10 O :   -0.814717
  11 H :   -0.109020
  12 H :   -0.083260
  13 H :   -0.018542
Sum of atomic charges:   -1.0000000

LOEWDIN ATOMIC CHARGES
----------------------
   0 C :   -0.096785
   1 C :   -0.097801
   2 H :    0.008311
   3 H :    0.012114
   4 S :    0.902484
   5 O :   -0.601738
   6 O :   -0.599777
   7 C :    0.120592
   8 H :    0.006607
   9 H :    0.016939
  10 O :   -0.581119
  11 H :   -0.039550
  12 H :   -0.032559
  13 H :   -0.017717

  Mayer bond orders larger than 0.100000
B(  0-C ,  1-C ) :   1.2364 B(  0-C ,  2-H ) :   0.1363 B(  0-C ,  3-H ) :   0.1236
B(  0-C ,  7-C ) :   1.2587 B(  0-C ,  8-H ) :   0.8885 B(  0-C ,  9-H ) :   0.9249
B(  0-C , 11-H ) :   0.2431 B(  0-C , 12-H ) :   0.2032 B(  0-C , 13-H ) :   0.2284
B(  1-C ,  2-H ) :   0.9507 B(  1-C ,  3-H ) :   0.9221 B(  1-C ,  4-S ) :   0.8987
B(  1-C ,  8-H ) :   0.1441 B(  1-C ,  9-H ) :   0.1364 B(  4-S ,  5-O ) :   1.2179
B(  4-S ,  6-O ) :   1.2993 B(  4-S , 10-O ) :   1.2582 B(  7-C , 11-H ) :   0.8222
B(  7-C , 12-H ) :   0.7626 B(  7-C , 13-H ) :   0.7309 B( 11-H , 13-H ) :   0.1159

Dispersion correction           -0.000289108
FINAL SINGLE POINT ENERGY      -741.891908664144

DIPOLE MOMENT
-------------
                                X             Y             Z
Electronic contribution:     -3.08485      -0.31048     -10.12122
Nuclear contribution   :      3.14317       0.05805      12.49367
                        -----------------------------------------
Total Dipole Moment    :      0.05832      -0.25243       2.37245
                        -----------------------------------------
Magnitude (a.u.)       :      2.38656
Magnitude (Debye)      :      6.06615

Rotational constants in cm-1:     0.133431     0.055055     0.052069
Rotational constants in MHz :  4000.170974  1650.506165  1561.001383

                             ****ORCA TERMINATED NORMALLY****
TOTAL RUN TIME: 0 days 0 hours 0 minutes 14 seconds 954 msec
