                         Program Version 5.0.0 -  RELEASE  -
|  1> !M062X D3Zero RIJCOSX def2-SVPD def2/J TightSCF
|  2> *xyz 1 1
|  3> C          5.55821       -1.99291       -6.21505
|  4> C          4.18188       -2.58967       -6.29891
|  5> N          3.14587       -1.76843       -6.48675
|  6> N          4.01910       -3.86431       -6.22743
|  7> H          4.76849       -4.59115       -5.99077
|  8> H          3.12241       -4.33339       -6.31462
|  9> H          3.28164       -0.77779       -6.56655
| 10> H          2.21255       -2.13419       -6.56225
| 11> C          6.41926       -2.54294       -5.07763
| 12> C          5.89651       -2.16931       -3.69455
| 13> H          7.42888       -2.14367       -5.20808
| 14> H          6.50589       -3.62754       -5.17550
| 15> H          6.03683       -2.19819       -7.17685
| 16> H          5.46761       -0.90737       -6.12797
| 17> H          5.81870       -1.10488       -3.61824
| 18> H          6.57185       -2.53200       -2.94804
| 19> H          4.93221       -2.60892       -3.54698
| 20> *
| 21>
| 22> %MaxCore 64000
| 23>
| 24> %pal nprocs 8
| 25> end
| 26>
| 27> %scf
| 28>   MaxIter 150
| 29> end
| 30>
| 31>
| 32>                          ****END OF INPUT****

CARTESIAN COORDINATES (ANGSTROEM)
---------------------------------
  C      5.558210   -1.992910   -6.215050
  C      4.181880   -2.589670   -6.298910
  N      3.145870   -1.768430   -6.486750
  N      4.019100   -3.864310   -6.227430
  H      4.768490   -4.591150   -5.990770
  H      3.122410   -4.333390   -6.314620
  H      3.281640   -0.777790   -6.566550
  H      2.212550   -2.134190   -6.562250
  C      6.419260   -2.542940   -5.077630
  C      5.896510   -2.169310   -3.694550
  H      7.428880   -2.143670   -5.208080
  H      6.505890   -3.627540   -5.175500
  H      6.036830   -2.198190   -7.176850
  H      5.467610   -0.907370   -6.127970
  H      5.818700   -1.104880   -3.618240
  H      6.571850   -2.532000   -2.948040
  H      4.932210   -2.608920   -3.546980

 Total Charge           Charge          ....    1
 Multiplicity           Mult            ....    1
 Number of Electrons    NEL             ....   48
 Basis Dimension        Dim             ....  208

ORBITAL ENERGIES
----------------

  NO   OCC          E(Eh)            E(eV)
   0   2.0000     -15.012614      -408.5140
   1   2.0000     -15.001263      -408.2051
   2   2.0000     -10.876440      -295.9630
   3   2.0000     -10.743577      -292.3476
   4   2.0000     -10.711202      -291.4666
   5   2.0000     -10.674707      -290.4735
   6   2.0000      -1.302257       -35.4362
   7   2.0000      -1.196587       -32.5608
   8   2.0000      -1.063522       -28.9399
   9   2.0000      -0.973713       -26.4961
  10   2.0000      -0.916286       -24.9334
  11   2.0000      -0.858495       -23.3608
  12   2.0000      -0.845228       -22.9998
  13   2.0000      -0.804613       -21.8946
  14   2.0000      -0.765865       -20.8402
  15   2.0000      -0.726723       -19.7752
  16   2.0000      -0.695437       -18.9238
  17   2.0000      -0.656006       -17.8508
  18   2.0000      -0.640217       -17.4212
  19   2.0000      -0.626153       -17.0385
  20   2.0000      -0.561893       -15.2899
  21   2.0000      -0.559515       -15.2252
  22   2.0000      -0.555059       -15.1039
  23   2.0000      -0.551226       -14.9996
  24   0.0000      -0.166528        -4.5315
  25   0.0000      -0.132868        -3.6155
  26   0.0000      -0.099672        -2.7122
  27   0.0000      -0.088845        -2.4176
  28   0.0000      -0.065390        -1.7794

MULLIKEN ATOMIC CHARGES
-----------------------
   0 C :    0.039567
   1 C :    0.986094
   2 N :   -0.057354
   3 N :   -0.053011
   4 H :    0.102405
   5 H :   -0.148780
   6 H :    0.019645
   7 H :   -0.127780
   8 C :   -0.341021
   9 C :    0.680899
  10 H :   -0.090948
  11 H :   -0.105071
  12 H :   -0.042389
  13 H :    0.150157
  14 H :    0.060769
  15 H :   -0.036821
  16 H :   -0.036361
Sum of atomic charges:    1.0000000

LOEWDIN ATOMIC CHARGES
----------------------
   0 C :    0.044020
   1 C :   -0.041454
   2 N :    0.282026
   3 N :    0.259406
   4 H :    0.099893
   5 H :    0.052177
   6 H :    0.040827
   7 H :    0.040504
   8 C :   -0.056740
   9 C :    0.147550
  10 H :    0.042519
  11 H :    0.013467
  12 H :    0.056373
  13 H :    0.041015
  14 H :   -0.003752
  15 H :    0.000592
  16 H :   -0.018423

  Mayer bond orders larger than 0.100000
B(  0-C ,  1-C ) :   1.0443 B(  0-C ,  8-C ) :   1.2171 B(  0-C , 10-H ) :   0.1237
B(  0-C , 11-H ) :   0.1423 B(  0-C , 12-H ) :   0.9093 B(  0-C , 13-H ) :   0.7940
B(  1-C ,  2-N ) :   0.8812 B(  1-C ,  3-N ) :   1.0596 B(  1-C ,  4-H ) :  -0.1071
B(  1-C ,  5-H ) :  -0.2632 B(  1-C ,  7-H ) :  -0.2385 B(  1-C , 12-H ) :   0.1618
B(  1-C , 13-H ) :   0.1286 B(  2-N ,  3-N ) :   0.1600 B(  2-N ,  6-H ) :   1.1259
B(  2-N ,  7-H ) :   1.3457 B(  3-N ,  4-H ) :   1.0972 B(  3-N ,  5-H ) :   1.3411
B(  4-H ,  5-H ) :  -0.1981 B(  6-H ,  7-H ) :  -0.1982 B(  8-C ,  9-C ) :   1.3400
B(  8-C , 10-H ) :   0.9906 B(  8-C , 11-H ) :   0.9197 B(  8-C , 13-H ) :   0.1373
B(  8-C , 14-H ) :   0.2174 B(  8-C , 15-H ) :   0.2092 B(  8-C , 16-H ) :   0.2112
B(  9-C , 14-H ) :   0.7638 B(  9-C , 15-H ) :   0.7907 B(  9-C , 16-H ) :   0.8344

Dispersion correction           -0.000366805
FINAL SINGLE POINT ENERGY      -268.021819275280

DIPOLE MOMENT
-------------
                                X             Y             Z
Electronic contribution:     -4.00771      -0.94369      -3.71541
Nuclear contribution   :      2.70373       0.48594       2.85544
                        -----------------------------------------
Total Dipole Moment    :     -1.30398      -0.45775      -0.85997
                        -----------------------------------------
Magnitude (a.u.)       :      1.62771
Magnitude (Debye)      :      4.13732

Rotational constants in cm-1:     0.185545     0.074107     0.068805
Rotational constants in MHz :  5562.487769  2221.680591  2062.713441

                             ****ORCA TERMINATED NORMALLY****
TOTAL RUN TIME: 0 days 0 hours 0 minutes 15 seconds 271 msec
