                         Program Version 5.0.0 -  RELEASE  -
|  1> !M062X D3Zero RIJCOSX def2-SVPD def2/J TightSCF
|  2> *xyz 0 1
|  3> C          4.93020       -7.37532       -2.64962
|  4> C          3.84189       -6.95161       -3.63283
|  5> H          3.45814       -5.95442       -3.40712
|  6> H          2.98848       -7.64361       -3.56708
|  7> S          4.31812       -6.91593       -5.36869
|  8> F          5.40615       -5.89948       -5.51297
|  9> O          3.11191       -6.44508       -6.04379
| 10> C          6.17399       -6.48552       -2.60631
| 11> H          4.46961       -7.40617       -1.65588
| 12> H          5.23013       -8.39868       -2.88591
| 13> O          4.76340       -8.23942       -5.69863
| 14> H          6.62449       -6.45478       -3.57637
| 15> H          6.87304       -6.88376       -1.90088
| 16> H          5.89434       -5.49571       -2.31140
| 17> *
| 18>
| 19> %MaxCore 64000
| 20>
| 21> %pal nprocs 8
| 22> end
| 23>
| 24> %scf
| 25>   MaxIter 150
| 26> end
| 27>
| 28>
| 29>                          ****END OF INPUT****

CARTESIAN COORDINATES (ANGSTROEM)
---------------------------------
  C      4.930200   -7.375320   -2.649620
  C      3.841890   -6.951610   -3.632830
  H      3.458140   -5.954420   -3.407120
  H      2.988480   -7.643610   -3.567080
  S      4.318120   -6.915930   -5.368690
  F      5.406150   -5.899480   -5.512970
  O      3.111910   -6.445080   -6.043790
  C      6.173990   -6.485520   -2.606310
  H      4.469610   -7.406170   -1.655880
  H      5.230130   -8.398680   -2.885910
  O      4.763400   -8.239420   -5.698630
  H      6.624490   -6.454780   -3.576370
  H      6.873040   -6.883760   -1.900880
  H      5.894340   -5.495710   -2.311400

 Total Charge           Charge          ....    0
 Multiplicity           Mult            ....    1
 Number of Electrons    NEL             ....   66
 Basis Dimension        Dim             ....  212

ORBITAL ENERGIES
----------------

  NO   OCC          E(Eh)            E(eV)
   0   2.0000     -90.196081     -2454.3601
   1   2.0000     -25.356135      -689.9755
   2   2.0000     -19.657580      -534.9100
   3   2.0000     -19.647158      -534.6263
   4   2.0000     -10.617563      -288.9186
   5   2.0000     -10.584732      -288.0252
   6   2.0000     -10.559924      -287.3501
   7   2.0000      -8.520012      -231.8413
   8   2.0000      -6.448166      -175.4635
   9   2.0000      -6.443299      -175.3311
  10   2.0000      -6.442300      -175.3039
  11   2.0000      -1.474545       -40.1244
  12   2.0000      -1.235640       -33.6235
  13   2.0000      -1.134647       -30.8753
  14   2.0000      -0.930186       -25.3116
  15   2.0000      -0.843988       -22.9661
  16   2.0000      -0.793108       -21.5816
  17   2.0000      -0.725062       -19.7299
  18   2.0000      -0.663758       -18.0618
  19   2.0000      -0.658789       -17.9266
  20   2.0000      -0.634765       -17.2728
  21   2.0000      -0.573788       -15.6136
  22   2.0000      -0.554215       -15.0810
  23   2.0000      -0.543552       -14.7908
  24   2.0000      -0.532605       -14.4929
  25   2.0000      -0.508353       -13.8330
  26   2.0000      -0.471566       -12.8320
  27   2.0000      -0.453852       -12.3500
  28   2.0000      -0.440826       -11.9955
  29   2.0000      -0.429908       -11.6984
  30   2.0000      -0.414140       -11.2693
  31   2.0000      -0.395824       -10.7709
  32   2.0000      -0.391146       -10.6436
  33   0.0000       0.013586         0.3697
  34   0.0000       0.036362         0.9895
  35   0.0000       0.042272         1.1503
  36   0.0000       0.043812         1.1922
  37   0.0000       0.065490         1.7821

MULLIKEN ATOMIC CHARGES
-----------------------
   0 C :   -0.260855
   1 C :   -0.051718
   2 H :    0.053229
   3 H :    0.062256
   4 S :    1.565844
   5 F :   -0.444589
   6 O :   -0.728390
   7 C :    0.768259
   8 H :   -0.071374
   9 H :   -0.018302
  10 O :   -0.691716
  11 H :   -0.144187
  12 H :   -0.043503
  13 H :    0.005045
Sum of atomic charges:   -0.0000000

LOEWDIN ATOMIC CHARGES
----------------------
   0 C :   -0.078394
   1 C :   -0.050127
   2 H :    0.026782
   3 H :    0.044017
   4 S :    1.152331
   5 F :   -0.289602
   6 O :   -0.487976
   7 C :    0.139446
   8 H :    0.031911
   9 H :    0.029717
  10 O :   -0.470220
  11 H :   -0.032308
  12 H :   -0.008614
  13 H :   -0.006963

  Mayer bond orders larger than 0.100000
B(  0-C ,  1-C ) :   1.2683 B(  0-C ,  2-H ) :   0.1300 B(  0-C ,  3-H ) :   0.1144
B(  0-C ,  7-C ) :   1.2749 B(  0-C ,  8-H ) :   0.8868 B(  0-C ,  9-H ) :   0.9358
B(  0-C , 11-H ) :   0.2185 B(  0-C , 12-H ) :   0.1917 B(  0-C , 13-H ) :   0.2153
B(  1-C ,  2-H ) :   0.9559 B(  1-C ,  3-H ) :   0.9056 B(  1-C ,  4-S ) :   0.9765
B(  1-C ,  8-H ) :   0.1375 B(  1-C ,  9-H ) :   0.1368 B(  4-S ,  5-F ) :   0.5569
B(  4-S ,  6-O ) :   1.5227 B(  4-S , 10-O ) :   1.4999 B(  7-C , 11-H ) :   0.8305
B(  7-C , 12-H ) :   0.7848 B(  7-C , 13-H ) :   0.7462 B( 11-H , 13-H ) :   0.1061

Dispersion correction           -0.000295485
FINAL SINGLE POINT ENERGY      -766.391544685042

DIPOLE MOMENT
-------------
                                X             Y             Z
Electronic contribution:     -1.88114       1.40213     -11.67746
Nuclear contribution   :      2.27444      -1.01744      13.40618
                        -----------------------------------------
Total Dipole Moment    :      0.39330       0.38469       1.72872
                        -----------------------------------------
Magnitude (a.u.)       :      1.81415
Magnitude (Debye)      :      4.61120

Rotational constants in cm-1:     0.126966     0.054929     0.051005
Rotational constants in MHz :  3806.345018  1646.729702  1529.089209

                             ****ORCA TERMINATED NORMALLY****
TOTAL RUN TIME: 0 days 0 hours 0 minutes 16 seconds 686 msec
