                         Program Version 5.0.0 -  RELEASE  -
|  1> !M062X D3Zero RIJCOSX def2-SVPD def2/J TightSCF
|  2> *xyz 0 1
|  3> C          5.55821       -1.99291       -6.21505
|  4> C          4.18188       -2.58967       -6.29891
|  5> C          3.14587       -1.76843       -6.48675
|  6> N          4.01910       -3.86431       -6.22743
|  7> H          4.76849       -4.59115       -5.99077
|  8> H          3.12241       -4.33339       -6.31462
|  9> H          3.28164       -0.77779       -6.56655
| 10> H          2.21255       -2.13419       -6.56225
| 11> C          6.41926       -2.54294       -5.07763
| 12> C          5.89651       -2.16931       -3.69455
| 13> H          7.42888       -2.14367       -5.20808
| 14> H          6.50589       -3.62754       -5.17550
| 15> H          6.03683       -2.19819       -7.17685
| 16> H          5.46761       -0.90737       -6.12797
| 17> H          5.81870       -1.10488       -3.61824
| 18> H          6.57185       -2.53200       -2.94804
| 19> H          4.93221       -2.60892       -3.54698
| 20> *
| 21>
| 22> %MaxCore 64000
| 23>
| 24> %pal nprocs 8
| 25> end
| 26>
| 27> %scf
| 28>   MaxIter 150
| 29> end
| 30>
| 31>
| 32>                          ****END OF INPUT****

CARTESIAN COORDINATES (ANGSTROEM)
---------------------------------
  C      5.558210   -1.992910   -6.215050
  C      4.181880   -2.589670   -6.298910
  C      3.145870   -1.768430   -6.486750
  N      4.019100   -3.864310   -6.227430
  H      4.768490   -4.591150   -5.990770
  H      3.122410   -4.333390   -6.314620
  H      3.281640   -0.777790   -6.566550
  H      2.212550   -2.134190   -6.562250
  C      6.419260   -2.542940   -5.077630
  C      5.896510   -2.169310   -3.694550
  H      7.428880   -2.143670   -5.208080
  H      6.505890   -3.627540   -5.175500
  H      6.036830   -2.198190   -7.176850
  H      5.467610   -0.907370   -6.127970
  H      5.818700   -1.104880   -3.618240
  H      6.571850   -2.532000   -2.948040
  H      4.932210   -2.608920   -3.546980

 Total Charge           Charge          ....    0
 Multiplicity           Mult            ....    1
 Number of Electrons    NEL             ....   48
 Basis Dimension        Dim             ....  208

ORBITAL ENERGIES
----------------

  NO   OCC          E(Eh)            E(eV)
   0   2.0000     -14.770927      -401.9373
   1   2.0000     -10.573507      -287.7198
   2   2.0000     -10.549021      -287.0535
   3   2.0000     -10.547064      -287.0002
   4   2.0000     -10.530628      -286.5530
   5   2.0000     -10.480212      -285.1811
   6   2.0000      -1.032355       -28.0918
   7   2.0000      -0.883802       -24.0495
   8   2.0000      -0.820313       -22.3218
   9   2.0000      -0.763298       -20.7704
  10   2.0000      -0.679382       -18.4869
  11   2.0000      -0.654075       -17.7983
  12   2.0000      -0.592175       -16.1139
  13   2.0000      -0.536633       -14.6025
  14   2.0000      -0.523835       -14.2543
  15   2.0000      -0.515628       -14.0310
  16   2.0000      -0.460340       -12.5265
  17   2.0000      -0.456188       -12.4135
  18   2.0000      -0.437479       -11.9044
  19   2.0000      -0.433130       -11.7861
  20   2.0000      -0.398512       -10.8441
  21   2.0000      -0.387960       -10.5569
  22   2.0000      -0.381023       -10.3682
  23   2.0000      -0.238207        -6.4819
  24   0.0000       0.033743         0.9182
  25   0.0000       0.061430         1.6716
  26   0.0000       0.062361         1.6969
  27   0.0000       0.065263         1.7759
  28   0.0000       0.091486         2.4894

MULLIKEN ATOMIC CHARGES
-----------------------
   0 C :    0.282584
   1 C :   -0.016428
   2 C :    0.530682
   3 N :    0.027090
   4 H :   -0.025371
   5 H :   -0.220390
   6 H :   -0.220818
   7 H :   -0.466477
   8 C :   -0.346663
   9 C :    0.702801
  10 H :   -0.126430
  11 H :   -0.125160
  12 H :   -0.129775
  13 H :    0.201936
  14 H :    0.033187
  15 H :   -0.054682
  16 H :   -0.046084
Sum of atomic charges:   -0.0000000

LOEWDIN ATOMIC CHARGES
----------------------
   0 C :    0.003791
   1 C :   -0.271892
   2 C :    0.185388
   3 N :    0.142652
   4 H :    0.044458
   5 H :    0.012742
   6 H :   -0.094502
   7 H :   -0.092430
   8 C :   -0.081393
   9 C :    0.128308
  10 H :    0.019809
  11 H :    0.000749
  12 H :    0.028390
  13 H :    0.027281
  14 H :   -0.013761
  15 H :   -0.019930
  16 H :   -0.019660

  Mayer bond orders larger than 0.100000
B(  0-C ,  1-C ) :   1.0850 B(  0-C ,  2-C ) :   0.1110 B(  0-C ,  6-H ) :  -0.1226
B(  0-C ,  8-C ) :   1.1794 B(  0-C , 10-H ) :   0.1487 B(  0-C , 11-H ) :   0.1635
B(  0-C , 12-H ) :   0.8524 B(  0-C , 13-H ) :   0.7587 B(  1-C ,  2-C ) :   1.5871
B(  1-C ,  3-N ) :   1.1829 B(  1-C ,  5-H ) :  -0.1502 B(  1-C ,  7-H ) :   0.2456
B(  1-C , 12-H ) :   0.2565 B(  2-C ,  3-N ) :   0.2696 B(  2-C ,  6-H ) :   1.0823
B(  2-C ,  7-H ) :   0.6065 B(  3-N ,  4-H ) :   1.1740 B(  3-N ,  5-H ) :   1.2733
B(  4-H ,  5-H ) :  -0.1840 B(  8-C ,  9-C ) :   1.3089 B(  8-C , 10-H ) :   0.9606
B(  8-C , 11-H ) :   0.9114 B(  8-C , 13-H ) :   0.1651 B(  8-C , 14-H ) :   0.2364
B(  8-C , 15-H ) :   0.2139 B(  8-C , 16-H ) :   0.2296 B(  9-C , 14-H ) :   0.7642
B(  9-C , 15-H ) :   0.7705 B(  9-C , 16-H ) :   0.8274

Dispersion correction           -0.000362156
FINAL SINGLE POINT ENERGY      -251.563056796365

DIPOLE MOMENT
-------------
                                X             Y             Z
Electronic contribution:     -1.93627      -1.40669      -2.51656
Nuclear contribution   :      2.30279       0.65856       2.66048
                        -----------------------------------------
Total Dipole Moment    :      0.36652      -0.74812       0.14392
                        -----------------------------------------
Magnitude (a.u.)       :      0.84542
Magnitude (Debye)      :      2.14889

Rotational constants in cm-1:     0.189707     0.076319     0.071159
Rotational constants in MHz :  5687.269526  2287.988194  2133.283230

                             ****ORCA TERMINATED NORMALLY****
TOTAL RUN TIME: 0 days 0 hours 0 minutes 14 seconds 39 msec
