                         Program Version 5.0.0 -  RELEASE  -
|  1> !M062X D3Zero RIJCOSX def2-SVPD def2/J TightSCF
|  2> *xyz 0 1
|  3> C          4.93020       -7.37532       -2.64962
|  4> C          3.84189       -6.95161       -3.63283
|  5> H          3.45814       -5.95442       -3.40712
|  6> H          2.98848       -7.64361       -3.56708
|  7> S          4.31812       -6.91593       -5.36869
|  8> O          5.40615       -5.89948       -5.51297
|  9> F          3.11191       -6.44508       -6.04379
| 10> C          6.17399       -6.48552       -2.60631
| 11> H          4.46961       -7.40617       -1.65588
| 12> H          5.23013       -8.39868       -2.88591
| 13> O          4.76340       -8.23942       -5.69863
| 14> H          6.62449       -6.45478       -3.57637
| 15> H          6.87304       -6.88376       -1.90088
| 16> H          5.89434       -5.49571       -2.31140
| 17> *
| 18>
| 19> %MaxCore 64000
| 20>
| 21> %pal nprocs 8
| 22> end
| 23>
| 24> %scf
| 25>   MaxIter 150
| 26> end
| 27>
| 28>
| 29>                          ****END OF INPUT****

CARTESIAN COORDINATES (ANGSTROEM)
---------------------------------
  C      4.930200   -7.375320   -2.649620
  C      3.841890   -6.951610   -3.632830
  H      3.458140   -5.954420   -3.407120
  H      2.988480   -7.643610   -3.567080
  S      4.318120   -6.915930   -5.368690
  O      5.406150   -5.899480   -5.512970
  F      3.111910   -6.445080   -6.043790
  C      6.173990   -6.485520   -2.606310
  H      4.469610   -7.406170   -1.655880
  H      5.230130   -8.398680   -2.885910
  O      4.763400   -8.239420   -5.698630
  H      6.624490   -6.454780   -3.576370
  H      6.873040   -6.883760   -1.900880
  H      5.894340   -5.495710   -2.311400

 Total Charge           Charge          ....    0
 Multiplicity           Mult            ....    1
 Number of Electrons    NEL             ....   66
 Basis Dimension        Dim             ....  212

ORBITAL ENERGIES
----------------

  NO   OCC          E(Eh)            E(eV)
   0   2.0000     -90.198073     -2454.4143
   1   2.0000     -25.371466      -690.3927
   2   2.0000     -19.657758      -534.9148
   3   2.0000     -19.640257      -534.4386
   4   2.0000     -10.618572      -288.9460
   5   2.0000     -10.582874      -287.9746
   6   2.0000     -10.542857      -286.8857
   7   2.0000      -8.522193      -231.9007
   8   2.0000      -6.450460      -175.5259
   9   2.0000      -6.445391      -175.3880
  10   2.0000      -6.444282      -175.3578
  11   2.0000      -1.502811       -40.8936
  12   2.0000      -1.229749       -33.4632
  13   2.0000      -1.116346       -30.3773
  14   2.0000      -0.926911       -25.2225
  15   2.0000      -0.850510       -23.1436
  16   2.0000      -0.796243       -21.6669
  17   2.0000      -0.721504       -19.6331
  18   2.0000      -0.680323       -18.5125
  19   2.0000      -0.664491       -18.0817
  20   2.0000      -0.642853       -17.4929
  21   2.0000      -0.573377       -15.6024
  22   2.0000      -0.561251       -15.2724
  23   2.0000      -0.527091       -14.3429
  24   2.0000      -0.524329       -14.2677
  25   2.0000      -0.501068       -13.6347
  26   2.0000      -0.465711       -12.6726
  27   2.0000      -0.440705       -11.9922
  28   2.0000      -0.438141       -11.9224
  29   2.0000      -0.423286       -11.5182
  30   2.0000      -0.409820       -11.1518
  31   2.0000      -0.384556       -10.4643
  32   2.0000      -0.381750       -10.3880
  33   0.0000       0.011444         0.3114
  34   0.0000       0.033860         0.9214
  35   0.0000       0.041555         1.1308
  36   0.0000       0.046377         1.2620
  37   0.0000       0.069496         1.8911

MULLIKEN ATOMIC CHARGES
-----------------------
   0 C :   -0.316484
   1 C :   -0.065852
   2 H :    0.050994
   3 H :    0.070327
   4 S :    1.617117
   5 O :   -0.745424
   6 F :   -0.464105
   7 C :    0.789979
   8 H :   -0.078895
   9 H :   -0.016426
  10 O :   -0.683995
  11 H :   -0.114595
  12 H :   -0.048511
  13 H :    0.005868
Sum of atomic charges:   -0.0000000

LOEWDIN ATOMIC CHARGES
----------------------
   0 C :   -0.065262
   1 C :   -0.062679
   2 H :    0.025258
   3 H :    0.029720
   4 S :    1.163405
   5 O :   -0.496979
   6 F :   -0.278166
   7 C :    0.143208
   8 H :    0.033300
   9 H :    0.030987
  10 O :   -0.471703
  11 H :   -0.033584
  12 H :   -0.011240
  13 H :   -0.006265

  Mayer bond orders larger than 0.100000
B(  0-C ,  1-C ) :   1.2943 B(  0-C ,  2-H ) :   0.1284 B(  0-C ,  3-H ) :   0.1293
B(  0-C ,  7-C ) :   1.2763 B(  0-C ,  8-H ) :   0.8983 B(  0-C ,  9-H ) :   0.9263
B(  0-C , 11-H ) :   0.2268 B(  0-C , 12-H ) :   0.1938 B(  0-C , 13-H ) :   0.2219
B(  1-C ,  2-H ) :   0.9434 B(  1-C ,  3-H ) :   0.8891 B(  1-C ,  4-S ) :   0.9381
B(  1-C ,  8-H ) :   0.1376 B(  1-C ,  9-H ) :   0.1331 B(  4-S ,  5-O ) :   1.4213
B(  4-S ,  6-F ) :   0.6087 B(  4-S , 10-O ) :   1.4844 B(  7-C , 11-H ) :   0.8354
B(  7-C , 12-H ) :   0.7720 B(  7-C , 13-H ) :   0.7331 B( 11-H , 13-H ) :   0.1136

Dispersion correction           -0.000278850
FINAL SINGLE POINT ENERGY      -766.379864081975

DIPOLE MOMENT
-------------
                                X             Y             Z
Electronic contribution:     -5.86595       0.46799     -12.68114
Nuclear contribution   :      4.74176      -0.43068      13.97705
                        -----------------------------------------
Total Dipole Moment    :     -1.12420       0.03731       1.29591
                        -----------------------------------------
Magnitude (a.u.)       :      1.71598
Magnitude (Debye)      :      4.36168

Rotational constants in cm-1:     0.131248     0.052952     0.050354
Rotational constants in MHz :  3934.713341  1587.473971  1509.583923

                             ****ORCA TERMINATED NORMALLY****
TOTAL RUN TIME: 0 days 0 hours 0 minutes 16 seconds 852 msec
