                         Program Version 5.0.0 -  RELEASE  -
|  1> !M062X D3Zero RIJCOSX def2-SVPD def2/J TightSCF
|  2> *xyz 0 1
|  3> C          5.55821       -1.99291       -6.21505
|  4> C          4.18188       -2.58967       -6.29891
|  5> N          3.14587       -1.76843       -6.48675
|  6> C          4.01910       -3.86431       -6.22743
|  7> H          4.76849       -4.59115       -5.99077
|  8> H          3.12241       -4.33339       -6.31462
|  9> H          3.28164       -0.77779       -6.56655
| 10> H          2.21255       -2.13419       -6.56225
| 11> C          6.41926       -2.54294       -5.07763
| 12> C          5.89651       -2.16931       -3.69455
| 13> H          7.42888       -2.14367       -5.20808
| 14> H          6.50589       -3.62754       -5.17550
| 15> H          6.03683       -2.19819       -7.17685
| 16> H          5.46761       -0.90737       -6.12797
| 17> H          5.81870       -1.10488       -3.61824
| 18> H          6.57185       -2.53200       -2.94804
| 19> H          4.93221       -2.60892       -3.54698
| 20> *
| 21>
| 22> %MaxCore 64000
| 23>
| 24> %pal nprocs 8
| 25> end
| 26>
| 27> %scf
| 28>   MaxIter 150
| 29> end
| 30>
| 31>
| 32>                          ****END OF INPUT****

CARTESIAN COORDINATES (ANGSTROEM)
---------------------------------
  C      5.558210   -1.992910   -6.215050
  C      4.181880   -2.589670   -6.298910
  N      3.145870   -1.768430   -6.486750
  C      4.019100   -3.864310   -6.227430
  H      4.768490   -4.591150   -5.990770
  H      3.122410   -4.333390   -6.314620
  H      3.281640   -0.777790   -6.566550
  H      2.212550   -2.134190   -6.562250
  C      6.419260   -2.542940   -5.077630
  C      5.896510   -2.169310   -3.694550
  H      7.428880   -2.143670   -5.208080
  H      6.505890   -3.627540   -5.175500
  H      6.036830   -2.198190   -7.176850
  H      5.467610   -0.907370   -6.127970
  H      5.818700   -1.104880   -3.618240
  H      6.571850   -2.532000   -2.948040
  H      4.932210   -2.608920   -3.546980

 Total Charge           Charge          ....    0
 Multiplicity           Mult            ....    1
 Number of Electrons    NEL             ....   48
 Basis Dimension        Dim             ....  208

ORBITAL ENERGIES
----------------

  NO   OCC          E(Eh)            E(eV)
   0   2.0000     -14.759915      -401.6377
   1   2.0000     -10.571427      -287.6631
   2   2.0000     -10.548403      -287.0367
   3   2.0000     -10.543555      -286.9047
   4   2.0000     -10.526786      -286.4484
   5   2.0000     -10.487124      -285.3691
   6   2.0000      -1.021897       -27.8072
   7   2.0000      -0.885448       -24.0943
   8   2.0000      -0.818404       -22.2699
   9   2.0000      -0.767026       -20.8718
  10   2.0000      -0.684871       -18.6363
  11   2.0000      -0.626990       -17.0613
  12   2.0000      -0.594680       -16.1821
  13   2.0000      -0.561829       -15.2882
  14   2.0000      -0.521847       -14.2002
  15   2.0000      -0.505030       -13.7426
  16   2.0000      -0.465352       -12.6629
  17   2.0000      -0.454678       -12.3724
  18   2.0000      -0.431333       -11.7372
  19   2.0000      -0.414588       -11.2815
  20   2.0000      -0.393798       -10.7158
  21   2.0000      -0.387009       -10.5311
  22   2.0000      -0.382192       -10.4000
  23   2.0000      -0.247577        -6.7369
  24   0.0000       0.040364         1.0984
  25   0.0000       0.059544         1.6203
  26   0.0000       0.063113         1.7174
  27   0.0000       0.068746         1.8707
  28   0.0000       0.091748         2.4966

MULLIKEN ATOMIC CHARGES
-----------------------
   0 C :    0.419074
   1 C :    0.352887
   2 N :    0.064165
   3 C :    0.112939
   4 H :    0.050799
   5 H :   -0.601974
   6 H :   -0.140400
   7 H :   -0.171125
   8 C :   -0.380481
   9 C :    0.702448
  10 H :   -0.124816
  11 H :   -0.070064
  12 H :   -0.126899
  13 H :   -0.022721
  14 H :    0.042883
  15 H :   -0.089224
  16 H :   -0.017491
Sum of atomic charges:    0.0000000

LOEWDIN ATOMIC CHARGES
----------------------
   0 C :    0.002249
   1 C :   -0.257684
   2 N :    0.169450
   3 C :    0.157339
   4 H :   -0.044519
   5 H :   -0.084751
   6 H :   -0.012611
   7 H :    0.002432
   8 C :   -0.073953
   9 C :    0.127508
  10 H :    0.019473
  11 H :    0.007853
  12 H :    0.030087
  13 H :    0.014996
  14 H :   -0.018180
  15 H :   -0.019682
  16 H :   -0.020009

  Mayer bond orders larger than 0.100000
B(  0-C ,  1-C ) :   0.9016 B(  0-C ,  2-N ) :   0.1001 B(  0-C ,  8-C ) :   1.2062
B(  0-C , 10-H ) :   0.1203 B(  0-C , 11-H ) :   0.1612 B(  0-C , 12-H ) :   0.9009
B(  0-C , 13-H ) :   0.6990 B(  1-C ,  2-N ) :   0.9199 B(  1-C ,  3-C ) :   1.5524
B(  1-C ,  7-H ) :  -0.1665 B(  1-C , 11-H ) :  -0.1008 B(  1-C , 12-H ) :   0.1531
B(  1-C , 13-H ) :   0.1596 B(  2-N ,  3-C ) :   0.2952 B(  2-N ,  6-H ) :   1.1509
B(  2-N ,  7-H ) :   1.3020 B(  3-C ,  4-H ) :   0.8244 B(  3-C ,  5-H ) :   0.8350
B(  4-H ,  5-H ) :  -0.2394 B(  6-H ,  7-H ) :  -0.1780 B(  8-C ,  9-C ) :   1.3250
B(  8-C , 10-H ) :   0.9603 B(  8-C , 11-H ) :   0.8992 B(  8-C , 12-H ) :   0.1018
B(  8-C , 13-H ) :   0.1665 B(  8-C , 14-H ) :   0.2348 B(  8-C , 15-H ) :   0.2199
B(  8-C , 16-H ) :   0.2261 B(  9-C , 14-H ) :   0.7703 B(  9-C , 15-H ) :   0.7874
B(  9-C , 16-H ) :   0.8257

Dispersion correction           -0.000362265
FINAL SINGLE POINT ENERGY      -251.572591278617

DIPOLE MOMENT
-------------
                                X             Y             Z
Electronic contribution:     -2.69109       0.41898      -2.78110
Nuclear contribution   :      2.50934       0.16282       2.72182
                        -----------------------------------------
Total Dipole Moment    :     -0.18175       0.58180      -0.05929
                        -----------------------------------------
Magnitude (a.u.)       :      0.61240
Magnitude (Debye)      :      1.55661

Rotational constants in cm-1:     0.192764     0.074934     0.070466
Rotational constants in MHz :  5778.908020  2246.454937  2112.518546

                             ****ORCA TERMINATED NORMALLY****
TOTAL RUN TIME: 0 days 0 hours 0 minutes 15 seconds 406 msec
