                         Program Version 5.0.0 -  RELEASE  -
|  1> !M062X D3Zero RIJCOSX def2-SVPD def2/J TightSCF
|  2> *xyz 0 1
|  3> C          4.93020       -7.37532       -2.64962
|  4> C          3.84189       -6.95161       -3.63283
|  5> H          3.45814       -5.95442       -3.40712
|  6> H          2.98848       -7.64361       -3.56708
|  7> S          4.31812       -6.91593       -5.36869
|  8> O          5.40615       -5.89948       -5.51297
|  9> O          3.11191       -6.44508       -6.04379
| 10> C          6.17399       -6.48552       -2.60631
| 11> H          4.46961       -7.40617       -1.65588
| 12> H          5.23013       -8.39868       -2.88591
| 13> F          4.76340       -8.23942       -5.69863
| 14> H          6.62449       -6.45478       -3.57637
| 15> H          6.87304       -6.88376       -1.90088
| 16> H          5.89434       -5.49571       -2.31140
| 17> *
| 18>
| 19> %MaxCore 64000
| 20>
| 21> %pal nprocs 8
| 22> end
| 23>
| 24> %scf
| 25>   MaxIter 150
| 26> end
| 27>
| 28>
| 29>                          ****END OF INPUT****

CARTESIAN COORDINATES (ANGSTROEM)
---------------------------------
  C      4.930200   -7.375320   -2.649620
  C      3.841890   -6.951610   -3.632830
  H      3.458140   -5.954420   -3.407120
  H      2.988480   -7.643610   -3.567080
  S      4.318120   -6.915930   -5.368690
  O      5.406150   -5.899480   -5.512970
  O      3.111910   -6.445080   -6.043790
  C      6.173990   -6.485520   -2.606310
  H      4.469610   -7.406170   -1.655880
  H      5.230130   -8.398680   -2.885910
  F      4.763400   -8.239420   -5.698630
  H      6.624490   -6.454780   -3.576370
  H      6.873040   -6.883760   -1.900880
  H      5.894340   -5.495710   -2.311400

 Total Charge           Charge          ....    0
 Multiplicity           Mult            ....    1
 Number of Electrons    NEL             ....   66
 Basis Dimension        Dim             ....  212

ORBITAL ENERGIES
----------------

  NO   OCC          E(Eh)            E(eV)
   0   2.0000     -90.199245     -2454.4462
   1   2.0000     -25.385680      -690.7795
   2   2.0000     -19.648037      -534.6503
   3   2.0000     -19.640866      -534.4551
   4   2.0000     -10.618890      -288.9547
   5   2.0000     -10.585538      -288.0471
   6   2.0000     -10.547191      -287.0037
   7   2.0000      -8.523445      -231.9347
   8   2.0000      -6.451973      -175.5671
   9   2.0000      -6.446359      -175.4144
  10   2.0000      -6.445397      -175.3882
  11   2.0000      -1.526258       -41.5316
  12   2.0000      -1.217499       -33.1298
  13   2.0000      -1.108329       -30.1592
  14   2.0000      -0.930566       -25.3220
  15   2.0000      -0.852658       -23.2020
  16   2.0000      -0.808392       -21.9975
  17   2.0000      -0.726149       -19.7595
  18   2.0000      -0.697756       -18.9869
  19   2.0000      -0.689265       -18.7559
  20   2.0000      -0.631547       -17.1853
  21   2.0000      -0.569452       -15.4956
  22   2.0000      -0.562182       -15.2977
  23   2.0000      -0.532772       -14.4975
  24   2.0000      -0.517032       -14.0692
  25   2.0000      -0.503404       -13.6983
  26   2.0000      -0.460114       -12.5203
  27   2.0000      -0.449445       -12.2300
  28   2.0000      -0.441257       -12.0072
  29   2.0000      -0.425122       -11.5681
  30   2.0000      -0.400264       -10.8917
  31   2.0000      -0.385329       -10.4853
  32   2.0000      -0.373303       -10.1581
  33   0.0000       0.007358         0.2002
  34   0.0000       0.036046         0.9809
  35   0.0000       0.041785         1.1370
  36   0.0000       0.043301         1.1783
  37   0.0000       0.066381         1.8063

MULLIKEN ATOMIC CHARGES
-----------------------
   0 C :   -0.279515
   1 C :   -0.045439
   2 H :    0.042643
   3 H :    0.055870
   4 S :    1.569814
   5 O :   -0.730361
   6 O :   -0.714460
   7 C :    0.800510
   8 H :   -0.084420
   9 H :   -0.039087
  10 F :   -0.419817
  11 H :   -0.117255
  12 H :   -0.047774
  13 H :    0.009290
Sum of atomic charges:   -0.0000000

LOEWDIN ATOMIC CHARGES
----------------------
   0 C :   -0.081158
   1 C :   -0.050787
   2 H :    0.039314
   3 H :    0.030887
   4 S :    1.163520
   5 O :   -0.492759
   6 O :   -0.487462
   7 C :    0.140144
   8 H :    0.030985
   9 H :    0.023910
  10 F :   -0.262193
  11 H :   -0.038492
  12 H :   -0.011970
  13 H :   -0.003939

  Mayer bond orders larger than 0.100000
B(  0-C ,  1-C ) :   1.2399 B(  0-C ,  2-H ) :   0.1274 B(  0-C ,  3-H ) :   0.1151
B(  0-C ,  7-C ) :   1.2869 B(  0-C ,  8-H ) :   0.8992 B(  0-C ,  9-H ) :   0.9181
B(  0-C , 11-H ) :   0.2318 B(  0-C , 12-H ) :   0.1930 B(  0-C , 13-H ) :   0.2247
B(  1-C ,  2-H ) :   0.9516 B(  1-C ,  3-H ) :   0.9246 B(  1-C ,  4-S ) :   0.9655
B(  1-C ,  8-H ) :   0.1321 B(  1-C ,  9-H ) :   0.1270 B(  4-S ,  5-O ) :   1.4546
B(  4-S ,  6-O ) :   1.5333 B(  4-S , 10-F ) :   0.6095 B(  7-C , 11-H ) :   0.8291
B(  7-C , 12-H ) :   0.7758 B(  7-C , 13-H ) :   0.7369 B( 11-H , 13-H ) :   0.1149

Dispersion correction           -0.000290010
FINAL SINGLE POINT ENERGY      -766.367326972511

DIPOLE MOMENT
-------------
                                X             Y             Z
Electronic contribution:     -3.00610      -2.60644     -12.06140
Nuclear contribution   :      2.96568       1.49902      13.60585
                        -----------------------------------------
Total Dipole Moment    :     -0.04042      -1.10742       1.54445
                        -----------------------------------------
Magnitude (a.u.)       :      1.90088
Magnitude (Debye)      :      4.83165

Rotational constants in cm-1:     0.127173     0.053596     0.051689
Rotational constants in MHz :  3812.547794  1606.772866  1549.597841

                             ****ORCA TERMINATED NORMALLY****
TOTAL RUN TIME: 0 days 0 hours 0 minutes 16 seconds 894 msec
