                         Program Version 5.0.0 -  RELEASE  -
|  1> !M062X D3Zero RIJCOSX def2-SVPD def2/J TightSCF xyzfile
|  2>
|  3> *xyzfile 0 1 D5.xyz
|  4>
|  5> %MaxCore 64000
|  6>
|  7> %pal nprocs 4
|  8> end
|  9>
| 10> %scf
| 11>   MaxIter 150
| 12> end
| 13>
| 14>
| 15>                          ****END OF INPUT****

CARTESIAN COORDINATES (ANGSTROEM)
---------------------------------
  C      5.558206   -1.992914   -6.215054
  C      4.930199   -7.375319   -2.649623
  C      3.841892   -6.951611   -3.632829
  H      3.458144   -5.954425   -3.407121
  H      2.988484   -7.643606   -3.567078
  S      4.318115   -6.915930   -5.368692
  C      4.181880   -2.589671   -6.298911
  C      3.145873   -1.768431   -6.486753
  N      4.019102   -3.864307   -6.227427
  H      4.768490   -4.591153   -5.990773
  H      3.122405   -4.333392   -6.314620
  H      3.281635   -0.777786   -6.566549
  H      2.212549   -2.134193   -6.562246
  O      5.406154   -5.899480   -5.512972
  O      3.111910   -6.445079   -6.043792
  C      6.419260   -2.542944   -5.077630
  C      5.872267   -5.002756   -2.427819
  C      6.173994   -6.485522   -2.606315
  H      6.734852   -6.613767   -3.534015
  H      6.821463   -6.831018   -1.793617
  H      4.469612   -7.406168   -1.655876
  H      5.230134   -8.398678   -2.885906
  C      5.896512   -2.169314   -3.694552
  H      7.428880   -2.143665   -5.208078
  H      6.505894   -3.627541   -5.175502
  C      6.807804   -2.623428   -2.551019
  H      4.894708   -2.589732   -3.557501
  H      5.778823   -1.081255   -3.635790
  C      7.111544   -4.122463   -2.520363
  H      7.751615   -2.071393   -2.614406
  H      6.345837   -2.326401   -1.604086
  H      5.362882   -4.828697   -1.471335
  H      5.174429   -4.702577   -3.211298
  H      7.778329   -4.329347   -1.677651
  H      7.673189   -4.402845   -3.417586
  F      4.763396   -8.239424   -5.698629
  H      6.036826   -2.198189   -7.176852
  H      5.467610   -0.907371   -6.127968

 Total Charge           Charge          ....    0
 Multiplicity           Mult            ....    1
 Number of Electrons    NEL             ....  136
 Basis Dimension        Dim             ....  512

ORBITAL ENERGIES
----------------

  NO   OCC          E(Eh)            E(eV)
   0   2.0000     -90.229640     -2455.2733
   1   2.0000     -25.409137      -691.4178
   2   2.0000     -19.675219      -535.3899
   3   2.0000     -19.674872      -535.3805
   4   2.0000     -14.716247      -400.4494
   5   2.0000     -10.634491      -289.3792
   6   2.0000     -10.594683      -288.2960
   7   2.0000     -10.564785      -287.4824
   8   2.0000     -10.552321      -287.1432
   9   2.0000     -10.544762      -286.9376
  10   2.0000     -10.543515      -286.9036
  11   2.0000     -10.539237      -286.7872
  12   2.0000     -10.531373      -286.5732
  13   2.0000     -10.530967      -286.5622
  14   2.0000     -10.526568      -286.4425
  15   2.0000     -10.452322      -284.4221
  16   2.0000      -8.552553      -232.7268
  17   2.0000      -6.481059      -176.3586
  18   2.0000      -6.475944      -176.2194
  19   2.0000      -6.474426      -176.1781
  20   2.0000      -1.548789       -42.1447
  21   2.0000      -1.250761       -34.0349
  22   2.0000      -1.144409       -31.1409
  23   2.0000      -0.994207       -27.0538
  24   2.0000      -0.951320       -25.8867
  25   2.0000      -0.905816       -24.6485
  26   2.0000      -0.880423       -23.9575
  27   2.0000      -0.852605       -23.2005
  28   2.0000      -0.830730       -22.6053
  29   2.0000      -0.796697       -21.6792
  30   2.0000      -0.772474       -21.0201
  31   2.0000      -0.738075       -20.0840
  32   2.0000      -0.722359       -19.6564
  33   2.0000      -0.719705       -19.5842
  34   2.0000      -0.690743       -18.7961
  35   2.0000      -0.673717       -18.3328
  36   2.0000      -0.654040       -17.7973
  37   2.0000      -0.633833       -17.2475
  38   2.0000      -0.622150       -16.9296
  39   2.0000      -0.591689       -16.1007
  40   2.0000      -0.586705       -15.9651
  41   2.0000      -0.577700       -15.7200
  42   2.0000      -0.558814       -15.2061
  43   2.0000      -0.540993       -14.7212
  44   2.0000      -0.531949       -14.4751
  45   2.0000      -0.523508       -14.2454
  46   2.0000      -0.511676       -13.9234
  47   2.0000      -0.501422       -13.6444
  48   2.0000      -0.490643       -13.3511
  49   2.0000      -0.488604       -13.2956
  50   2.0000      -0.474626       -12.9152
  51   2.0000      -0.466352       -12.6901
  52   2.0000      -0.457536       -12.4502
  53   2.0000      -0.444552       -12.0969
  54   2.0000      -0.439723       -11.9655
  55   2.0000      -0.425617       -11.5816
  56   2.0000      -0.422461       -11.4957
  57   2.0000      -0.414610       -11.2821
  58   2.0000      -0.413832       -11.2610
  59   2.0000      -0.403953       -10.9921
  60   2.0000      -0.392252       -10.6737
  61   2.0000      -0.390744       -10.6327
  62   2.0000      -0.385577       -10.4921
  63   2.0000      -0.375254       -10.2112
  64   2.0000      -0.366154        -9.9636
  65   2.0000      -0.356227        -9.6934
  66   2.0000      -0.352945        -9.6041
  67   2.0000      -0.207399        -5.6436
  68   0.0000      -0.004296        -0.1169
  69   0.0000       0.022737         0.6187
  70   0.0000       0.029527         0.8035
  71   0.0000       0.037201         1.0123
  72   0.0000       0.044310         1.2057

MULLIKEN ATOMIC CHARGES
-----------------------
   0 C :    0.795853
   1 C :    0.522953
   2 C :   -0.033803
   3 H :    0.265264
   4 H :   -0.207723
   5 S :    1.664186
   6 C :   -0.284995
   7 C :    0.375939
   8 N :    0.926942
   9 H :   -0.366350
  10 H :   -0.309008
  11 H :   -0.320491
  12 H :   -0.371922
  13 O :   -1.007529
  14 O :   -0.745018
  15 C :    0.419646
  16 C :   -0.008739
  17 C :    0.284890
  18 H :    0.089480
  19 H :   -0.360168
  20 H :    0.071590
  21 H :   -0.023534
  22 C :   -0.057302
  23 H :   -0.170127
  24 H :   -0.652337
  25 C :    0.662558
  26 H :    0.166626
  27 H :   -0.362107
  28 C :    0.125186
  29 H :    0.031811
  30 H :   -0.074199
  31 H :    0.016346
  32 H :   -0.371220
  33 H :   -0.361460
  34 H :    0.119445
  35 F :   -0.569023
  36 H :   -0.161932
  37 H :    0.280272
Sum of atomic charges:    0.0000000

LOEWDIN ATOMIC CHARGES
----------------------
   0 C :    0.016411
   1 C :   -0.029858
   2 C :   -0.029104
   3 H :    0.033654
   4 H :    0.034763
   5 S :    1.223615
   6 C :   -0.260326
   7 C :    0.174608
   8 N :    0.183863
   9 H :   -0.106116
  10 H :   -0.020947
  11 H :   -0.104642
  12 H :   -0.097336
  13 O :   -0.463119
  14 O :   -0.461236
  15 C :   -0.024830
  16 C :   -0.031592
  17 C :   -0.029609
  18 H :    0.011617
  19 H :    0.031910
  20 H :    0.038963
  21 H :    0.026652
  22 C :   -0.029711
  23 H :    0.027396
  24 H :   -0.012481
  25 C :   -0.032809
  26 H :    0.015193
  27 H :    0.026721
  28 C :   -0.031406
  29 H :    0.022707
  30 H :    0.021296
  31 H :    0.039785
  32 H :   -0.017212
  33 H :    0.023855
  34 H :    0.020111
  35 F :   -0.244484
  36 H :    0.029625
  37 H :    0.024072

  Mayer bond orders larger than 0.100000
B(  0-C ,  6-C ) :   0.9574 B(  0-C ,  8-N ) :   0.1587 B(  0-C , 12-H ) :   0.1135
B(  0-C , 15-C ) :   1.1587 B(  0-C , 24-H ) :   0.1379 B(  0-C , 36-H ) :   0.5221
B(  0-C , 37-H ) :   0.6505 B(  1-C ,  2-C ) :   1.2324 B(  1-C ,  4-H ) :   0.1350
B(  1-C , 17-C ) :   1.2274 B(  1-C , 20-H ) :   0.7299 B(  1-C , 21-H ) :   0.6657
B(  2-C ,  3-H ) :   0.7996 B(  2-C ,  4-H ) :   0.9033 B(  2-C ,  5-S ) :   0.9772
B(  2-C , 20-H ) :   0.1651 B(  2-C , 35-F ) :   0.1107 B(  3-H , 17-C ) :  -0.1030
B(  4-H ,  5-S ) :   0.1193 B(  5-S , 13-O ) :   1.1848 B(  5-S , 14-O ) :   1.4380
B(  5-S , 35-F ) :   0.4929 B(  6-C ,  7-C ) :   1.6491 B(  6-C ,  8-N ) :   1.2877
B(  6-C , 10-H ) :  -0.1937 B(  6-C , 11-H ) :   0.1617 B(  6-C , 12-H ) :   0.2906
B(  6-C , 15-C ) :   0.1187 B(  6-C , 24-H ) :  -0.1364 B(  6-C , 36-H ) :   0.2985
B(  6-C , 37-H ) :   0.1345 B(  7-C ,  8-N ) :   0.1322 B(  7-C , 10-H ) :  -0.1080
B(  7-C , 11-H ) :   0.9013 B(  7-C , 12-H ) :   0.6342 B(  8-N ,  9-H ) :   0.7356
B(  8-N , 10-H ) :   0.9120 B(  8-N , 13-O ) :  -0.1924 B(  9-H , 10-H ) :  -0.2174
B(  9-H , 13-O ) :   0.1606 B(  9-H , 24-H ) :   0.1021 B( 10-H , 14-O ) :   0.1670
B( 13-O , 14-O ) :   0.1258 B( 13-O , 24-H ) :   0.2209 B( 13-O , 35-F ) :   0.1029
B( 15-C , 22-C ) :   1.1781 B( 15-C , 23-H ) :   0.7727 B( 15-C , 24-H ) :   0.5692
B( 15-C , 26-H ) :   0.1237 B( 15-C , 27-H ) :   0.2008 B( 15-C , 36-H ) :   0.2493
B( 15-C , 37-H ) :   0.1570 B( 16-C , 17-C ) :   1.1879 B( 16-C , 18-H ) :   0.1240
B( 16-C , 19-H ) :   0.1632 B( 16-C , 28-C ) :   1.2176 B( 16-C , 31-H ) :   0.7628
B( 16-C , 32-H ) :   1.0624 B( 16-C , 33-H ) :   0.2080 B( 16-C , 34-H ) :   0.1359
B( 17-C , 18-H ) :   0.8420 B( 17-C , 19-H ) :   0.9119 B( 17-C , 21-H ) :   0.2494
B( 17-C , 28-C ) :   0.1327 B( 20-H , 21-H ) :  -0.1428 B( 22-C , 23-H ) :   0.1373
B( 22-C , 24-H ) :   0.2284 B( 22-C , 25-C ) :   1.0692 B( 22-C , 26-H ) :   0.8243
B( 22-C , 27-H ) :   1.0917 B( 22-C , 28-C ) :   0.1263 B( 22-C , 29-H ) :   0.1205
B( 22-C , 30-H ) :   0.2328 B( 23-H , 27-H ) :   0.1091 B( 24-H , 34-H ) :   0.1236
B( 25-C , 28-C ) :   1.1267 B( 25-C , 29-H ) :   0.6948 B( 25-C , 30-H ) :   0.7237
B( 26-H , 32-H ) :   0.1771 B( 28-C , 29-H ) :   0.2237 B( 28-C , 30-H ) :   0.1021
B( 28-C , 31-H ) :   0.1069 B( 28-C , 33-H ) :   1.0299 B( 28-C , 34-H ) :   0.8012
B( 29-H , 30-H ) :  -0.1525 B( 36-H , 37-H ) :  -0.1109

Dispersion correction           -0.002768656
FINAL SINGLE POINT ENERGY     -1134.549865373438

DIPOLE MOMENT
-------------
                                X             Y             Z
Electronic contribution:     -8.09845     -23.36265     -13.53971
Nuclear contribution   :      8.54118      20.92489      15.31138
                        -----------------------------------------
Total Dipole Moment    :      0.44272      -2.43776       1.77167
                        -----------------------------------------
Magnitude (a.u.)       :      3.04590
Magnitude (Debye)      :      7.74205

Rotational constants in cm-1:     0.018156     0.012306     0.008278
Rotational constants in MHz :   544.309022   368.914527   248.178402

                             ****ORCA TERMINATED NORMALLY****
TOTAL RUN TIME: 0 days 0 hours 4 minutes 40 seconds 278 msec
