                         Program Version 5.0.0 -  RELEASE  -
|  1> !M062X D3Zero RIJCOSX def2-SVPD def2/J TightSCF
|  2> *xyz -1 1
|  3> C         -7.33044       -2.67899       -3.20681
|  4> S         -6.01966       -2.92697       -4.41913
|  5> O         -5.64583       -1.58838       -4.91931
|  6> O         -4.88196       -3.50370       -3.66724
|  7> O         -6.54927       -3.80515       -5.42507
|  8> H         -8.18867       -2.26077       -3.68996
|  9> H         -6.98921       -2.01038       -2.44430
| 10> H         -7.59151       -3.61862       -2.76655
| 11> *
| 12> %MaxCore 64000
| 13>
| 14> %pal nprocs 8
| 15> end
| 16>
| 17> %scf
| 18>   MaxIter 150
| 19> end
| 20>
| 21>
| 22>                          ****END OF INPUT****

CARTESIAN COORDINATES (ANGSTROEM)
---------------------------------
  C     -7.330440   -2.678990   -3.206810
  S     -6.019660   -2.926970   -4.419130
  O     -5.645830   -1.588380   -4.919310
  O     -4.881960   -3.503700   -3.667240
  O     -6.549270   -3.805150   -5.425070
  H     -8.188670   -2.260770   -3.689960
  H     -6.989210   -2.010380   -2.444300
  H     -7.591510   -3.618620   -2.766550

 Total Charge           Charge          ....   -1
 Multiplicity           Mult            ....    1
 Number of Electrons    NEL             ....   50
 Basis Dimension        Dim             ....  140

ORBITAL ENERGIES
----------------

  NO   OCC          E(Eh)            E(eV)
   0   2.0000     -89.938135     -2447.3411
   1   2.0000     -19.419524      -528.4321
   2   2.0000     -19.408050      -528.1199
   3   2.0000     -19.405588      -528.0529
   4   2.0000     -10.408556      -283.2312
   5   2.0000      -8.261121      -224.7965
   6   2.0000      -6.186411      -168.3408
   7   2.0000      -6.186212      -168.3354
   8   2.0000      -6.186070      -168.3315
   9   2.0000      -1.043848       -28.4046
  10   2.0000      -0.898963       -24.4620
  11   2.0000      -0.875027       -23.8107
  12   2.0000      -0.675181       -18.3726
  13   2.0000      -0.472374       -12.8540
  14   2.0000      -0.381105       -10.3704
  15   2.0000      -0.365854        -9.9554
  16   2.0000      -0.364810        -9.9270
  17   2.0000      -0.322600        -8.7784
  18   2.0000      -0.320734        -8.7276
  19   2.0000      -0.223187        -6.0732
  20   2.0000      -0.221583        -6.0296
  21   2.0000      -0.183918        -5.0047
  22   2.0000      -0.173803        -4.7294
  23   2.0000      -0.170049        -4.6273
  24   2.0000      -0.132967        -3.6182
  25   0.0000       0.162472         4.4211
  26   0.0000       0.185844         5.0571
  27   0.0000       0.186749         5.0817
  28   0.0000       0.193708         5.2711
  29   0.0000       0.224004         6.0955

MULLIKEN ATOMIC CHARGES
-----------------------
   0 C :    0.455512
   1 S :    1.192926
   2 O :   -0.825061
   3 O :   -0.828352
   4 O :   -0.787707
   5 H :   -0.069218
   6 H :   -0.066953
   7 H :   -0.071147
Sum of atomic charges:   -1.0000000

LOEWDIN ATOMIC CHARGES
----------------------
   0 C :    0.061006
   1 S :    0.877041
   2 O :   -0.614146
   3 O :   -0.617730
   4 O :   -0.594073
   5 H :   -0.038252
   6 H :   -0.036337
   7 H :   -0.037508

  Mayer bond orders larger than 0.100000
B(  0-C ,  1-S ) :   0.9213 B(  0-C ,  5-H ) :   0.9280 B(  0-C ,  6-H ) :   0.9302
B(  0-C ,  7-H ) :   0.9287 B(  1-S ,  2-O ) :   1.2733 B(  1-S ,  3-O ) :   1.2735
B(  1-S ,  4-O ) :   1.3082 B(  1-S ,  5-H ) :   0.1126 B(  1-S ,  6-H ) :   0.1221
B(  1-S ,  7-H ) :   0.1157

Dispersion correction           -0.000045103
FINAL SINGLE POINT ENERGY      -663.359760272050

DIPOLE MOMENT
-------------
                                X             Y             Z
Electronic contribution:      2.97112      -0.64353      -2.90512
Nuclear contribution   :     -4.26236       0.77434       3.87117
                        -----------------------------------------
Total Dipole Moment    :     -1.29124       0.13081       0.96605
                        -----------------------------------------
Magnitude (a.u.)       :      1.61792
Magnitude (Debye)      :      4.11242

Rotational constants in cm-1:     0.172427     0.155038     0.152780
Rotational constants in MHz :  5169.225473  4647.928623  4580.233540

                             ****ORCA TERMINATED NORMALLY****
TOTAL RUN TIME: 0 days 0 hours 0 minutes 8 seconds 230 msec
