                         Program Version 5.0.0 -  RELEASE  -
|  1> !M062X D3Zero RIJCOSX def2-SVPD def2/J TightSCF
|  2> *xyz 1 1
|  3> C         -2.16038       -1.36949       -3.46710
|  4> N         -3.03011       -1.91086       -4.54107
|  5> H         -3.47744       -2.79151       -4.25710
|  6> H         -2.53801       -2.01786       -5.43808
|  7> H         -3.89159       -1.37604       -4.71437
|  8> H         -1.71294       -0.45536       -3.79734
|  9> H         -1.39344       -2.07939       -3.23742
| 10> H         -2.74775       -1.18344       -2.59230
| 11> *
| 12> %MaxCore 64000
| 13>
| 14> %pal nprocs 8
| 15> end
| 16>
| 17> %scf
| 18>   MaxIter 150
| 19> end
| 20>
| 21>
| 22>                          ****END OF INPUT****

CARTESIAN COORDINATES (ANGSTROEM)
---------------------------------
  C     -2.160380   -1.369490   -3.467100
  N     -3.030110   -1.910860   -4.541070
  H     -3.477440   -2.791510   -4.257100
  H     -2.538010   -2.017860   -5.438080
  H     -3.891590   -1.376040   -4.714370
  H     -1.712940   -0.455360   -3.797340
  H     -1.393440   -2.079390   -3.237420
  H     -2.747750   -1.183440   -2.592300

 Total Charge           Charge          ....    1
 Multiplicity           Mult            ....    1
 Number of Electrons    NEL             ....   18
 Basis Dimension        Dim             ....   88

ORBITAL ENERGIES
----------------

  NO   OCC          E(Eh)            E(eV)
   0   2.0000     -15.110702      -411.1831
   1   2.0000     -10.810674      -294.1734
   2   2.0000      -1.323965       -36.0269
   3   2.0000      -1.028067       -27.9751
   4   2.0000      -0.894133       -24.3306
   5   2.0000      -0.865609       -23.5544
   6   2.0000      -0.787599       -21.4316
   7   2.0000      -0.694139       -18.8885
   8   2.0000      -0.689691       -18.7675
   9   0.0000      -0.178495        -4.8571
  10   0.0000      -0.111542        -3.0352
  11   0.0000      -0.107174        -2.9164
  12   0.0000      -0.106526        -2.8987
  13   0.0000      -0.060062        -1.6344

MULLIKEN ATOMIC CHARGES
-----------------------
   0 C :    0.866684
   1 N :   -0.957398
   2 H :    0.383337
   3 H :    0.396591
   4 H :    0.367409
   5 H :   -0.026671
   6 H :   -0.009521
   7 H :   -0.020431
Sum of atomic charges:    1.0000000

LOEWDIN ATOMIC CHARGES
----------------------
   0 C :    0.292350
   1 N :    0.295946
   2 H :    0.108894
   3 H :    0.114744
   4 H :    0.110047
   5 H :    0.025365
   6 H :    0.026593
   7 H :    0.026061

  Mayer bond orders larger than 0.100000
B(  0-C ,  1-N ) :   0.7313 B(  0-C ,  5-H ) :   0.9141 B(  0-C ,  6-H ) :   0.8994
B(  0-C ,  7-H ) :   0.9071 B(  1-N ,  2-H ) :   0.7706 B(  1-N ,  3-H ) :   0.7327
B(  1-N ,  4-H ) :   0.7891

Dispersion correction           -0.000006650
FINAL SINGLE POINT ENERGY       -96.085342120669

DIPOLE MOMENT
-------------
                                X             Y             Z
Electronic contribution:     -0.57317      -0.37420      -0.78159
Nuclear contribution   :      0.00575       0.04584       0.17617
                        -----------------------------------------
Total Dipole Moment    :     -0.56741      -0.32836      -0.60542
                        -----------------------------------------
Magnitude (a.u.)       :      0.89236
Magnitude (Debye)      :      2.26820

Rotational constants in cm-1:     2.917716     0.684997     0.676552
Rotational constants in MHz : 87470.913131 20535.702929 20282.512120

                             ****ORCA TERMINATED NORMALLY****
TOTAL RUN TIME: 0 days 0 hours 0 minutes 3 seconds 847 msec
