                         Program Version 5.0.0 -  RELEASE  -
|  1> !M062X D3Zero RIJCOSX def2-SVPD def2/J TightSCF xyzfile
|  2>
|  3> *xyzfile 0 1 B.xyz
|  4>
|  5> %MaxCore 64000
|  6>
|  7> %pal nprocs 4
|  8> end
|  9>
| 10> %scf
| 11>   MaxIter 150
| 12> end
| 13>
| 14>
| 15>                          ****END OF INPUT****

CARTESIAN COORDINATES (ANGSTROEM)
---------------------------------
  C     -2.160376   -1.369486   -3.467104
  N     -3.030108   -1.910857   -4.541074
  C     -2.047717    0.146583   -3.511774
  C     -7.330440   -2.678991   -3.206811
  S     -6.019659   -2.926965   -4.419128
  H     -3.477443   -2.791513   -4.257096
  H     -2.538013   -2.017860   -5.438075
  H     -3.891589   -1.376039   -4.714365
  O     -5.645830   -1.588384   -4.919307
  O     -4.881961   -3.503697   -3.667235
  H     -1.184438   -1.843997   -3.566393
  H     -2.598195   -1.708376   -2.528477
  O     -6.549267   -3.805150   -5.425071
  C     -3.328755    0.875037   -3.103669
  H     -1.740034    0.452343   -4.517126
  H     -1.232611    0.434938   -2.842208
  C     -3.628487    0.771601   -1.609363
  H     -4.175106    0.490791   -3.682203
  H     -3.237812    1.928663   -3.381480
  C     -4.975718    1.361432   -1.190644
  H     -2.830700    1.276234   -1.054766
  H     -3.594312   -0.275838   -1.294603
  C     -6.184720    0.784347   -1.926464
  H     -4.956292    2.445725   -1.342200
  H     -5.097256    1.205252   -0.114136
  C     -6.286921   -0.735882   -1.893531
  H     -6.163994    1.100199   -2.974250
  H     -7.094530    1.223459   -1.504509
  C     -7.468999   -1.246153   -2.713833
  H     -6.360641   -1.090347   -0.859176
  H     -5.369848   -1.171853   -2.295982
  H     -7.601914   -0.601349   -3.585329
  H     -8.389791   -1.173436   -2.126922
  H     -7.118254   -3.379818   -2.398055
  H     -8.241838   -3.004745   -3.706513

 Total Charge           Charge          ....    0
 Multiplicity           Mult            ....    1
 Number of Electrons    NEL             ....  122
 Basis Dimension        Dim             ....  464

ORBITAL ENERGIES
----------------

  NO   OCC          E(Eh)            E(eV)
   0   2.0000     -90.105874     -2451.9055
   1   2.0000     -19.592137      -533.1292
   2   2.0000     -19.591729      -533.1180
   3   2.0000     -19.575918      -532.6878
   4   2.0000     -14.865455      -404.5096
   5   2.0000     -10.636452      -289.4326
   6   2.0000     -10.587976      -288.1135
   7   2.0000     -10.568188      -287.5750
   8   2.0000     -10.559792      -287.3465
   9   2.0000     -10.554140      -287.1928
  10   2.0000     -10.551893      -287.1316
  11   2.0000     -10.544704      -286.9360
  12   2.0000     -10.544618      -286.9337
  13   2.0000     -10.541727      -286.8550
  14   2.0000      -8.428822      -229.3599
  15   2.0000      -6.354773      -172.9222
  16   2.0000      -6.354065      -172.9029
  17   2.0000      -6.352860      -172.8701
  18   2.0000      -1.219946       -33.1964
  19   2.0000      -1.104758       -30.0620
  20   2.0000      -1.067082       -29.0368
  21   2.0000      -1.064159       -28.9572
  22   2.0000      -0.930767       -25.3275
  23   2.0000      -0.901339       -24.5267
  24   2.0000      -0.873887       -23.7797
  25   2.0000      -0.826735       -22.4966
  26   2.0000      -0.792222       -21.5574
  27   2.0000      -0.745463       -20.2851
  28   2.0000      -0.705747       -19.2044
  29   2.0000      -0.688487       -18.7347
  30   2.0000      -0.673177       -18.3181
  31   2.0000      -0.647732       -17.6257
  32   2.0000      -0.637945       -17.3594
  33   2.0000      -0.619500       -16.8574
  34   2.0000      -0.586224       -15.9520
  35   2.0000      -0.564897       -15.3716
  36   2.0000      -0.561612       -15.2822
  37   2.0000      -0.551670       -15.0117
  38   2.0000      -0.532087       -14.4788
  39   2.0000      -0.526428       -14.3248
  40   2.0000      -0.515538       -14.0285
  41   2.0000      -0.508209       -13.8291
  42   2.0000      -0.499338       -13.5877
  43   2.0000      -0.485250       -13.2043
  44   2.0000      -0.482311       -13.1243
  45   2.0000      -0.467901       -12.7322
  46   2.0000      -0.453863       -12.3502
  47   2.0000      -0.439546       -11.9607
  48   2.0000      -0.433619       -11.7994
  49   2.0000      -0.417459       -11.3596
  50   2.0000      -0.409988       -11.1563
  51   2.0000      -0.405558       -11.0358
  52   2.0000      -0.393687       -10.7128
  53   2.0000      -0.391679       -10.6581
  54   2.0000      -0.382743       -10.4150
  55   2.0000      -0.377996       -10.2858
  56   2.0000      -0.373064       -10.1516
  57   2.0000      -0.354745        -9.6531
  58   2.0000      -0.345271        -9.3953
  59   2.0000      -0.330364        -8.9897
  60   2.0000      -0.313843        -8.5401
  61   0.0000       0.003432         0.0934
  62   0.0000       0.030260         0.8234
  63   0.0000       0.035879         0.9763
  64   0.0000       0.043452         1.1824
  65   0.0000       0.051747         1.4081

MULLIKEN ATOMIC CHARGES
-----------------------
   0 C :    0.978067
   1 N :   -1.137571
   2 C :    0.434457
   3 C :    0.467100
   4 S :    1.383840
   5 H :    0.327200
   6 H :    0.560262
   7 H :    0.315800
   8 O :   -0.844699
   9 O :   -0.857444
  10 H :   -0.327437
  11 H :   -0.007698
  12 O :   -0.874592
  13 C :    0.565448
  14 H :   -0.078144
  15 H :   -0.023590
  16 C :   -0.149354
  17 H :   -0.628147
  18 H :   -0.098639
  19 C :    0.749500
  20 H :   -0.417675
  21 H :    0.127552
  22 C :   -0.062139
  23 H :   -0.046171
  24 H :   -0.002089
  25 C :    0.341876
  26 H :    0.185490
  27 H :   -0.445650
  28 C :    0.318990
  29 H :   -0.064390
  30 H :   -0.443000
  31 H :    0.101034
  32 H :   -0.255841
  33 H :   -0.041759
  34 H :   -0.050590
Sum of atomic charges:    0.0000000

LOEWDIN ATOMIC CHARGES
----------------------
   0 C :    0.104472
   1 N :    0.326789
   2 C :   -0.011007
   3 C :   -0.044646
   4 S :    0.993734
   5 H :   -0.040046
   6 H :    0.106374
   7 H :   -0.031687
   8 O :   -0.548598
   9 O :   -0.552651
  10 H :    0.036654
  11 H :    0.034187
  12 O :   -0.524432
  13 C :   -0.014164
  14 H :    0.027918
  15 H :    0.031859
  16 C :   -0.034973
  17 H :   -0.000425
  18 H :    0.034259
  19 C :   -0.028077
  20 H :    0.024931
  21 H :    0.005241
  22 C :   -0.035418
  23 H :    0.023862
  24 H :    0.024937
  25 C :   -0.026464
  26 H :    0.019933
  27 H :    0.027568
  28 C :   -0.043064
  29 H :    0.036807
  30 H :   -0.011773
  31 H :    0.021556
  32 H :    0.029459
  33 H :    0.021306
  34 H :    0.015580

  Mayer bond orders larger than 0.100000
B(  0-C ,  1-N ) :   0.5331 B(  0-C ,  2-C ) :   1.1862 B(  0-C , 10-H ) :   0.8520
B(  0-C , 11-H ) :   0.7274 B(  0-C , 13-C ) :   0.1277 B(  0-C , 15-H ) :   0.1548
B(  1-N ,  5-H ) :   0.7107 B(  1-N ,  6-H ) :   0.4038 B(  1-N ,  7-H ) :   0.7179
B(  1-N , 11-H ) :   0.2075 B(  2-C , 10-H ) :   0.1033 B(  2-C , 13-C ) :   1.1788
B(  2-C , 14-H ) :   0.7347 B(  2-C , 15-H ) :   0.7905 B(  2-C , 19-C ) :   0.1115
B(  3-C ,  4-S ) :   0.8754 B(  3-C , 12-O ) :   0.1297 B(  3-C , 28-C ) :   1.2486
B(  3-C , 33-H ) :   0.8976 B(  3-C , 34-H ) :   0.7700 B(  4-S ,  8-O ) :   1.0613
B(  4-S ,  9-O ) :   1.0794 B(  4-S , 12-O ) :   1.3261 B(  4-S , 30-H ) :   0.1055
B(  4-S , 33-H ) :   0.1120 B(  5-H ,  9-O ) :   0.1548 B(  7-H ,  8-O ) :   0.1583
B(  7-H , 17-H ) :   0.1182 B( 10-H , 11-H ) :  -0.1890 B( 11-H , 21-H ) :   0.1109
B( 13-C , 14-H ) :   0.1714 B( 13-C , 16-C ) :   1.1538 B( 13-C , 17-H ) :   0.6878
B( 13-C , 18-H ) :   0.7962 B( 13-C , 20-H ) :   0.1844 B( 14-H , 15-H ) :  -0.1217
B( 16-C , 17-H ) :   0.2288 B( 16-C , 18-H ) :   0.1676 B( 16-C , 19-C ) :   1.1650
B( 16-C , 20-H ) :   1.0752 B( 16-C , 21-H ) :   0.8486 B( 16-C , 22-C ) :   0.1469
B( 16-C , 23-H ) :   0.1371 B( 16-C , 24-H ) :   0.2739 B( 17-H , 26-H ) :   0.1448
B( 19-C , 22-C ) :   1.1220 B( 19-C , 23-H ) :   0.6854 B( 19-C , 24-H ) :   0.6802
B( 21-H , 30-H ) :   0.1033 B( 22-C , 23-H ) :   0.2325 B( 22-C , 25-C ) :   1.2412
B( 22-C , 26-H ) :   0.7931 B( 22-C , 27-H ) :   1.0760 B( 22-C , 28-C ) :   0.1114
B( 22-C , 29-H ) :   0.1050 B( 22-C , 30-H ) :   0.1129 B( 23-H , 24-H ) :  -0.1487
B( 25-C , 26-H ) :   0.1053 B( 25-C , 27-H ) :   0.1826 B( 25-C , 28-C ) :   1.1436
B( 25-C , 29-H ) :   0.6966 B( 25-C , 30-H ) :   0.9002 B( 25-C , 32-H ) :   0.2098
B( 28-C , 29-H ) :   0.1317 B( 28-C , 31-H ) :   0.8294 B( 28-C , 32-H ) :   0.8449
B( 28-C , 34-H ) :   0.2262 B( 29-H , 30-H ) :   0.2316

Dispersion correction           -0.002361004
FINAL SINGLE POINT ENERGY     -1033.322907611111

DIPOLE MOMENT
-------------
                                X             Y             Z
Electronic contribution:     -5.97306     -15.16180     -11.36272
Nuclear contribution   :      8.59301      16.99497      12.41069
                        -----------------------------------------
Total Dipole Moment    :      2.61995       1.83318       1.04797
                        -----------------------------------------
Magnitude (a.u.)       :      3.36495
Magnitude (Debye)      :      8.55304

Rotational constants in cm-1:     0.025617     0.015295     0.010641
Rotational constants in MHz :   767.991150   458.522408   319.013093

                             ****ORCA TERMINATED NORMALLY****
TOTAL RUN TIME: 0 days 0 hours 3 minutes 23 seconds 495 msec
