                         Program Version 5.0.0 -  RELEASE  -
|  1> !M062X D3Zero RIJCOSX def2-SVPD def2/J TightSCF
|  2> *xyz 0 1
|  3> C         -7.33044       -2.67899       -3.20681
|  4> S         -6.01966       -2.92697       -4.41913
|  5> F         -5.64583       -1.58838       -4.91931
|  6> O         -4.88196       -3.50370       -3.66724
|  7> O         -6.54927       -3.80515       -5.42507
|  8> H         -8.18867       -2.26077       -3.68996
|  9> H         -6.98921       -2.01038       -2.44430
| 10> H         -7.59151       -3.61862       -2.76655
| 11> *
| 12> %MaxCore 64000
| 13>
| 14> %pal nprocs 8
| 15> end
| 16>
| 17> %scf
| 18>   MaxIter 150
| 19> end
| 20>
| 21>
| 22>                          ****END OF INPUT****

CARTESIAN COORDINATES (ANGSTROEM)
---------------------------------
  C     -7.330440   -2.678990   -3.206810
  S     -6.019660   -2.926970   -4.419130
  F     -5.645830   -1.588380   -4.919310
  O     -4.881960   -3.503700   -3.667240
  O     -6.549270   -3.805150   -5.425070
  H     -8.188670   -2.260770   -3.689960
  H     -6.989210   -2.010380   -2.444300
  H     -7.591510   -3.618620   -2.766550

 Total Charge           Charge          ....    0
 Multiplicity           Mult            ....    1
 Number of Electrons    NEL             ....   50
 Basis Dimension        Dim             ....  140

ORBITAL ENERGIES
----------------

  NO   OCC          E(Eh)            E(eV)
   0   2.0000     -90.205189     -2454.6080
   1   2.0000     -25.369541      -690.3403
   2   2.0000     -19.660807      -534.9977
   3   2.0000     -19.646163      -534.5993
   4   2.0000     -10.619882      -288.9817
   5   2.0000      -8.528896      -232.0831
   6   2.0000      -6.457150      -175.7080
   7   2.0000      -6.452025      -175.5685
   8   2.0000      -6.451330      -175.5496
   9   2.0000      -1.494267       -40.6611
  10   2.0000      -1.235123       -33.6094
  11   2.0000      -1.126928       -30.6653
  12   2.0000      -0.899760       -24.4837
  13   2.0000      -0.807544       -21.9744
  14   2.0000      -0.690167       -18.7804
  15   2.0000      -0.675113       -18.3708
  16   2.0000      -0.645825       -17.5738
  17   2.0000      -0.561619       -15.2824
  18   2.0000      -0.558730       -15.2038
  19   2.0000      -0.543867       -14.7994
  20   2.0000      -0.519635       -14.1400
  21   2.0000      -0.468266       -12.7422
  22   2.0000      -0.418522       -11.3886
  23   2.0000      -0.404402       -11.0043
  24   2.0000      -0.389780       -10.6065
  25   0.0000       0.005721         0.1557
  26   0.0000       0.039917         1.0862
  27   0.0000       0.044916         1.2222
  28   0.0000       0.047441         1.2909
  29   0.0000       0.059718         1.6250

MULLIKEN ATOMIC CHARGES
-----------------------
   0 C :    0.369576
   1 S :    1.345600
   2 F :   -0.412302
   3 O :   -0.696389
   4 O :   -0.656139
   5 H :    0.020147
   6 H :    0.019426
   7 H :    0.010081
Sum of atomic charges:    0.0000000

LOEWDIN ATOMIC CHARGES
----------------------
   0 C :    0.132611
   1 S :    1.145109
   2 F :   -0.283018
   3 O :   -0.499147
   4 O :   -0.476502
   5 H :   -0.011434
   6 H :   -0.010280
   7 H :    0.002662

  Mayer bond orders larger than 0.100000
B(  0-C ,  1-S ) :   0.9869 B(  0-C ,  5-H ) :   0.9299 B(  0-C ,  6-H ) :   0.9311
B(  0-C ,  7-H ) :   0.9301 B(  1-S ,  2-F ) :   0.6200 B(  1-S ,  3-O ) :   1.4910
B(  1-S ,  4-O ) :   1.5284 B(  1-S ,  7-H ) :   0.1134

Dispersion correction           -0.000050306
FINAL SINGLE POINT ENERGY      -687.852394261917

DIPOLE MOMENT
-------------
                                X             Y             Z
Electronic contribution:      3.50713       1.61034      -3.70571
Nuclear contribution   :     -4.68608      -0.54182       4.44322
                        -----------------------------------------
Total Dipole Moment    :     -1.17895       1.06851       0.73751
                        -----------------------------------------
Magnitude (a.u.)       :      1.75373
Magnitude (Debye)      :      4.45763

Rotational constants in cm-1:     0.164393     0.151201     0.145518
Rotational constants in MHz :  4928.381777  4532.884356  4362.527209

                             ****ORCA TERMINATED NORMALLY****
TOTAL RUN TIME: 0 days 0 hours 0 minutes 7 seconds 686 msec
