                         Program Version 5.0.0 -  RELEASE  -
|  1> !M062X D3Zero RIJCOSX def2-SVPD def2/J TightSCF
|  2> *xyz 0 1
|  3> C         -2.16038       -1.36949       -3.46710
|  4> C         -3.03011       -1.91086       -4.54107
|  5> H         -3.47744       -2.79151       -4.25710
|  6> H         -2.53801       -2.01786       -5.43808
|  7> H         -3.89159       -1.37604       -4.71437
|  8> H         -1.71294       -0.45536       -3.79734
|  9> H         -1.39344       -2.07939       -3.23742
| 10> H         -2.74775       -1.18344       -2.59230
| 11> *
| 12> %MaxCore 64000
| 13>
| 14> %pal nprocs 8
| 15> end
| 16>
| 17> %scf
| 18>   MaxIter 150
| 19> end
| 20>
| 21>
| 22>                          ****END OF INPUT****

CARTESIAN COORDINATES (ANGSTROEM)
---------------------------------
  C     -2.160380   -1.369490   -3.467100
  C     -3.030110   -1.910860   -4.541070
  H     -3.477440   -2.791510   -4.257100
  H     -2.538010   -2.017860   -5.438080
  H     -3.891590   -1.376040   -4.714370
  H     -1.712940   -0.455360   -3.797340
  H     -1.393440   -2.079390   -3.237420
  H     -2.747750   -1.183440   -2.592300

 Total Charge           Charge          ....    0
 Multiplicity           Mult            ....    1
 Number of Electrons    NEL             ....   18
 Basis Dimension        Dim             ....   88

ORBITAL ENERGIES
----------------

  NO   OCC          E(Eh)            E(eV)
   0   2.0000     -10.527892      -286.4785
   1   2.0000     -10.513758      -286.0939
   2   2.0000      -0.858306       -23.3557
   3   2.0000      -0.705353       -19.1936
   4   2.0000      -0.523294       -14.2395
   5   2.0000      -0.507175       -13.8009
   6   2.0000      -0.436688       -11.8829
   7   2.0000      -0.413421       -11.2498
   8   2.0000      -0.396438       -10.7876
   9   0.0000       0.045771         1.2455
  10   0.0000       0.074980         2.0403
  11   0.0000       0.127334         3.4649
  12   0.0000       0.131672         3.5830
  13   0.0000       0.148999         4.0545

MULLIKEN ATOMIC CHARGES
-----------------------
   0 C :    0.204039
   1 C :    0.424522
   2 H :   -0.177549
   3 H :   -0.161471
   4 H :   -0.190188
   5 H :   -0.043707
   6 H :   -0.032567
   7 H :   -0.023080
Sum of atomic charges:   -0.0000000

LOEWDIN ATOMIC CHARGES
----------------------
   0 C :    0.080318
   1 C :    0.073119
   2 H :   -0.037171
   3 H :   -0.031048
   4 H :   -0.037532
   5 H :   -0.016953
   6 H :   -0.015398
   7 H :   -0.015335

  Mayer bond orders larger than 0.100000
B(  0-C ,  1-C ) :   1.4509 B(  0-C ,  2-H ) :   0.1517 B(  0-C ,  3-H ) :   0.1497
B(  0-C ,  4-H ) :   0.1300 B(  0-C ,  5-H ) :   0.8775 B(  0-C ,  6-H ) :   0.8547
B(  0-C ,  7-H ) :   0.8754 B(  1-C ,  2-H ) :   0.7735 B(  1-C ,  3-H ) :   0.8255
B(  1-C ,  4-H ) :   0.7793 B(  1-C ,  5-H ) :   0.1458 B(  1-C ,  6-H ) :   0.1512
B(  1-C ,  7-H ) :   0.1472 B(  2-H ,  4-H ) :   0.2278

Dispersion correction           -0.000006584
FINAL SINGLE POINT ENERGY       -79.698205717440

DIPOLE MOMENT
-------------
                                X             Y             Z
Electronic contribution:      0.10305       0.03336      -0.00057
Nuclear contribution   :     -0.14218      -0.04688      -0.00907
                        -----------------------------------------
Total Dipole Moment    :     -0.03913      -0.01352      -0.00963
                        -----------------------------------------
Magnitude (a.u.)       :      0.04250
Magnitude (Debye)      :      0.10803

Rotational constants in cm-1:     2.917838     0.714537     0.705359
Rotational constants in MHz : 87474.579540 21421.280941 21146.123231

                             ****ORCA TERMINATED NORMALLY****
TOTAL RUN TIME: 0 days 0 hours 0 minutes 3 seconds 630 msec
