                         Program Version 5.0.0 -  RELEASE  -
|  1> !M062X D3Zero RIJCOSX def2-SVPD def2/J TightSCF
|  2> *xyz 0 1
|  3> C         -7.33044       -2.67899       -3.20681
|  4> S         -6.01966       -2.92697       -4.41913
|  5> O         -5.64583       -1.58838       -4.91931
|  6> F         -4.88196       -3.50370       -3.66724
|  7> O         -6.54927       -3.80515       -5.42507
|  8> H         -8.18867       -2.26077       -3.68996
|  9> H         -6.98921       -2.01038       -2.44430
| 10> H         -7.59151       -3.61862       -2.76655
| 11> *
| 12> %MaxCore 64000
| 13>
| 14> %pal nprocs 8
| 15> end
| 16>
| 17> %scf
| 18>   MaxIter 150
| 19> end
| 20>
| 21>
| 22>                          ****END OF INPUT****

CARTESIAN COORDINATES (ANGSTROEM)
---------------------------------
  C     -7.330440   -2.678990   -3.206810
  S     -6.019660   -2.926970   -4.419130
  O     -5.645830   -1.588380   -4.919310
  F     -4.881960   -3.503700   -3.667240
  O     -6.549270   -3.805150   -5.425070
  H     -8.188670   -2.260770   -3.689960
  H     -6.989210   -2.010380   -2.444300
  H     -7.591510   -3.618620   -2.766550

 Total Charge           Charge          ....    0
 Multiplicity           Mult            ....    1
 Number of Electrons    NEL             ....   50
 Basis Dimension        Dim             ....  140

ORBITAL ENERGIES
----------------

  NO   OCC          E(Eh)            E(eV)
   0   2.0000     -90.205116     -2454.6060
   1   2.0000     -25.366595      -690.2601
   2   2.0000     -19.660576      -534.9915
   3   2.0000     -19.648675      -534.6676
   4   2.0000     -10.619843      -288.9806
   5   2.0000      -8.528767      -232.0795
   6   2.0000      -6.457028      -175.7047
   7   2.0000      -6.451936      -175.5661
   8   2.0000      -6.451206      -175.5462
   9   2.0000      -1.490530       -40.5594
  10   2.0000      -1.235705       -33.6252
  11   2.0000      -1.129563       -30.7370
  12   2.0000      -0.900020       -24.4908
  13   2.0000      -0.805215       -21.9110
  14   2.0000      -0.688099       -18.7241
  15   2.0000      -0.672503       -18.2997
  16   2.0000      -0.645618       -17.5682
  17   2.0000      -0.562029       -15.2936
  18   2.0000      -0.558882       -15.2079
  19   2.0000      -0.543282       -14.7834
  20   2.0000      -0.520540       -14.1646
  21   2.0000      -0.468809       -12.7570
  22   2.0000      -0.418905       -11.3990
  23   2.0000      -0.406950       -11.0737
  24   2.0000      -0.391871       -10.6633
  25   0.0000       0.006394         0.1740
  26   0.0000       0.040122         1.0918
  27   0.0000       0.045060         1.2261
  28   0.0000       0.047497         1.2925
  29   0.0000       0.061292         1.6678

MULLIKEN ATOMIC CHARGES
-----------------------
   0 C :    0.368706
   1 S :    1.346739
   2 O :   -0.694945
   3 F :   -0.411721
   4 O :   -0.657971
   5 H :    0.011070
   6 H :    0.020114
   7 H :    0.018009
Sum of atomic charges:   -0.0000000

LOEWDIN ATOMIC CHARGES
----------------------
   0 C :    0.132668
   1 S :    1.144411
   2 O :   -0.495551
   3 F :   -0.285659
   4 O :   -0.476953
   5 H :    0.002150
   6 H :   -0.010012
   7 H :   -0.011054

  Mayer bond orders larger than 0.100000
B(  0-C ,  1-S ) :   0.9867 B(  0-C ,  5-H ) :   0.9293 B(  0-C ,  6-H ) :   0.9320
B(  0-C ,  7-H ) :   0.9301 B(  1-S ,  2-O ) :   1.4908 B(  1-S ,  3-F ) :   0.6199
B(  1-S ,  4-O ) :   1.5274 B(  1-S ,  5-H ) :   0.1115

Dispersion correction           -0.000050215
FINAL SINGLE POINT ENERGY      -687.854976963589

DIPOLE MOMENT
-------------
                                X             Y             Z
Electronic contribution:      4.79872      -1.61785      -1.59282
Nuclear contribution   :     -5.44924       1.37171       3.19232
                        -----------------------------------------
Total Dipole Moment    :     -0.65051      -0.24614       1.59950
                        -----------------------------------------
Magnitude (a.u.)       :      1.74418
Magnitude (Debye)      :      4.43335

Rotational constants in cm-1:     0.163884     0.151426     0.145804
Rotational constants in MHz :  4913.124213  4539.628058  4371.086672

                             ****ORCA TERMINATED NORMALLY****
TOTAL RUN TIME: 0 days 0 hours 0 minutes 7 seconds 718 msec
