                         Program Version 5.0.0 -  RELEASE  -
|  1> !M062X D3Zero RIJCOSX def2-SVPD def2/J TightSCF
|  2> *xyz 0 1
|  3> C         -7.33044       -2.67899       -3.20681
|  4> S         -6.01966       -2.92697       -4.41913
|  5> O         -5.64583       -1.58838       -4.91931
|  6> O         -4.88196       -3.50370       -3.66724
|  7> F         -6.54927       -3.80515       -5.42507
|  8> H         -8.18867       -2.26077       -3.68996
|  9> H         -6.98921       -2.01038       -2.44430
| 10> H         -7.59151       -3.61862       -2.76655
| 11> *
| 12> %MaxCore 64000
| 13>
| 14> %pal nprocs 8
| 15> end
| 16>
| 17> %scf
| 18>   MaxIter 150
| 19> end
| 20>
| 21>
| 22>                          ****END OF INPUT****

CARTESIAN COORDINATES (ANGSTROEM)
---------------------------------
  C     -7.330440   -2.678990   -3.206810
  S     -6.019660   -2.926970   -4.419130
  O     -5.645830   -1.588380   -4.919310
  O     -4.881960   -3.503700   -3.667240
  F     -6.549270   -3.805150   -5.425070
  H     -8.188670   -2.260770   -3.689960
  H     -6.989210   -2.010380   -2.444300
  H     -7.591510   -3.618620   -2.766550

 Total Charge           Charge          ....    0
 Multiplicity           Mult            ....    1
 Number of Electrons    NEL             ....   50
 Basis Dimension        Dim             ....  140

ORBITAL ENERGIES
----------------

  NO   OCC          E(Eh)            E(eV)
   0   2.0000     -90.206925     -2454.6552
   1   2.0000     -25.388370      -690.8527
   2   2.0000     -19.649255      -534.6834
   3   2.0000     -19.646738      -534.6149
   4   2.0000     -10.620686      -289.0036
   5   2.0000      -8.530795      -232.1347
   6   2.0000      -6.459289      -175.7662
   7   2.0000      -6.453662      -175.6131
   8   2.0000      -6.453024      -175.5957
   9   2.0000      -1.529025       -41.6069
  10   2.0000      -1.218994       -33.1705
  11   2.0000      -1.111957       -30.2579
  12   2.0000      -0.903571       -24.5874
  13   2.0000      -0.824733       -22.4421
  14   2.0000      -0.709106       -19.2958
  15   2.0000      -0.699341       -19.0300
  16   2.0000      -0.647519       -17.6199
  17   2.0000      -0.557622       -15.1737
  18   2.0000      -0.556165       -15.1340
  19   2.0000      -0.544489       -14.8163
  20   2.0000      -0.512622       -13.9492
  21   2.0000      -0.460446       -12.5294
  22   2.0000      -0.405812       -11.0427
  23   2.0000      -0.403221       -10.9722
  24   2.0000      -0.378654       -10.3037
  25   0.0000       0.003941         0.1072
  26   0.0000       0.038716         1.0535
  27   0.0000       0.044170         1.2019
  28   0.0000       0.047851         1.3021
  29   0.0000       0.062873         1.7109

MULLIKEN ATOMIC CHARGES
-----------------------
   0 C :    0.369576
   1 S :    1.337404
   2 O :   -0.682034
   3 O :   -0.686218
   4 F :   -0.389892
   5 H :    0.019611
   6 H :    0.012473
   7 H :    0.019079
Sum of atomic charges:    0.0000000

LOEWDIN ATOMIC CHARGES
----------------------
   0 C :    0.132052
   1 S :    1.147340
   2 O :   -0.494984
   3 O :   -0.498647
   4 F :   -0.266857
   5 H :   -0.011717
   6 H :    0.003499
   7 H :   -0.010686

  Mayer bond orders larger than 0.100000
B(  0-C ,  1-S ) :   0.9862 B(  0-C ,  5-H ) :   0.9281 B(  0-C ,  6-H ) :   0.9323
B(  0-C ,  7-H ) :   0.9301 B(  1-S ,  2-O ) :   1.4938 B(  1-S ,  3-O ) :   1.4945
B(  1-S ,  4-F ) :   0.6632 B(  1-S ,  6-H ) :   0.1181

Dispersion correction           -0.000050223
FINAL SINGLE POINT ENERGY      -687.836439244793

DIPOLE MOMENT
-------------
                                X             Y             Z
Electronic contribution:      2.00319      -2.10751      -4.54337
Nuclear contribution   :     -3.78348       1.67287       4.94851
                        -----------------------------------------
Total Dipole Moment    :     -1.78029      -0.43464       0.40514
                        -----------------------------------------
Magnitude (a.u.)       :      1.87683
Magnitude (Debye)      :      4.77052

Rotational constants in cm-1:     0.163108     0.153882     0.144407
Rotational constants in MHz :  4889.859464  4613.257659  4329.207840

                             ****ORCA TERMINATED NORMALLY****
TOTAL RUN TIME: 0 days 0 hours 0 minutes 8 seconds 2 msec
