                         Program Version 5.0.0 -  RELEASE  -
|  1> !PBE D3BJ RIJCOSX def2-SVP def2/J TightSCF
|  2> *xyz -1 1
|  3> C          0.13297        2.38587       -4.02462
|  4> C         -1.36646        2.47911       -4.31393
|  5> C         -2.35773        2.30686       -3.13675
|  6> H         -1.63680        1.72709       -5.06399
|  7> H         -1.58235        3.44561       -4.76869
|  8> O         -3.44376        2.84652       -3.25274
|  9> O         -1.97092        1.58304       -2.15123
| 10> H          0.68084        2.52514       -4.93310
| 11> H          0.35823        1.42282       -3.61633
| 12> H          0.40851        3.14443       -3.32208
| 13> *
| 14> %MaxCore 64000
| 15>
| 16> %pal nprocs 4
| 17> end
| 18>
| 19> %scf
| 20>   MaxIter 150
| 21> end
| 22>
| 23>
| 24>                          ****END OF INPUT****

CARTESIAN COORDINATES (ANGSTROEM)
---------------------------------
  C      0.132970    2.385870   -4.024620
  C     -1.366460    2.479110   -4.313930
  C     -2.357730    2.306860   -3.136750
  H     -1.636800    1.727090   -5.063990
  H     -1.582350    3.445610   -4.768690
  O     -3.443760    2.846520   -3.252740
  O     -1.970920    1.583040   -2.151230
  H      0.680840    2.525140   -4.933100
  H      0.358230    1.422820   -3.616330
  H      0.408510    3.144430   -3.322080

 Total Charge           Charge          ....   -1
 Multiplicity           Mult            ....    1
 Number of Electrons    NEL             ....   40
 Basis Dimension        Dim             ....   95

ORBITAL ENERGIES
----------------

  NO   OCC          E(Eh)            E(eV)
   0   2.0000     -18.462909      -502.4013
   1   2.0000     -18.454757      -502.1795
   2   2.0000      -9.735347      -264.9123
   3   2.0000      -9.717907      -264.4377
   4   2.0000      -9.699495      -263.9367
   5   2.0000      -0.691642       -18.8205
   6   2.0000      -0.595440       -16.2027
   7   2.0000      -0.507279       -13.8038
   8   2.0000      -0.384533       -10.4637
   9   2.0000      -0.237773        -6.4701
  10   2.0000      -0.227164        -6.1815
  11   2.0000      -0.184394        -5.0176
  12   2.0000      -0.156117        -4.2482
  13   2.0000      -0.146532        -3.9873
  14   2.0000      -0.128712        -3.5024
  15   2.0000      -0.098578        -2.6824
  16   2.0000      -0.089874        -2.4456
  17   2.0000       0.027514         0.7487
  18   2.0000       0.038734         1.0540
  19   2.0000       0.056838         1.5466
  20   0.0000       0.197269         5.3680
  21   0.0000       0.241752         6.5784
  22   0.0000       0.249358         6.7854
  23   0.0000       0.261288         7.1100
  24   0.0000       0.266564         7.2536

MULLIKEN ATOMIC CHARGES
-----------------------
   0 C :    0.039324
   1 C :   -0.049207
   2 C :   -0.037846
   3 H :   -0.034555
   4 H :   -0.055719
   5 O :   -0.342366
   6 O :   -0.419412
   7 H :   -0.061200
   8 H :   -0.020814
   9 H :   -0.018206
Sum of atomic charges:   -1.0000000

LOEWDIN ATOMIC CHARGES
----------------------
   0 C :   -0.075371
   1 C :   -0.109723
   2 C :   -0.101016
   3 H :    0.006894
   4 H :   -0.005303
   5 O :   -0.322803
   6 O :   -0.396227
   7 H :   -0.010050
   8 H :    0.005095
   9 H :    0.008504

  Mayer bond orders larger than 0.100000
B(  0-C ,  1-C ) :   1.0800 B(  0-C ,  7-H ) :   0.9432 B(  0-C ,  8-H ) :   0.9514
B(  0-C ,  9-H ) :   0.9698 B(  1-C ,  2-C ) :   0.8869 B(  1-C ,  3-H ) :   0.9312
B(  1-C ,  4-H ) :   0.9275 B(  2-C ,  5-O ) :   1.9171 B(  2-C ,  6-O ) :   1.8387
B(  5-O ,  6-O ) :   0.1400

Dispersion correction           -0.006464762
FINAL SINGLE POINT ENERGY      -267.308644450579

DIPOLE MOMENT
-------------
                                X             Y             Z
Electronic contribution:     -5.54979      -0.44430       3.47935
Nuclear contribution   :      6.75610       0.63068      -4.53972
                        -----------------------------------------
Total Dipole Moment    :      1.20631       0.18638      -1.06037
                        -----------------------------------------
Magnitude (a.u.)       :      1.61688
Magnitude (Debye)      :      4.10979

Rotational constants in cm-1:     0.335096     0.130241     0.099025
Rotational constants in MHz : 10045.924902  3904.536250  2968.708333

                             ****ORCA TERMINATED NORMALLY****
TOTAL RUN TIME: 0 days 0 hours 0 minutes 7 seconds 591 msec
