                         Program Version 5.0.0 -  RELEASE  -
|  1> !PBE D3BJ RIJCOSX def2-SVP def2/J TightSCF
|  2> *xyz 1 1
|  3> C          0.64866        1.00359       -3.64560
|  4> N          0.28128        0.67645       -2.24018
|  5> C          0.13297        2.38587       -4.02462
|  6> H          0.39079       -0.31925       -2.02649
|  7> H         -0.69269        0.99010       -2.13812
|  8> H          0.85421        1.21221       -1.57528
|  9> H          0.19099        0.23965       -4.27575
| 10> H          1.73157        0.93173       -3.75075
| 11> H          0.40589        2.60338       -5.03610
| 12> H          0.56342        3.11797       -3.37374
| 13> H         -0.93265        2.40724       -3.93025
| 14> *
| 15> %MaxCore 64000
| 16>
| 17> %pal nprocs 4
| 18> end
| 19>
| 20> %scf
| 21>   MaxIter 150
| 22> end
| 23>
| 24>
| 25>                          ****END OF INPUT****

CARTESIAN COORDINATES (ANGSTROEM)
---------------------------------
  C      0.648660    1.003590   -3.645600
  N      0.281280    0.676450   -2.240180
  C      0.132970    2.385870   -4.024620
  H      0.390790   -0.319250   -2.026490
  H     -0.692690    0.990100   -2.138120
  H      0.854210    1.212210   -1.575280
  H      0.190990    0.239650   -4.275750
  H      1.731570    0.931730   -3.750750
  H      0.405890    2.603380   -5.036100
  H      0.563420    3.117970   -3.373740
  H     -0.932650    2.407240   -3.930250

 Total Charge           Charge          ....    1
 Multiplicity           Mult            ....    1
 Number of Electrons    NEL             ....   26
 Basis Dimension        Dim             ....   82

ORBITAL ENERGIES
----------------

  NO   OCC          E(Eh)            E(eV)
   0   2.0000     -14.335968      -390.1015
   1   2.0000     -10.148874      -276.1649
   2   2.0000     -10.074558      -274.1426
   3   2.0000      -1.131939       -30.8016
   4   2.0000      -0.892029       -24.2734
   5   2.0000      -0.782485       -21.2925
   6   2.0000      -0.750762       -20.4293
   7   2.0000      -0.742805       -20.2128
   8   2.0000      -0.648828       -17.6555
   9   2.0000      -0.594555       -16.1787
  10   2.0000      -0.541432       -14.7331
  11   2.0000      -0.527559       -14.3556
  12   2.0000      -0.509192       -13.8558
  13   0.0000      -0.207662        -5.6508
  14   0.0000      -0.151778        -4.1301
  15   0.0000      -0.148014        -4.0277
  16   0.0000      -0.115179        -3.1342
  17   0.0000      -0.083005        -2.2587

MULLIKEN ATOMIC CHARGES
-----------------------
   0 C :   -0.066768
   1 N :    0.037314
   2 C :   -0.053825
   3 H :    0.215003
   4 H :    0.204709
   5 H :    0.208993
   6 H :    0.106148
   7 H :    0.109863
   8 H :    0.103295
   9 H :    0.067547
  10 H :    0.067721
Sum of atomic charges:    1.0000000

LOEWDIN ATOMIC CHARGES
----------------------
   0 C :    0.041016
   1 N :    0.305632
   2 C :   -0.047314
   3 H :    0.145752
   4 H :    0.141623
   5 H :    0.144348
   6 H :    0.057350
   7 H :    0.057560
   8 H :    0.068853
   9 H :    0.042898
  10 H :    0.042282

  Mayer bond orders larger than 0.100000
B(  0-C ,  1-N ) :   0.9476 B(  0-C ,  2-C ) :   1.1165 B(  0-C ,  6-H ) :   0.9437
B(  0-C ,  7-H ) :   0.9445 B(  1-N ,  3-H ) :   0.9291 B(  1-N ,  4-H ) :   0.9337
B(  1-N ,  5-H ) :   0.9344 B(  2-C ,  8-H ) :   0.9492 B(  2-C ,  9-H ) :   0.9669
B(  2-C , 10-H ) :   0.9595

Dispersion correction           -0.006192585
FINAL SINGLE POINT ENERGY      -135.246978292202

DIPOLE MOMENT
-------------
                                X             Y             Z
Electronic contribution:      0.16095      -1.32011       1.36561
Nuclear contribution   :     -0.22655       0.48066      -0.09136
                        -----------------------------------------
Total Dipole Moment    :     -0.06560      -0.83945       1.27426
                        -----------------------------------------
Magnitude (a.u.)       :      1.52732
Magnitude (Debye)      :      3.88214

Rotational constants in cm-1:     0.998155     0.284845     0.251232
Rotational constants in MHz : 29923.943568  8539.431565  7531.732866

                             ****ORCA TERMINATED NORMALLY****
TOTAL RUN TIME: 0 days 0 hours 0 minutes 6 seconds 588 msec
