                         Program Version 5.0.0 -  RELEASE  -
|  1> !PBE D3BJ RIJCOSX def2-SVP def2/J TightSCF
|  2> *xyz 0 1
|  3> C          0.13297        2.38587       -4.02462
|  4> C         -1.36646        2.47911       -4.31393
|  5> C         -2.35773        2.30686       -3.13675
|  6> H         -1.63680        1.72709       -5.06399
|  7> H         -1.58235        3.44561       -4.76869
|  8> F         -3.44376        2.84652       -3.25274
|  9> O         -1.97092        1.58304       -2.15123
| 10> H          0.68084        2.52514       -4.93310
| 11> H          0.35823        1.42282       -3.61633
| 12> H          0.40851        3.14443       -3.32208
| 13> *
| 14> %MaxCore 64000
| 15>
| 16> %pal nprocs 4
| 17> end
| 18>
| 19> %scf
| 20>   MaxIter 150
| 21> end
| 22>
| 23>
| 24>                          ****END OF INPUT****

CARTESIAN COORDINATES (ANGSTROEM)
---------------------------------
  C      0.132970    2.385870   -4.024620
  C     -1.366460    2.479110   -4.313930
  C     -2.357730    2.306860   -3.136750
  H     -1.636800    1.727090   -5.063990
  H     -1.582350    3.445610   -4.768690
  F     -3.443760    2.846520   -3.252740
  O     -1.970920    1.583040   -2.151230
  H      0.680840    2.525140   -4.933100
  H      0.358230    1.422820   -3.616330
  H      0.408510    3.144430   -3.322080

 Total Charge           Charge          ....    0
 Multiplicity           Mult            ....    1
 Number of Electrons    NEL             ....   40
 Basis Dimension        Dim             ....   95

ORBITAL ENERGIES
----------------

  NO   OCC          E(Eh)            E(eV)
   0   2.0000     -24.339320      -662.3066
   1   2.0000     -18.749585      -510.2021
   2   2.0000     -10.054564      -273.5986
   3   2.0000      -9.920905      -269.9615
   4   2.0000      -9.893318      -269.2109
   5   2.0000      -1.218715       -33.1629
   6   2.0000      -0.908369       -24.7180
   7   2.0000      -0.711766       -19.3681
   8   2.0000      -0.618168       -16.8212
   9   2.0000      -0.571207       -15.5433
  10   2.0000      -0.495000       -13.4696
  11   2.0000      -0.475803       -12.9473
  12   2.0000      -0.436927       -11.8894
  13   2.0000      -0.411008       -11.1841
  14   2.0000      -0.371662       -10.1134
  15   2.0000      -0.342724        -9.3260
  16   2.0000      -0.323595        -8.8055
  17   2.0000      -0.316523        -8.6130
  18   2.0000      -0.292286        -7.9535
  19   2.0000      -0.225064        -6.1243
  20   0.0000      -0.054468        -1.4821
  21   0.0000       0.037992         1.0338
  22   0.0000       0.082879         2.2553
  23   0.0000       0.091866         2.4998
  24   0.0000       0.102658         2.7935

MULLIKEN ATOMIC CHARGES
-----------------------
   0 C :    0.014013
   1 C :   -0.124990
   2 C :    0.166696
   3 H :    0.059631
   4 H :    0.029060
   5 F :    0.012257
   6 O :   -0.248216
   7 H :    0.020710
   8 H :    0.040255
   9 H :    0.030585
Sum of atomic charges:   -0.0000000

LOEWDIN ATOMIC CHARGES
----------------------
   0 C :   -0.048097
   1 C :   -0.086562
   2 C :    0.048018
   3 H :    0.051025
   4 H :    0.030600
   5 F :    0.114088
   6 O :   -0.199485
   7 H :    0.029147
   8 H :    0.031716
   9 H :    0.029552

  Mayer bond orders larger than 0.100000
B(  0-C ,  1-C ) :   1.1125 B(  0-C ,  7-H ) :   0.9563 B(  0-C ,  8-H ) :   0.9638
B(  0-C ,  9-H ) :   0.9752 B(  1-C ,  2-C ) :   0.9914 B(  1-C ,  3-H ) :   0.9155
B(  1-C ,  4-H ) :   0.9284 B(  2-C ,  5-F ) :   1.2756 B(  2-C ,  6-O ) :   2.0592

Dispersion correction           -0.006151643
FINAL SINGLE POINT ENERGY      -291.839542324736

DIPOLE MOMENT
-------------
                                X             Y             Z
Electronic contribution:     -8.47386       0.41692       3.71042
Nuclear contribution   :      8.54799       0.05434      -4.66633
                        -----------------------------------------
Total Dipole Moment    :      0.07413       0.47126      -0.95590
                        -----------------------------------------
Magnitude (a.u.)       :      1.06833
Magnitude (Debye)      :      2.71547

Rotational constants in cm-1:     0.325803     0.123345     0.094275
Rotational constants in MHz :  9767.324172  3697.779805  2826.305733

                             ****ORCA TERMINATED NORMALLY****
TOTAL RUN TIME: 0 days 0 hours 0 minutes 7 seconds 228 msec
