                         Program Version 5.0.0 -  RELEASE  -
|  1> !PBE D3BJ RIJCOSX def2-SVP def2/J TightSCF
|  2> *xyz 0 1
|  3> C          0.64866        1.00359       -3.64560
|  4> C          0.28128        0.67645       -2.24018
|  5> C          0.13297        2.38587       -4.02462
|  6> H          0.39079       -0.31925       -2.02649
|  7> H         -0.69269        0.99010       -2.13812
|  8> H          0.85421        1.21221       -1.57528
|  9> H          0.19099        0.23965       -4.27575
| 10> H          1.73157        0.93173       -3.75075
| 11> H          0.40589        2.60338       -5.03610
| 12> H          0.56342        3.11797       -3.37374
| 13> H         -0.93265        2.40724       -3.93025
| 14> *
| 15> %MaxCore 64000
| 16>
| 17> %pal nprocs 4
| 18> end
| 19>
| 20> %scf
| 21>   MaxIter 150
| 22> end
| 23>
| 24>
| 25>                          ****END OF INPUT****

CARTESIAN COORDINATES (ANGSTROEM)
---------------------------------
  C      0.648660    1.003590   -3.645600
  C      0.281280    0.676450   -2.240180
  C      0.132970    2.385870   -4.024620
  H      0.390790   -0.319250   -2.026490
  H     -0.692690    0.990100   -2.138120
  H      0.854210    1.212210   -1.575280
  H      0.190990    0.239650   -4.275750
  H      1.731570    0.931730   -3.750750
  H      0.405890    2.603380   -5.036100
  H      0.563420    3.117970   -3.373740
  H     -0.932650    2.407240   -3.930250

 Total Charge           Charge          ....    0
 Multiplicity           Mult            ....    1
 Number of Electrons    NEL             ....   26
 Basis Dimension        Dim             ....   82

ORBITAL ENERGIES
----------------

  NO   OCC          E(Eh)            E(eV)
   0   2.0000      -9.881019      -268.8762
   1   2.0000      -9.874180      -268.6901
   2   2.0000      -9.857122      -268.2259
   3   2.0000      -0.711490       -19.3606
   4   2.0000      -0.613196       -16.6859
   5   2.0000      -0.517664       -14.0864
   6   2.0000      -0.415463       -11.3053
   7   2.0000      -0.398373       -10.8403
   8   2.0000      -0.354558        -9.6480
   9   2.0000      -0.338119        -9.2007
  10   2.0000      -0.294816        -8.0224
  11   2.0000      -0.290486        -7.9045
  12   2.0000      -0.281894        -7.6707
  13   0.0000       0.044217         1.2032
  14   0.0000       0.090306         2.4573
  15   0.0000       0.091122         2.4795
  16   0.0000       0.097941         2.6651
  17   0.0000       0.123495         3.3605

MULLIKEN ATOMIC CHARGES
-----------------------
   0 C :   -0.095805
   1 C :    0.061244
   2 C :   -0.013585
   3 H :   -0.003817
   4 H :   -0.011393
   5 H :   -0.006685
   6 H :    0.011750
   7 H :    0.012873
   8 H :    0.014863
   9 H :    0.014590
  10 H :    0.015966
Sum of atomic charges:   -0.0000000

LOEWDIN ATOMIC CHARGES
----------------------
   0 C :   -0.044998
   1 C :   -0.048816
   2 C :   -0.059183
   3 H :    0.015232
   4 H :    0.015292
   5 H :    0.015250
   6 H :    0.021244
   7 H :    0.019969
   8 H :    0.022797
   9 H :    0.021686
  10 H :    0.021527

  Mayer bond orders larger than 0.100000
B(  0-C ,  1-C ) :   1.1223 B(  0-C ,  2-C ) :   1.1202 B(  0-C ,  6-H ) :   0.9472
B(  0-C ,  7-H ) :   0.9481 B(  1-C ,  3-H ) :   0.9583 B(  1-C ,  4-H ) :   0.9650
B(  1-C ,  5-H ) :   0.9638 B(  2-C ,  8-H ) :   0.9635 B(  2-C ,  9-H ) :   0.9719
B(  2-C , 10-H ) :   0.9670

Dispersion correction           -0.006189810
FINAL SINGLE POINT ENERGY      -118.854160306694

DIPOLE MOMENT
-------------
                                X             Y             Z
Electronic contribution:      0.25195      -0.27050      -0.24042
Nuclear contribution   :     -0.24754       0.26111       0.24628
                        -----------------------------------------
Total Dipole Moment    :      0.00442      -0.00939       0.00585
                        -----------------------------------------
Magnitude (a.u.)       :      0.01191
Magnitude (Debye)      :      0.03028

Rotational constants in cm-1:     1.006509     0.299509     0.263145
Rotational constants in MHz : 30174.379724  8979.049324  7888.875355

                             ****ORCA TERMINATED NORMALLY****
TOTAL RUN TIME: 0 days 0 hours 0 minutes 6 seconds 494 msec
