                         Program Version 5.0.0 -  RELEASE  -
|  1> !PBE D3BJ RIJCOSX def2-TZVP def2/J TightSCF xyzfile
|  2>
|  3> *xyzfile 0 1 D1.xyz
|  4>
|  5> %MaxCore 64000
|  6>
|  7> %pal nprocs 18
|  8> end
|  9>
| 10> %scf
| 11>   MaxIter 150
| 12> end
| 13>
| 14>
| 15>                          ****END OF INPUT****

CARTESIAN COORDINATES (ANGSTROEM)
---------------------------------
  C      0.648656    1.003595   -3.645601
  C      0.281280    0.676454   -2.240179
  C      0.132968    2.385869   -4.024618
  C     -1.366462    2.479106   -4.313932
  C     -2.357732    2.306858   -3.136753
  H     -1.636802    1.727095   -5.063993
  H     -1.582347    3.445605   -4.768687
  H      0.390790   -0.319253   -2.026495
  H     -0.692686    0.990104   -2.138123
  H      0.854206    1.212214   -1.575279
  F     -3.443763    2.846518   -3.252744
  O     -1.970922    1.583042   -2.151229
  H      0.190993    0.239655   -4.275752
  H      1.731572    0.931729   -3.750751
  H      0.414839    3.102847   -3.245165
  H      0.683167    2.687560   -4.919721

 Total Charge           Charge          ....    0
 Multiplicity           Mult            ....    1
 Number of Electrons    NEL             ....   56
 Basis Dimension        Dim             ....  271

ORBITAL ENERGIES
----------------

  NO   OCC          E(Eh)            E(eV)
   0   2.0000     -24.348888      -662.5669
   1   2.0000     -18.757745      -510.4242
   2   2.0000     -10.064481      -273.8684
   3   2.0000      -9.917294      -269.8633
   4   2.0000      -9.888610      -269.0828
   5   2.0000      -9.861252      -268.3383
   6   2.0000      -9.790730      -266.4193
   7   2.0000      -1.252792       -34.0902
   8   2.0000      -0.951145       -25.8820
   9   2.0000      -0.741531       -20.1781
  10   2.0000      -0.686123       -18.6704
  11   2.0000      -0.623479       -16.9657
  12   2.0000      -0.592807       -16.1311
  13   2.0000      -0.522699       -14.2234
  14   2.0000      -0.510657       -13.8957
  15   2.0000      -0.494327       -13.4513
  16   2.0000      -0.469570       -12.7776
  17   2.0000      -0.429509       -11.6875
  18   2.0000      -0.399885       -10.8814
  19   2.0000      -0.388222       -10.5640
  20   2.0000      -0.360385        -9.8066
  21   2.0000      -0.338129        -9.2010
  22   2.0000      -0.332444        -9.0463
  23   2.0000      -0.314306        -8.5527
  24   2.0000      -0.296779        -8.0758
  25   2.0000      -0.278911        -7.5895
  26   2.0000      -0.269375        -7.3301
  27   2.0000      -0.202790        -5.5182
  28   0.0000      -0.078826        -2.1450
  29   0.0000       0.010834         0.2948
  30   0.0000       0.040922         1.1135
  31   0.0000       0.051016         1.3882
  32   0.0000       0.061643         1.6774

MULLIKEN ATOMIC CHARGES
-----------------------
   0 C :   -0.155667
   1 C :   -0.401222
   2 C :   -0.157850
   3 C :   -0.268658
   4 C :    0.294003
   5 H :    0.128702
   6 H :    0.126334
   7 H :    0.087506
   8 H :    0.181152
   9 H :    0.081575
  10 F :   -0.016275
  11 O :   -0.257279
  12 H :    0.068924
  13 H :    0.087728
  14 H :    0.099504
  15 H :    0.101522
Sum of atomic charges:    0.0000000

LOEWDIN ATOMIC CHARGES
----------------------
   0 C :   -0.305506
   1 C :   -0.325239
   2 C :   -0.261881
   3 C :   -0.242413
   4 C :   -0.522400
   5 H :    0.160889
   6 H :    0.148566
   7 H :    0.100227
   8 H :    0.069690
   9 H :    0.102669
  10 F :    0.411740
  11 O :    0.110803
  12 H :    0.134412
  13 H :    0.131807
  14 H :    0.144218
  15 H :    0.142419

  Mayer bond orders larger than 0.100000
B(  0-C ,  1-C ) :   1.0038 B(  0-C ,  2-C ) :   1.0025 B(  0-C , 12-H ) :   0.9554
B(  0-C , 13-H ) :   0.9521 B(  1-C ,  7-H ) :   0.9630 B(  1-C ,  8-H ) :   0.9221
B(  1-C ,  9-H ) :   0.9641 B(  2-C ,  3-C ) :   1.0012 B(  2-C , 14-H ) :   0.9585
B(  2-C , 15-H ) :   0.9402 B(  3-C ,  4-C ) :   1.0236 B(  3-C ,  5-H ) :   0.9130
B(  3-C ,  6-H ) :   0.9378 B(  4-C , 10-F ) :   1.2484 B(  4-C , 11-O ) :   1.9500
B(  8-H , 11-O ) :   0.1464

Dispersion correction           -0.013365937
FINAL SINGLE POINT ENERGY      -370.669729018678

DIPOLE MOMENT
-------------
                                X             Y             Z
Electronic contribution:    -13.04346       4.56676       1.47668
Nuclear contribution   :     12.79331      -3.91961      -2.45895
                        -----------------------------------------
Total Dipole Moment    :     -0.25015       0.64715      -0.98227
                        -----------------------------------------
Magnitude (a.u.)       :      1.20259
Magnitude (Debye)      :      3.05674

Rotational constants in cm-1:     0.162888     0.059977     0.046450
Rotational constants in MHz :  4883.250030  1798.063289  1392.548669

                             ****ORCA TERMINATED NORMALLY****
TOTAL RUN TIME: 0 days 0 hours 0 minutes 5 seconds 989 msec
