                         Program Version 5.0.0 -  RELEASE  -
|  1> !TPSS D3BJ RIJCOSX def2-SVPD def2/J TightSCF
|  2> *xyz -1 1
|  3> C          3.38093        2.08304       -3.35013
|  4> C          2.49556        1.81615       -2.13636
|  5> C          1.87218        0.42790       -2.07750
|  6> H          2.61427       -0.36583       -2.19889
|  7> H          1.38995        0.27309       -1.11236
|  8> S          0.57902        0.14047       -3.29794
|  9> O          0.22886       -1.24687       -3.12787
| 10> O         -0.43927        1.11897       -3.01455
| 11> O          1.24788        0.40347       -4.59565
| 12> H          1.69700        2.56197       -2.14111
| 13> H          3.08079        1.98744       -1.22584
| 14> H          2.81820        1.91840       -4.24519
| 15> H          4.22171        1.42153       -3.33067
| 16> H          3.72372        3.09635       -3.32565
| 17> *
| 18>
| 19> %MaxCore 64000
| 20>
| 21> %pal nprocs 8
| 22> end
| 23>
| 24> %scf
| 25>   MaxIter 150
| 26> end
| 27>
| 28>
| 29>                          ****END OF INPUT****

CARTESIAN COORDINATES (ANGSTROEM)
---------------------------------
  C      3.380930    2.083040   -3.350130
  C      2.495560    1.816150   -2.136360
  C      1.872180    0.427900   -2.077500
  H      2.614270   -0.365830   -2.198890
  H      1.389950    0.273090   -1.112360
  S      0.579020    0.140470   -3.297940
  O      0.228860   -1.246870   -3.127870
  O     -0.439270    1.118970   -3.014550
  O      1.247880    0.403470   -4.595650
  H      1.697000    2.561970   -2.141110
  H      3.080790    1.987440   -1.225840
  H      2.818200    1.918400   -4.245190
  H      4.221710    1.421530   -3.330670
  H      3.723720    3.096350   -3.325650

 Total Charge           Charge          ....   -1
 Multiplicity           Mult            ....    1
 Number of Electrons    NEL             ....   66
 Basis Dimension        Dim             ....  212

ORBITAL ENERGIES
----------------

  NO   OCC          E(Eh)            E(eV)
   0   2.0000     -88.368706     -2404.6348
   1   2.0000     -18.683697      -508.4092
   2   2.0000     -18.683513      -508.4042
   3   2.0000     -18.670551      -508.0515
   4   2.0000      -9.866669      -268.4857
   5   2.0000      -9.859373      -268.2872
   6   2.0000      -9.848550      -267.9927
   7   2.0000      -7.728517      -210.3037
   8   2.0000      -5.714588      -155.5019
   9   2.0000      -5.714446      -155.4980
  10   2.0000      -5.713502      -155.4723
  11   2.0000      -0.858724       -23.3671
  12   2.0000      -0.728302       -19.8181
  13   2.0000      -0.703897       -19.1540
  14   2.0000      -0.590055       -16.0562
  15   2.0000      -0.504628       -13.7316
  16   2.0000      -0.412820       -11.2334
  17   2.0000      -0.332740        -9.0543
  18   2.0000      -0.286550        -7.7974
  19   2.0000      -0.274500        -7.4695
  20   2.0000      -0.247106        -6.7241
  21   2.0000      -0.237363        -6.4590
  22   2.0000      -0.220422        -5.9980
  23   2.0000      -0.210086        -5.7167
  24   2.0000      -0.180633        -4.9153
  25   2.0000      -0.174629        -4.7519
  26   2.0000      -0.165069        -4.4918
  27   2.0000      -0.110349        -3.0027
  28   2.0000      -0.109718        -2.9856
  29   2.0000      -0.078447        -2.1346
  30   2.0000      -0.071390        -1.9426
  31   2.0000      -0.058766        -1.5991
  32   2.0000      -0.026605        -0.7240
  33   0.0000       0.128539         3.4977
  34   0.0000       0.154076         4.1926
  35   0.0000       0.158741         4.3196
  36   0.0000       0.167394         4.5550
  37   0.0000       0.185612         5.0508

MULLIKEN ATOMIC CHARGES
-----------------------
   0 C :    0.754909
   1 C :   -0.287943
   2 C :   -0.005451
   3 H :    0.000527
   4 H :    0.007447
   5 S :    1.302139
   6 O :   -0.792554
   7 O :   -0.776114
   8 O :   -0.840599
   9 H :    0.002489
  10 H :   -0.118252
  11 H :   -0.211880
  12 H :   -0.008000
  13 H :   -0.026719
Sum of atomic charges:   -1.0000000

LOEWDIN ATOMIC CHARGES
----------------------
   0 C :    0.122163
   1 C :   -0.085709
   2 C :   -0.091937
   3 H :    0.002523
   4 H :   -0.003912
   5 S :    0.850331
   6 O :   -0.561761
   7 O :   -0.558279
   8 O :   -0.568262
   9 H :    0.013063
  10 H :    0.001094
  11 H :   -0.055379
  12 H :   -0.027507
  13 H :   -0.036428

  Mayer bond orders larger than 0.100000
B(  0-C ,  1-C ) :   1.2591 B(  0-C ,  9-H ) :   0.1017 B(  0-C , 11-H ) :   0.8357
B(  0-C , 12-H ) :   0.7516 B(  0-C , 13-H ) :   0.7304 B(  1-C ,  2-C ) :   1.2048
B(  1-C ,  3-H ) :   0.1189 B(  1-C ,  4-H ) :   0.1230 B(  1-C ,  9-H ) :   0.8967
B(  1-C , 10-H ) :   0.9168 B(  1-C , 11-H ) :   0.2662 B(  1-C , 12-H ) :   0.2030
B(  1-C , 13-H ) :   0.2046 B(  2-C ,  3-H ) :   0.9578 B(  2-C ,  4-H ) :   0.9213
B(  2-C ,  5-S ) :   0.8960 B(  2-C ,  9-H ) :   0.1330 B(  2-C , 10-H ) :   0.1078
B(  5-S ,  6-O ) :   1.3597 B(  5-S ,  7-O ) :   1.3096 B(  5-S ,  8-O ) :   1.2820
B(  8-O , 11-H ) :   0.1051 B( 11-H , 12-H ) :   0.1166 B( 11-H , 13-H ) :   0.1101

Dispersion correction           -0.016733820
FINAL SINGLE POINT ENERGY      -742.148261534056

DIPOLE MOMENT
-------------
                                X             Y             Z
Electronic contribution:     -8.87553      -5.57567      -2.94071
Nuclear contribution   :     10.42821       6.37804       4.08250
                        -----------------------------------------
Total Dipole Moment    :      1.55268       0.80236       1.14180
                        -----------------------------------------
Magnitude (a.u.)       :      2.08765
Magnitude (Debye)      :      5.30640

Rotational constants in cm-1:     0.136992     0.054831     0.052480
Rotational constants in MHz :  4106.928256  1643.799656  1573.299166

                             ****ORCA TERMINATED NORMALLY****
TOTAL RUN TIME: 0 days 0 hours 0 minutes 8 seconds 44 msec
