                         Program Version 5.0.0 -  RELEASE  -
|  1> !TPSS D3BJ RIJCOSX def2-SVPD def2/J TightSCF
|  2> *xyz 1 1
|  3> C          3.38093        2.08304       -3.35013
|  4> N          4.53592        1.18245       -3.42852
|  5> C          2.49556        1.81615       -2.13636
|  6> C          1.87218        0.42790       -2.07750
|  7> C          4.67196        0.12227       -4.22060
|  8> N          5.86602       -0.50785       -4.22428
|  9> N          3.69888       -0.31284       -4.98699
| 10> H          2.73141       -0.05009       -4.84900
| 11> H          3.89005       -1.05517       -5.64373
| 12> H          5.25193        1.30346       -2.72101
| 13> H          6.69516       -0.06232       -3.85160
| 14> H          5.97538       -1.39688       -4.69141
| 15> H          1.69700        2.56197       -2.14111
| 16> H          3.08079        1.98744       -1.22584
| 17> H          2.80646        1.98651       -4.26848
| 18> H          3.77871        3.09828       -3.30738
| 19> H          1.29954        0.25615       -2.96490
| 20> H          1.23321        0.35984       -1.22194
| 21> H          2.64581       -0.30765       -2.00430
| 22> *
| 23>
| 24> %MaxCore 64000
| 25>
| 26> %pal nprocs 8
| 27> end
| 28>
| 29> %scf
| 30>   MaxIter 150
| 31> end
| 32>
| 33>
| 34>                          ****END OF INPUT****

CARTESIAN COORDINATES (ANGSTROEM)
---------------------------------
  C      3.380930    2.083040   -3.350130
  N      4.535920    1.182450   -3.428520
  C      2.495560    1.816150   -2.136360
  C      1.872180    0.427900   -2.077500
  C      4.671960    0.122270   -4.220600
  N      5.866020   -0.507850   -4.224280
  N      3.698880   -0.312840   -4.986990
  H      2.731410   -0.050090   -4.849000
  H      3.890050   -1.055170   -5.643730
  H      5.251930    1.303460   -2.721010
  H      6.695160   -0.062320   -3.851600
  H      5.975380   -1.396880   -4.691410
  H      1.697000    2.561970   -2.141110
  H      3.080790    1.987440   -1.225840
  H      2.806460    1.986510   -4.268480
  H      3.778710    3.098280   -3.307380
  H      1.299540    0.256150   -2.964900
  H      1.233210    0.359840   -1.221940
  H      2.645810   -0.307650   -2.004300

 Total Charge           Charge          ....    1
 Multiplicity           Mult            ....    1
 Number of Electrons    NEL             ....   56
 Basis Dimension        Dim             ....  236

ORBITAL ENERGIES
----------------

  NO   OCC          E(Eh)            E(eV)
   0   2.0000     -14.340234      -390.2176
   1   2.0000     -14.334917      -390.0729
   2   2.0000     -14.334053      -390.0494
   3   2.0000     -10.321460      -280.8612
   4   2.0000     -10.202769      -277.6315
   5   2.0000     -10.143163      -276.0095
   6   2.0000     -10.124153      -275.4922
   7   2.0000      -1.133930       -30.8558
   8   2.0000      -1.031167       -28.0595
   9   2.0000      -1.017409       -27.6851
  10   2.0000      -0.877502       -23.8780
  11   2.0000      -0.807694       -21.9785
  12   2.0000      -0.771599       -20.9963
  13   2.0000      -0.736456       -20.0400
  14   2.0000      -0.712380       -19.3849
  15   2.0000      -0.680870       -18.5274
  16   2.0000      -0.650578       -17.7031
  17   2.0000      -0.645676       -17.5697
  18   2.0000      -0.596944       -16.2437
  19   2.0000      -0.587476       -15.9860
  20   2.0000      -0.558873       -15.2077
  21   2.0000      -0.537955       -14.6385
  22   2.0000      -0.517403       -14.0793
  23   2.0000      -0.473492       -12.8844
  24   2.0000      -0.454557       -12.3691
  25   2.0000      -0.449271       -12.2253
  26   2.0000      -0.435495       -11.8504
  27   2.0000      -0.406736       -11.0678
  28   0.0000      -0.192005        -5.2247
  29   0.0000      -0.162362        -4.4181
  30   0.0000      -0.131746        -3.5850
  31   0.0000      -0.121288        -3.3004
  32   0.0000      -0.107710        -2.9309

MULLIKEN ATOMIC CHARGES
-----------------------
   0 C :    0.774116
   1 N :   -0.559950
   2 C :   -0.349382
   3 C :    0.706932
   4 C :    1.586465
   5 N :   -0.146449
   6 N :   -0.048078
   7 H :   -0.083155
   8 H :   -0.096913
   9 H :   -0.225803
  10 H :   -0.057639
  11 H :   -0.008006
  12 H :   -0.010947
  13 H :   -0.024759
  14 H :   -0.046694
  15 H :   -0.220325
  16 H :   -0.038945
  17 H :   -0.149253
  18 H :   -0.001215
Sum of atomic charges:    1.0000000

LOEWDIN ATOMIC CHARGES
----------------------
   0 C :    0.091349
   1 N :    0.048377
   2 C :   -0.043465
   3 C :    0.142029
   4 C :   -0.039577
   5 N :    0.261177
   6 N :    0.285531
   7 H :    0.019272
   8 H :    0.041375
   9 H :    0.059978
  10 H :    0.034634
  11 H :    0.031599
  12 H :    0.034066
  13 H :    0.027832
  14 H :    0.021847
  15 H :    0.036823
  16 H :   -0.023678
  17 H :   -0.004449
  18 H :   -0.024720

  Mayer bond orders larger than 0.100000
B(  0-C ,  1-N ) :   0.9253 B(  0-C ,  2-C ) :   1.1044 B(  0-C ,  9-H ) :  -0.2013
B(  0-C , 12-H ) :   0.1105 B(  0-C , 13-H ) :   0.1128 B(  0-C , 14-H ) :   0.7659
B(  0-C , 15-H ) :   0.9212 B(  1-N ,  4-C ) :   0.8680 B(  1-N ,  5-N ) :   0.3001
B(  1-N ,  6-N ) :   0.2987 B(  1-N ,  9-H ) :   1.3604 B(  1-N , 14-H ) :   0.1519
B(  1-N , 15-H ) :   0.1516 B(  2-C ,  3-C ) :   1.3205 B(  2-C , 12-H ) :   0.9172
B(  2-C , 13-H ) :   0.9224 B(  2-C , 14-H ) :   0.1138 B(  2-C , 16-H ) :   0.2134
B(  2-C , 17-H ) :   0.2097 B(  2-C , 18-H ) :   0.2166 B(  3-C , 12-H ) :   0.1001
B(  3-C , 16-H ) :   0.7937 B(  3-C , 17-H ) :   0.8355 B(  3-C , 18-H ) :   0.7829
B(  4-C ,  5-N ) :   0.7350 B(  4-C ,  6-N ) :   0.8769 B(  4-C ,  7-H ) :  -0.1829
B(  4-C ,  8-H ) :  -0.2027 B(  4-C ,  9-H ) :  -0.2615 B(  4-C , 10-H ) :  -0.1746
B(  4-C , 11-H ) :  -0.1084 B(  5-N ,  6-N ) :   0.2110 B(  5-N , 10-H ) :   1.2049
B(  5-N , 11-H ) :   1.1780 B(  6-N ,  7-H ) :   1.1600 B(  6-N ,  8-H ) :   1.3205
B(  6-N , 14-H ) :   0.1030 B(  7-H ,  8-H ) :  -0.2246 B( 10-H , 11-H ) :  -0.1690
B( 14-H , 15-H ) :  -0.1133

Dispersion correction           -0.019769178
FINAL SINGLE POINT ENERGY      -323.569149128560

DIPOLE MOMENT
-------------
                                X             Y             Z
Electronic contribution:      5.29516      -1.45273      -3.76950
Nuclear contribution   :     -4.20917       0.72396       2.93051
                        -----------------------------------------
Total Dipole Moment    :      1.08598      -0.72877      -0.83899
                        -----------------------------------------
Magnitude (a.u.)       :      1.55382
Magnitude (Debye)      :      3.94951

Rotational constants in cm-1:     0.153116     0.051500     0.046494
Rotational constants in MHz :  4590.307026  1543.937577  1393.864628

                             ****ORCA TERMINATED NORMALLY****
TOTAL RUN TIME: 0 days 0 hours 0 minutes 9 seconds 833 msec
