                         Program Version 5.0.0 -  RELEASE  -
|  1> !TPSS D3BJ RIJCOSX def2-SVPD def2/J TightSCF xyzfile
|  2>
|  3> *xyzfile 0 1 B.xyz
|  4>
|  5> %MaxCore 64000
|  6>
|  7> %pal nprocs 4
|  8> end
|  9>
| 10> %scf
| 11>   MaxIter 150
| 12> end
| 13>
| 14>
| 15>                          ****END OF INPUT****

CARTESIAN COORDINATES (ANGSTROEM)
---------------------------------
  C      3.380928    2.083045   -3.350127
  N      4.535924    1.182447   -3.428518
  C      2.495557    1.816150   -2.136364
  C      1.872181    0.427903   -2.077497
  H      2.614270   -0.365825   -2.198894
  H      1.389953    0.273087   -1.112360
  S      0.579024    0.140472   -3.297943
  C      4.671956    0.122273   -4.220598
  N      5.866023   -0.507849   -4.224284
  N      3.698881   -0.312844   -4.986988
  H      2.731405   -0.050091   -4.849000
  H      3.890046   -1.055172   -5.643730
  H      5.251933    1.303459   -2.721014
  H      6.695165   -0.062322   -3.851596
  H      5.975383   -1.396884   -4.691414
  O      0.228860   -1.246868   -3.127871
  O     -0.439269    1.118966   -3.014550
  O      1.247881    0.403474   -4.595647
  H      1.697003    2.561969   -2.141109
  H      3.080787    1.987436   -1.225838
  H      2.806463    1.986511   -4.268484
  H      3.778714    3.098282   -3.307383

 Total Charge           Charge          ....    0
 Multiplicity           Mult            ....    1
 Number of Electrons    NEL             ....   96
 Basis Dimension        Dim             ....  324

ORBITAL ENERGIES
----------------

  NO   OCC          E(Eh)            E(eV)
   0   2.0000     -88.513103     -2408.5640
   1   2.0000     -18.833848      -512.4950
   2   2.0000     -18.818286      -512.0716
   3   2.0000     -18.818194      -512.0691
   4   2.0000     -14.211939      -386.7265
   5   2.0000     -14.205001      -386.5377
   6   2.0000     -14.175728      -385.7412
   7   2.0000     -10.184868      -277.1444
   8   2.0000     -10.065870      -273.9063
   9   2.0000     -10.017371      -272.5865
  10   2.0000     -10.001866      -272.1646
  11   2.0000      -7.872394      -214.2187
  12   2.0000      -5.859011      -159.4318
  13   2.0000      -5.857932      -159.4024
  14   2.0000      -5.857302      -159.3853
  15   2.0000      -1.003237       -27.2995
  16   2.0000      -0.997992       -27.1568
  17   2.0000      -0.897314       -24.4172
  18   2.0000      -0.882255       -24.0074
  19   2.0000      -0.862798       -23.4779
  20   2.0000      -0.860816       -23.4240
  21   2.0000      -0.746910       -20.3244
  22   2.0000      -0.680396       -18.5145
  23   2.0000      -0.632927       -17.2228
  24   2.0000      -0.601925       -16.3792
  25   2.0000      -0.589950       -16.0534
  26   2.0000      -0.557459       -15.1692
  27   2.0000      -0.519761       -14.1434
  28   2.0000      -0.506051       -13.7704
  29   2.0000      -0.482896       -13.1403
  30   2.0000      -0.463115       -12.6020
  31   2.0000      -0.445231       -12.1153
  32   2.0000      -0.431756       -11.7487
  33   2.0000      -0.410388       -11.1672
  34   2.0000      -0.394003       -10.7214
  35   2.0000      -0.375353       -10.2139
  36   2.0000      -0.355597        -9.6763
  37   2.0000      -0.345392        -9.3986
  38   2.0000      -0.336464        -9.1556
  39   2.0000      -0.326375        -8.8811
  40   2.0000      -0.300891        -8.1877
  41   2.0000      -0.276892        -7.5346
  42   2.0000      -0.257090        -6.9958
  43   2.0000      -0.249370        -6.7857
  44   2.0000      -0.222464        -6.0536
  45   2.0000      -0.212194        -5.7741
  46   2.0000      -0.207761        -5.6535
  47   2.0000      -0.173385        -4.7180
  48   0.0000      -0.058499        -1.5918
  49   0.0000      -0.053515        -1.4562
  50   0.0000      -0.018779        -0.5110
  51   0.0000      -0.001438        -0.0391
  52   0.0000       0.023395         0.6366

MULLIKEN ATOMIC CHARGES
-----------------------
   0 C :    0.884724
   1 N :   -0.557864
   2 C :    0.120345
   3 C :    0.066803
   4 H :    0.094880
   5 H :   -0.138343
   6 S :    1.380676
   7 C :    1.438791
   8 N :   -0.125057
   9 N :    0.276909
  10 H :   -0.232025
  11 H :   -0.143847
  12 H :   -0.226805
  13 H :   -0.096195
  14 H :   -0.034975
  15 O :   -0.754889
  16 O :   -0.792465
  17 O :   -0.928700
  18 H :    0.048193
  19 H :   -0.027111
  20 H :    0.024813
  21 H :   -0.277860
Sum of atomic charges:    0.0000000

LOEWDIN ATOMIC CHARGES
----------------------
   0 C :    0.097187
   1 N :    0.041341
   2 C :   -0.011660
   3 C :   -0.070637
   4 H :   -0.004056
   5 H :    0.013589
   6 S :    0.915397
   7 C :   -0.046395
   8 N :    0.235031
   9 N :    0.312179
  10 H :   -0.130295
  11 H :    0.034952
  12 H :    0.045492
  13 H :    0.015458
  14 H :    0.017493
  15 O :   -0.515792
  16 O :   -0.507031
  17 O :   -0.524752
  18 H :    0.032243
  19 H :    0.016716
  20 H :    0.007736
  21 H :    0.025803

  Mayer bond orders larger than 0.100000
B(  0-C ,  1-N ) :   0.8938 B(  0-C ,  2-C ) :   1.1143 B(  0-C , 12-H ) :  -0.1892
B(  0-C , 18-H ) :   0.1414 B(  0-C , 19-H ) :   0.1299 B(  0-C , 20-H ) :   0.7378
B(  0-C , 21-H ) :   0.8471 B(  1-N ,  7-C ) :   0.8906 B(  1-N ,  8-N ) :   0.2795
B(  1-N ,  9-N ) :   0.2065 B(  1-N , 12-H ) :   1.3540 B(  1-N , 20-H ) :   0.1870
B(  1-N , 21-H ) :   0.1514 B(  2-C ,  3-C ) :   1.2388 B(  2-C ,  4-H ) :   0.1289
B(  2-C ,  5-H ) :   0.1546 B(  2-C , 18-H ) :   0.8359 B(  2-C , 19-H ) :   0.7920
B(  2-C , 20-H ) :   0.1440 B(  3-C ,  4-H ) :   0.9153 B(  3-C ,  5-H ) :   0.8622
B(  3-C ,  6-S ) :   0.8796 B(  3-C , 15-O ) :   0.1037 B(  3-C , 17-O ) :   0.1783
B(  3-C , 18-H ) :   0.1609 B(  3-C , 19-H ) :   0.1271 B(  6-S , 15-O ) :   1.3523
B(  6-S , 16-O ) :   1.3434 B(  6-S , 17-O ) :   1.1293 B(  7-C ,  8-N ) :   0.7369
B(  7-C ,  9-N ) :   1.0388 B(  7-C , 10-H ) :  -0.2676 B(  7-C , 11-H ) :  -0.1877
B(  7-C , 12-H ) :  -0.2463 B(  7-C , 13-H ) :  -0.1755 B(  7-C , 14-H ) :  -0.1033
B(  8-N ,  9-N ) :   0.1922 B(  8-N , 13-H ) :   1.2337 B(  8-N , 14-H ) :   1.1910
B(  9-N , 10-H ) :   1.1046 B(  9-N , 11-H ) :   1.2507 B( 10-H , 11-H ) :  -0.2506
B( 10-H , 17-O ) :   0.1656 B( 13-H , 14-H ) :  -0.1695 B( 20-H , 21-H ) :  -0.1236

Dispersion correction           -0.031627010
FINAL SINGLE POINT ENERGY      -946.771349120632

DIPOLE MOMENT
-------------
                                X             Y             Z
Electronic contribution:     -7.16043      -3.19162      -2.44308
Nuclear contribution   :     13.40759       3.44219       2.21042
                        -----------------------------------------
Total Dipole Moment    :      6.24716       0.25057      -0.23266
                        -----------------------------------------
Magnitude (a.u.)       :      6.25652
Magnitude (Debye)      :     15.90280

Rotational constants in cm-1:     0.059860     0.020817     0.017914
Rotational constants in MHz :  1794.564877   624.092098   537.039275

                             ****ORCA TERMINATED NORMALLY****
TOTAL RUN TIME: 0 days 0 hours 0 minutes 38 seconds 819 msec
