                         Program Version 5.0.0 -  RELEASE  -
|  1> !TPSS D3BJ RIJCOSX def2-SVPD def2/J TightSCF
|  2> *xyz 0 1
|  3> C          3.38093        2.08304       -3.35013
|  4> C          2.49556        1.81615       -2.13636
|  5> C          1.87218        0.42790       -2.07750
|  6> H          2.61427       -0.36583       -2.19889
|  7> H          1.38995        0.27309       -1.11236
|  8> S          0.57902        0.14047       -3.29794
|  9> F          0.22886       -1.24687       -3.12787
| 10> O         -0.43927        1.11897       -3.01455
| 11> O          1.24788        0.40347       -4.59565
| 12> H          1.69700        2.56197       -2.14111
| 13> H          3.08079        1.98744       -1.22584
| 14> H          2.81820        1.91840       -4.24519
| 15> H          4.22171        1.42153       -3.33067
| 16> H          3.72372        3.09635       -3.32565
| 17> *
| 18>
| 19> %MaxCore 64000
| 20>
| 21> %pal nprocs 8
| 22> end
| 23>
| 24> %scf
| 25>   MaxIter 150
| 26> end
| 27>
| 28>
| 29>                          ****END OF INPUT****

CARTESIAN COORDINATES (ANGSTROEM)
---------------------------------
  C      3.380930    2.083040   -3.350130
  C      2.495560    1.816150   -2.136360
  C      1.872180    0.427900   -2.077500
  H      2.614270   -0.365830   -2.198890
  H      1.389950    0.273090   -1.112360
  S      0.579020    0.140470   -3.297940
  F      0.228860   -1.246870   -3.127870
  O     -0.439270    1.118970   -3.014550
  O      1.247880    0.403470   -4.595650
  H      1.697000    2.561970   -2.141110
  H      3.080790    1.987440   -1.225840
  H      2.818200    1.918400   -4.245190
  H      4.221710    1.421530   -3.330670
  H      3.723720    3.096350   -3.325650

 Total Charge           Charge          ....    0
 Multiplicity           Mult            ....    1
 Number of Electrons    NEL             ....   66
 Basis Dimension        Dim             ....  212

ORBITAL ENERGIES
----------------

  NO   OCC          E(Eh)            E(eV)
   0   2.0000     -88.621937     -2411.5255
   1   2.0000     -24.542916      -667.8467
   2   2.0000     -18.913952      -514.6748
   3   2.0000     -18.900221      -514.3011
   4   2.0000     -10.058571      -273.7076
   5   2.0000     -10.026602      -272.8377
   6   2.0000      -9.989696      -271.8335
   7   2.0000      -7.982976      -217.2278
   8   2.0000      -5.973324      -162.5424
   9   2.0000      -5.966776      -162.3642
  10   2.0000      -5.964778      -162.3099
  11   2.0000      -1.294537       -35.2262
  12   2.0000      -1.035823       -28.1862
  13   2.0000      -0.934948       -25.4412
  14   2.0000      -0.765507       -20.8305
  15   2.0000      -0.695833       -18.9346
  16   2.0000      -0.649336       -17.6693
  17   2.0000      -0.579384       -15.7658
  18   2.0000      -0.530755       -14.4426
  19   2.0000      -0.526662       -14.3312
  20   2.0000      -0.506084       -13.7712
  21   2.0000      -0.447997       -12.1906
  22   2.0000      -0.443039       -12.0557
  23   2.0000      -0.408726       -11.1220
  24   2.0000      -0.399770       -10.8783
  25   2.0000      -0.391809       -10.6617
  26   2.0000      -0.346525        -9.4294
  27   2.0000      -0.335210        -9.1215
  28   2.0000      -0.332530        -9.0486
  29   2.0000      -0.321626        -8.7519
  30   2.0000      -0.295594        -8.0435
  31   2.0000      -0.275248        -7.4899
  32   2.0000      -0.264434        -7.1956
  33   0.0000      -0.020888        -0.5684
  34   0.0000       0.002056         0.0560
  35   0.0000       0.021378         0.5817
  36   0.0000       0.027204         0.7402
  37   0.0000       0.029414         0.8004

MULLIKEN ATOMIC CHARGES
-----------------------
   0 C :    0.773348
   1 C :   -0.297911
   2 C :   -0.025064
   3 H :    0.052023
   4 H :    0.066528
   5 S :    1.502137
   6 F :   -0.411410
   7 O :   -0.644220
   8 O :   -0.725013
   9 H :    0.017079
  10 H :   -0.090153
  11 H :   -0.219995
  12 H :    0.006764
  13 H :   -0.004113
Sum of atomic charges:   -0.0000000

LOEWDIN ATOMIC CHARGES
----------------------
   0 C :    0.146828
   1 C :   -0.055377
   2 C :   -0.056382
   3 H :    0.020237
   4 H :    0.014194
   5 S :    1.111955
   6 F :   -0.249731
   7 O :   -0.447315
   8 O :   -0.464743
   9 H :    0.026609
  10 H :    0.029489
  11 H :   -0.047512
  12 H :   -0.013834
  13 H :   -0.014419

  Mayer bond orders larger than 0.100000
B(  0-C ,  1-C ) :   1.2869 B(  0-C , 11-H ) :   0.8477 B(  0-C , 12-H ) :   0.7453
B(  0-C , 13-H ) :   0.7277 B(  1-C ,  2-C ) :   1.2604 B(  1-C ,  3-H ) :   0.1181
B(  1-C ,  4-H ) :   0.1323 B(  1-C ,  9-H ) :   0.8934 B(  1-C , 10-H ) :   0.9172
B(  1-C , 11-H ) :   0.2480 B(  1-C , 12-H ) :   0.1993 B(  1-C , 13-H ) :   0.1954
B(  2-C ,  3-H ) :   0.9368 B(  2-C ,  4-H ) :   0.8782 B(  2-C ,  5-S ) :   0.9366
B(  2-C ,  9-H ) :   0.1241 B(  5-S ,  6-F ) :   0.6807 B(  5-S ,  7-O ) :   1.5098
B(  5-S ,  8-O ) :   1.4607 B( 11-H , 12-H ) :   0.1156 B( 11-H , 13-H ) :   0.1098

Dispersion correction           -0.016186196
FINAL SINGLE POINT ENERGY      -766.635800217949

DIPOLE MOMENT
-------------
                                X             Y             Z
Electronic contribution:    -10.70675      -8.86535      -2.88375
Nuclear contribution   :     11.47400       8.34657       4.07449
                        -----------------------------------------
Total Dipole Moment    :      0.76725      -0.51878       1.19075
                        -----------------------------------------
Magnitude (a.u.)       :      1.50853
Magnitude (Debye)      :      3.83439

Rotational constants in cm-1:     0.134491     0.052696     0.050832
Rotational constants in MHz :  4031.952949  1579.780527  1523.918863

                             ****ORCA TERMINATED NORMALLY****
TOTAL RUN TIME: 0 days 0 hours 0 minutes 7 seconds 865 msec
