                         Program Version 5.0.0 -  RELEASE  -
|  1> !TPSS D3BJ RIJCOSX def2-SVPD def2/J TightSCF
|  2> *xyz 0 1
|  3> C          3.38093        2.08304       -3.35013
|  4> C          4.53592        1.18245       -3.42852
|  5> C          2.49556        1.81615       -2.13636
|  6> C          1.87218        0.42790       -2.07750
|  7> C          4.67196        0.12227       -4.22060
|  8> N          5.86602       -0.50785       -4.22428
|  9> N          3.69888       -0.31284       -4.98699
| 10> H          2.73141       -0.05009       -4.84900
| 11> H          3.89005       -1.05517       -5.64373
| 12> H          5.25193        1.30346       -2.72101
| 13> H          6.69516       -0.06232       -3.85160
| 14> H          5.97538       -1.39688       -4.69141
| 15> H          1.69700        2.56197       -2.14111
| 16> H          3.08079        1.98744       -1.22584
| 17> H          2.80646        1.98651       -4.26848
| 18> H          3.77871        3.09828       -3.30738
| 19> H          1.29954        0.25615       -2.96490
| 20> H          1.23321        0.35984       -1.22194
| 21> H          2.64581       -0.30765       -2.00430
| 22> *
| 23>
| 24> %MaxCore 64000
| 25>
| 26> %pal nprocs 8
| 27> end
| 28>
| 29> %scf
| 30>   MaxIter 150
| 31> end
| 32>
| 33>
| 34>                          ****END OF INPUT****

CARTESIAN COORDINATES (ANGSTROEM)
---------------------------------
  C      3.380930    2.083040   -3.350130
  C      4.535920    1.182450   -3.428520
  C      2.495560    1.816150   -2.136360
  C      1.872180    0.427900   -2.077500
  C      4.671960    0.122270   -4.220600
  N      5.866020   -0.507850   -4.224280
  N      3.698880   -0.312840   -4.986990
  H      2.731410   -0.050090   -4.849000
  H      3.890050   -1.055170   -5.643730
  H      5.251930    1.303460   -2.721010
  H      6.695160   -0.062320   -3.851600
  H      5.975380   -1.396880   -4.691410
  H      1.697000    2.561970   -2.141110
  H      3.080790    1.987440   -1.225840
  H      2.806460    1.986510   -4.268480
  H      3.778710    3.098280   -3.307380
  H      1.299540    0.256150   -2.964900
  H      1.233210    0.359840   -1.221940
  H      2.645810   -0.307650   -2.004300

 Total Charge           Charge          ....    0
 Multiplicity           Mult            ....    1
 Number of Electrons    NEL             ....   56
 Basis Dimension        Dim             ....  236

ORBITAL ENERGIES
----------------

  NO   OCC          E(Eh)            E(eV)
   0   2.0000     -14.121877      -384.2758
   1   2.0000     -14.115488      -384.1019
   2   2.0000     -10.036605      -273.1099
   3   2.0000      -9.976790      -271.4823
   4   2.0000      -9.973600      -271.3955
   5   2.0000      -9.973156      -271.3834
   6   2.0000      -9.921428      -269.9758
   7   2.0000      -0.886927       -24.1345
   8   2.0000      -0.800890       -21.7933
   9   2.0000      -0.718945       -19.5635
  10   2.0000      -0.658717       -17.9246
  11   2.0000      -0.602300       -16.3894
  12   2.0000      -0.547301       -14.8928
  13   2.0000      -0.513805       -13.9813
  14   2.0000      -0.496578       -13.5126
  15   2.0000      -0.461156       -12.5487
  16   2.0000      -0.438186       -11.9236
  17   2.0000      -0.401697       -10.9307
  18   2.0000      -0.391167       -10.6442
  19   2.0000      -0.374119       -10.1803
  20   2.0000      -0.341272        -9.2865
  21   2.0000      -0.335141        -9.1197
  22   2.0000      -0.313490        -8.5305
  23   2.0000      -0.294753        -8.0206
  24   2.0000      -0.280100        -7.6219
  25   2.0000      -0.275006        -7.4833
  26   2.0000      -0.224122        -6.0987
  27   2.0000      -0.128632        -3.5003
  28   0.0000       0.001676         0.0456
  29   0.0000       0.023868         0.6495
  30   0.0000       0.037360         1.0166
  31   0.0000       0.049226         1.3395
  32   0.0000       0.051790         1.4093

MULLIKEN ATOMIC CHARGES
-----------------------
   0 C :    0.253526
   1 C :   -0.362387
   2 C :   -0.370426
   3 C :    0.696583
   4 C :    1.087026
   5 N :   -0.102133
   6 N :    0.049683
   7 H :   -0.110150
   8 H :   -0.251738
   9 H :   -0.234969
  10 H :   -0.080941
  11 H :   -0.122125
  12 H :   -0.055015
  13 H :   -0.035265
  14 H :   -0.099881
  15 H :   -0.071369
  16 H :   -0.058578
  17 H :   -0.133425
  18 H :    0.001586
Sum of atomic charges:    0.0000000

LOEWDIN ATOMIC CHARGES
----------------------
   0 C :   -0.050240
   1 C :   -0.026189
   2 C :   -0.074351
   3 C :    0.124883
   4 C :   -0.221039
   5 N :    0.181095
   6 N :    0.203408
   7 H :   -0.010220
   8 H :   -0.007937
   9 H :   -0.049073
  10 H :    0.001549
  11 H :   -0.019074
  12 H :    0.007241
  13 H :    0.016946
  14 H :   -0.000454
  15 H :    0.008437
  16 H :   -0.032628
  17 H :   -0.026648
  18 H :   -0.025705

  Mayer bond orders larger than 0.100000
B(  0-C ,  1-C ) :   1.1254 B(  0-C ,  2-C ) :   1.1286 B(  0-C ,  9-H ) :   0.2261
B(  0-C , 12-H ) :   0.1398 B(  0-C , 13-H ) :   0.1455 B(  0-C , 14-H ) :   0.8152
B(  0-C , 15-H ) :   0.8747 B(  1-C ,  2-C ) :   0.1063 B(  1-C ,  4-C ) :   1.5487
B(  1-C ,  5-N ) :   0.4523 B(  1-C ,  6-N ) :   0.2744 B(  1-C ,  9-H ) :   0.9153
B(  1-C , 14-H ) :   0.2364 B(  1-C , 15-H ) :   0.1282 B(  2-C ,  3-C ) :   1.3177
B(  2-C , 12-H ) :   0.9142 B(  2-C , 13-H ) :   0.9160 B(  2-C , 14-H ) :   0.1252
B(  2-C , 16-H ) :   0.2197 B(  2-C , 17-H ) :   0.2188 B(  2-C , 18-H ) :   0.2385
B(  3-C , 12-H ) :   0.1105 B(  3-C , 16-H ) :   0.8033 B(  3-C , 17-H ) :   0.7947
B(  3-C , 18-H ) :   0.7795 B(  4-C ,  5-N ) :   0.6639 B(  4-C ,  6-N ) :   0.9479
B(  4-C ,  8-H ) :  -0.2366 B(  4-C ,  9-H ) :   0.1134 B(  4-C , 10-H ) :  -0.1621
B(  4-C , 14-H ) :  -0.1173 B(  5-N ,  6-N ) :   0.1275 B(  5-N , 10-H ) :   1.2305
B(  5-N , 11-H ) :   1.1924 B(  6-N ,  7-H ) :   1.1220 B(  6-N ,  8-H ) :   1.4142
B(  7-H ,  8-H ) :  -0.2170 B( 10-H , 11-H ) :  -0.1585 B( 16-H , 18-H ) :   0.1079

Dispersion correction           -0.020477883
FINAL SINGLE POINT ENERGY      -307.091689974723

DIPOLE MOMENT
-------------
                                X             Y             Z
Electronic contribution:      4.25006      -1.64679      -3.47601
Nuclear contribution   :     -4.04774       0.83876       2.94666
                        -----------------------------------------
Total Dipole Moment    :      0.20231      -0.80803      -0.52935
                        -----------------------------------------
Magnitude (a.u.)       :      0.98694
Magnitude (Debye)      :      2.50861

Rotational constants in cm-1:     0.155283     0.051523     0.046710
Rotational constants in MHz :  4655.262593  1544.606434  1400.328421

                             ****ORCA TERMINATED NORMALLY****
TOTAL RUN TIME: 0 days 0 hours 0 minutes 10 seconds 23 msec
