                         Program Version 5.0.0 -  RELEASE  -
|  1> !TPSS D3BJ RIJCOSX def2-SVPD def2/J TightSCF
|  2> *xyz 0 1
|  3> C          3.38093        2.08304       -3.35013
|  4> C          2.49556        1.81615       -2.13636
|  5> C          1.87218        0.42790       -2.07750
|  6> H          2.61427       -0.36583       -2.19889
|  7> H          1.38995        0.27309       -1.11236
|  8> S          0.57902        0.14047       -3.29794
|  9> O          0.22886       -1.24687       -3.12787
| 10> F         -0.43927        1.11897       -3.01455
| 11> O          1.24788        0.40347       -4.59565
| 12> H          1.69700        2.56197       -2.14111
| 13> H          3.08079        1.98744       -1.22584
| 14> H          2.81820        1.91840       -4.24519
| 15> H          4.22171        1.42153       -3.33067
| 16> H          3.72372        3.09635       -3.32565
| 17> *
| 18>
| 19> %MaxCore 64000
| 20>
| 21> %pal nprocs 8
| 22> end
| 23>
| 24> %scf
| 25>   MaxIter 150
| 26> end
| 27>
| 28>
| 29>                          ****END OF INPUT****

CARTESIAN COORDINATES (ANGSTROEM)
---------------------------------
  C      3.380930    2.083040   -3.350130
  C      2.495560    1.816150   -2.136360
  C      1.872180    0.427900   -2.077500
  H      2.614270   -0.365830   -2.198890
  H      1.389950    0.273090   -1.112360
  S      0.579020    0.140470   -3.297940
  O      0.228860   -1.246870   -3.127870
  F     -0.439270    1.118970   -3.014550
  O      1.247880    0.403470   -4.595650
  H      1.697000    2.561970   -2.141110
  H      3.080790    1.987440   -1.225840
  H      2.818200    1.918400   -4.245190
  H      4.221710    1.421530   -3.330670
  H      3.723720    3.096350   -3.325650

 Total Charge           Charge          ....    0
 Multiplicity           Mult            ....    1
 Number of Electrons    NEL             ....   66
 Basis Dimension        Dim             ....  212

ORBITAL ENERGIES
----------------

  NO   OCC          E(Eh)            E(eV)
   0   2.0000     -88.622484     -2411.5404
   1   2.0000     -24.543520      -667.8631
   2   2.0000     -18.914193      -514.6813
   3   2.0000     -18.900895      -514.3195
   4   2.0000     -10.058580      -273.7079
   5   2.0000     -10.029153      -272.9071
   6   2.0000      -9.992377      -271.9064
   7   2.0000      -7.983433      -217.2402
   8   2.0000      -5.973863      -162.5571
   9   2.0000      -5.967195      -162.3756
  10   2.0000      -5.965214      -162.3217
  11   2.0000      -1.295497       -35.2523
  12   2.0000      -1.035283       -28.1715
  13   2.0000      -0.936159       -25.4742
  14   2.0000      -0.768583       -20.9142
  15   2.0000      -0.693315       -18.8661
  16   2.0000      -0.652402       -17.7528
  17   2.0000      -0.579974       -15.7819
  18   2.0000      -0.541312       -14.7299
  19   2.0000      -0.529507       -14.4086
  20   2.0000      -0.498238       -13.5578
  21   2.0000      -0.445566       -12.1245
  22   2.0000      -0.444564       -12.0972
  23   2.0000      -0.413758       -11.2589
  24   2.0000      -0.401181       -10.9167
  25   2.0000      -0.393643       -10.7116
  26   2.0000      -0.347054        -9.4438
  27   2.0000      -0.339914        -9.2495
  28   2.0000      -0.335815        -9.1380
  29   2.0000      -0.324237        -8.8229
  30   2.0000      -0.293953        -7.9989
  31   2.0000      -0.277267        -7.5448
  32   2.0000      -0.264359        -7.1936
  33   0.0000      -0.024755        -0.6736
  34   0.0000       0.006682         0.1818
  35   0.0000       0.018514         0.5038
  36   0.0000       0.024280         0.6607
  37   0.0000       0.026527         0.7218

MULLIKEN ATOMIC CHARGES
-----------------------
   0 C :    0.777896
   1 C :   -0.252623
   2 C :   -0.008354
   3 H :    0.046727
   4 H :    0.052514
   5 S :    1.460722
   6 O :   -0.651352
   7 F :   -0.384653
   8 O :   -0.711185
   9 H :   -0.014594
  10 H :   -0.096575
  11 H :   -0.223720
  12 H :    0.009323
  13 H :   -0.004125
Sum of atomic charges:    0.0000000

LOEWDIN ATOMIC CHARGES
----------------------
   0 C :    0.144520
   1 C :   -0.071101
   2 C :   -0.045526
   3 H :    0.034886
   4 H :    0.014592
   5 S :    1.109909
   6 O :   -0.447518
   7 F :   -0.246791
   8 O :   -0.459966
   9 H :    0.019082
  10 H :    0.025982
  11 H :   -0.050916
  12 H :   -0.011817
  13 H :   -0.015335

  Mayer bond orders larger than 0.100000
B(  0-C ,  1-C ) :   1.2960 B(  0-C , 11-H ) :   0.8423 B(  0-C , 12-H ) :   0.7475
B(  0-C , 13-H ) :   0.7325 B(  1-C ,  2-C ) :   1.2133 B(  1-C ,  3-H ) :   0.1107
B(  1-C ,  4-H ) :   0.1200 B(  1-C ,  9-H ) :   0.8903 B(  1-C , 10-H ) :   0.9165
B(  1-C , 11-H ) :   0.2547 B(  1-C , 12-H ) :   0.2008 B(  1-C , 13-H ) :   0.1935
B(  2-C ,  3-H ) :   0.9512 B(  2-C ,  4-H ) :   0.9048 B(  2-C ,  5-S ) :   0.9672
B(  2-C ,  9-H ) :   0.1166 B(  5-S ,  6-O ) :   1.5697 B(  5-S ,  7-F ) :   0.6625
B(  5-S ,  8-O ) :   1.4926 B( 11-H , 12-H ) :   0.1151 B( 11-H , 13-H ) :   0.1096

Dispersion correction           -0.016104426
FINAL SINGLE POINT ENERGY      -766.635367782654

DIPOLE MOMENT
-------------
                                X             Y             Z
Electronic contribution:    -11.81964      -4.87616      -2.69428
Nuclear contribution   :     12.19253       5.80225       3.95262
                        -----------------------------------------
Total Dipole Moment    :      0.37289       0.92609       1.25834
                        -----------------------------------------
Magnitude (a.u.)       :      1.60627
Magnitude (Debye)      :      4.08282

Rotational constants in cm-1:     0.130581     0.053444     0.051914
Rotational constants in MHz :  3914.711139  1602.211061  1556.338643

                             ****ORCA TERMINATED NORMALLY****
TOTAL RUN TIME: 0 days 0 hours 0 minutes 8 seconds 418 msec
