                         Program Version 5.0.0 -  RELEASE  -
|  1> !TPSS D3BJ RIJCOSX def2-SVPD def2/J TightSCF
|  2> *xyz 0 1
|  3> C          3.38093        2.08304       -3.35013
|  4> N          4.53592        1.18245       -3.42852
|  5> C          2.49556        1.81615       -2.13636
|  6> C          1.87218        0.42790       -2.07750
|  7> C          4.67196        0.12227       -4.22060
|  8> C          5.86602       -0.50785       -4.22428
|  9> N          3.69888       -0.31284       -4.98699
| 10> H          2.73141       -0.05009       -4.84900
| 11> H          3.89005       -1.05517       -5.64373
| 12> H          5.25193        1.30346       -2.72101
| 13> H          6.69516       -0.06232       -3.85160
| 14> H          5.97538       -1.39688       -4.69141
| 15> H          1.69700        2.56197       -2.14111
| 16> H          3.08079        1.98744       -1.22584
| 17> H          2.80646        1.98651       -4.26848
| 18> H          3.77871        3.09828       -3.30738
| 19> H          1.29954        0.25615       -2.96490
| 20> H          1.23321        0.35984       -1.22194
| 21> H          2.64581       -0.30765       -2.00430
| 22> *
| 23>
| 24> %MaxCore 64000
| 25>
| 26> %pal nprocs 8
| 27> end
| 28>
| 29> %scf
| 30>   MaxIter 150
| 31> end
| 32>
| 33>
| 34>                          ****END OF INPUT****

CARTESIAN COORDINATES (ANGSTROEM)
---------------------------------
  C      3.380930    2.083040   -3.350130
  N      4.535920    1.182450   -3.428520
  C      2.495560    1.816150   -2.136360
  C      1.872180    0.427900   -2.077500
  C      4.671960    0.122270   -4.220600
  C      5.866020   -0.507850   -4.224280
  N      3.698880   -0.312840   -4.986990
  H      2.731410   -0.050090   -4.849000
  H      3.890050   -1.055170   -5.643730
  H      5.251930    1.303460   -2.721010
  H      6.695160   -0.062320   -3.851600
  H      5.975380   -1.396880   -4.691410
  H      1.697000    2.561970   -2.141110
  H      3.080790    1.987440   -1.225840
  H      2.806460    1.986510   -4.268480
  H      3.778710    3.098280   -3.307380
  H      1.299540    0.256150   -2.964900
  H      1.233210    0.359840   -1.221940
  H      2.645810   -0.307650   -2.004300

 Total Charge           Charge          ....    0
 Multiplicity           Mult            ....    1
 Number of Electrons    NEL             ....   56
 Basis Dimension        Dim             ....  236

ORBITAL ENERGIES
----------------

  NO   OCC          E(Eh)            E(eV)
   0   2.0000     -14.120100      -384.2275
   1   2.0000     -14.115997      -384.1158
   2   2.0000     -10.038652      -273.1656
   3   2.0000     -10.038544      -273.1627
   4   2.0000     -10.003579      -272.2112
   5   2.0000      -9.992323      -271.9049
   6   2.0000      -9.909367      -269.6476
   7   2.0000      -0.892737       -24.2926
   8   2.0000      -0.817407       -22.2428
   9   2.0000      -0.727059       -19.7843
  10   2.0000      -0.659906       -17.9570
  11   2.0000      -0.611649       -16.6438
  12   2.0000      -0.551883       -15.0175
  13   2.0000      -0.544710       -14.8223
  14   2.0000      -0.496826       -13.5193
  15   2.0000      -0.454122       -12.3573
  16   2.0000      -0.433276       -11.7900
  17   2.0000      -0.418820       -11.3967
  18   2.0000      -0.408916       -11.1272
  19   2.0000      -0.367202        -9.9921
  20   2.0000      -0.353951        -9.6315
  21   2.0000      -0.347337        -9.4515
  22   2.0000      -0.333397        -9.0722
  23   2.0000      -0.313674        -8.5355
  24   2.0000      -0.311304        -8.4710
  25   2.0000      -0.307332        -8.3629
  26   2.0000      -0.214161        -5.8276
  27   2.0000      -0.126147        -3.4326
  28   0.0000       0.000634         0.0173
  29   0.0000       0.022591         0.6147
  30   0.0000       0.031268         0.8508
  31   0.0000       0.037556         1.0219
  32   0.0000       0.051918         1.4128

MULLIKEN ATOMIC CHARGES
-----------------------
   0 C :    0.747201
   1 N :   -0.426071
   2 C :   -0.360994
   3 C :    0.674399
   4 C :    0.775519
   5 C :    0.328500
   6 N :    0.123372
   7 H :   -0.210430
   8 H :   -0.122452
   9 H :   -0.264921
  10 H :   -0.360148
  11 H :   -0.289084
  12 H :   -0.024745
  13 H :   -0.040541
  14 H :   -0.078666
  15 H :   -0.279839
  16 H :   -0.035410
  17 H :   -0.183760
  18 H :    0.028071
Sum of atomic charges:   -0.0000000

LOEWDIN ATOMIC CHARGES
----------------------
   0 C :    0.059868
   1 N :   -0.006094
   2 C :   -0.066151
   3 C :    0.130115
   4 C :   -0.241736
   5 C :    0.146289
   6 N :    0.200584
   7 H :   -0.024115
   8 H :    0.010895
   9 H :    0.036255
  10 H :   -0.109071
  11 H :   -0.112110
  12 H :    0.013322
  13 H :    0.016345
  14 H :    0.007660
  15 H :    0.011453
  16 H :   -0.030104
  17 H :   -0.022774
  18 H :   -0.020632

  Mayer bond orders larger than 0.100000
B(  0-C ,  1-N ) :   0.9609 B(  0-C ,  2-C ) :   1.0878 B(  0-C ,  9-H ) :  -0.2095
B(  0-C , 12-H ) :   0.1273 B(  0-C , 13-H ) :   0.1259 B(  0-C , 14-H ) :   0.7743
B(  0-C , 15-H ) :   0.9263 B(  1-N ,  4-C ) :   0.9612 B(  1-N ,  5-C ) :   0.2228
B(  1-N ,  6-N ) :   0.2230 B(  1-N ,  9-H ) :   1.2871 B(  1-N , 14-H ) :   0.1808
B(  1-N , 15-H ) :   0.1603 B(  2-C ,  3-C ) :   1.3104 B(  2-C , 12-H ) :   0.9108
B(  2-C , 13-H ) :   0.9187 B(  2-C , 14-H ) :   0.1168 B(  2-C , 16-H ) :   0.2169
B(  2-C , 17-H ) :   0.2150 B(  2-C , 18-H ) :   0.2181 B(  3-C , 16-H ) :   0.8013
B(  3-C , 17-H ) :   0.8247 B(  3-C , 18-H ) :   0.7885 B(  4-C ,  5-C ) :   1.3228
B(  4-C ,  6-N ) :   1.0112 B(  4-C ,  7-H ) :  -0.1042 B(  4-C ,  8-H ) :  -0.1218
B(  4-C ,  9-H ) :  -0.2246 B(  4-C , 11-H ) :   0.1857 B(  5-C ,  6-N ) :   0.2096
B(  5-C , 10-H ) :   0.9165 B(  5-C , 11-H ) :   0.7861 B(  6-N ,  7-H ) :   1.1618
B(  6-N ,  8-H ) :   1.2727 B(  6-N , 14-H ) :   0.1131 B(  7-H ,  8-H ) :  -0.2086
B( 14-H , 15-H ) :  -0.1179

Dispersion correction           -0.020261875
FINAL SINGLE POINT ENERGY      -307.082846318655

DIPOLE MOMENT
-------------
                                X             Y             Z
Electronic contribution:      2.72830      -0.00466      -2.61644
Nuclear contribution   :     -3.75638       0.46849       2.77235
                        -----------------------------------------
Total Dipole Moment    :     -1.02808       0.46383       0.15590
                        -----------------------------------------
Magnitude (a.u.)       :      1.13859
Magnitude (Debye)      :      2.89408

Rotational constants in cm-1:     0.154609     0.053528     0.048030
Rotational constants in MHz :  4635.053294  1604.739826  1439.897073

                             ****ORCA TERMINATED NORMALLY****
TOTAL RUN TIME: 0 days 0 hours 0 minutes 10 seconds 300 msec
