                         Program Version 5.0.0 -  RELEASE  -
|  1> !TPSS D3BJ RIJCOSX def2-SVPD def2/J TightSCF
|  2> *xyz 0 1
|  3> C          3.38093        2.08304       -3.35013
|  4> C          2.49556        1.81615       -2.13636
|  5> C          1.87218        0.42790       -2.07750
|  6> H          2.61427       -0.36583       -2.19889
|  7> H          1.38995        0.27309       -1.11236
|  8> S          0.57902        0.14047       -3.29794
|  9> O          0.22886       -1.24687       -3.12787
| 10> O         -0.43927        1.11897       -3.01455
| 11> F          1.24788        0.40347       -4.59565
| 12> H          1.69700        2.56197       -2.14111
| 13> H          3.08079        1.98744       -1.22584
| 14> H          2.81820        1.91840       -4.24519
| 15> H          4.22171        1.42153       -3.33067
| 16> H          3.72372        3.09635       -3.32565
| 17> *
| 18>
| 19> %MaxCore 64000
| 20>
| 21> %pal nprocs 8
| 22> end
| 23>
| 24> %scf
| 25>   MaxIter 150
| 26> end
| 27>
| 28>
| 29>                          ****END OF INPUT****

CARTESIAN COORDINATES (ANGSTROEM)
---------------------------------
  C      3.380930    2.083040   -3.350130
  C      2.495560    1.816150   -2.136360
  C      1.872180    0.427900   -2.077500
  H      2.614270   -0.365830   -2.198890
  H      1.389950    0.273090   -1.112360
  S      0.579020    0.140470   -3.297940
  O      0.228860   -1.246870   -3.127870
  O     -0.439270    1.118970   -3.014550
  F      1.247880    0.403470   -4.595650
  H      1.697000    2.561970   -2.141110
  H      3.080790    1.987440   -1.225840
  H      2.818200    1.918400   -4.245190
  H      4.221710    1.421530   -3.330670
  H      3.723720    3.096350   -3.325650

 Total Charge           Charge          ....    0
 Multiplicity           Mult            ....    1
 Number of Electrons    NEL             ....   66
 Basis Dimension        Dim             ....  212

ORBITAL ENERGIES
----------------

  NO   OCC          E(Eh)            E(eV)
   0   2.0000     -88.619144     -2411.4495
   1   2.0000     -24.521862      -667.2738
   2   2.0000     -18.913682      -514.6674
   3   2.0000     -18.913187      -514.6540
   4   2.0000     -10.057238      -273.6714
   5   2.0000     -10.029253      -272.9098
   6   2.0000     -10.006550      -272.2921
   7   2.0000      -7.980197      -217.1522
   8   2.0000      -5.970322      -162.4607
   9   2.0000      -5.964205      -162.2943
  10   2.0000      -5.962194      -162.2395
  11   2.0000      -1.259956       -34.2851
  12   2.0000      -1.044547       -28.4236
  13   2.0000      -0.955327       -25.9958
  14   2.0000      -0.770161       -20.9572
  15   2.0000      -0.692217       -18.8362
  16   2.0000      -0.641042       -17.4436
  17   2.0000      -0.584358       -15.9012
  18   2.0000      -0.524022       -14.2594
  19   2.0000      -0.506095       -13.7715
  20   2.0000      -0.497243       -13.5307
  21   2.0000      -0.447939       -12.1891
  22   2.0000      -0.435761       -11.8576
  23   2.0000      -0.420967       -11.4551
  24   2.0000      -0.411444       -11.1960
  25   2.0000      -0.395640       -10.7659
  26   2.0000      -0.356996        -9.7144
  27   2.0000      -0.348463        -9.4822
  28   2.0000      -0.333378        -9.0717
  29   2.0000      -0.327669        -8.9163
  30   2.0000      -0.300746        -8.1837
  31   2.0000      -0.290505        -7.9051
  32   2.0000      -0.279586        -7.6079
  33   0.0000      -0.020262        -0.5514
  34   0.0000       0.008893         0.2420
  35   0.0000       0.021212         0.5772
  36   0.0000       0.024722         0.6727
  37   0.0000       0.029954         0.8151

MULLIKEN ATOMIC CHARGES
-----------------------
   0 C :    0.761254
   1 C :   -0.251633
   2 C :   -0.015723
   3 H :    0.053161
   4 H :    0.060504
   5 S :    1.449098
   6 O :   -0.661087
   7 O :   -0.656844
   8 F :   -0.422585
   9 H :    0.014334
  10 H :   -0.087834
  11 H :   -0.249703
  12 H :    0.013446
  13 H :   -0.006387
Sum of atomic charges:   -0.0000000

LOEWDIN ATOMIC CHARGES
----------------------
   0 C :    0.143010
   1 C :   -0.069255
   2 C :   -0.044848
   3 H :    0.022529
   4 H :    0.028926
   5 S :    1.099713
   6 O :   -0.448329
   7 O :   -0.445792
   8 F :   -0.267927
   9 H :    0.023503
  10 H :    0.027595
  11 H :   -0.044166
  12 H :   -0.012782
  13 H :   -0.012177

  Mayer bond orders larger than 0.100000
B(  0-C ,  1-C ) :   1.2850 B(  0-C , 11-H ) :   0.8412 B(  0-C , 12-H ) :   0.7559
B(  0-C , 13-H ) :   0.7410 B(  1-C ,  2-C ) :   1.2272 B(  1-C ,  3-H ) :   0.1194
B(  1-C ,  4-H ) :   0.1195 B(  1-C ,  9-H ) :   0.9037 B(  1-C , 10-H ) :   0.9068
B(  1-C , 11-H ) :   0.2394 B(  1-C , 12-H ) :   0.1969 B(  1-C , 13-H ) :   0.1938
B(  2-C ,  3-H ) :   0.9496 B(  2-C ,  4-H ) :   0.8963 B(  2-C ,  5-S ) :   0.9794
B(  2-C ,  9-H ) :   0.1268 B(  5-S ,  6-O ) :   1.5551 B(  5-S ,  7-O ) :   1.5244
B(  5-S ,  8-F ) :   0.6365 B( 11-H , 12-H ) :   0.1068 B( 11-H , 13-H ) :   0.1087

Dispersion correction           -0.016029906
FINAL SINGLE POINT ENERGY      -766.653744685401

DIPOLE MOMENT
-------------
                                X             Y             Z
Electronic contribution:     -8.92694      -6.03869      -5.33191
Nuclear contribution   :     10.37810       6.57173       5.65300
                        -----------------------------------------
Total Dipole Moment    :      1.45116       0.53304       0.32109
                        -----------------------------------------
Magnitude (a.u.)       :      1.57895
Magnitude (Debye)      :      4.01337

Rotational constants in cm-1:     0.130522     0.054787     0.051463
Rotational constants in MHz :  3912.959799  1642.486768  1542.828917

                             ****ORCA TERMINATED NORMALLY****
TOTAL RUN TIME: 0 days 0 hours 0 minutes 8 seconds 215 msec
