                         Program Version 5.0.0 -  RELEASE  -
|  1> !TPSS D3BJ RIJCOSX def2-SVPD def2/J TightSCF
|  2> *xyz 0 1
|  3> C          3.38093        2.08304       -3.35013
|  4> N          4.53592        1.18245       -3.42852
|  5> C          2.49556        1.81615       -2.13636
|  6> C          1.87218        0.42790       -2.07750
|  7> C          4.67196        0.12227       -4.22060
|  8> N          5.86602       -0.50785       -4.22428
|  9> C          3.69888       -0.31284       -4.98699
| 10> H          2.73141       -0.05009       -4.84900
| 11> H          3.89005       -1.05517       -5.64373
| 12> H          5.25193        1.30346       -2.72101
| 13> H          6.69516       -0.06232       -3.85160
| 14> H          5.97538       -1.39688       -4.69141
| 15> H          1.69700        2.56197       -2.14111
| 16> H          3.08079        1.98744       -1.22584
| 17> H          2.80646        1.98651       -4.26848
| 18> H          3.77871        3.09828       -3.30738
| 19> H          1.29954        0.25615       -2.96490
| 20> H          1.23321        0.35984       -1.22194
| 21> H          2.64581       -0.30765       -2.00430
| 22> *
| 23>
| 24> %MaxCore 64000
| 25>
| 26> %pal nprocs 8
| 27> end
| 28>
| 29> %scf
| 30>   MaxIter 150
| 31> end
| 32>
| 33>
| 34>                          ****END OF INPUT****

CARTESIAN COORDINATES (ANGSTROEM)
---------------------------------
  C      3.380930    2.083040   -3.350130
  N      4.535920    1.182450   -3.428520
  C      2.495560    1.816150   -2.136360
  C      1.872180    0.427900   -2.077500
  C      4.671960    0.122270   -4.220600
  N      5.866020   -0.507850   -4.224280
  C      3.698880   -0.312840   -4.986990
  H      2.731410   -0.050090   -4.849000
  H      3.890050   -1.055170   -5.643730
  H      5.251930    1.303460   -2.721010
  H      6.695160   -0.062320   -3.851600
  H      5.975380   -1.396880   -4.691410
  H      1.697000    2.561970   -2.141110
  H      3.080790    1.987440   -1.225840
  H      2.806460    1.986510   -4.268480
  H      3.778710    3.098280   -3.307380
  H      1.299540    0.256150   -2.964900
  H      1.233210    0.359840   -1.221940
  H      2.645810   -0.307650   -2.004300

 Total Charge           Charge          ....    0
 Multiplicity           Mult            ....    1
 Number of Electrons    NEL             ....   56
 Basis Dimension        Dim             ....  236

ORBITAL ENERGIES
----------------

  NO   OCC          E(Eh)            E(eV)
   0   2.0000     -14.116983      -384.1426
   1   2.0000     -14.115243      -384.0953
   2   2.0000     -10.037049      -273.1220
   3   2.0000     -10.030941      -272.9558
   4   2.0000      -9.996357      -272.0147
   5   2.0000      -9.979877      -271.5663
   6   2.0000      -9.913804      -269.7683
   7   2.0000      -0.887343       -24.1458
   8   2.0000      -0.809581       -22.0298
   9   2.0000      -0.714340       -19.4382
  10   2.0000      -0.655224       -17.8295
  11   2.0000      -0.627422       -17.0730
  12   2.0000      -0.549815       -14.9612
  13   2.0000      -0.514006       -13.9868
  14   2.0000      -0.493329       -13.4242
  15   2.0000      -0.468732       -12.7548
  16   2.0000      -0.424047       -11.5389
  17   2.0000      -0.413336       -11.2475
  18   2.0000      -0.388608       -10.5746
  19   2.0000      -0.369943       -10.0667
  20   2.0000      -0.348010        -9.4698
  21   2.0000      -0.346497        -9.4287
  22   2.0000      -0.331683        -9.0256
  23   2.0000      -0.307017        -8.3544
  24   2.0000      -0.306385        -8.3371
  25   2.0000      -0.296061        -8.0562
  26   2.0000      -0.207641        -5.6502
  27   2.0000      -0.138317        -3.7638
  28   0.0000       0.003993         0.1087
  29   0.0000       0.024006         0.6532
  30   0.0000       0.034184         0.9302
  31   0.0000       0.043932         1.1955
  32   0.0000       0.055343         1.5060

MULLIKEN ATOMIC CHARGES
-----------------------
   0 C :    0.770038
   1 N :   -0.531676
   2 C :   -0.410449
   3 C :    0.683778
   4 C :    1.054030
   5 N :   -0.004620
   6 C :    0.139705
   7 H :   -0.283400
   8 H :   -0.420380
   9 H :   -0.327857
  10 H :   -0.167060
  11 H :   -0.022615
  12 H :   -0.041713
  13 H :   -0.044731
  14 H :    0.028468
  15 H :   -0.248607
  16 H :    0.006201
  17 H :   -0.181778
  18 H :    0.002665
Sum of atomic charges:   -0.0000000

LOEWDIN ATOMIC CHARGES
----------------------
   0 C :    0.068609
   1 N :   -0.015372
   2 C :   -0.063826
   3 C :    0.132707
   4 C :   -0.237240
   5 N :    0.183267
   6 C :    0.158813
   7 H :   -0.111385
   8 H :   -0.098932
   9 H :    0.020584
  10 H :   -0.015847
  11 H :   -0.000185
  12 H :    0.013276
  13 H :    0.012488
  14 H :    0.014408
  15 H :    0.012154
  16 H :   -0.024670
  17 H :   -0.025645
  18 H :   -0.023205

  Mayer bond orders larger than 0.100000
B(  0-C ,  1-N ) :   0.9078 B(  0-C ,  2-C ) :   1.0788 B(  0-C ,  9-H ) :  -0.1937
B(  0-C , 12-H ) :   0.1243 B(  0-C , 13-H ) :   0.1053 B(  0-C , 14-H ) :   0.7578
B(  0-C , 15-H ) :   0.9161 B(  1-N ,  2-C ) :   0.1085 B(  1-N ,  4-C ) :   0.8062
B(  1-N ,  5-N ) :   0.2066 B(  1-N ,  6-C ) :   0.3878 B(  1-N ,  9-H ) :   1.4290
B(  1-N , 14-H ) :   0.1374 B(  1-N , 15-H ) :   0.1552 B(  2-C ,  3-C ) :   1.3073
B(  2-C , 12-H ) :   0.9271 B(  2-C , 13-H ) :   0.9382 B(  2-C , 14-H ) :   0.1229
B(  2-C , 16-H ) :   0.2131 B(  2-C , 17-H ) :   0.2150 B(  2-C , 18-H ) :   0.2139
B(  3-C , 12-H ) :   0.1005 B(  3-C , 16-H ) :   0.7953 B(  3-C , 17-H ) :   0.8204
B(  3-C , 18-H ) :   0.8043 B(  4-C ,  5-N ) :   0.8910 B(  4-C ,  6-C ) :   1.3482
B(  4-C ,  8-H ) :   0.2658 B(  4-C ,  9-H ) :  -0.2954 B(  5-N ,  6-C ) :   0.3302
B(  5-N , 10-H ) :   1.2140 B(  5-N , 11-H ) :   1.1367 B(  6-C ,  7-H ) :   0.7544
B(  6-C ,  8-H ) :   0.8588 B(  7-H ,  8-H ) :  -0.1428 B( 10-H , 11-H ) :  -0.1652
B( 14-H , 15-H ) :  -0.1168

Dispersion correction           -0.020405708
FINAL SINGLE POINT ENERGY      -307.086679102515

DIPOLE MOMENT
-------------
                                X             Y             Z
Electronic contribution:      4.86735      -0.23560      -1.98316
Nuclear contribution   :     -4.23110       0.51121       2.60527
                        -----------------------------------------
Total Dipole Moment    :      0.63625       0.27561       0.62211
                        -----------------------------------------
Magnitude (a.u.)       :      0.93155
Magnitude (Debye)      :      2.36782

Rotational constants in cm-1:     0.158478     0.052124     0.047173
Rotational constants in MHz :  4751.056263  1562.646208  1414.197352

                             ****ORCA TERMINATED NORMALLY****
TOTAL RUN TIME: 0 days 0 hours 0 minutes 10 seconds 552 msec
