                         Program Version 5.0.0 -  RELEASE  -
|  1> !TPSS D3BJ RIJCOSX def2-SVPD def2/J TightSCF xyzfile
|  2>
|  3> *xyzfile 0 1 D3.xyz
|  4>
|  5> %MaxCore 64000
|  6>
|  7> %pal nprocs 4
|  8> end
|  9>
| 10> %scf
| 11>   MaxIter 150
| 12> end
| 13>
| 14>
| 15>                          ****END OF INPUT****

CARTESIAN COORDINATES (ANGSTROEM)
---------------------------------
  C      3.380928    2.083045   -3.350127
  N      4.535924    1.182447   -3.428518
  C      2.495557    1.816150   -2.136364
  C      1.872181    0.427903   -2.077497
  H      2.614270   -0.365825   -2.198894
  H      1.389953    0.273087   -1.112360
  S      0.579024    0.140472   -3.297943
  C      4.671956    0.122273   -4.220598
  N      5.866023   -0.507849   -4.224284
  C      3.698881   -0.312844   -4.986988
  H      2.731405   -0.050091   -4.849000
  H      3.890046   -1.055172   -5.643730
  H      5.251933    1.303459   -2.721014
  H      6.695165   -0.062322   -3.851596
  H      5.975383   -1.396884   -4.691414
  F      0.228860   -1.246868   -3.127871
  O     -0.439269    1.118966   -3.014550
  O      1.247881    0.403474   -4.595647
  H      1.697003    2.561969   -2.141109
  H      3.080787    1.987436   -1.225838
  H      2.806463    1.986511   -4.268484
  H      3.778714    3.098282   -3.307383

 Total Charge           Charge          ....    0
 Multiplicity           Mult            ....    1
 Number of Electrons    NEL             ....   96
 Basis Dimension        Dim             ....  324

ORBITAL ENERGIES
----------------

  NO   OCC          E(Eh)            E(eV)
   0   2.0000     -88.622933     -2411.5526
   1   2.0000     -24.542151      -667.8259
   2   2.0000     -18.913473      -514.6618
   3   2.0000     -18.899276      -514.2754
   4   2.0000     -14.119676      -384.2159
   5   2.0000     -14.111658      -383.9977
   6   2.0000     -10.057297      -273.6730
   7   2.0000     -10.038859      -273.1712
   8   2.0000     -10.030975      -272.9567
   9   2.0000     -10.030680      -272.9487
  10   2.0000      -9.893354      -269.2119
  11   2.0000      -7.983344      -217.2378
  12   2.0000      -5.973715      -162.5530
  13   2.0000      -5.967320      -162.3790
  14   2.0000      -5.965082      -162.3181
  15   2.0000      -1.293270       -35.1917
  16   2.0000      -1.036744       -28.2112
  17   2.0000      -0.938870       -25.5479
  18   2.0000      -0.887251       -24.1433
  19   2.0000      -0.811157       -22.0727
  20   2.0000      -0.760199       -20.6861
  21   2.0000      -0.693539       -18.8721
  22   2.0000      -0.656618       -17.8675
  23   2.0000      -0.636295       -17.3145
  24   2.0000      -0.590205       -16.0603
  25   2.0000      -0.534668       -14.5491
  26   2.0000      -0.530440       -14.4340
  27   2.0000      -0.519573       -14.1383
  28   2.0000      -0.507045       -13.7974
  29   2.0000      -0.490634       -13.3508
  30   2.0000      -0.470475       -12.8023
  31   2.0000      -0.451074       -12.2743
  32   2.0000      -0.446768       -12.1572
  33   2.0000      -0.412281       -11.2187
  34   2.0000      -0.409615       -11.1462
  35   2.0000      -0.405960       -11.0467
  36   2.0000      -0.366698        -9.9784
  37   2.0000      -0.356330        -9.6962
  38   2.0000      -0.350679        -9.5425
  39   2.0000      -0.342815        -9.3285
  40   2.0000      -0.338801        -9.2193
  41   2.0000      -0.331258        -9.0140
  42   2.0000      -0.309674        -8.4267
  43   2.0000      -0.294337        -8.0093
  44   2.0000      -0.278374        -7.5749
  45   2.0000      -0.241873        -6.5817
  46   2.0000      -0.209508        -5.7010
  47   2.0000      -0.132910        -3.6167
  48   0.0000      -0.018987        -0.5167
  49   0.0000      -0.005395        -0.1468
  50   0.0000       0.013675         0.3721
  51   0.0000       0.020503         0.5579
  52   0.0000       0.030056         0.8179

MULLIKEN ATOMIC CHARGES
-----------------------
   0 C :    0.907817
   1 N :   -0.570003
   2 C :    0.063140
   3 C :    0.094040
   4 H :    0.133301
   5 H :   -0.097472
   6 S :    1.506899
   7 C :    1.071281
   8 N :   -0.025275
   9 C :    0.525212
  10 H :   -0.599106
  11 H :   -0.334890
  12 H :   -0.307494
  13 H :   -0.156411
  14 H :   -0.024695
  15 F :   -0.406996
  16 O :   -0.694729
  17 O :   -0.854694
  18 H :    0.017482
  19 H :   -0.004344
  20 H :    0.054444
  21 H :   -0.297507
Sum of atomic charges:    0.0000000

LOEWDIN ATOMIC CHARGES
----------------------
   0 C :    0.093001
   1 N :   -0.014642
   2 C :   -0.000509
   3 C :   -0.037092
   4 H :    0.014294
   5 H :    0.012957
   6 S :    1.144326
   7 C :   -0.231348
   8 N :    0.178830
   9 C :    0.190082
  10 H :   -0.209810
  11 H :   -0.087935
  12 H :    0.017624
  13 H :   -0.019669
  14 H :   -0.001422
  15 F :   -0.239707
  16 O :   -0.442773
  17 O :   -0.451688
  18 H :    0.027287
  19 H :    0.029111
  20 H :    0.008598
  21 H :    0.020481

  Mayer bond orders larger than 0.100000
B(  0-C ,  1-N ) :   0.8754 B(  0-C ,  2-C ) :   1.0804 B(  0-C , 12-H ) :  -0.1803
B(  0-C , 18-H ) :   0.1449 B(  0-C , 19-H ) :   0.1164 B(  0-C , 20-H ) :   0.7152
B(  0-C , 21-H ) :   0.8816 B(  1-N ,  2-C ) :   0.1099 B(  1-N ,  7-C ) :   0.7943
B(  1-N ,  8-N ) :   0.2166 B(  1-N ,  9-C ) :   0.2977 B(  1-N , 12-H ) :   1.4481
B(  1-N , 20-H ) :   0.1736 B(  1-N , 21-H ) :   0.1535 B(  2-C ,  3-C ) :   1.2910
B(  2-C ,  4-H ) :   0.1424 B(  2-C ,  5-H ) :   0.1816 B(  2-C , 18-H ) :   0.8517
B(  2-C , 19-H ) :   0.8174 B(  2-C , 20-H ) :   0.1326 B(  3-C ,  4-H ) :   0.9153
B(  3-C ,  5-H ) :   0.7821 B(  3-C ,  6-S ) :   0.9374 B(  3-C , 17-O ) :   0.1636
B(  3-C , 18-H ) :   0.1354 B(  3-C , 19-H ) :   0.1132 B(  6-S , 15-F ) :   0.6337
B(  6-S , 16-O ) :   1.4989 B(  6-S , 17-O ) :   1.4318 B(  7-C ,  8-N ) :   0.8292
B(  7-C ,  9-C ) :   1.6224 B(  7-C , 10-H ) :  -0.1884 B(  7-C , 11-H ) :   0.3482
B(  7-C , 12-H ) :  -0.3102 B(  7-C , 20-H ) :  -0.1055 B(  8-N ,  9-C ) :   0.3856
B(  8-N , 11-H ) :   0.1102 B(  8-N , 13-H ) :   1.2057 B(  8-N , 14-H ) :   1.1501
B(  9-C , 10-H ) :   0.1954 B(  9-C , 11-H ) :   0.8190 B( 10-H , 11-H ) :  -0.1010
B( 10-H , 17-O ) :   0.1052 B( 10-H , 20-H ) :   0.1138 B( 13-H , 14-H ) :  -0.1634
B( 16-O , 17-O ) :   0.1065 B( 20-H , 21-H ) :  -0.1567

Dispersion correction           -0.031793928
FINAL SINGLE POINT ENERGY      -954.615601843958

DIPOLE MOMENT
-------------
                                X             Y             Z
Electronic contribution:    -14.67086      -5.45331      -0.00733
Nuclear contribution   :     15.84345       5.19593       1.66752
                        -----------------------------------------
Total Dipole Moment    :      1.17259      -0.25738       1.66019
                        -----------------------------------------
Magnitude (a.u.)       :      2.04877
Magnitude (Debye)      :      5.20755

Rotational constants in cm-1:     0.059060     0.020573     0.017713
Rotational constants in MHz :  1770.576058   616.749938   531.036486

                             ****ORCA TERMINATED NORMALLY****
TOTAL RUN TIME: 0 days 0 hours 0 minutes 35 seconds 894 msec
