                         Program Version 5.0.0 -  RELEASE  -
|  1> !M062X D3Zero RIJCOSX def2-SVP def2/J TightSCF
|  2> *xyz -1 1
|  3> C          4.93020       -7.37532       -2.64962
|  4> C          3.84189       -6.95161       -3.63283
|  5> H          3.45814       -5.95442       -3.40712
|  6> H          2.98848       -7.64361       -3.56708
|  7> S          4.31812       -6.91593       -5.36869
|  8> O          5.40615       -5.89948       -5.51297
|  9> O          3.11191       -6.44508       -6.04379
| 10> O          4.76340       -8.23942       -5.69863
| 11> H          5.27901       -8.35440       -2.90385
| 12> H          4.53000       -7.38577       -1.65734
| 13> H          5.74437       -6.68276       -2.69856
| 14> *
| 15>
| 16> %MaxCore 64000
| 17>
| 18> %pal nprocs 4
| 19> end
| 20>
| 21> %scf
| 22>   MaxIter 150
| 23> end
| 24>
| 25>
| 26>                          ****END OF INPUT****

CARTESIAN COORDINATES (ANGSTROEM)
---------------------------------
  C      4.930200   -7.375320   -2.649620
  C      3.841890   -6.951610   -3.632830
  H      3.458140   -5.954420   -3.407120
  H      2.988480   -7.643610   -3.567080
  S      4.318120   -6.915930   -5.368690
  O      5.406150   -5.899480   -5.512970
  O      3.111910   -6.445080   -6.043790
  O      4.763400   -8.239420   -5.698630
  H      5.279010   -8.354400   -2.903850
  H      4.530000   -7.385770   -1.657340
  H      5.744370   -6.682760   -2.698560

 Total Charge           Charge          ....   -1
 Multiplicity           Mult            ....    1
 Number of Electrons    NEL             ....   58
 Basis Dimension        Dim             ....  113

ORBITAL ENERGIES
----------------

  NO   OCC          E(Eh)            E(eV)
   0   2.0000     -89.901029     -2446.3314
   1   2.0000     -19.388518      -527.5884
   2   2.0000     -19.377542      -527.2897
   3   2.0000     -19.368875      -527.0539
   4   2.0000     -10.405647      -283.1520
   5   2.0000     -10.401600      -283.0419
   6   2.0000      -8.231188      -223.9820
   7   2.0000      -6.155890      -167.5103
   8   2.0000      -6.155601      -167.5024
   9   2.0000      -6.155471      -167.4989
  10   2.0000      -1.020871       -27.7793
  11   2.0000      -0.878260       -23.8987
  12   2.0000      -0.845435       -23.0055
  13   2.0000      -0.716127       -19.4868
  14   2.0000      -0.581375       -15.8200
  15   2.0000      -0.446747       -12.1566
  16   2.0000      -0.382099       -10.3974
  17   2.0000      -0.376469       -10.2442
  18   2.0000      -0.336088        -9.1454
  19   2.0000      -0.320259        -8.7147
  20   2.0000      -0.313839        -8.5400
  21   2.0000      -0.286609        -7.7990
  22   2.0000      -0.268871        -7.3163
  23   2.0000      -0.198057        -5.3894
  24   2.0000      -0.194480        -5.2921
  25   2.0000      -0.161459        -4.3935
  26   2.0000      -0.147330        -4.0091
  27   2.0000      -0.141821        -3.8591
  28   2.0000      -0.106896        -2.9088
  29   0.0000       0.237439         6.4610
  30   0.0000       0.290992         7.9183
  31   0.0000       0.297456         8.0942
  32   0.0000       0.303767         8.2659
  33   0.0000       0.330203         8.9853

MULLIKEN ATOMIC CHARGES
-----------------------
   0 C :   -0.031648
   1 C :   -0.163716
   2 H :    0.029181
   3 H :    0.025323
   4 S :    0.956142
   5 O :   -0.652444
   6 O :   -0.623105
   7 O :   -0.595940
   8 H :    0.030520
   9 H :   -0.005774
  10 H :    0.031459
Sum of atomic charges:   -1.0000000

LOEWDIN ATOMIC CHARGES
----------------------
   0 C :   -0.079332
   1 C :   -0.197398
   2 H :    0.013417
   3 H :    0.012493
   4 S :    1.139963
   5 O :   -0.677907
   6 O :   -0.642840
   7 O :   -0.615083
   8 H :    0.020018
   9 H :    0.006346
  10 H :    0.020325

  Mayer bond orders larger than 0.100000
B(  0-C ,  1-C ) :   1.0469 B(  0-C ,  8-H ) :   0.9696 B(  0-C ,  9-H ) :   0.9675
B(  0-C , 10-H ) :   0.9696 B(  1-C ,  2-H ) :   0.9474 B(  1-C ,  3-H ) :   0.9442
B(  1-C ,  4-S ) :   0.8845 B(  4-S ,  5-O ) :   1.5572 B(  4-S ,  6-O ) :   1.5972
B(  4-S ,  7-O ) :   1.6204

Dispersion correction           -0.000150687
FINAL SINGLE POINT ENERGY      -702.570386635587

DIPOLE MOMENT
-------------
                                X             Y             Z
Electronic contribution:     -0.35814       0.80803      -7.87830
Nuclear contribution   :      0.07504      -1.14369       9.75001
                        -----------------------------------------
Total Dipole Moment    :     -0.28310      -0.33566       1.87170
                        -----------------------------------------
Magnitude (a.u.)       :      1.92252
Magnitude (Debye)      :      4.88666

Rotational constants in cm-1:     0.160553     0.082191     0.080550
Rotational constants in MHz :  4813.250478  2464.013016  2414.833054

                             ****ORCA TERMINATED NORMALLY****
TOTAL RUN TIME: 0 days 0 hours 0 minutes 13 seconds 207 msec
