                         Program Version 5.0.0 -  RELEASE  -
|  1> !M062X D3Zero RIJCOSX def2-SVP def2/J TightSCF
|  2> *xyz 1 1
|  3> C          5.55821       -1.99291       -6.21505
|  4> C          4.18188       -2.58967       -6.29891
|  5> N          3.14587       -1.76843       -6.48675
|  6> N          4.01910       -3.86431       -6.22743
|  7> H          4.76849       -4.59115       -5.99077
|  8> H          3.12241       -4.33339       -6.31462
|  9> H          3.28164       -0.77779       -6.56655
| 10> H          2.21255       -2.13419       -6.56225
| 11> C          6.41926       -2.54294       -5.07763
| 12> H          6.03683       -2.19819       -7.17685
| 13> H          5.46761       -0.90737       -6.12797
| 14> H          6.50056       -3.60553       -5.17358
| 15> H          5.96544       -2.30329       -4.13874
| 16> H          7.39438       -2.10494       -5.12457
| 17> *
| 18>
| 19> %MaxCore 64000
| 20>
| 21> %pal nprocs 4
| 22> end
| 23>
| 24> %scf
| 25>   MaxIter 150
| 26> end
| 27>
| 28>
| 29>                          ****END OF INPUT****

CARTESIAN COORDINATES (ANGSTROEM)
---------------------------------
  C      5.558210   -1.992910   -6.215050
  C      4.181880   -2.589670   -6.298910
  N      3.145870   -1.768430   -6.486750
  N      4.019100   -3.864310   -6.227430
  H      4.768490   -4.591150   -5.990770
  H      3.122410   -4.333390   -6.314620
  H      3.281640   -0.777790   -6.566550
  H      2.212550   -2.134190   -6.562250
  C      6.419260   -2.542940   -5.077630
  H      6.036830   -2.198190   -7.176850
  H      5.467610   -0.907370   -6.127970
  H      6.500560   -3.605530   -5.173580
  H      5.965440   -2.303290   -4.138740
  H      7.394380   -2.104940   -5.124570

 Total Charge           Charge          ....    1
 Multiplicity           Mult            ....    1
 Number of Electrons    NEL             ....   40
 Basis Dimension        Dim             ....  115

ORBITAL ENERGIES
----------------

  NO   OCC          E(Eh)            E(eV)
   0   2.0000     -15.014088      -408.5541
   1   2.0000     -15.001701      -408.2170
   2   2.0000     -10.877308      -295.9866
   3   2.0000     -10.747608      -292.4573
   4   2.0000     -10.706447      -291.3372
   5   2.0000      -1.303822       -35.4788
   6   2.0000      -1.197384       -32.5825
   7   2.0000      -1.057482       -28.7756
   8   2.0000      -0.947092       -25.7717
   9   2.0000      -0.893979       -24.3264
  10   2.0000      -0.848663       -23.0933
  11   2.0000      -0.820132       -22.3169
  12   2.0000      -0.766880       -20.8679
  13   2.0000      -0.726642       -19.7729
  14   2.0000      -0.689585       -18.7646
  15   2.0000      -0.671418       -18.2702
  16   2.0000      -0.610788       -16.6204
  17   2.0000      -0.601477       -16.3670
  18   2.0000      -0.585337       -15.9278
  19   2.0000      -0.552333       -15.0297
  20   0.0000      -0.157587        -4.2882
  21   0.0000      -0.107421        -2.9231
  22   0.0000      -0.070963        -1.9310
  23   0.0000      -0.060576        -1.6484
  24   0.0000      -0.035279        -0.9600

MULLIKEN ATOMIC CHARGES
-----------------------
   0 C :   -0.055277
   1 C :   -0.019272
   2 N :   -0.042129
   3 N :   -0.058688
   4 H :    0.231286
   5 H :    0.191259
   6 H :    0.194164
   7 H :    0.181394
   8 C :   -0.051953
   9 H :    0.126750
  10 H :    0.076732
  11 H :    0.049654
  12 H :    0.078732
  13 H :    0.097347
Sum of atomic charges:    1.0000000

LOEWDIN ATOMIC CHARGES
----------------------
   0 C :   -0.037783
   1 C :    0.155930
   2 N :    0.080100
   3 N :    0.075906
   4 H :    0.155089
   5 H :    0.118242
   6 H :    0.118000
   7 H :    0.109847
   8 C :   -0.031446
   9 H :    0.074283
  10 H :    0.054905
  11 H :    0.027188
  12 H :    0.043125
  13 H :    0.056614

  Mayer bond orders larger than 0.100000
B(  0-C ,  1-C ) :   1.0070 B(  0-C ,  8-C ) :   1.0784 B(  0-C ,  9-H ) :   0.9130
B(  0-C , 10-H ) :   0.9260 B(  1-C ,  2-N ) :   1.4970 B(  1-C ,  3-N ) :   1.5252
B(  2-N ,  6-H ) :   0.9151 B(  2-N ,  7-H ) :   0.9276 B(  3-N ,  4-H ) :   0.9019
B(  3-N ,  5-H ) :   0.9240 B(  8-C , 11-H ) :   0.9698 B(  8-C , 12-H ) :   0.9748
B(  8-C , 13-H ) :   0.9583

Dispersion correction           -0.000203409
FINAL SINGLE POINT ENERGY      -228.738545653392

DIPOLE MOMENT
-------------
                                X             Y             Z
Electronic contribution:     -3.80652      -0.49957      -1.57698
Nuclear contribution   :      2.76041       0.12669       1.26265
                        -----------------------------------------
Total Dipole Moment    :     -1.04611      -0.37288      -0.31433
                        -----------------------------------------
Magnitude (a.u.)       :      1.15421
Magnitude (Debye)      :      2.93376

Rotational constants in cm-1:     0.280918     0.124524     0.094121
Rotational constants in MHz :  8421.697738  3733.133254  2821.684112

                             ****ORCA TERMINATED NORMALLY****
TOTAL RUN TIME: 0 days 0 hours 0 minutes 14 seconds 797 msec
