                         Program Version 5.0.0 -  RELEASE  -
|  1> !M062X D3Zero RIJCOSX def2-SVP def2/J TightSCF
|  2> *xyz 0 1
|  3> C          4.93020       -7.37532       -2.64962
|  4> C          3.84189       -6.95161       -3.63283
|  5> H          3.45814       -5.95442       -3.40712
|  6> H          2.98848       -7.64361       -3.56708
|  7> S          4.31812       -6.91593       -5.36869
|  8> F          5.40615       -5.89948       -5.51297
|  9> O          3.11191       -6.44508       -6.04379
| 10> O          4.76340       -8.23942       -5.69863
| 11> H          5.27901       -8.35440       -2.90385
| 12> H          4.53000       -7.38577       -1.65734
| 13> H          5.74437       -6.68276       -2.69856
| 14> *
| 15>
| 16> %MaxCore 64000
| 17>
| 18> %pal nprocs 4
| 19> end
| 20>
| 21> %scf
| 22>   MaxIter 150
| 23> end
| 24>
| 25>
| 26>                          ****END OF INPUT****

CARTESIAN COORDINATES (ANGSTROEM)
---------------------------------
  C      4.930200   -7.375320   -2.649620
  C      3.841890   -6.951610   -3.632830
  H      3.458140   -5.954420   -3.407120
  H      2.988480   -7.643610   -3.567080
  S      4.318120   -6.915930   -5.368690
  F      5.406150   -5.899480   -5.512970
  O      3.111910   -6.445080   -6.043790
  O      4.763400   -8.239420   -5.698630
  H      5.279010   -8.354400   -2.903850
  H      4.530000   -7.385770   -1.657340
  H      5.744370   -6.682760   -2.698560

 Total Charge           Charge          ....    0
 Multiplicity           Mult            ....    1
 Number of Electrons    NEL             ....   58
 Basis Dimension        Dim             ....  113

ORBITAL ENERGIES
----------------

  NO   OCC          E(Eh)            E(eV)
   0   2.0000     -90.174340     -2453.7686
   1   2.0000     -25.340688      -689.5552
   2   2.0000     -19.641421      -534.4702
   3   2.0000     -19.630053      -534.1609
   4   2.0000     -10.613376      -288.8046
   5   2.0000     -10.576030      -287.7884
   6   2.0000      -8.506806      -231.4820
   7   2.0000      -6.434220      -175.0840
   8   2.0000      -6.429258      -174.9490
   9   2.0000      -6.428373      -174.9249
  10   2.0000      -1.466319       -39.9006
  11   2.0000      -1.226867       -33.3847
  12   2.0000      -1.124794       -30.6072
  13   2.0000      -0.916503       -24.9393
  14   2.0000      -0.808576       -22.0025
  15   2.0000      -0.757232       -20.6053
  16   2.0000      -0.664555       -18.0835
  17   2.0000      -0.650723       -17.7071
  18   2.0000      -0.625157       -17.0114
  19   2.0000      -0.566250       -15.4084
  20   2.0000      -0.555236       -15.1088
  21   2.0000      -0.527221       -14.3464
  22   2.0000      -0.504147       -13.7185
  23   2.0000      -0.474719       -12.9178
  24   2.0000      -0.469889       -12.7863
  25   2.0000      -0.445385       -12.1195
  26   2.0000      -0.404914       -11.0183
  27   2.0000      -0.388768       -10.5789
  28   2.0000      -0.382209       -10.4004
  29   0.0000       0.061490         1.6732
  30   0.0000       0.098288         2.6746
  31   0.0000       0.127110         3.4588
  32   0.0000       0.132040         3.5930
  33   0.0000       0.133708         3.6384

MULLIKEN ATOMIC CHARGES
-----------------------
   0 C :   -0.048605
   1 C :   -0.201039
   2 H :    0.094414
   3 H :    0.121226
   4 S :    1.033962
   5 F :   -0.244557
   6 O :   -0.485774
   7 O :   -0.460006
   8 H :    0.071938
   9 H :    0.064776
  10 H :    0.053665
Sum of atomic charges:    0.0000000

LOEWDIN ATOMIC CHARGES
----------------------
   0 C :   -0.065096
   1 C :   -0.157524
   2 H :    0.040504
   3 H :    0.060136
   4 S :    1.205279
   5 F :   -0.180477
   6 O :   -0.518720
   7 O :   -0.490866
   8 H :    0.036624
   9 H :    0.040205
  10 H :    0.029936

  Mayer bond orders larger than 0.100000
B(  0-C ,  1-C ) :   1.0400 B(  0-C ,  8-H ) :   0.9696 B(  0-C ,  9-H ) :   0.9640
B(  0-C , 10-H ) :   0.9749 B(  1-C ,  2-H ) :   0.9355 B(  1-C ,  3-H ) :   0.9345
B(  1-C ,  4-S ) :   0.9187 B(  4-S ,  5-F ) :   0.9366 B(  4-S ,  6-O ) :   1.7557
B(  4-S ,  7-O ) :   1.7811

Dispersion correction           -0.000156631
FINAL SINGLE POINT ENERGY      -727.086728712115

DIPOLE MOMENT
-------------
                                X             Y             Z
Electronic contribution:      1.30187       2.63101      -8.74585
Nuclear contribution   :     -0.98922      -2.24849      10.35711
                        -----------------------------------------
Total Dipole Moment    :      0.31265       0.38251       1.61126
                        -----------------------------------------
Magnitude (a.u.)       :      1.68529
Magnitude (Debye)      :      4.28368

Rotational constants in cm-1:     0.151436     0.080885     0.078670
Rotational constants in MHz :  4539.936009  2424.868817  2358.476812

                             ****ORCA TERMINATED NORMALLY****
TOTAL RUN TIME: 0 days 0 hours 0 minutes 15 seconds 488 msec
