                         Program Version 5.0.0 -  RELEASE  -
|  1> !M062X D3Zero RIJCOSX def2-SVP def2/J TightSCF
|  2> *xyz 0 1
|  3> C          5.55821       -1.99291       -6.21505
|  4> C          4.18188       -2.58967       -6.29891
|  5> C          3.14587       -1.76843       -6.48675
|  6> N          4.01910       -3.86431       -6.22743
|  7> H          4.76849       -4.59115       -5.99077
|  8> H          3.12241       -4.33339       -6.31462
|  9> H          3.28164       -0.77779       -6.56655
| 10> H          2.21255       -2.13419       -6.56225
| 11> C          6.41926       -2.54294       -5.07763
| 12> H          6.03683       -2.19819       -7.17685
| 13> H          5.46761       -0.90737       -6.12797
| 14> H          6.50056       -3.60553       -5.17358
| 15> H          5.96544       -2.30329       -4.13874
| 16> H          7.39438       -2.10494       -5.12457
| 17> *
| 18>
| 19> %MaxCore 64000
| 20>
| 21> %pal nprocs 4
| 22> end
| 23>
| 24> %scf
| 25>   MaxIter 150
| 26> end
| 27>
| 28>
| 29>                          ****END OF INPUT****

CARTESIAN COORDINATES (ANGSTROEM)
---------------------------------
  C      5.558210   -1.992910   -6.215050
  C      4.181880   -2.589670   -6.298910
  C      3.145870   -1.768430   -6.486750
  N      4.019100   -3.864310   -6.227430
  H      4.768490   -4.591150   -5.990770
  H      3.122410   -4.333390   -6.314620
  H      3.281640   -0.777790   -6.566550
  H      2.212550   -2.134190   -6.562250
  C      6.419260   -2.542940   -5.077630
  H      6.036830   -2.198190   -7.176850
  H      5.467610   -0.907370   -6.127970
  H      6.500560   -3.605530   -5.173580
  H      5.965440   -2.303290   -4.138740
  H      7.394380   -2.104940   -5.124570

 Total Charge           Charge          ....    0
 Multiplicity           Mult            ....    1
 Number of Electrons    NEL             ....   40
 Basis Dimension        Dim             ....  115

ORBITAL ENERGIES
----------------

  NO   OCC          E(Eh)            E(eV)
   0   2.0000     -14.762285      -401.7022
   1   2.0000     -10.566969      -287.5418
   2   2.0000     -10.545857      -286.9674
   3   2.0000     -10.538910      -286.7783
   4   2.0000     -10.474879      -285.0359
   5   2.0000      -1.024444       -27.8765
   6   2.0000      -0.862984       -23.4830
   7   2.0000      -0.797556       -21.7026
   8   2.0000      -0.706774       -19.2323
   9   2.0000      -0.652442       -17.7539
  10   2.0000      -0.584473       -15.9043
  11   2.0000      -0.538538       -14.6544
  12   2.0000      -0.507996       -13.8233
  13   2.0000      -0.485883       -13.2215
  14   2.0000      -0.452759       -12.3202
  15   2.0000      -0.443971       -12.0811
  16   2.0000      -0.417133       -11.3508
  17   2.0000      -0.392788       -10.6883
  18   2.0000      -0.386228       -10.5098
  19   2.0000      -0.229488        -6.2447
  20   0.0000       0.080690         2.1957
  21   0.0000       0.104107         2.8329
  22   0.0000       0.130141         3.5413
  23   0.0000       0.135008         3.6738
  24   0.0000       0.161408         4.3921

MULLIKEN ATOMIC CHARGES
-----------------------
   0 C :   -0.011572
   1 C :   -0.118611
   2 C :   -0.062137
   3 N :   -0.143893
   4 H :    0.144066
   5 H :    0.132811
   6 H :   -0.028918
   7 H :   -0.039083
   8 C :   -0.048992
   9 H :    0.045822
  10 H :    0.032778
  11 H :    0.016228
  12 H :    0.043431
  13 H :    0.038071
Sum of atomic charges:    0.0000000

LOEWDIN ATOMIC CHARGES
----------------------
   0 C :   -0.033492
   1 C :   -0.002154
   2 C :   -0.184751
   3 N :   -0.023935
   4 H :    0.094842
   5 H :    0.081163
   6 H :   -0.003089
   7 H :   -0.009106
   8 C :   -0.056870
   9 H :    0.032402
  10 H :    0.036188
  11 H :    0.013693
  12 H :    0.027835
  13 H :    0.027274

  Mayer bond orders larger than 0.100000
B(  0-C ,  1-C ) :   1.0166 B(  0-C ,  8-C ) :   1.0817 B(  0-C ,  9-H ) :   0.9359
B(  0-C , 10-H ) :   0.9385 B(  1-C ,  2-C ) :   1.8544 B(  1-C ,  3-N ) :   1.2594
B(  2-C ,  6-H ) :   0.9408 B(  2-C ,  7-H ) :   0.9513 B(  3-N ,  4-H ) :   0.9414
B(  3-N ,  5-H ) :   0.9451 B(  8-C , 11-H ) :   0.9715 B(  8-C , 12-H ) :   0.9743
B(  8-C , 13-H ) :   0.9683

Dispersion correction           -0.000199845
FINAL SINGLE POINT ENERGY      -212.278739898170

DIPOLE MOMENT
-------------
                                X             Y             Z
Electronic contribution:     -2.01755      -1.13127      -1.01883
Nuclear contribution   :      2.41345       0.31141       1.16343
                        -----------------------------------------
Total Dipole Moment    :      0.39591      -0.81985       0.14460
                        -----------------------------------------
Magnitude (a.u.)       :      0.92185
Magnitude (Debye)      :      2.34316

Rotational constants in cm-1:     0.287957     0.129204     0.097498
Rotational constants in MHz :  8632.737925  3873.424745  2922.919500

                             ****ORCA TERMINATED NORMALLY****
TOTAL RUN TIME: 0 days 0 hours 0 minutes 14 seconds 829 msec
