                         Program Version 5.0.0 -  RELEASE  -
|  1> !M062X D3Zero RIJCOSX def2-SVP def2/J TightSCF
|  2> *xyz 0 1
|  3> C          4.93020       -7.37532       -2.64962
|  4> C          3.84189       -6.95161       -3.63283
|  5> H          3.45814       -5.95442       -3.40712
|  6> H          2.98848       -7.64361       -3.56708
|  7> S          4.31812       -6.91593       -5.36869
|  8> O          5.40615       -5.89948       -5.51297
|  9> F          3.11191       -6.44508       -6.04379
| 10> O          4.76340       -8.23942       -5.69863
| 11> H          5.27901       -8.35440       -2.90385
| 12> H          4.53000       -7.38577       -1.65734
| 13> H          5.74437       -6.68276       -2.69856
| 14> *
| 15>
| 16> %MaxCore 64000
| 17>
| 18> %pal nprocs 4
| 19> end
| 20>
| 21> %scf
| 22>   MaxIter 150
| 23> end
| 24>
| 25>
| 26>                          ****END OF INPUT****

CARTESIAN COORDINATES (ANGSTROEM)
---------------------------------
  C      4.930200   -7.375320   -2.649620
  C      3.841890   -6.951610   -3.632830
  H      3.458140   -5.954420   -3.407120
  H      2.988480   -7.643610   -3.567080
  S      4.318120   -6.915930   -5.368690
  O      5.406150   -5.899480   -5.512970
  F      3.111910   -6.445080   -6.043790
  O      4.763400   -8.239420   -5.698630
  H      5.279010   -8.354400   -2.903850
  H      4.530000   -7.385770   -1.657340
  H      5.744370   -6.682760   -2.698560

 Total Charge           Charge          ....    0
 Multiplicity           Mult            ....    1
 Number of Electrons    NEL             ....   58
 Basis Dimension        Dim             ....  113

ORBITAL ENERGIES
----------------

  NO   OCC          E(Eh)            E(eV)
   0   2.0000     -90.175153     -2453.7907
   1   2.0000     -25.356215      -689.9777
   2   2.0000     -19.640045      -534.4328
   3   2.0000     -19.621094      -533.9171
   4   2.0000     -10.614186      -288.8267
   5   2.0000     -10.574241      -287.7397
   6   2.0000      -8.507831      -231.5098
   7   2.0000      -6.435387      -175.1158
   8   2.0000      -6.430171      -174.9738
   9   2.0000      -6.429165      -174.9465
  10   2.0000      -1.495384       -40.6915
  11   2.0000      -1.219432       -33.1824
  12   2.0000      -1.103998       -30.0413
  13   2.0000      -0.916153       -24.9298
  14   2.0000      -0.824456       -22.4346
  15   2.0000      -0.758198       -20.6316
  16   2.0000      -0.671885       -18.2829
  17   2.0000      -0.668873       -18.2010
  18   2.0000      -0.634469       -17.2648
  19   2.0000      -0.567806       -15.4508
  20   2.0000      -0.557115       -15.1599
  21   2.0000      -0.511624       -13.9220
  22   2.0000      -0.499094       -13.5810
  23   2.0000      -0.477506       -12.9936
  24   2.0000      -0.453877       -12.3506
  25   2.0000      -0.452003       -12.2996
  26   2.0000      -0.398306       -10.8385
  27   2.0000      -0.381555       -10.3826
  28   2.0000      -0.368487       -10.0270
  29   0.0000       0.079704         2.1689
  30   0.0000       0.087846         2.3904
  31   0.0000       0.121154         3.2968
  32   0.0000       0.127970         3.4823
  33   0.0000       0.133050         3.6205

MULLIKEN ATOMIC CHARGES
-----------------------
   0 C :   -0.035650
   1 C :   -0.198334
   2 H :    0.091216
   3 H :    0.091447
   4 S :    1.025664
   5 O :   -0.513220
   6 F :   -0.213264
   7 O :   -0.457222
   8 H :    0.071414
   9 H :    0.064243
  10 H :    0.073707
Sum of atomic charges:   -0.0000000

LOEWDIN ATOMIC CHARGES
----------------------
   0 C :   -0.049731
   1 C :   -0.162979
   2 H :    0.039058
   3 H :    0.040613
   4 S :    1.201437
   5 O :   -0.551970
   6 F :   -0.145429
   7 O :   -0.489378
   8 H :    0.038467
   9 H :    0.040619
  10 H :    0.039293

  Mayer bond orders larger than 0.100000
B(  0-C ,  1-C ) :   1.0636 B(  0-C ,  8-H ) :   0.9704 B(  0-C ,  9-H ) :   0.9654
B(  0-C , 10-H ) :   0.9712 B(  1-C ,  2-H ) :   0.9312 B(  1-C ,  3-H ) :   0.9288
B(  1-C ,  4-S ) :   0.9155 B(  4-S ,  5-O ) :   1.7152 B(  4-S ,  6-F ) :   0.9766
B(  4-S ,  7-O ) :   1.7773

Dispersion correction           -0.000145343
FINAL SINGLE POINT ENERGY      -727.074117214819

DIPOLE MOMENT
-------------
                                X             Y             Z
Electronic contribution:     -2.61403       1.69805      -9.65991
Nuclear contribution   :      1.40145      -1.67996      10.91024
                        -----------------------------------------
Total Dipole Moment    :     -1.21258       0.01808       1.25033
                        -----------------------------------------
Magnitude (a.u.)       :      1.74184
Magnitude (Debye)      :      4.42741

Rotational constants in cm-1:     0.155875     0.079864     0.077188
Rotational constants in MHz :  4673.017506  2394.277415  2314.027118

                             ****ORCA TERMINATED NORMALLY****
TOTAL RUN TIME: 0 days 0 hours 0 minutes 13 seconds 925 msec
