                         Program Version 5.0.0 -  RELEASE  -
|  1> !M062X D3Zero RIJCOSX def2-SVP def2/J TightSCF
|  2> *xyz 0 1
|  3> C          4.93020       -7.37532       -2.64962
|  4> C          3.84189       -6.95161       -3.63283
|  5> H          3.45814       -5.95442       -3.40712
|  6> H          2.98848       -7.64361       -3.56708
|  7> S          4.31812       -6.91593       -5.36869
|  8> O          5.40615       -5.89948       -5.51297
|  9> O          3.11191       -6.44508       -6.04379
| 10> F          4.76340       -8.23942       -5.69863
| 11> H          5.27901       -8.35440       -2.90385
| 12> H          4.53000       -7.38577       -1.65734
| 13> H          5.74437       -6.68276       -2.69856
| 14> *
| 15>
| 16> %MaxCore 64000
| 17>
| 18> %pal nprocs 4
| 19> end
| 20>
| 21> %scf
| 22>   MaxIter 150
| 23> end
| 24>
| 25>
| 26>                          ****END OF INPUT****

CARTESIAN COORDINATES (ANGSTROEM)
---------------------------------
  C      4.930200   -7.375320   -2.649620
  C      3.841890   -6.951610   -3.632830
  H      3.458140   -5.954420   -3.407120
  H      2.988480   -7.643610   -3.567080
  S      4.318120   -6.915930   -5.368690
  O      5.406150   -5.899480   -5.512970
  O      3.111910   -6.445080   -6.043790
  F      4.763400   -8.239420   -5.698630
  H      5.279010   -8.354400   -2.903850
  H      4.530000   -7.385770   -1.657340
  H      5.744370   -6.682760   -2.698560

 Total Charge           Charge          ....    0
 Multiplicity           Mult            ....    1
 Number of Electrons    NEL             ....   58
 Basis Dimension        Dim             ....  113

ORBITAL ENERGIES
----------------

  NO   OCC          E(Eh)            E(eV)
   0   2.0000     -90.175827     -2453.8090
   1   2.0000     -25.370278      -690.3604
   2   2.0000     -19.629879      -534.1562
   3   2.0000     -19.622257      -533.9488
   4   2.0000     -10.614261      -288.8287
   5   2.0000     -10.577000      -287.8148
   6   2.0000      -8.508693      -231.5333
   7   2.0000      -6.436472      -175.1453
   8   2.0000      -6.430730      -174.9891
   9   2.0000      -6.429902      -174.9665
  10   2.0000      -1.518711       -41.3262
  11   2.0000      -1.207027       -32.8449
  12   2.0000      -1.096048       -29.8250
  13   2.0000      -0.919204       -25.0128
  14   2.0000      -0.829871       -22.5819
  15   2.0000      -0.767983       -20.8979
  16   2.0000      -0.693056       -18.8590
  17   2.0000      -0.686504       -18.6807
  18   2.0000      -0.626125       -17.0377
  19   2.0000      -0.565638       -15.3918
  20   2.0000      -0.552449       -15.0329
  21   2.0000      -0.520658       -14.1678
  22   2.0000      -0.497950       -13.5499
  23   2.0000      -0.474996       -12.9253
  24   2.0000      -0.462612       -12.5883
  25   2.0000      -0.440020       -11.9735
  26   2.0000      -0.388935       -10.5835
  27   2.0000      -0.381162       -10.3719
  28   2.0000      -0.362572        -9.8661
  29   0.0000       0.066181         1.8009
  30   0.0000       0.098398         2.6776
  31   0.0000       0.119710         3.2575
  32   0.0000       0.130325         3.5463
  33   0.0000       0.132686         3.6106

MULLIKEN ATOMIC CHARGES
-----------------------
   0 C :   -0.048723
   1 C :   -0.198684
   2 H :    0.120217
   3 H :    0.094397
   4 S :    1.017997
   5 O :   -0.508675
   6 O :   -0.478404
   7 F :   -0.188222
   8 H :    0.049882
   9 H :    0.065560
  10 H :    0.074656
Sum of atomic charges:    0.0000000

LOEWDIN ATOMIC CHARGES
----------------------
   0 C :   -0.065318
   1 C :   -0.157449
   2 H :    0.058335
   3 H :    0.041678
   4 S :    1.197630
   5 O :   -0.547940
   6 O :   -0.513246
   7 F :   -0.120289
   8 H :    0.028423
   9 H :    0.040509
  10 H :    0.037667

  Mayer bond orders larger than 0.100000
B(  0-C ,  1-C ) :   1.0390 B(  0-C ,  8-H ) :   0.9740 B(  0-C ,  9-H ) :   0.9639
B(  0-C , 10-H ) :   0.9701 B(  1-C ,  2-H ) :   0.9358 B(  1-C ,  3-H ) :   0.9328
B(  1-C ,  4-S ) :   0.9146 B(  4-S ,  5-O ) :   1.7131 B(  4-S ,  6-O ) :   1.7502
B(  4-S ,  7-F ) :   1.0022

Dispersion correction           -0.000156990
FINAL SINGLE POINT ENERGY      -727.061683869569

DIPOLE MOMENT
-------------
                                X             Y             Z
Electronic contribution:      0.20047      -1.34460      -9.07082
Nuclear contribution   :     -0.31946       0.18980      10.55057
                        -----------------------------------------
Total Dipole Moment    :     -0.11899      -1.15480       1.47975
                        -----------------------------------------
Magnitude (a.u.)       :      1.88079
Magnitude (Debye)      :      4.78059

Rotational constants in cm-1:     0.151421     0.081183     0.078684
Rotational constants in MHz :  4539.489207  2433.790160  2358.892966

                             ****ORCA TERMINATED NORMALLY****
TOTAL RUN TIME: 0 days 0 hours 0 minutes 14 seconds 317 msec
