                         Program Version 5.0.0 -  RELEASE  -
|  1> !M062X D3Zero RIJCOSX def2-TZVP def2/J TightSCF xyzfile
|  2>
|  3> *xyzfile 0 1 D1.xyz
|  4>
|  5> %MaxCore 64000
|  6>
|  7> %pal nprocs 18
|  8> end
|  9>
| 10> %scf
| 11>   MaxIter 150
| 12> end
| 13>
| 14>
| 15>                          ****END OF INPUT****

CARTESIAN COORDINATES (ANGSTROEM)
---------------------------------
  C      5.558206   -1.992914   -6.215054
  C      4.930199   -7.375319   -2.649623
  C      3.841892   -6.951611   -3.632829
  H      3.458144   -5.954425   -3.407121
  H      2.988484   -7.643606   -3.567078
  S      4.318115   -6.915930   -5.368692
  C      4.181880   -2.589671   -6.298911
  C      3.145873   -1.768431   -6.486753
  N      4.019102   -3.864307   -6.227427
  H      4.768490   -4.591153   -5.990773
  H      3.122405   -4.333392   -6.314620
  H      3.281635   -0.777786   -6.566549
  H      2.212549   -2.134193   -6.562246
  F      5.406154   -5.899480   -5.512972
  O      3.111910   -6.445079   -6.043792
  C      6.419260   -2.542944   -5.077630
  C      5.872267   -5.002756   -2.427819
  C      6.173994   -6.485522   -2.606315
  H      6.734852   -6.613767   -3.534015
  H      6.821463   -6.831018   -1.793617
  H      4.469612   -7.406168   -1.655876
  H      5.230134   -8.398678   -2.885906
  C      5.896512   -2.169314   -3.694552
  H      7.428880   -2.143665   -5.208078
  H      6.505894   -3.627541   -5.175502
  C      6.807804   -2.623428   -2.551019
  H      4.894708   -2.589732   -3.557501
  H      5.778823   -1.081255   -3.635790
  C      7.111544   -4.122463   -2.520363
  H      7.751615   -2.071393   -2.614406
  H      6.345837   -2.326401   -1.604086
  H      5.362882   -4.828697   -1.471335
  H      5.174429   -4.702577   -3.211298
  H      7.778329   -4.329347   -1.677651
  H      7.673189   -4.402845   -3.417586
  O      4.763396   -8.239424   -5.698629
  H      6.036826   -2.198189   -7.176852
  H      5.467610   -0.907371   -6.127968

 Total Charge           Charge          ....    0
 Multiplicity           Mult            ....    1
 Number of Electrons    NEL             ....  136
 Basis Dimension        Dim             ....  634

ORBITAL ENERGIES
----------------

  NO   OCC          E(Eh)            E(eV)
   0   2.0000     -90.169679     -2453.6417
   1   2.0000     -25.376469      -690.5288
   2   2.0000     -19.662091      -535.0327
   3   2.0000     -19.654822      -534.8349
   4   2.0000     -14.731634      -400.8681
   5   2.0000     -10.609916      -288.7105
   6   2.0000     -10.572344      -287.6881
   7   2.0000     -10.555685      -287.2348
   8   2.0000     -10.547601      -287.0148
   9   2.0000     -10.546635      -286.9885
  10   2.0000     -10.539144      -286.7847
  11   2.0000     -10.533644      -286.6350
  12   2.0000     -10.532675      -286.6087
  13   2.0000     -10.528308      -286.4898
  14   2.0000     -10.527392      -286.4649
  15   2.0000     -10.454062      -284.4695
  16   2.0000      -8.495134      -231.1644
  17   2.0000      -6.420214      -174.7029
  18   2.0000      -6.414736      -174.5538
  19   2.0000      -6.414144      -174.5377
  20   2.0000      -1.526308       -41.5330
  21   2.0000      -1.256965       -34.2038
  22   2.0000      -1.161731       -31.6123
  23   2.0000      -1.029828       -28.0231
  24   2.0000      -0.954213       -25.9654
  25   2.0000      -0.920605       -25.0509
  26   2.0000      -0.891386       -24.2558
  27   2.0000      -0.858547       -23.3622
  28   2.0000      -0.839890       -22.8546
  29   2.0000      -0.808312       -21.9953
  30   2.0000      -0.790860       -21.5204
  31   2.0000      -0.750022       -20.4091
  32   2.0000      -0.717777       -19.5317
  33   2.0000      -0.712465       -19.3872
  34   2.0000      -0.696679       -18.9576
  35   2.0000      -0.681264       -18.5381
  36   2.0000      -0.656217       -17.8566
  37   2.0000      -0.643892       -17.5212
  38   2.0000      -0.638571       -17.3764
  39   2.0000      -0.585386       -15.9292
  40   2.0000      -0.582323       -15.8458
  41   2.0000      -0.567166       -15.4334
  42   2.0000      -0.560573       -15.2540
  43   2.0000      -0.553074       -15.0499
  44   2.0000      -0.537787       -14.6339
  45   2.0000      -0.534881       -14.5548
  46   2.0000      -0.524176       -14.2636
  47   2.0000      -0.503877       -13.7112
  48   2.0000      -0.501084       -13.6352
  49   2.0000      -0.492299       -13.3961
  50   2.0000      -0.481846       -13.1117
  51   2.0000      -0.475237       -12.9318
  52   2.0000      -0.461264       -12.5516
  53   2.0000      -0.445299       -12.1172
  54   2.0000      -0.441699       -12.0193
  55   2.0000      -0.439284       -11.9535
  56   2.0000      -0.432305       -11.7636
  57   2.0000      -0.423136       -11.5141
  58   2.0000      -0.421556       -11.4711
  59   2.0000      -0.414297       -11.2736
  60   2.0000      -0.405927       -11.0458
  61   2.0000      -0.402352       -10.9486
  62   2.0000      -0.399558       -10.8725
  63   2.0000      -0.390208       -10.6181
  64   2.0000      -0.377818       -10.2810
  65   2.0000      -0.371228       -10.1016
  66   2.0000      -0.368701       -10.0329
  67   2.0000      -0.227869        -6.2006
  68   0.0000       0.027723         0.7544
  69   0.0000       0.055073         1.4986
  70   0.0000       0.060436         1.6446
  71   0.0000       0.061760         1.6806
  72   0.0000       0.073080         1.9886

MULLIKEN ATOMIC CHARGES
-----------------------
   0 C :   -0.331513
   1 C :   -0.271228
   2 C :   -0.388842
   3 H :    0.214426
   4 H :    0.213807
   5 S :    0.950847
   6 C :    0.305647
   7 C :   -0.470068
   8 N :   -0.576661
   9 H :    0.277213
  10 H :    0.276367
  11 H :    0.100219
  12 H :    0.107482
  13 F :   -0.143427
  14 O :   -0.472858
  15 C :   -0.345245
  16 C :   -0.316322
  17 C :   -0.338894
  18 H :    0.178666
  19 H :    0.160003
  20 H :    0.164932
  21 H :    0.186145
  22 C :   -0.281909
  23 H :    0.153220
  24 H :    0.132227
  25 C :   -0.282251
  26 H :    0.175855
  27 H :    0.151073
  28 C :   -0.292937
  29 H :    0.151455
  30 H :    0.150814
  31 H :    0.160758
  32 H :    0.105201
  33 H :    0.152726
  34 H :    0.162939
  35 O :   -0.429823
  36 H :    0.158646
  37 H :    0.151310
Sum of atomic charges:   -0.0000000

LOEWDIN ATOMIC CHARGES
----------------------
   0 C :   -0.214866
   1 C :   -0.287446
   2 C :   -0.365466
   3 H :    0.145851
   4 H :    0.160836
   5 S :    0.590302
   6 C :   -0.383501
   7 C :   -0.282388
   8 N :   -0.021970
   9 H :    0.158592
  10 H :    0.175866
  11 H :    0.097113
  12 H :    0.093585
  13 F :    0.050894
  14 O :   -0.283459
  15 C :   -0.272265
  16 C :   -0.276974
  17 C :   -0.277733
  18 H :    0.137282
  19 H :    0.145184
  20 H :    0.150429
  21 H :    0.149069
  22 C :   -0.269922
  23 H :    0.141214
  24 H :    0.126581
  25 C :   -0.271639
  26 H :    0.140791
  27 H :    0.142589
  28 C :   -0.273192
  29 H :    0.139545
  30 H :    0.138627
  31 H :    0.142116
  32 H :    0.128585
  33 H :    0.139413
  34 H :    0.138499
  35 O :   -0.251230
  36 H :    0.147821
  37 H :    0.151268

  Mayer bond orders larger than 0.100000
B(  0-C ,  6-C ) :   0.9261 B(  0-C , 15-C ) :   0.9146 B(  0-C , 36-H ) :   0.9826
B(  0-C , 37-H ) :   0.9995 B(  1-C ,  2-C ) :   0.8940 B(  1-C , 17-C ) :   0.9198
B(  1-C , 20-H ) :   0.9637 B(  1-C , 21-H ) :   0.9784 B(  2-C ,  3-H ) :   0.9339
B(  2-C ,  4-H ) :   0.9404 B(  2-C ,  5-S ) :   0.9205 B(  5-S , 13-F ) :   1.0034
B(  5-S , 14-O ) :   1.8399 B(  5-S , 35-O ) :   1.9563 B(  6-C ,  7-C ) :   1.7063
B(  6-C ,  8-N ) :   1.1221 B(  7-C , 11-H ) :   1.0038 B(  7-C , 12-H ) :   1.0005
B(  8-N ,  9-H ) :   0.8846 B(  8-N , 10-H ) :   0.9033 B( 15-C , 22-C ) :   0.8543
B( 15-C , 23-H ) :   0.9759 B( 15-C , 24-H ) :   0.9960 B( 16-C , 17-C ) :   0.8514
B( 16-C , 28-C ) :   0.9024 B( 16-C , 31-H ) :   0.9607 B( 16-C , 32-H ) :   0.9932
B( 17-C , 18-H ) :   0.9977 B( 17-C , 19-H ) :   0.9789 B( 22-C , 25-C ) :   0.9090
B( 22-C , 26-H ) :   0.9862 B( 22-C , 27-H ) :   0.9800 B( 25-C , 28-C ) :   0.9159
B( 25-C , 29-H ) :   0.9906 B( 25-C , 30-H ) :   0.9944 B( 28-C , 33-H ) :   0.9824
B( 28-C , 34-H ) :   0.9902

Dispersion correction           -0.002781590
FINAL SINGLE POINT ENERGY     -1135.548781982572

DIPOLE MOMENT
-------------
                                X             Y             Z
Electronic contribution:     -7.00274     -18.74456     -13.18504
Nuclear contribution   :      7.78491      18.17172      15.09294
                        -----------------------------------------
Total Dipole Moment    :      0.78217      -0.57284       1.90790
                        -----------------------------------------
Magnitude (a.u.)       :      2.14010
Magnitude (Debye)      :      5.43970

Rotational constants in cm-1:     0.018190     0.012573     0.008405
Rotational constants in MHz :   545.327178   376.916509   251.974803

                             ****ORCA TERMINATED NORMALLY****
TOTAL RUN TIME: 0 days 0 hours 1 minutes 50 seconds 174 msec
