                         Program Version 5.0.0 -  RELEASE  -
|  1> !M062X D3Zero RIJCOSX def2-TZVP def2/J TightSCF xyzfile
|  2>
|  3> *xyzfile 0 1 D4.xyz
|  4>
|  5> %MaxCore 64000
|  6>
|  7> %pal nprocs 18
|  8> end
|  9>
| 10> %scf
| 11>   MaxIter 150
| 12> end
| 13>
| 14>
| 15>                          ****END OF INPUT****

CARTESIAN COORDINATES (ANGSTROEM)
---------------------------------
  C      5.558206   -1.992914   -6.215054
  C      4.930199   -7.375319   -2.649623
  C      3.841892   -6.951611   -3.632829
  H      3.458144   -5.954425   -3.407121
  H      2.988484   -7.643606   -3.567078
  S      4.318115   -6.915930   -5.368692
  C      4.181880   -2.589671   -6.298911
  N      3.145873   -1.768431   -6.486753
  C      4.019102   -3.864307   -6.227427
  H      4.768490   -4.591153   -5.990773
  H      3.122405   -4.333392   -6.314620
  H      3.281635   -0.777786   -6.566549
  H      2.212549   -2.134193   -6.562246
  O      5.406154   -5.899480   -5.512972
  F      3.111910   -6.445079   -6.043792
  C      6.419260   -2.542944   -5.077630
  C      5.872267   -5.002756   -2.427819
  C      6.173994   -6.485522   -2.606315
  H      6.734852   -6.613767   -3.534015
  H      6.821463   -6.831018   -1.793617
  H      4.469612   -7.406168   -1.655876
  H      5.230134   -8.398678   -2.885906
  C      5.896512   -2.169314   -3.694552
  H      7.428880   -2.143665   -5.208078
  H      6.505894   -3.627541   -5.175502
  C      6.807804   -2.623428   -2.551019
  H      4.894708   -2.589732   -3.557501
  H      5.778823   -1.081255   -3.635790
  C      7.111544   -4.122463   -2.520363
  H      7.751615   -2.071393   -2.614406
  H      6.345837   -2.326401   -1.604086
  H      5.362882   -4.828697   -1.471335
  H      5.174429   -4.702577   -3.211298
  H      7.778329   -4.329347   -1.677651
  H      7.673189   -4.402845   -3.417586
  O      4.763396   -8.239424   -5.698629
  H      6.036826   -2.198189   -7.176852
  H      5.467610   -0.907371   -6.127968

 Total Charge           Charge          ....    0
 Multiplicity           Mult            ....    1
 Number of Electrons    NEL             ....  136
 Basis Dimension        Dim             ....  634

ORBITAL ENERGIES
----------------

  NO   OCC          E(Eh)            E(eV)
   0   2.0000     -90.156274     -2453.2769
   1   2.0000     -25.360224      -690.0868
   2   2.0000     -19.646385      -534.6053
   3   2.0000     -19.629858      -534.1556
   4   2.0000     -14.732572      -400.8937
   5   2.0000     -10.598455      -288.3986
   6   2.0000     -10.562082      -287.4089
   7   2.0000     -10.541085      -286.8375
   8   2.0000     -10.533031      -286.6184
   9   2.0000     -10.524931      -286.3979
  10   2.0000     -10.522182      -286.3231
  11   2.0000     -10.521654      -286.3088
  12   2.0000     -10.520590      -286.2798
  13   2.0000     -10.516448      -286.1671
  14   2.0000     -10.515754      -286.1482
  15   2.0000     -10.437868      -284.0288
  16   2.0000      -8.481284      -230.7875
  17   2.0000      -6.405944      -174.3146
  18   2.0000      -6.401001      -174.1801
  19   2.0000      -6.400815      -174.1750
  20   2.0000      -1.517787       -41.3011
  21   2.0000      -1.234771       -33.5998
  22   2.0000      -1.134237       -30.8642
  23   2.0000      -1.020956       -27.7816
  24   2.0000      -0.937628       -25.5142
  25   2.0000      -0.907534       -24.6952
  26   2.0000      -0.878845       -23.9146
  27   2.0000      -0.853885       -23.2354
  28   2.0000      -0.820450       -22.3256
  29   2.0000      -0.799915       -21.7668
  30   2.0000      -0.772526       -21.0215
  31   2.0000      -0.740191       -20.1416
  32   2.0000      -0.705161       -19.1884
  33   2.0000      -0.687369       -18.7043
  34   2.0000      -0.683598       -18.6017
  35   2.0000      -0.661046       -17.9880
  36   2.0000      -0.649496       -17.6737
  37   2.0000      -0.632467       -17.2103
  38   2.0000      -0.616687       -16.7809
  39   2.0000      -0.588178       -16.0051
  40   2.0000      -0.571630       -15.5548
  41   2.0000      -0.566558       -15.4168
  42   2.0000      -0.550468       -14.9790
  43   2.0000      -0.541691       -14.7402
  44   2.0000      -0.530384       -14.4325
  45   2.0000      -0.519223       -14.1288
  46   2.0000      -0.513427       -13.9711
  47   2.0000      -0.493863       -13.4387
  48   2.0000      -0.482016       -13.1163
  49   2.0000      -0.480148       -13.0655
  50   2.0000      -0.474466       -12.9109
  51   2.0000      -0.457576       -12.4513
  52   2.0000      -0.455472       -12.3940
  53   2.0000      -0.439329       -11.9547
  54   2.0000      -0.429707       -11.6929
  55   2.0000      -0.419547       -11.4165
  56   2.0000      -0.412970       -11.2375
  57   2.0000      -0.409289       -11.1373
  58   2.0000      -0.406528       -11.0622
  59   2.0000      -0.397666       -10.8210
  60   2.0000      -0.386707       -10.5228
  61   2.0000      -0.384707       -10.4684
  62   2.0000      -0.380085       -10.3426
  63   2.0000      -0.364389        -9.9155
  64   2.0000      -0.361018        -9.8238
  65   2.0000      -0.357272        -9.7219
  66   2.0000      -0.336549        -9.1580
  67   2.0000      -0.232670        -6.3313
  68   0.0000       0.051760         1.4085
  69   0.0000       0.063775         1.7354
  70   0.0000       0.069547         1.8925
  71   0.0000       0.070731         1.9247
  72   0.0000       0.078317         2.1311

MULLIKEN ATOMIC CHARGES
-----------------------
   0 C :   -0.320002
   1 C :   -0.280681
   2 C :   -0.383648
   3 H :    0.206300
   4 H :    0.194564
   5 S :    0.968151
   6 C :    0.258709
   7 N :   -0.549974
   8 C :   -0.463356
   9 H :    0.152289
  10 H :    0.102393
  11 H :    0.234532
  12 H :    0.234244
  13 O :   -0.476681
  14 F :   -0.114807
  15 C :   -0.321122
  16 C :   -0.300343
  17 C :   -0.312871
  18 H :    0.192547
  19 H :    0.147445
  20 H :    0.163596
  21 H :    0.179950
  22 C :   -0.292719
  23 H :    0.141139
  24 H :    0.179748
  25 C :   -0.278807
  26 H :    0.171806
  27 H :    0.137616
  28 C :   -0.305882
  29 H :    0.146462
  30 H :    0.143979
  31 H :    0.147059
  32 H :    0.126567
  33 H :    0.143939
  34 H :    0.169634
  35 O :   -0.435391
  36 H :    0.161166
  37 H :    0.132451
Sum of atomic charges:   -0.0000000

LOEWDIN ATOMIC CHARGES
----------------------
   0 C :   -0.215178
   1 C :   -0.278516
   2 C :   -0.372371
   3 H :    0.143973
   4 H :    0.146257
   5 S :    0.600607
   6 C :   -0.372910
   7 N :   -0.019935
   8 C :   -0.320264
   9 H :    0.101474
  10 H :    0.088676
  11 H :    0.159546
  12 H :    0.165898
  13 O :   -0.287397
  14 F :    0.086835
  15 C :   -0.258750
  16 C :   -0.275679
  17 C :   -0.274305
  18 H :    0.145558
  19 H :    0.140562
  20 H :    0.150151
  21 H :    0.148987
  22 C :   -0.272361
  23 H :    0.138005
  24 H :    0.144389
  25 C :   -0.273019
  26 H :    0.139413
  27 H :    0.136399
  28 C :   -0.271845
  29 H :    0.137635
  30 H :    0.136275
  31 H :    0.136520
  32 H :    0.136257
  33 H :    0.136720
  34 H :    0.141820
  35 O :   -0.258253
  36 H :    0.152982
  37 H :    0.135844

  Mayer bond orders larger than 0.100000
B(  0-C ,  6-C ) :   0.9109 B(  0-C , 15-C ) :   0.9356 B(  0-C , 36-H ) :   0.9703
B(  0-C , 37-H ) :   1.0062 B(  1-C ,  2-C ) :   0.9117 B(  1-C , 17-C ) :   0.9330
B(  1-C , 20-H ) :   0.9679 B(  1-C , 21-H ) :   0.9753 B(  2-C ,  3-H ) :   0.9327
B(  2-C ,  4-H ) :   0.9427 B(  2-C ,  5-S ) :   0.9305 B(  5-S , 13-O ) :   1.7373
B(  5-S , 14-F ) :   1.1013 B(  5-S , 35-O ) :   1.9483 B(  6-C ,  7-N ) :   1.0597
B(  6-C ,  8-C ) :   1.8304 B(  7-N , 11-H ) :   0.9307 B(  7-N , 12-H ) :   0.9335
B(  8-C ,  9-H ) :   0.9886 B(  8-C , 10-H ) :   0.9541 B( 15-C , 22-C ) :   0.8728
B( 15-C , 23-H ) :   0.9784 B( 15-C , 24-H ) :   0.9746 B( 16-C , 17-C ) :   0.8807
B( 16-C , 28-C ) :   0.9151 B( 16-C , 31-H ) :   0.9660 B( 16-C , 32-H ) :   0.9756
B( 17-C , 18-H ) :   0.9812 B( 17-C , 19-H ) :   0.9817 B( 22-C , 25-C ) :   0.9183
B( 22-C , 26-H ) :   0.9836 B( 22-C , 27-H ) :   0.9821 B( 25-C , 28-C ) :   0.9162
B( 25-C , 29-H ) :   0.9915 B( 25-C , 30-H ) :   0.9955 B( 28-C , 33-H ) :   0.9839
B( 28-C , 34-H ) :   0.9891

Dispersion correction           -0.002726118
FINAL SINGLE POINT ENERGY     -1135.534533175630

DIPOLE MOMENT
-------------
                                X             Y             Z
Electronic contribution:    -11.72981     -18.13250     -14.63329
Nuclear contribution   :     10.61624      18.49702      15.75668
                        -----------------------------------------
Total Dipole Moment    :     -1.11357       0.36453       1.12338
                        -----------------------------------------
Magnitude (a.u.)       :      1.62324
Magnitude (Debye)      :      4.12594

Rotational constants in cm-1:     0.017796     0.012372     0.008231
Rotational constants in MHz :   533.524905   370.895973   246.762347

                             ****ORCA TERMINATED NORMALLY****
TOTAL RUN TIME: 0 days 0 hours 1 minutes 49 seconds 358 msec
