                         Program Version 5.0.0 -  RELEASE  -
|  1> !M062X D3Zero RIJCOSX def2-TZVP def2/J TightSCF xyzfile
|  2>
|  3> *xyzfile 0 1 D5.xyz
|  4>
|  5> %MaxCore 64000
|  6>
|  7> %pal nprocs 18
|  8> end
|  9>
| 10> %scf
| 11>   MaxIter 150
| 12> end
| 13>
| 14>
| 15>                          ****END OF INPUT****

CARTESIAN COORDINATES (ANGSTROEM)
---------------------------------
  C      5.558206   -1.992914   -6.215054
  C      4.930199   -7.375319   -2.649623
  C      3.841892   -6.951611   -3.632829
  H      3.458144   -5.954425   -3.407121
  H      2.988484   -7.643606   -3.567078
  S      4.318115   -6.915930   -5.368692
  C      4.181880   -2.589671   -6.298911
  C      3.145873   -1.768431   -6.486753
  N      4.019102   -3.864307   -6.227427
  H      4.768490   -4.591153   -5.990773
  H      3.122405   -4.333392   -6.314620
  H      3.281635   -0.777786   -6.566549
  H      2.212549   -2.134193   -6.562246
  O      5.406154   -5.899480   -5.512972
  O      3.111910   -6.445079   -6.043792
  C      6.419260   -2.542944   -5.077630
  C      5.872267   -5.002756   -2.427819
  C      6.173994   -6.485522   -2.606315
  H      6.734852   -6.613767   -3.534015
  H      6.821463   -6.831018   -1.793617
  H      4.469612   -7.406168   -1.655876
  H      5.230134   -8.398678   -2.885906
  C      5.896512   -2.169314   -3.694552
  H      7.428880   -2.143665   -5.208078
  H      6.505894   -3.627541   -5.175502
  C      6.807804   -2.623428   -2.551019
  H      4.894708   -2.589732   -3.557501
  H      5.778823   -1.081255   -3.635790
  C      7.111544   -4.122463   -2.520363
  H      7.751615   -2.071393   -2.614406
  H      6.345837   -2.326401   -1.604086
  H      5.362882   -4.828697   -1.471335
  H      5.174429   -4.702577   -3.211298
  H      7.778329   -4.329347   -1.677651
  H      7.673189   -4.402845   -3.417586
  F      4.763396   -8.239424   -5.698629
  H      6.036826   -2.198189   -7.176852
  H      5.467610   -0.907371   -6.127968

 Total Charge           Charge          ....    0
 Multiplicity           Mult            ....    1
 Number of Electrons    NEL             ....  136
 Basis Dimension        Dim             ....  634

ORBITAL ENERGIES
----------------

  NO   OCC          E(Eh)            E(eV)
   0   2.0000     -90.183826     -2454.0267
   1   2.0000     -25.397956      -691.1135
   2   2.0000     -19.662802      -535.0520
   3   2.0000     -19.662563      -535.0455
   4   2.0000     -14.701426      -400.0461
   5   2.0000     -10.616696      -288.8950
   6   2.0000     -10.577087      -287.8172
   7   2.0000     -10.547708      -287.0177
   8   2.0000     -10.535172      -286.6766
   9   2.0000     -10.528795      -286.5031
  10   2.0000     -10.527897      -286.4786
  11   2.0000     -10.522429      -286.3298
  12   2.0000     -10.514660      -286.1184
  13   2.0000     -10.514236      -286.1069
  14   2.0000     -10.510695      -286.0106
  15   2.0000     -10.435576      -283.9665
  16   2.0000      -8.508917      -231.5394
  17   2.0000      -6.433668      -175.0690
  18   2.0000      -6.428591      -174.9308
  19   2.0000      -6.428265      -174.9220
  20   2.0000      -1.562746       -42.5245
  21   2.0000      -1.253051       -34.0972
  22   2.0000      -1.153411       -31.3859
  23   2.0000      -1.005016       -27.3479
  24   2.0000      -0.956258       -26.0211
  25   2.0000      -0.912133       -24.8204
  26   2.0000      -0.885892       -24.1064
  27   2.0000      -0.857356       -23.3299
  28   2.0000      -0.835777       -22.7426
  29   2.0000      -0.802182       -21.8285
  30   2.0000      -0.778386       -21.1810
  31   2.0000      -0.742008       -20.1911
  32   2.0000      -0.723621       -19.6907
  33   2.0000      -0.720937       -19.6177
  34   2.0000      -0.695190       -18.9171
  35   2.0000      -0.678149       -18.4534
  36   2.0000      -0.656613       -17.8673
  37   2.0000      -0.637168       -17.3382
  38   2.0000      -0.625490       -17.0205
  39   2.0000      -0.590859       -16.0781
  40   2.0000      -0.584988       -15.9183
  41   2.0000      -0.576329       -15.6827
  42   2.0000      -0.556413       -15.1408
  43   2.0000      -0.540218       -14.7001
  44   2.0000      -0.530328       -14.4310
  45   2.0000      -0.522181       -14.2093
  46   2.0000      -0.511521       -13.9192
  47   2.0000      -0.500555       -13.6208
  48   2.0000      -0.489500       -13.3200
  49   2.0000      -0.487618       -13.2688
  50   2.0000      -0.473957       -12.8970
  51   2.0000      -0.465272       -12.6607
  52   2.0000      -0.456561       -12.4237
  53   2.0000      -0.444410       -12.0930
  54   2.0000      -0.440310       -11.9814
  55   2.0000      -0.425509       -11.5787
  56   2.0000      -0.421709       -11.4753
  57   2.0000      -0.413471       -11.2511
  58   2.0000      -0.413185       -11.2433
  59   2.0000      -0.403644       -10.9837
  60   2.0000      -0.391807       -10.6616
  61   2.0000      -0.389536       -10.5998
  62   2.0000      -0.385064       -10.4781
  63   2.0000      -0.373991       -10.1768
  64   2.0000      -0.364958        -9.9310
  65   2.0000      -0.354586        -9.6488
  66   2.0000      -0.352012        -9.5787
  67   2.0000      -0.207560        -5.6480
  68   0.0000       0.027244         0.7413
  69   0.0000       0.054124         1.4728
  70   0.0000       0.065275         1.7762
  71   0.0000       0.066954         1.8219
  72   0.0000       0.075322         2.0496

MULLIKEN ATOMIC CHARGES
-----------------------
   0 C :   -0.323817
   1 C :   -0.306070
   2 C :   -0.383596
   3 H :    0.227006
   4 H :    0.205259
   5 S :    0.976679
   6 C :    0.306697
   7 C :   -0.488276
   8 N :   -0.588463
   9 H :    0.314879
  10 H :    0.256193
  11 H :    0.095016
  12 H :    0.099641
  13 O :   -0.495938
  14 O :   -0.463298
  15 C :   -0.347984
  16 C :   -0.301912
  17 C :   -0.298180
  18 H :    0.178781
  19 H :    0.153821
  20 H :    0.170615
  21 H :    0.173926
  22 C :   -0.285134
  23 H :    0.143810
  24 H :    0.164468
  25 C :   -0.280162
  26 H :    0.171945
  27 H :    0.146176
  28 C :   -0.302998
  29 H :    0.147648
  30 H :    0.145963
  31 H :    0.152940
  32 H :    0.118749
  33 H :    0.146073
  34 H :    0.167422
  35 F :   -0.094337
  36 H :    0.151097
  37 H :    0.145362
Sum of atomic charges:   -0.0000000

LOEWDIN ATOMIC CHARGES
----------------------
   0 C :   -0.215260
   1 C :   -0.290288
   2 C :   -0.364238
   3 H :    0.157678
   4 H :    0.150638
   5 S :    0.604363
   6 C :   -0.385193
   7 C :   -0.302107
   8 N :   -0.019304
   9 H :    0.157672
  10 H :    0.169377
  11 H :    0.094390
  12 H :    0.090683
  13 O :   -0.297077
  14 O :   -0.277977
  15 C :   -0.271206
  16 C :   -0.274893
  17 C :   -0.277867
  18 H :    0.140458
  19 H :    0.142164
  20 H :    0.151931
  21 H :    0.141856
  22 C :   -0.270229
  23 H :    0.138272
  24 H :    0.135222
  25 C :   -0.272719
  26 H :    0.140507
  27 H :    0.140649
  28 C :   -0.272238
  29 H :    0.138372
  30 H :    0.136793
  31 H :    0.138797
  32 H :    0.134174
  33 H :    0.136974
  34 H :    0.140923
  35 F :    0.113398
  36 H :    0.146546
  37 H :    0.148759

  Mayer bond orders larger than 0.100000
B(  0-C ,  6-C ) :   0.9303 B(  0-C , 15-C ) :   0.9166 B(  0-C , 36-H ) :   0.9805
B(  0-C , 37-H ) :   1.0017 B(  1-C ,  2-C ) :   0.8987 B(  1-C , 17-C ) :   0.9052
B(  1-C , 20-H ) :   0.9653 B(  1-C , 21-H ) :   0.9867 B(  2-C ,  3-H ) :   0.9305
B(  2-C ,  4-H ) :   0.9478 B(  2-C ,  5-S ) :   0.9240 B(  5-S , 13-O ) :   1.7152
B(  5-S , 14-O ) :   1.8642 B(  5-S , 35-F ) :   1.1457 B(  6-C ,  7-C ) :   1.6868
B(  6-C ,  8-N ) :   1.1451 B(  7-C , 11-H ) :   1.0048 B(  7-C , 12-H ) :   1.0016
B(  8-N ,  9-H ) :   0.8285 B(  8-N , 10-H ) :   0.9149 B( 15-C , 22-C ) :   0.8592
B( 15-C , 23-H ) :   0.9771 B( 15-C , 24-H ) :   0.9883 B( 16-C , 17-C ) :   0.8696
B( 16-C , 28-C ) :   0.9120 B( 16-C , 31-H ) :   0.9641 B( 16-C , 32-H ) :   0.9802
B( 17-C , 18-H ) :   0.9881 B( 17-C , 19-H ) :   0.9801 B( 22-C , 25-C ) :   0.9108
B( 22-C , 26-H ) :   0.9865 B( 22-C , 27-H ) :   0.9821 B( 25-C , 28-C ) :   0.9173
B( 25-C , 29-H ) :   0.9907 B( 25-C , 30-H ) :   0.9953 B( 28-C , 33-H ) :   0.9835
B( 28-C , 34-H ) :   0.9890

Dispersion correction           -0.002768656
FINAL SINGLE POINT ENERGY     -1135.538707673485

DIPOLE MOMENT
-------------
                                X             Y             Z
Electronic contribution:     -8.09759     -23.38531     -13.58519
Nuclear contribution   :      8.54118      20.92489      15.31138
                        -----------------------------------------
Total Dipole Moment    :      0.44359      -2.46042       1.72619
                        -----------------------------------------
Magnitude (a.u.)       :      3.03812
Magnitude (Debye)      :      7.72228

Rotational constants in cm-1:     0.018156     0.012306     0.008278
Rotational constants in MHz :   544.309022   368.914527   248.178402

                             ****ORCA TERMINATED NORMALLY****
TOTAL RUN TIME: 0 days 0 hours 1 minutes 13 seconds 623 msec
