                         Program Version 5.0.0 -  RELEASE  -
|  1> !M062X D3Zero RIJCOSX def2-TZVP def2/J TightSCF xyzfile
|  2>
|  3> *xyzfile 0 1 D6.xyz
|  4>
|  5> %MaxCore 64000
|  6>
|  7> %pal nprocs 18
|  8> end
|  9>
| 10> %scf
| 11>   MaxIter 150
| 12> end
| 13>
| 14>
| 15>                          ****END OF INPUT****

CARTESIAN COORDINATES (ANGSTROEM)
---------------------------------
  C      5.558206   -1.992914   -6.215054
  C      4.930199   -7.375319   -2.649623
  C      3.841892   -6.951611   -3.632829
  H      3.458144   -5.954425   -3.407121
  H      2.988484   -7.643606   -3.567078
  S      4.318115   -6.915930   -5.368692
  C      4.181880   -2.589671   -6.298911
  N      3.145873   -1.768431   -6.486753
  C      4.019102   -3.864307   -6.227427
  H      4.768490   -4.591153   -5.990773
  H      3.122405   -4.333392   -6.314620
  H      3.281635   -0.777786   -6.566549
  H      2.212549   -2.134193   -6.562246
  O      5.406154   -5.899480   -5.512972
  O      3.111910   -6.445079   -6.043792
  C      6.419260   -2.542944   -5.077630
  C      5.872267   -5.002756   -2.427819
  C      6.173994   -6.485522   -2.606315
  H      6.734852   -6.613767   -3.534015
  H      6.821463   -6.831018   -1.793617
  H      4.469612   -7.406168   -1.655876
  H      5.230134   -8.398678   -2.885906
  C      5.896512   -2.169314   -3.694552
  H      7.428880   -2.143665   -5.208078
  H      6.505894   -3.627541   -5.175502
  C      6.807804   -2.623428   -2.551019
  H      4.894708   -2.589732   -3.557501
  H      5.778823   -1.081255   -3.635790
  C      7.111544   -4.122463   -2.520363
  H      7.751615   -2.071393   -2.614406
  H      6.345837   -2.326401   -1.604086
  H      5.362882   -4.828697   -1.471335
  H      5.174429   -4.702577   -3.211298
  H      7.778329   -4.329347   -1.677651
  H      7.673189   -4.402845   -3.417586
  F      4.763396   -8.239424   -5.698629
  H      6.036826   -2.198189   -7.176852
  H      5.467610   -0.907371   -6.127968

 Total Charge           Charge          ....    0
 Multiplicity           Mult            ....    1
 Number of Electrons    NEL             ....  136
 Basis Dimension        Dim             ....  634

ORBITAL ENERGIES
----------------

  NO   OCC          E(Eh)            E(eV)
   0   2.0000     -90.158619     -2453.3407
   1   2.0000     -25.376126      -690.5195
   2   2.0000     -19.637785      -534.3713
   3   2.0000     -19.633836      -534.2638
   4   2.0000     -14.720030      -400.5524
   5   2.0000     -10.599530      -288.4279
   6   2.0000     -10.564534      -287.4756
   7   2.0000     -10.536872      -286.7229
   8   2.0000     -10.526033      -286.4279
   9   2.0000     -10.525862      -286.4233
  10   2.0000     -10.521547      -286.3058
  11   2.0000     -10.518677      -286.2278
  12   2.0000     -10.513797      -286.0950
  13   2.0000     -10.511750      -286.0393
  14   2.0000     -10.511160      -286.0232
  15   2.0000     -10.421937      -283.5953
  16   2.0000      -8.483655      -230.8520
  17   2.0000      -6.408541      -174.3853
  18   2.0000      -6.403308      -174.2429
  19   2.0000      -6.402962      -174.2335
  20   2.0000      -1.541374       -41.9429
  21   2.0000      -1.226679       -33.3796
  22   2.0000      -1.126516       -30.6541
  23   2.0000      -1.008324       -27.4379
  24   2.0000      -0.941475       -25.6188
  25   2.0000      -0.905757       -24.6469
  26   2.0000      -0.876288       -23.8450
  27   2.0000      -0.852989       -23.2110
  28   2.0000      -0.823429       -22.4066
  29   2.0000      -0.797169       -21.6921
  30   2.0000      -0.770271       -20.9601
  31   2.0000      -0.737015       -20.0552
  32   2.0000      -0.708295       -19.2737
  33   2.0000      -0.699774       -19.0418
  34   2.0000      -0.693181       -18.8624
  35   2.0000      -0.669857       -18.2277
  36   2.0000      -0.639877       -17.4119
  37   2.0000      -0.629780       -17.1372
  38   2.0000      -0.608136       -16.5482
  39   2.0000      -0.577430       -15.7127
  40   2.0000      -0.571973       -15.5642
  41   2.0000      -0.563045       -15.3212
  42   2.0000      -0.545752       -14.8507
  43   2.0000      -0.540040       -14.6952
  44   2.0000      -0.534096       -14.5335
  45   2.0000      -0.518442       -14.1075
  46   2.0000      -0.513371       -13.9695
  47   2.0000      -0.487851       -13.2751
  48   2.0000      -0.485183       -13.2025
  49   2.0000      -0.478748       -13.0274
  50   2.0000      -0.477510       -12.9937
  51   2.0000      -0.455289       -12.3890
  52   2.0000      -0.440014       -11.9734
  53   2.0000      -0.432899       -11.7798
  54   2.0000      -0.421059       -11.4576
  55   2.0000      -0.415835       -11.3154
  56   2.0000      -0.409651       -11.1472
  57   2.0000      -0.403268       -10.9735
  58   2.0000      -0.398192       -10.8353
  59   2.0000      -0.392366       -10.6768
  60   2.0000      -0.386185       -10.5086
  61   2.0000      -0.380062       -10.3420
  62   2.0000      -0.375376       -10.2145
  63   2.0000      -0.362366        -9.8605
  64   2.0000      -0.358031        -9.7425
  65   2.0000      -0.352545        -9.5932
  66   2.0000      -0.332260        -9.0413
  67   2.0000      -0.218268        -5.9394
  68   0.0000       0.042755         1.1634
  69   0.0000       0.069479         1.8906
  70   0.0000       0.073281         1.9941
  71   0.0000       0.077228         2.1015
  72   0.0000       0.080358         2.1866

MULLIKEN ATOMIC CHARGES
-----------------------
   0 C :   -0.320172
   1 C :   -0.303038
   2 C :   -0.380730
   3 H :    0.222667
   4 H :    0.197759
   5 S :    0.958737
   6 C :    0.284556
   7 N :   -0.556351
   8 C :   -0.478238
   9 H :    0.143435
  10 H :    0.136288
  11 H :    0.230484
  12 H :    0.235422
  13 O :   -0.476616
  14 O :   -0.450721
  15 C :   -0.320211
  16 C :   -0.299141
  17 C :   -0.296351
  18 H :    0.178145
  19 H :    0.148404
  20 H :    0.165349
  21 H :    0.169922
  22 C :   -0.292433
  23 H :    0.137882
  24 H :    0.173873
  25 C :   -0.278728
  26 H :    0.174593
  27 H :    0.137127
  28 C :   -0.306016
  29 H :    0.145620
  30 H :    0.143578
  31 H :    0.148598
  32 H :    0.128676
  33 H :    0.143167
  34 H :    0.168268
  35 F :   -0.100734
  36 H :    0.157207
  37 H :    0.129721
Sum of atomic charges:   -0.0000000

LOEWDIN ATOMIC CHARGES
----------------------
   0 C :   -0.217692
   1 C :   -0.291657
   2 C :   -0.366649
   3 H :    0.156241
   4 H :    0.147634
   5 S :    0.594973
   6 C :   -0.378955
   7 N :   -0.025098
   8 C :   -0.302656
   9 H :    0.103620
  10 H :    0.099704
  11 H :    0.157290
  12 H :    0.166142
  13 O :   -0.289338
  14 O :   -0.267965
  15 C :   -0.260068
  16 C :   -0.274549
  17 C :   -0.278334
  18 H :    0.140925
  19 H :    0.140198
  20 H :    0.149553
  21 H :    0.140856
  22 C :   -0.272065
  23 H :    0.136609
  24 H :    0.142829
  25 C :   -0.273331
  26 H :    0.140238
  27 H :    0.136486
  28 C :   -0.272187
  29 H :    0.137414
  30 H :    0.136059
  31 H :    0.137204
  32 H :    0.138170
  33 H :    0.136173
  34 H :    0.141390
  35 F :    0.104884
  36 H :    0.151353
  37 H :    0.134600

  Mayer bond orders larger than 0.100000
B(  0-C ,  6-C ) :   0.9065 B(  0-C , 15-C ) :   0.9384 B(  0-C , 36-H ) :   0.9718
B(  0-C , 37-H ) :   1.0067 B(  1-C ,  2-C ) :   0.8997 B(  1-C , 17-C ) :   0.9064
B(  1-C , 20-H ) :   0.9679 B(  1-C , 21-H ) :   0.9872 B(  2-C ,  3-H ) :   0.9332
B(  2-C ,  4-H ) :   0.9511 B(  2-C ,  5-S ) :   0.9213 B(  5-S , 13-O ) :   1.7572
B(  5-S , 14-O ) :   1.8831 B(  5-S , 35-F ) :   1.1271 B(  6-C ,  7-N ) :   1.0501
B(  6-C ,  8-C ) :   1.8085 B(  7-N , 11-H ) :   0.9332 B(  7-N , 12-H ) :   0.9322
B(  8-C ,  9-H ) :   1.0072 B(  8-C , 10-H ) :   0.9687 B( 15-C , 22-C ) :   0.8740
B( 15-C , 23-H ) :   0.9790 B( 15-C , 24-H ) :   0.9753 B( 16-C , 17-C ) :   0.8763
B( 16-C , 28-C ) :   0.9135 B( 16-C , 31-H ) :   0.9664 B( 16-C , 32-H ) :   0.9749
B( 17-C , 18-H ) :   0.9863 B( 17-C , 19-H ) :   0.9804 B( 22-C , 25-C ) :   0.9163
B( 22-C , 26-H ) :   0.9842 B( 22-C , 27-H ) :   0.9822 B( 25-C , 28-C ) :   0.9184
B( 25-C , 29-H ) :   0.9914 B( 25-C , 30-H ) :   0.9958 B( 28-C , 33-H ) :   0.9840
B( 28-C , 34-H ) :   0.9887

Dispersion correction           -0.002742820
FINAL SINGLE POINT ENERGY     -1135.521905273935

DIPOLE MOMENT
-------------
                                X             Y             Z
Electronic contribution:     -8.84736     -21.49634     -14.03145
Nuclear contribution   :      8.67311      20.60825      15.35056
                        -----------------------------------------
Total Dipole Moment    :     -0.17425      -0.88809       1.31911
                        -----------------------------------------
Magnitude (a.u.)       :      1.59973
Magnitude (Debye)      :      4.06618

Rotational constants in cm-1:     0.017976     0.012151     0.008188
Rotational constants in MHz :   538.898457   364.286417   245.482451

                             ****ORCA TERMINATED NORMALLY****
TOTAL RUN TIME: 0 days 0 hours 1 minutes 13 seconds 301 msec
