                         Program Version 5.0.0 -  RELEASE  -
|  1> !M062X D3Zero RIJCOSX def2-SVPD def2/J TightSCF
|  2> *xyz -1 1
|  3> C         -0.05915        1.50352        3.41058
|  4> C          1.08303        0.74964        4.08571
|  5> O          2.22817        1.26348        4.01983
|  6> O          0.81003       -0.34541        4.63627
|  7> H          0.31461        2.41205        2.98658
|  8> H         -0.81316        1.73160        4.13470
|  9> H         -0.47977        0.89552        2.63708
| 10> *
| 11>
| 12> %MaxCore 64000
| 13>
| 14> %pal nprocs 4
| 15> end
| 16>
| 17> %scf
| 18>   MaxIter 150
| 19> end
| 20>
| 21>
| 22>                          ****END OF INPUT****

CARTESIAN COORDINATES (ANGSTROEM)
---------------------------------
  C     -0.059150    1.503520    3.410580
  C      1.083030    0.749640    4.085710
  O      2.228170    1.263480    4.019830
  O      0.810030   -0.345410    4.636270
  H      0.314610    2.412050    2.986580
  H     -0.813160    1.731600    4.134700
  H     -0.479770    0.895520    2.637080

 Total Charge           Charge          ....   -1
 Multiplicity           Mult            ....    1
 Number of Electrons    NEL             ....   32
 Basis Dimension        Dim             ....  110

ORBITAL ENERGIES
----------------

  NO   OCC          E(Eh)            E(eV)
   0   2.0000     -19.368160      -527.0344
   1   2.0000     -19.367441      -527.0149
   2   2.0000     -10.436215      -283.9839
   3   2.0000     -10.361563      -281.9525
   4   2.0000      -0.924996       -25.1704
   5   2.0000      -0.824828       -22.4447
   6   2.0000      -0.629660       -17.1339
   7   2.0000      -0.379763       -10.3339
   8   2.0000      -0.328933        -8.9507
   9   2.0000      -0.315614        -8.5883
  10   2.0000      -0.303058        -8.2466
  11   2.0000      -0.256177        -6.9709
  12   2.0000      -0.234937        -6.3930
  13   2.0000      -0.108525        -2.9531
  14   2.0000      -0.107758        -2.9322
  15   2.0000      -0.098736        -2.6867
  16   0.0000       0.191140         5.2012
  17   0.0000       0.222766         6.0618
  18   0.0000       0.250875         6.8267
  19   0.0000       0.259060         7.0494
  20   0.0000       0.283701         7.7199

MULLIKEN ATOMIC CHARGES
-----------------------
   0 C :    0.460809
   1 C :    0.144416
   2 O :   -0.707319
   3 O :   -0.723383
   4 H :   -0.075945
   5 H :   -0.049324
   6 H :   -0.049254
Sum of atomic charges:   -1.0000000

LOEWDIN ATOMIC CHARGES
----------------------
   0 C :    0.143000
   1 C :   -0.325111
   2 O :   -0.352059
   3 O :   -0.353383
   4 H :   -0.042130
   5 H :   -0.035595
   6 H :   -0.034722

  Mayer bond orders larger than 0.100000
B(  0-C ,  1-C ) :   1.1925 B(  0-C ,  4-H ) :   0.8745 B(  0-C ,  5-H ) :   0.8182
B(  0-C ,  6-H ) :   0.8214 B(  1-C ,  2-O ) :   1.4238 B(  1-C ,  3-O ) :   1.4265
B(  1-C ,  4-H ) :   0.2461 B(  1-C ,  5-H ) :   0.1653 B(  1-C ,  6-H ) :   0.1617

Dispersion correction           -0.000017245
FINAL SINGLE POINT ENERGY      -228.267994723796

DIPOLE MOMENT
-------------
                                X             Y             Z
Electronic contribution:      2.68119      -1.76117       1.57274
Nuclear contribution   :     -3.75920       2.48542      -2.19871
                        -----------------------------------------
Total Dipole Moment    :     -1.07801       0.72425      -0.62597
                        -----------------------------------------
Magnitude (a.u.)       :      1.44170
Magnitude (Debye)      :      3.66450

Rotational constants in cm-1:     0.392838     0.334689     0.186890
Rotational constants in MHz : 11776.984954 10033.729666  5602.815156

                             ****ORCA TERMINATED NORMALLY****
TOTAL RUN TIME: 0 days 0 hours 0 minutes 8 seconds 429 msec
