                         Program Version 5.0.0 -  RELEASE  -
|  1> !M062X D3Zero RIJCOSX def2-SVPD def2/J TightSCF
|  2> *xyz 1 1
|  3> C          4.60295       -2.44010        2.63478
|  4> C          3.86085       -1.59157        3.62289
|  5> N          2.75650       -2.04616        4.16633
|  6> N          4.25433       -0.36291        3.86046
|  7> H          3.56526        0.31099        4.16898
|  8> H          5.05429       -0.01606        3.33784
|  9> H          2.43970       -2.97389        3.89740
| 10> H          2.06687       -1.41253        4.54981
| 11> H          5.47239       -1.91604        2.29664
| 12> H          3.96816       -2.65362        1.80030
| 13> H          4.89801       -3.35632        3.10209
| 14> *
| 15>
| 16> %MaxCore 64000
| 17>
| 18> %pal nprocs 4
| 19> end
| 20>
| 21> %scf
| 22>   MaxIter 150
| 23> end
| 24>
| 25>
| 26>                          ****END OF INPUT****

CARTESIAN COORDINATES (ANGSTROEM)
---------------------------------
  C      4.602950   -2.440100    2.634780
  C      3.860850   -1.591570    3.622890
  N      2.756500   -2.046160    4.166330
  N      4.254330   -0.362910    3.860460
  H      3.565260    0.310990    4.168980
  H      5.054290   -0.016060    3.337840
  H      2.439700   -2.973890    3.897400
  H      2.066870   -1.412530    4.549810
  H      5.472390   -1.916040    2.296640
  H      3.968160   -2.653620    1.800300
  H      4.898010   -3.356320    3.102090

 Total Charge           Charge          ....    1
 Multiplicity           Mult            ....    1
 Number of Electrons    NEL             ....   32
 Basis Dimension        Dim             ....  136

ORBITAL ENERGIES
----------------

  NO   OCC          E(Eh)            E(eV)
   0   2.0000     -15.016073      -408.6081
   1   2.0000     -15.015228      -408.5851
   2   2.0000     -10.889246      -296.3114
   3   2.0000     -10.753707      -292.6233
   4   2.0000      -1.317546       -35.8522
   5   2.0000      -1.211473       -32.9659
   6   2.0000      -1.045855       -28.4592
   7   2.0000      -0.924995       -25.1704
   8   2.0000      -0.856140       -23.2967
   9   2.0000      -0.851339       -23.1661
  10   2.0000      -0.774840       -21.0845
  11   2.0000      -0.741282       -20.1713
  12   2.0000      -0.687038       -18.6953
  13   2.0000      -0.672679       -18.3045
  14   2.0000      -0.643832       -17.5196
  15   2.0000      -0.565760       -15.3951
  16   0.0000      -0.185524        -5.0484
  17   0.0000      -0.140859        -3.8330
  18   0.0000      -0.097947        -2.6653
  19   0.0000      -0.095053        -2.5865
  20   0.0000      -0.071508        -1.9458

MULLIKEN ATOMIC CHARGES
-----------------------
   0 C :    0.533394
   1 C :    0.289717
   2 N :    0.028145
   3 N :   -0.064108
   4 H :   -0.034926
   5 H :    0.095647
   6 H :    0.067026
   7 H :   -0.111573
   8 H :    0.064500
   9 H :    0.045728
  10 H :    0.086449
Sum of atomic charges:    1.0000000

LOEWDIN ATOMIC CHARGES
----------------------
   0 C :    0.240110
   1 C :   -0.064211
   2 N :    0.270560
   3 N :    0.273369
   4 H :    0.052978
   5 H :    0.055282
   6 H :    0.061092
   7 H :    0.052567
   8 H :    0.007621
   9 H :    0.027058
  10 H :    0.023574

  Mayer bond orders larger than 0.100000
B(  0-C ,  1-C ) :   1.3265 B(  0-C ,  8-H ) :   0.7920 B(  0-C ,  9-H ) :   0.8454
B(  0-C , 10-H ) :   0.7007 B(  1-C ,  2-N ) :   1.1300 B(  1-C ,  3-N ) :   1.0451
B(  1-C ,  4-H ) :  -0.1386 B(  1-C ,  7-H ) :  -0.1508 B(  1-C ,  8-H ) :   0.2426
B(  1-C ,  9-H ) :   0.1231 B(  1-C , 10-H ) :   0.2354 B(  2-N ,  3-N ) :   0.1645
B(  2-N ,  6-H ) :   1.0452 B(  2-N ,  7-H ) :   1.2496 B(  3-N ,  4-H ) :   1.2260
B(  3-N ,  5-H ) :   1.0023 B(  4-H ,  5-H ) :  -0.1457 B(  6-H ,  7-H ) :  -0.1577

Dispersion correction           -0.000085660
FINAL SINGLE POINT ENERGY      -189.485255443609

DIPOLE MOMENT
-------------
                                X             Y             Z
Electronic contribution:     -0.94862       1.14100       1.60198
Nuclear contribution   :      0.47466      -0.79212      -1.71537
                        -----------------------------------------
Total Dipole Moment    :     -0.47396       0.34889      -0.11339
                        -----------------------------------------
Magnitude (a.u.)       :      0.59935
Magnitude (Debye)      :      1.52342

Rotational constants in cm-1:     0.335502     0.299428     0.163704
Rotational constants in MHz : 10058.111638  8976.630214  4907.722182

                             ****ORCA TERMINATED NORMALLY****
TOTAL RUN TIME: 0 days 0 hours 0 minutes 11 seconds 582 msec
