                         Program Version 5.0.0 -  RELEASE  -
|  1> !M062X D3Zero RIJCOSX def2-SVPD def2/J TightSCF
|  2> *xyz 0 1
|  3> C         -0.05915        1.50352        3.41058
|  4> C          1.08303        0.74964        4.08571
|  5> F          2.22817        1.26348        4.01983
|  6> O          0.81003       -0.34541        4.63627
|  7> H          0.31461        2.41205        2.98658
|  8> H         -0.81316        1.73160        4.13470
|  9> H         -0.47977        0.89552        2.63708
| 10> *
| 11>
| 12> %MaxCore 64000
| 13>
| 14> %pal nprocs 4
| 15> end
| 16>
| 17> %scf
| 18>   MaxIter 150
| 19> end
| 20>
| 21>
| 22>                          ****END OF INPUT****

CARTESIAN COORDINATES (ANGSTROEM)
---------------------------------
  C     -0.059150    1.503520    3.410580
  C      1.083030    0.749640    4.085710
  F      2.228170    1.263480    4.019830
  O      0.810030   -0.345410    4.636270
  H      0.314610    2.412050    2.986580
  H     -0.813160    1.731600    4.134700
  H     -0.479770    0.895520    2.637080

 Total Charge           Charge          ....    0
 Multiplicity           Mult            ....    1
 Number of Electrons    NEL             ....   32
 Basis Dimension        Dim             ....  110

ORBITAL ENERGIES
----------------

  NO   OCC          E(Eh)            E(eV)
   0   2.0000     -25.331504      -689.3053
   1   2.0000     -19.651392      -534.7416
   2   2.0000     -10.744758      -292.3797
   3   2.0000     -10.579994      -287.8963
   4   2.0000      -1.448145       -39.4060
   5   2.0000      -1.146424       -31.1958
   6   2.0000      -0.865949       -23.5637
   7   2.0000      -0.757332       -20.6081
   8   2.0000      -0.646850       -17.6017
   9   2.0000      -0.643252       -17.5038
  10   2.0000      -0.589768       -16.0484
  11   2.0000      -0.518167       -14.1000
  12   2.0000      -0.504488       -13.7278
  13   2.0000      -0.483998       -13.1702
  14   2.0000      -0.425310       -11.5733
  15   2.0000      -0.376287       -10.2393
  16   0.0000       0.010903         0.2967
  17   0.0000       0.026464         0.7201
  18   0.0000       0.065573         1.7843
  19   0.0000       0.099034         2.6949
  20   0.0000       0.102126         2.7790

MULLIKEN ATOMIC CHARGES
-----------------------
   0 C :    0.316944
   1 C :    0.469833
   2 F :   -0.378428
   3 O :   -0.524341
   4 H :    0.003522
   5 H :    0.055173
   6 H :    0.057297
Sum of atomic charges:    0.0000000

LOEWDIN ATOMIC CHARGES
----------------------
   0 C :    0.217044
   1 C :   -0.013986
   2 F :   -0.054634
   3 O :   -0.149287
   4 H :   -0.011453
   5 H :    0.005926
   6 H :    0.006390

  Mayer bond orders larger than 0.100000
B(  0-C ,  1-C ) :   1.2616 B(  0-C ,  4-H ) :   0.8906 B(  0-C ,  5-H ) :   0.8175
B(  0-C ,  6-H ) :   0.8199 B(  1-C ,  2-F ) :   0.7454 B(  1-C ,  3-O ) :   1.7757
B(  1-C ,  4-H ) :   0.1524 B(  1-C ,  5-H ) :   0.1370 B(  1-C ,  6-H ) :   0.1332

Dispersion correction           -0.000021015
FINAL SINGLE POINT ENERGY      -252.800608984556

DIPOLE MOMENT
-------------
                                X             Y             Z
Electronic contribution:      4.65688      -1.02173       1.56080
Nuclear contribution   :     -5.01294       1.99942      -2.18092
                        -----------------------------------------
Total Dipole Moment    :     -0.35606       0.97769      -0.62012
                        -----------------------------------------
Magnitude (a.u.)       :      1.21128
Magnitude (Debye)      :      3.07883

Rotational constants in cm-1:     0.368501     0.321908     0.177384
Rotational constants in MHz : 11047.396090  9650.552559  5317.833075

                             ****ORCA TERMINATED NORMALLY****
TOTAL RUN TIME: 0 days 0 hours 0 minutes 8 seconds 388 msec
