                         Program Version 5.0.0 -  RELEASE  -
|  1> !M062X D3Zero RIJCOSX def2-SVPD def2/J TightSCF
|  2> *xyz 0 1
|  3> C          4.60295       -2.44010        2.63478
|  4> C          3.86085       -1.59157        3.62289
|  5> C          2.75650       -2.04616        4.16633
|  6> N          4.25433       -0.36291        3.86046
|  7> H          3.56526        0.31099        4.16898
|  8> H          5.05429       -0.01606        3.33784
|  9> H          2.43970       -2.97389        3.89740
| 10> H          2.06687       -1.41253        4.54981
| 11> H          5.47239       -1.91604        2.29664
| 12> H          3.96816       -2.65362        1.80030
| 13> H          4.89801       -3.35632        3.10209
| 14> *
| 15>
| 16> %MaxCore 64000
| 17>
| 18> %pal nprocs 4
| 19> end
| 20>
| 21> %scf
| 22>   MaxIter 150
| 23> end
| 24>
| 25>
| 26>                          ****END OF INPUT****

CARTESIAN COORDINATES (ANGSTROEM)
---------------------------------
  C      4.602950   -2.440100    2.634780
  C      3.860850   -1.591570    3.622890
  C      2.756500   -2.046160    4.166330
  N      4.254330   -0.362910    3.860460
  H      3.565260    0.310990    4.168980
  H      5.054290   -0.016060    3.337840
  H      2.439700   -2.973890    3.897400
  H      2.066870   -1.412530    4.549810
  H      5.472390   -1.916040    2.296640
  H      3.968160   -2.653620    1.800300
  H      4.898010   -3.356320    3.102090

 Total Charge           Charge          ....    0
 Multiplicity           Mult            ....    1
 Number of Electrons    NEL             ....   32
 Basis Dimension        Dim             ....  136

ORBITAL ENERGIES
----------------

  NO   OCC          E(Eh)            E(eV)
   0   2.0000     -14.763120      -401.7249
   1   2.0000     -10.572034      -287.6797
   2   2.0000     -10.543350      -286.8991
   3   2.0000     -10.480477      -285.1883
   4   2.0000      -1.031613       -28.0716
   5   2.0000      -0.846802       -23.0427
   6   2.0000      -0.775477       -21.1018
   7   2.0000      -0.646474       -17.5914
   8   2.0000      -0.600299       -16.3350
   9   2.0000      -0.544402       -14.8139
  10   2.0000      -0.502419       -13.6715
  11   2.0000      -0.464757       -12.6467
  12   2.0000      -0.453479       -12.3398
  13   2.0000      -0.426331       -11.6011
  14   2.0000      -0.396696       -10.7946
  15   2.0000      -0.244017        -6.6400
  16   0.0000       0.037564         1.0222
  17   0.0000       0.072331         1.9682
  18   0.0000       0.074514         2.0276
  19   0.0000       0.077602         2.1117
  20   0.0000       0.111188         3.0256

MULLIKEN ATOMIC CHARGES
-----------------------
   0 C :    0.775724
   1 C :   -0.442810
   2 C :    0.278233
   3 N :    0.040674
   4 H :   -0.062823
   5 H :   -0.044501
   6 H :   -0.110867
   7 H :   -0.389822
   8 H :   -0.076677
   9 H :   -0.025110
  10 H :    0.057978
Sum of atomic charges:    0.0000000

LOEWDIN ATOMIC CHARGES
----------------------
   0 C :    0.171006
   1 C :   -0.294979
   2 C :    0.160150
   3 N :    0.151583
   4 H :    0.010791
   5 H :   -0.000525
   6 H :   -0.077034
   7 H :   -0.085076
   8 H :   -0.026786
   9 H :   -0.003882
  10 H :   -0.005248

  Mayer bond orders larger than 0.100000
B(  0-C ,  1-C ) :   1.1699 B(  0-C ,  8-H ) :   0.7115 B(  0-C ,  9-H ) :   0.8197
B(  0-C , 10-H ) :   0.6865 B(  1-C ,  2-C ) :   1.9118 B(  1-C ,  3-N ) :   1.0002
B(  1-C ,  6-H ) :   0.1558 B(  1-C ,  7-H ) :   0.1364 B(  1-C ,  8-H ) :   0.3044
B(  1-C ,  9-H ) :   0.1400 B(  1-C , 10-H ) :   0.2481 B(  2-C ,  3-N ) :   0.2485
B(  2-C ,  6-H ) :   0.7780 B(  2-C ,  7-H ) :   0.8933 B(  3-N ,  4-H ) :   1.1386
B(  3-N ,  5-H ) :   1.0382 B(  4-H ,  5-H ) :  -0.1313

Dispersion correction           -0.000084526
FINAL SINGLE POINT ENERGY      -173.032728105950

DIPOLE MOMENT
-------------
                                X             Y             Z
Electronic contribution:      0.12194       1.44451       1.07034
Nuclear contribution   :      0.22927      -0.89318      -1.58153
                        -----------------------------------------
Total Dipole Moment    :      0.35121       0.55132      -0.51118
                        -----------------------------------------
Magnitude (a.u.)       :      0.82983
Magnitude (Debye)      :      2.10925

Rotational constants in cm-1:     0.356805     0.302813     0.169682
Rotational constants in MHz : 10696.748191  9078.116910  5086.926242

                             ****ORCA TERMINATED NORMALLY****
TOTAL RUN TIME: 0 days 0 hours 0 minutes 12 seconds 71 msec
