                         Program Version 5.0.0 -  RELEASE  -
|  1> !M062X D3Zero RIJCOSX def2-SVPD def2/J TightSCF
|  2> *xyz 0 1
|  3> C         -0.05915        1.50352        3.41058
|  4> C          1.08303        0.74964        4.08571
|  5> O          2.22817        1.26348        4.01983
|  6> F          0.81003       -0.34541        4.63627
|  7> H          0.31461        2.41205        2.98658
|  8> H         -0.81316        1.73160        4.13470
|  9> H         -0.47977        0.89552        2.63708
| 10> *
| 11>
| 12> %MaxCore 64000
| 13>
| 14> %pal nprocs 4
| 15> end
| 16>
| 17> %scf
| 18>   MaxIter 150
| 19> end
| 20>
| 21>
| 22>                          ****END OF INPUT****

CARTESIAN COORDINATES (ANGSTROEM)
---------------------------------
  C     -0.059150    1.503520    3.410580
  C      1.083030    0.749640    4.085710
  O      2.228170    1.263480    4.019830
  F      0.810030   -0.345410    4.636270
  H      0.314610    2.412050    2.986580
  H     -0.813160    1.731600    4.134700
  H     -0.479770    0.895520    2.637080

 Total Charge           Charge          ....    0
 Multiplicity           Mult            ....    1
 Number of Electrons    NEL             ....   32
 Basis Dimension        Dim             ....  110

ORBITAL ENERGIES
----------------

  NO   OCC          E(Eh)            E(eV)
   0   2.0000     -25.332290      -689.3267
   1   2.0000     -19.651270      -534.7382
   2   2.0000     -10.744517      -292.3732
   3   2.0000     -10.579725      -287.8890
   4   2.0000      -1.449022       -39.4299
   5   2.0000      -1.145972       -31.1835
   6   2.0000      -0.865766       -23.5587
   7   2.0000      -0.757770       -20.6200
   8   2.0000      -0.648095       -17.6356
   9   2.0000      -0.643169       -17.5015
  10   2.0000      -0.589527       -16.0419
  11   2.0000      -0.517110       -14.0713
  12   2.0000      -0.504891       -13.7388
  13   2.0000      -0.483430       -13.1548
  14   2.0000      -0.427669       -11.6375
  15   2.0000      -0.374643       -10.1945
  16   0.0000       0.014618         0.3978
  17   0.0000       0.026562         0.7228
  18   0.0000       0.065377         1.7790
  19   0.0000       0.096307         2.6207
  20   0.0000       0.103741         2.8229

MULLIKEN ATOMIC CHARGES
-----------------------
   0 C :    0.332874
   1 C :    0.480220
   2 O :   -0.507458
   3 F :   -0.396637
   4 H :   -0.019941
   5 H :    0.054698
   6 H :    0.056245
Sum of atomic charges:   -0.0000000

LOEWDIN ATOMIC CHARGES
----------------------
   0 C :    0.216096
   1 C :   -0.015802
   2 O :   -0.149718
   3 F :   -0.051868
   4 H :    0.000944
   5 H :   -0.000326
   6 H :    0.000675

  Mayer bond orders larger than 0.100000
B(  0-C ,  1-C ) :   1.2442 B(  0-C ,  4-H ) :   0.9048 B(  0-C ,  5-H ) :   0.8148
B(  0-C ,  6-H ) :   0.8163 B(  1-C ,  2-O ) :   1.7947 B(  1-C ,  3-F ) :   0.7145
B(  1-C ,  4-H ) :   0.2039 B(  1-C ,  5-H ) :   0.1218 B(  1-C ,  6-H ) :   0.1201

Dispersion correction           -0.000020927
FINAL SINGLE POINT ENERGY      -252.800708590534

DIPOLE MOMENT
-------------
                                X             Y             Z
Electronic contribution:      2.35880      -3.63012       2.56042
Nuclear contribution   :     -3.54758       3.66189      -2.81789
                        -----------------------------------------
Total Dipole Moment    :     -1.18878       0.03177      -0.25747
                        -----------------------------------------
Magnitude (a.u.)       :      1.21676
Magnitude (Debye)      :      3.09275

Rotational constants in cm-1:     0.369278     0.321254     0.177365
Rotational constants in MHz : 11070.686557  9630.951649  5317.254673

                             ****ORCA TERMINATED NORMALLY****
TOTAL RUN TIME: 0 days 0 hours 0 minutes 8 seconds 269 msec
