                         Program Version 5.0.0 -  RELEASE  -
|  1> !M062X D3Zero RIJCOSX def2-SVPD def2/J TightSCF
|  2> *xyz 0 1
|  3> C          4.60295       -2.44010        2.63478
|  4> C          3.86085       -1.59157        3.62289
|  5> N          2.75650       -2.04616        4.16633
|  6> C          4.25433       -0.36291        3.86046
|  7> H          3.56526        0.31099        4.16898
|  8> H          5.05429       -0.01606        3.33784
|  9> H          2.43970       -2.97389        3.89740
| 10> H          2.06687       -1.41253        4.54981
| 11> H          5.47239       -1.91604        2.29664
| 12> H          3.96816       -2.65362        1.80030
| 13> H          4.89801       -3.35632        3.10209
| 14> *
| 15>
| 16> %MaxCore 64000
| 17>
| 18> %pal nprocs 4
| 19> end
| 20>
| 21> %scf
| 22>   MaxIter 150
| 23> end
| 24>
| 25>
| 26>                          ****END OF INPUT****

CARTESIAN COORDINATES (ANGSTROEM)
---------------------------------
  C      4.602950   -2.440100    2.634780
  C      3.860850   -1.591570    3.622890
  N      2.756500   -2.046160    4.166330
  C      4.254330   -0.362910    3.860460
  H      3.565260    0.310990    4.168980
  H      5.054290   -0.016060    3.337840
  H      2.439700   -2.973890    3.897400
  H      2.066870   -1.412530    4.549810
  H      5.472390   -1.916040    2.296640
  H      3.968160   -2.653620    1.800300
  H      4.898010   -3.356320    3.102090

 Total Charge           Charge          ....    0
 Multiplicity           Mult            ....    1
 Number of Electrons    NEL             ....   32
 Basis Dimension        Dim             ....  136

ORBITAL ENERGIES
----------------

  NO   OCC          E(Eh)            E(eV)
   0   2.0000     -14.763142      -401.7255
   1   2.0000     -10.573417      -287.7173
   2   2.0000     -10.543136      -286.8933
   3   2.0000     -10.482544      -285.2445
   4   2.0000      -1.030888       -28.0519
   5   2.0000      -0.847527       -23.0624
   6   2.0000      -0.776603       -21.1324
   7   2.0000      -0.649625       -17.6772
   8   2.0000      -0.598942       -16.2980
   9   2.0000      -0.543576       -14.7915
  10   2.0000      -0.504164       -13.7190
  11   2.0000      -0.463716       -12.6183
  12   2.0000      -0.455531       -12.3956
  13   2.0000      -0.424752       -11.5581
  14   2.0000      -0.394748       -10.7416
  15   2.0000      -0.246891        -6.7183
  16   0.0000       0.037495         1.0203
  17   0.0000       0.073353         1.9960
  18   0.0000       0.076662         2.0861
  19   0.0000       0.078908         2.1472
  20   0.0000       0.113695         3.0938

MULLIKEN ATOMIC CHARGES
-----------------------
   0 C :    0.742694
   1 C :   -0.540678
   2 N :    0.145053
   3 C :    0.329482
   4 H :   -0.389580
   5 H :   -0.063478
   6 H :   -0.102195
   7 H :   -0.144521
   8 H :    0.047412
   9 H :   -0.022694
  10 H :   -0.001496
Sum of atomic charges:   -0.0000000

LOEWDIN ATOMIC CHARGES
----------------------
   0 C :    0.169010
   1 C :   -0.299874
   2 N :    0.151218
   3 C :    0.165996
   4 H :   -0.083480
   5 H :   -0.083889
   6 H :    0.005323
   7 H :    0.010304
   8 H :   -0.013829
   9 H :   -0.006876
  10 H :   -0.013902

  Mayer bond orders larger than 0.100000
B(  0-C ,  1-C ) :   1.3408 B(  0-C ,  8-H ) :   0.7920 B(  0-C ,  9-H ) :   0.7310
B(  0-C , 10-H ) :   0.6513 B(  1-C ,  2-N ) :   1.0972 B(  1-C ,  3-C ) :   1.9263
B(  1-C ,  4-H ) :   0.1713 B(  1-C ,  8-H ) :   0.2455 B(  1-C ,  9-H ) :   0.2588
B(  1-C , 10-H ) :   0.2903 B(  2-N ,  3-C ) :   0.2427 B(  2-N ,  6-H ) :   1.1017
B(  2-N ,  7-H ) :   1.1738 B(  3-C ,  4-H ) :   0.8314 B(  3-C ,  5-H ) :   0.8718
B(  6-H ,  7-H ) :  -0.1375

Dispersion correction           -0.000084520
FINAL SINGLE POINT ENERGY      -173.033770895637

DIPOLE MOMENT
-------------
                                X             Y             Z
Electronic contribution:     -1.18022      -0.00397       1.36721
Nuclear contribution   :      0.56519      -0.51568      -1.65012
                        -----------------------------------------
Total Dipole Moment    :     -0.61504      -0.51965      -0.28291
                        -----------------------------------------
Magnitude (a.u.)       :      0.85343
Magnitude (Debye)      :      2.16926

Rotational constants in cm-1:     0.356673     0.303029     0.169717
Rotational constants in MHz : 10692.789749  9084.577259  5087.998414

                             ****ORCA TERMINATED NORMALLY****
TOTAL RUN TIME: 0 days 0 hours 0 minutes 12 seconds 135 msec
