                         Program Version 5.0.0 -  RELEASE  -
|  1> !M062X D3Zero RIJCOSX def2-SVPD def2/J TightSCF xyzfile
|  2>
|  3> *xyzfile 0 1 D1.xyz
|  4>
|  5> %MaxCore 64000
|  6>
|  7> %pal nprocs 4
|  8> end
|  9>
| 10> %scf
| 11>   MaxIter 150
| 12> end
| 13>
| 14>
| 15>                          ****END OF INPUT****

CARTESIAN COORDINATES (ANGSTROEM)
---------------------------------
  C      4.602954   -2.440100    2.634780
  C     -0.914947    0.615112    2.505538
  C     -0.059146    1.503524    3.410578
  H      0.365364    2.344315    2.861161
  H     -0.692261    1.920207    4.198985
  C      1.083027    0.749640    4.085705
  C      3.860851   -1.591565    3.622893
  C      2.756502   -2.046159    4.166333
  N      4.254325   -0.362905    3.860455
  H      3.565256    0.310994    4.168983
  H      5.054292   -0.016059    3.337838
  H      2.439696   -2.973894    3.897395
  H      2.066869   -1.412532    4.549813
  F      2.228167    1.263475    4.019826
  O      0.810034   -0.345411    4.636269
  C      3.744685   -2.580557    1.361882
  C      0.772139    0.636882    0.562129
  C     -0.130740   -0.193985    1.470763
  H     -0.840563   -0.760165    0.856377
  H      0.466691   -0.938942    2.006959
  H     -1.647961    1.245963    1.991076
  H     -1.478180   -0.081046    3.130424
  C      3.203721   -1.256004    0.826211
  H      2.898939   -3.239289    1.583074
  H      4.334962   -3.095523    0.600188
  C      2.107815   -1.442385   -0.216865
  H      2.786775   -0.672760    1.650711
  H      4.021008   -0.652993    0.414046
  C      1.390662   -0.145912   -0.602422
  H      1.372179   -2.152184    0.176151
  H      2.523302   -1.906787   -1.117115
  H      1.561361    1.100094    1.161831
  H      0.195516    1.468325    0.142758
  H      0.602893   -0.398214   -1.319716
  H      2.087247    0.508272   -1.137335
  H      5.561557   -1.971347    2.407084
  H      4.810498   -3.422552    3.063099

 Total Charge           Charge          ....    0
 Multiplicity           Mult            ....    1
 Number of Electrons    NEL             ....  118
 Basis Dimension        Dim             ....  482

ORBITAL ENERGIES
----------------

  NO   OCC          E(Eh)            E(eV)
   0   2.0000     -25.354889      -689.9416
   1   2.0000     -19.662402      -535.0412
   2   2.0000     -14.740137      -401.0995
   3   2.0000     -10.754296      -292.6393
   4   2.0000     -10.589192      -288.1466
   5   2.0000     -10.567713      -287.5621
   6   2.0000     -10.552259      -287.1416
   7   2.0000     -10.551938      -287.1328
   8   2.0000     -10.549890      -287.0771
   9   2.0000     -10.546901      -286.9958
  10   2.0000     -10.540622      -286.8249
  11   2.0000     -10.539243      -286.7874
  12   2.0000     -10.538526      -286.7679
  13   2.0000     -10.536737      -286.7192
  14   2.0000     -10.449980      -284.3584
  15   2.0000      -1.473418       -40.0937
  16   2.0000      -1.163773       -31.6679
  17   2.0000      -1.014927       -27.6176
  18   2.0000      -0.925245       -25.1772
  19   2.0000      -0.898862       -24.4593
  20   2.0000      -0.872883       -23.7524
  21   2.0000      -0.833944       -22.6928
  22   2.0000      -0.811400       -22.0793
  23   2.0000      -0.780244       -21.2315
  24   2.0000      -0.765443       -20.8288
  25   2.0000      -0.730604       -19.8808
  26   2.0000      -0.698444       -19.0056
  27   2.0000      -0.672937       -18.3115
  28   2.0000      -0.667614       -18.1667
  29   2.0000      -0.658133       -17.9087
  30   2.0000      -0.633075       -17.2268
  31   2.0000      -0.617677       -16.8079
  32   2.0000      -0.604337       -16.4448
  33   2.0000      -0.574012       -15.6197
  34   2.0000      -0.556212       -15.1353
  35   2.0000      -0.553562       -15.0632
  36   2.0000      -0.542276       -14.7561
  37   2.0000      -0.523002       -14.2316
  38   2.0000      -0.519216       -14.1286
  39   2.0000      -0.497375       -13.5343
  40   2.0000      -0.493245       -13.4219
  41   2.0000      -0.481288       -13.0965
  42   2.0000      -0.471394       -12.8273
  43   2.0000      -0.459162       -12.4944
  44   2.0000      -0.453153       -12.3309
  45   2.0000      -0.438224       -11.9247
  46   2.0000      -0.434944       -11.8354
  47   2.0000      -0.429268       -11.6810
  48   2.0000      -0.417735       -11.3671
  49   2.0000      -0.407463       -11.0876
  50   2.0000      -0.405630       -11.0378
  51   2.0000      -0.397317       -10.8115
  52   2.0000      -0.386391       -10.5142
  53   2.0000      -0.381832       -10.3902
  54   2.0000      -0.371861       -10.1189
  55   2.0000      -0.370729       -10.0880
  56   2.0000      -0.363491        -9.8911
  57   2.0000      -0.344950        -9.3866
  58   2.0000      -0.223971        -6.0946
  59   0.0000      -0.006993        -0.1903
  60   0.0000       0.024959         0.6792
  61   0.0000       0.044007         1.1975
  62   0.0000       0.046496         1.2652
  63   0.0000       0.049488         1.3466

MULLIKEN ATOMIC CHARGES
-----------------------
   0 C :    0.909975
   1 C :    0.539573
   2 C :    0.173999
   3 H :    0.227030
   4 H :   -0.185522
   5 C :    0.673596
   6 C :   -0.526816
   7 C :    1.056073
   8 N :    0.376242
   9 H :   -0.401508
  10 H :    0.096232
  11 H :   -0.228935
  12 H :   -0.992985
  13 F :   -0.481875
  14 O :   -0.580170
  15 C :    0.106731
  16 C :   -0.189639
  17 C :   -0.149144
  18 H :   -0.198799
  19 H :   -0.044196
  20 H :   -0.076050
  21 H :    0.064679
  22 C :    0.120132
  23 H :    0.084859
  24 H :   -0.300831
  25 C :    0.007825
  26 H :   -0.335647
  27 H :   -0.002972
  28 C :    0.857703
  29 H :    0.188114
  30 H :   -0.384426
  31 H :    0.199164
  32 H :   -0.595256
  33 H :    0.078636
  34 H :   -0.027235
  35 H :   -0.056071
  36 H :   -0.002486
Sum of atomic charges:    0.0000000

LOEWDIN ATOMIC CHARGES
----------------------
   0 C :    0.019614
   1 C :   -0.012085
   2 C :    0.058044
   3 H :    0.024459
   4 H :    0.044400
   5 C :    0.065171
   6 C :   -0.261605
   7 C :    0.208276
   8 N :    0.188242
   9 H :   -0.066259
  10 H :    0.005309
  11 H :   -0.069507
  12 H :   -0.170607
  13 F :   -0.046805
  14 O :   -0.120691
  15 C :   -0.018437
  16 C :   -0.038436
  17 C :   -0.026975
  18 H :    0.033450
  19 H :    0.012448
  20 H :    0.029548
  21 H :    0.031079
  22 C :   -0.033435
  23 H :    0.018730
  24 H :    0.020785
  25 C :   -0.037707
  26 H :   -0.019125
  27 H :    0.033196
  28 C :   -0.029304
  29 H :    0.017724
  30 H :    0.024879
  31 H :    0.006071
  32 H :    0.023601
  33 H :    0.022523
  34 H :    0.023195
  35 H :    0.012838
  36 H :    0.027397

  Mayer bond orders larger than 0.100000
B(  0-C ,  6-C ) :   1.1767 B(  0-C , 15-C ) :   1.0575 B(  0-C , 35-H ) :   0.4644
B(  0-C , 36-H ) :   0.6350 B(  1-C ,  2-C ) :   1.1813 B(  1-C ,  4-H ) :   0.1567
B(  1-C , 17-C ) :   1.2467 B(  1-C , 20-H ) :   0.7644 B(  1-C , 21-H ) :   0.6371
B(  1-C , 28-C ) :   0.1324 B(  2-C ,  3-H ) :   0.7964 B(  2-C ,  4-H ) :   0.7205
B(  2-C ,  5-C ) :   1.1960 B(  2-C , 17-C ) :   0.1256 B(  2-C , 20-H ) :   0.1454
B(  3-H ,  4-H ) :  -0.1163 B(  3-H ,  5-C ) :   0.1450 B(  4-H ,  5-C ) :   0.2656
B(  5-C , 13-F ) :   0.5388 B(  5-C , 14-O ) :   1.6904 B(  6-C ,  7-C ) :   1.9967
B(  6-C ,  8-N ) :   0.8392 B(  6-C , 10-H ) :   0.1500 B(  6-C , 12-H ) :   0.3851
B(  6-C , 15-C ) :   0.1505 B(  6-C , 35-H ) :   0.4075 B(  6-C , 36-H ) :   0.2551
B(  7-C ,  8-N ) :   0.4294 B(  7-C , 11-H ) :   0.6662 B(  7-C , 12-H ) :  -0.1225
B(  8-N ,  9-H ) :   1.0480 B(  8-N , 10-H ) :   0.9176 B(  8-N , 11-H ) :   0.3071
B(  8-N , 12-H ) :  -0.2826 B(  9-H , 10-H ) :  -0.2536 B( 11-H , 12-H ) :  -0.2579
B( 12-H , 14-O ) :   0.1925 B( 15-C , 22-C ) :   1.1403 B( 15-C , 23-H ) :   0.8441
B( 15-C , 24-H ) :   0.9720 B( 15-C , 26-H ) :   0.1342 B( 15-C , 27-H ) :   0.1034
B( 15-C , 35-H ) :   0.2116 B( 15-C , 36-H ) :   0.1492 B( 16-C , 17-C ) :   1.2595
B( 16-C , 18-H ) :   0.1869 B( 16-C , 19-H ) :   0.1312 B( 16-C , 25-C ) :   0.1643
B( 16-C , 28-C ) :   1.0664 B( 16-C , 31-H ) :   0.7911 B( 16-C , 32-H ) :   1.2248
B( 16-C , 33-H ) :   0.1372 B( 16-C , 34-H ) :   0.2845 B( 17-C , 18-H ) :   0.8860
B( 17-C , 19-H ) :   0.9587 B( 17-C , 20-H ) :   0.2038 B( 17-C , 21-H ) :   0.2453
B( 17-C , 25-C ) :   0.1101 B( 17-C , 31-H ) :   0.1016 B( 17-C , 32-H ) :   0.1060
B( 20-H , 21-H ) :  -0.1651 B( 22-C , 23-H ) :   0.1334 B( 22-C , 24-H ) :   0.2627
B( 22-C , 25-C ) :   1.1710 B( 22-C , 26-H ) :   1.0882 B( 22-C , 27-H ) :   0.6996
B( 22-C , 29-H ) :   0.1276 B( 22-C , 30-H ) :   0.2525 B( 23-H , 24-H ) :  -0.1096
B( 23-H , 30-H ) :  -0.1054 B( 25-C , 27-H ) :   0.1059 B( 25-C , 28-C ) :   1.1300
B( 25-C , 29-H ) :   0.7933 B( 25-C , 30-H ) :   1.0218 B( 25-C , 33-H ) :   0.2253
B( 25-C , 34-H ) :   0.1462 B( 26-H , 27-H ) :   0.1671 B( 26-H , 31-H ) :   0.2143
B( 26-H , 32-H ) :  -0.1544 B( 28-C , 32-H ) :  -0.1647 B( 28-C , 33-H ) :   0.6493
B( 28-C , 34-H ) :   0.6186 B( 33-H , 34-H ) :  -0.1525

Dispersion correction           -0.002524376
FINAL SINGLE POINT ENERGY      -699.486864147400

DIPOLE MOMENT
-------------
                                X             Y             Z
Electronic contribution:      1.17698       7.36514      14.93787
Nuclear contribution   :     -1.66567      -5.90236     -15.95042
                        -----------------------------------------
Total Dipole Moment    :     -0.48868       1.46278      -1.01256
                        -----------------------------------------
Magnitude (a.u.)       :      1.84494
Magnitude (Debye)      :      4.68947

Rotational constants in cm-1:     0.021600     0.017292     0.011381
Rotational constants in MHz :   647.565282   518.410024   341.193038

                             ****ORCA TERMINATED NORMALLY****
TOTAL RUN TIME: 0 days 0 hours 4 minutes 33 seconds 204 msec
