                         Program Version 5.0.0 -  RELEASE  -
|  1> !M062X D3Zero RIJCOSX def2-SVPD def2/J TightSCF xyzfile
|  2>
|  3> *xyzfile 0 1 D3.xyz
|  4>
|  5> %MaxCore 64000
|  6>
|  7> %pal nprocs 4
|  8> end
|  9>
| 10> %scf
| 11>   MaxIter 150
| 12> end
| 13>
| 14>
| 15>                          ****END OF INPUT****

CARTESIAN COORDINATES (ANGSTROEM)
---------------------------------
  C      4.602954   -2.440100    2.634780
  C     -0.914947    0.615112    2.505538
  C     -0.059146    1.503524    3.410578
  H      0.365364    2.344315    2.861161
  H     -0.692261    1.920207    4.198985
  C      1.083027    0.749640    4.085705
  C      3.860851   -1.591565    3.622893
  C      2.756502   -2.046159    4.166333
  N      4.254325   -0.362905    3.860455
  H      3.565256    0.310994    4.168983
  H      5.054292   -0.016059    3.337838
  H      2.439696   -2.973894    3.897395
  H      2.066869   -1.412532    4.549813
  O      2.228167    1.263475    4.019826
  F      0.810034   -0.345411    4.636269
  C      3.744685   -2.580557    1.361882
  C      0.772139    0.636882    0.562129
  C     -0.130740   -0.193985    1.470763
  H     -0.840563   -0.760165    0.856377
  H      0.466691   -0.938942    2.006959
  H     -1.647961    1.245963    1.991076
  H     -1.478180   -0.081046    3.130424
  C      3.203721   -1.256004    0.826211
  H      2.898939   -3.239289    1.583074
  H      4.334962   -3.095523    0.600188
  C      2.107815   -1.442385   -0.216865
  H      2.786775   -0.672760    1.650711
  H      4.021008   -0.652993    0.414046
  C      1.390662   -0.145912   -0.602422
  H      1.372179   -2.152184    0.176151
  H      2.523302   -1.906787   -1.117115
  H      1.561361    1.100094    1.161831
  H      0.195516    1.468325    0.142758
  H      0.602893   -0.398214   -1.319716
  H      2.087247    0.508272   -1.137335
  H      5.561557   -1.971347    2.407084
  H      4.810498   -3.422552    3.063099

 Total Charge           Charge          ....    0
 Multiplicity           Mult            ....    1
 Number of Electrons    NEL             ....  118
 Basis Dimension        Dim             ....  482

ORBITAL ENERGIES
----------------

  NO   OCC          E(Eh)            E(eV)
   0   2.0000     -25.344697      -689.6643
   1   2.0000     -19.672103      -535.3051
   2   2.0000     -14.726536      -400.7294
   3   2.0000     -10.760503      -292.8082
   4   2.0000     -10.590514      -288.1825
   5   2.0000     -10.572767      -287.6996
   6   2.0000     -10.556805      -287.2653
   7   2.0000     -10.552369      -287.1446
   8   2.0000     -10.550149      -287.0842
   9   2.0000     -10.545720      -286.9636
  10   2.0000     -10.539782      -286.8020
  11   2.0000     -10.538875      -286.7774
  12   2.0000     -10.537946      -286.7521
  13   2.0000     -10.534193      -286.6500
  14   2.0000     -10.458033      -284.5776
  15   2.0000      -1.465084       -39.8670
  16   2.0000      -1.171330       -31.8735
  17   2.0000      -1.006284       -27.3824
  18   2.0000      -0.929089       -25.2818
  19   2.0000      -0.899101       -24.4658
  20   2.0000      -0.871214       -23.7069
  21   2.0000      -0.834681       -22.7128
  22   2.0000      -0.800939       -21.7947
  23   2.0000      -0.785506       -21.3747
  24   2.0000      -0.760991       -20.7076
  25   2.0000      -0.731546       -19.9064
  26   2.0000      -0.697576       -18.9820
  27   2.0000      -0.670738       -18.2517
  28   2.0000      -0.664330       -18.0773
  29   2.0000      -0.658740       -17.9252
  30   2.0000      -0.635815       -17.3014
  31   2.0000      -0.620057       -16.8726
  32   2.0000      -0.598544       -16.2872
  33   2.0000      -0.568425       -15.4676
  34   2.0000      -0.557614       -15.1734
  35   2.0000      -0.551478       -15.0065
  36   2.0000      -0.541628       -14.7384
  37   2.0000      -0.520030       -14.1507
  38   2.0000      -0.517301       -14.0765
  39   2.0000      -0.504454       -13.7269
  40   2.0000      -0.492468       -13.4007
  41   2.0000      -0.480987       -13.0883
  42   2.0000      -0.476075       -12.9546
  43   2.0000      -0.460625       -12.5342
  44   2.0000      -0.453059       -12.3284
  45   2.0000      -0.442368       -12.0374
  46   2.0000      -0.437592       -11.9075
  47   2.0000      -0.430348       -11.7104
  48   2.0000      -0.417197       -11.3525
  49   2.0000      -0.407921       -11.1001
  50   2.0000      -0.405427       -11.0322
  51   2.0000      -0.397702       -10.8220
  52   2.0000      -0.385514       -10.4904
  53   2.0000      -0.380070       -10.3422
  54   2.0000      -0.374328       -10.1860
  55   2.0000      -0.371480       -10.1085
  56   2.0000      -0.363092        -9.8802
  57   2.0000      -0.356422        -9.6987
  58   2.0000      -0.223808        -6.0901
  59   0.0000      -0.007218        -0.1964
  60   0.0000       0.025901         0.7048
  61   0.0000       0.044621         1.2142
  62   0.0000       0.046447         1.2639
  63   0.0000       0.049779         1.3546

MULLIKEN ATOMIC CHARGES
-----------------------
   0 C :    0.913013
   1 C :    0.539754
   2 C :    0.163820
   3 H :    0.204108
   4 H :   -0.176111
   5 C :    0.774779
   6 C :   -0.507428
   7 C :    1.078059
   8 N :    0.358288
   9 H :   -0.447536
  10 H :    0.104885
  11 H :   -0.214480
  12 H :   -1.018161
  13 O :   -0.575387
  14 F :   -0.517153
  15 C :    0.107625
  16 C :   -0.186245
  17 C :   -0.130550
  18 H :   -0.197659
  19 H :   -0.060505
  20 H :   -0.075827
  21 H :    0.017221
  22 C :    0.190346
  23 H :    0.082969
  24 H :   -0.311574
  25 C :    0.005281
  26 H :   -0.382458
  27 H :   -0.001179
  28 C :    0.865925
  29 H :    0.181059
  30 H :   -0.388038
  31 H :    0.205438
  32 H :   -0.593708
  33 H :    0.069819
  34 H :   -0.023089
  35 H :   -0.053450
  36 H :   -0.001849
Sum of atomic charges:   -0.0000000

LOEWDIN ATOMIC CHARGES
----------------------
   0 C :    0.020458
   1 C :   -0.020375
   2 C :    0.064376
   3 H :    0.035735
   4 H :    0.043172
   5 C :    0.067795
   6 C :   -0.257247
   7 C :    0.199599
   8 N :    0.196485
   9 H :   -0.103077
  10 H :    0.006556
  11 H :   -0.074876
  12 H :   -0.144334
  13 O :   -0.121745
  14 F :   -0.049836
  15 C :   -0.018940
  16 C :   -0.033890
  17 C :   -0.029329
  18 H :    0.032943
  19 H :    0.010849
  20 H :    0.029758
  21 H :    0.026578
  22 C :   -0.031104
  23 H :    0.017328
  24 H :    0.020727
  25 C :   -0.038667
  26 H :   -0.017373
  27 H :    0.034560
  28 C :   -0.028984
  29 H :    0.016323
  30 H :    0.024576
  31 H :    0.010534
  32 H :    0.024176
  33 H :    0.021643
  34 H :    0.024037
  35 H :    0.014419
  36 H :    0.027150

  Mayer bond orders larger than 0.100000
B(  0-C ,  6-C ) :   1.1808 B(  0-C , 15-C ) :   1.0584 B(  0-C , 35-H ) :   0.4600
B(  0-C , 36-H ) :   0.6387 B(  1-C ,  2-C ) :   1.1584 B(  1-C ,  4-H ) :   0.1526
B(  1-C , 17-C ) :   1.2286 B(  1-C , 20-H ) :   0.7794 B(  1-C , 21-H ) :   0.6450
B(  1-C , 28-C ) :   0.1396 B(  2-C ,  3-H ) :   0.8231 B(  2-C ,  4-H ) :   0.7335
B(  2-C ,  5-C ) :   1.1823 B(  2-C , 17-C ) :   0.1042 B(  2-C , 20-H ) :   0.1377
B(  3-H ,  4-H ) :  -0.1093 B(  3-H ,  5-C ) :   0.1456 B(  4-H ,  5-C ) :   0.2590
B(  5-C , 13-O ) :   1.5669 B(  5-C , 14-F ) :   0.5309 B(  6-C ,  7-C ) :   1.9721
B(  6-C ,  8-N ) :   0.8424 B(  6-C , 10-H ) :   0.1534 B(  6-C , 12-H ) :   0.3816
B(  6-C , 15-C ) :   0.1488 B(  6-C , 35-H ) :   0.4217 B(  6-C , 36-H ) :   0.2587
B(  7-C ,  8-N ) :   0.4411 B(  7-C , 11-H ) :   0.6669 B(  7-C , 12-H ) :  -0.2712
B(  8-N ,  9-H ) :   1.0541 B(  8-N , 10-H ) :   0.9052 B(  8-N , 11-H ) :   0.3033
B(  8-N , 12-H ) :  -0.2774 B(  9-H , 10-H ) :  -0.2729 B( 11-H , 12-H ) :  -0.2458
B( 12-H , 14-F ) :   0.2550 B( 15-C , 22-C ) :   1.1343 B( 15-C , 23-H ) :   0.8427
B( 15-C , 24-H ) :   0.9776 B( 15-C , 26-H ) :   0.1357 B( 15-C , 27-H ) :   0.1038
B( 15-C , 35-H ) :   0.2146 B( 15-C , 36-H ) :   0.1485 B( 16-C , 17-C ) :   1.2754
B( 16-C , 18-H ) :   0.1797 B( 16-C , 19-H ) :   0.1373 B( 16-C , 25-C ) :   0.1687
B( 16-C , 28-C ) :   1.0671 B( 16-C , 31-H ) :   0.7938 B( 16-C , 32-H ) :   1.2304
B( 16-C , 33-H ) :   0.1385 B( 16-C , 34-H ) :   0.2829 B( 17-C , 18-H ) :   0.9032
B( 17-C , 19-H ) :   0.9344 B( 17-C , 20-H ) :   0.1992 B( 17-C , 21-H ) :   0.2478
B( 17-C , 25-C ) :   0.1093 B( 17-C , 31-H ) :   0.1038 B( 19-H , 29-H ) :   0.1038
B( 20-H , 21-H ) :  -0.1672 B( 22-C , 23-H ) :   0.1309 B( 22-C , 24-H ) :   0.2577
B( 22-C , 25-C ) :   1.1688 B( 22-C , 26-H ) :   1.0448 B( 22-C , 27-H ) :   0.6938
B( 22-C , 29-H ) :   0.1300 B( 22-C , 30-H ) :   0.2434 B( 22-C , 31-H ) :  -0.1010
B( 23-H , 24-H ) :  -0.1146 B( 23-H , 30-H ) :  -0.1044 B( 25-C , 27-H ) :   0.1053
B( 25-C , 28-C ) :   1.1289 B( 25-C , 29-H ) :   0.7921 B( 25-C , 30-H ) :   1.0258
B( 25-C , 33-H ) :   0.2259 B( 25-C , 34-H ) :   0.1465 B( 26-H , 27-H ) :   0.1683
B( 26-H , 31-H ) :   0.2255 B( 26-H , 32-H ) :  -0.1583 B( 28-C , 32-H ) :  -0.1654
B( 28-C , 33-H ) :   0.6448 B( 28-C , 34-H ) :   0.6191 B( 33-H , 34-H ) :  -0.1541

Dispersion correction           -0.002528124
FINAL SINGLE POINT ENERGY      -699.498230821666

DIPOLE MOMENT
-------------
                                X             Y             Z
Electronic contribution:     -1.22641       4.74579      15.94072
Nuclear contribution   :      0.05905      -3.94566     -16.70013
                        -----------------------------------------
Total Dipole Moment    :     -1.16736       0.80013      -0.75942
                        -----------------------------------------
Magnitude (a.u.)       :      1.60613
Magnitude (Debye)      :      4.08247

Rotational constants in cm-1:     0.021602     0.017295     0.011353
Rotational constants in MHz :   647.614981   518.478934   340.359556

                             ****ORCA TERMINATED NORMALLY****
TOTAL RUN TIME: 0 days 0 hours 4 minutes 34 seconds 142 msec
