                         Program Version 5.0.0 -  RELEASE  -
|  1> !M062X D3Zero RIJCOSX def2-SVPD def2/J TightSCF xyzfile
|  2>
|  3> *xyzfile 0 1 D4.xyz
|  4>
|  5> %MaxCore 64000
|  6>
|  7> %pal nprocs 4
|  8> end
|  9>
| 10> %scf
| 11>   MaxIter 150
| 12> end
| 13>
| 14>
| 15>                          ****END OF INPUT****

CARTESIAN COORDINATES (ANGSTROEM)
---------------------------------
  C      4.602954   -2.440100    2.634780
  C     -0.914947    0.615112    2.505538
  C     -0.059146    1.503524    3.410578
  H      0.365364    2.344315    2.861161
  H     -0.692261    1.920207    4.198985
  C      1.083027    0.749640    4.085705
  C      3.860851   -1.591565    3.622893
  N      2.756502   -2.046159    4.166333
  C      4.254325   -0.362905    3.860455
  H      3.565256    0.310994    4.168983
  H      5.054292   -0.016059    3.337838
  H      2.439696   -2.973894    3.897395
  H      2.066869   -1.412532    4.549813
  O      2.228167    1.263475    4.019826
  F      0.810034   -0.345411    4.636269
  C      3.744685   -2.580557    1.361882
  C      0.772139    0.636882    0.562129
  C     -0.130740   -0.193985    1.470763
  H     -0.840563   -0.760165    0.856377
  H      0.466691   -0.938942    2.006959
  H     -1.647961    1.245963    1.991076
  H     -1.478180   -0.081046    3.130424
  C      3.203721   -1.256004    0.826211
  H      2.898939   -3.239289    1.583074
  H      4.334962   -3.095523    0.600188
  C      2.107815   -1.442385   -0.216865
  H      2.786775   -0.672760    1.650711
  H      4.021008   -0.652993    0.414046
  C      1.390662   -0.145912   -0.602422
  H      1.372179   -2.152184    0.176151
  H      2.523302   -1.906787   -1.117115
  H      1.561361    1.100094    1.161831
  H      0.195516    1.468325    0.142758
  H      0.602893   -0.398214   -1.319716
  H      2.087247    0.508272   -1.137335
  H      5.561557   -1.971347    2.407084
  H      4.810498   -3.422552    3.063099

 Total Charge           Charge          ....    0
 Multiplicity           Mult            ....    1
 Number of Electrons    NEL             ....  118
 Basis Dimension        Dim             ....  482

ORBITAL ENERGIES
----------------

  NO   OCC          E(Eh)            E(eV)
   0   2.0000     -25.356919      -689.9968
   1   2.0000     -19.663762      -535.0782
   2   2.0000     -14.741776      -401.1441
   3   2.0000     -10.755762      -292.6792
   4   2.0000     -10.589942      -288.1670
   5   2.0000     -10.573905      -287.7306
   6   2.0000     -10.559653      -287.3428
   7   2.0000     -10.550264      -287.0873
   8   2.0000     -10.547500      -287.0121
   9   2.0000     -10.545700      -286.9631
  10   2.0000     -10.541125      -286.8386
  11   2.0000     -10.539969      -286.8071
  12   2.0000     -10.536091      -286.7016
  13   2.0000     -10.532550      -286.6053
  14   2.0000     -10.448058      -284.3061
  15   2.0000      -1.476057       -40.1655
  16   2.0000      -1.164159       -31.6784
  17   2.0000      -1.014263       -27.5995
  18   2.0000      -0.929954       -25.3053
  19   2.0000      -0.898959       -24.4619
  20   2.0000      -0.871912       -23.7259
  21   2.0000      -0.833063       -22.6688
  22   2.0000      -0.808563       -22.0021
  23   2.0000      -0.783758       -21.3271
  24   2.0000      -0.769016       -20.9260
  25   2.0000      -0.729867       -19.8607
  26   2.0000      -0.699141       -19.0246
  27   2.0000      -0.678959       -18.4754
  28   2.0000      -0.669229       -18.2106
  29   2.0000      -0.660706       -17.9787
  30   2.0000      -0.631681       -17.1889
  31   2.0000      -0.622596       -16.9417
  32   2.0000      -0.599511       -16.3135
  33   2.0000      -0.577255       -15.7079
  34   2.0000      -0.560307       -15.2467
  35   2.0000      -0.555663       -15.1204
  36   2.0000      -0.533402       -14.5146
  37   2.0000      -0.519180       -14.1276
  38   2.0000      -0.513442       -13.9715
  39   2.0000      -0.506823       -13.7914
  40   2.0000      -0.491196       -13.3661
  41   2.0000      -0.485711       -13.2169
  42   2.0000      -0.477127       -12.9833
  43   2.0000      -0.459065       -12.4918
  44   2.0000      -0.449906       -12.2426
  45   2.0000      -0.441639       -12.0176
  46   2.0000      -0.438824       -11.9410
  47   2.0000      -0.427915       -11.6442
  48   2.0000      -0.420321       -11.4375
  49   2.0000      -0.412143       -11.2150
  50   2.0000      -0.408040       -11.1033
  51   2.0000      -0.394165       -10.7258
  52   2.0000      -0.385584       -10.4923
  53   2.0000      -0.383746       -10.4423
  54   2.0000      -0.372165       -10.1271
  55   2.0000      -0.370213       -10.0740
  56   2.0000      -0.361876        -9.8471
  57   2.0000      -0.339394        -9.2354
  58   2.0000      -0.223749        -6.0885
  59   0.0000      -0.005047        -0.1373
  60   0.0000       0.022189         0.6038
  61   0.0000       0.039445         1.0734
  62   0.0000       0.045790         1.2460
  63   0.0000       0.050712         1.3799

MULLIKEN ATOMIC CHARGES
-----------------------
   0 C :    0.652036
   1 C :    0.533800
   2 C :    0.178563
   3 H :    0.198616
   4 H :   -0.167318
   5 C :    0.754993
   6 C :   -0.467982
   7 N :    0.421792
   8 C :    0.981963
   9 H :   -0.802447
  10 H :   -0.113295
  11 H :    0.029781
  12 H :   -0.569543
  13 O :   -0.540672
  14 F :   -0.495764
  15 C :    0.227958
  16 C :   -0.186018
  17 C :   -0.126340
  18 H :   -0.206105
  19 H :   -0.071706
  20 H :   -0.082502
  21 H :    0.007610
  22 C :    0.268154
  23 H :    0.071931
  24 H :   -0.372692
  25 C :    0.020594
  26 H :   -0.480188
  27 H :   -0.022329
  28 C :    0.861927
  29 H :    0.153542
  30 H :   -0.398547
  31 H :    0.188445
  32 H :   -0.562495
  33 H :    0.076728
  34 H :   -0.021220
  35 H :    0.163352
  36 H :   -0.104621
Sum of atomic charges:   -0.0000000

LOEWDIN ATOMIC CHARGES
----------------------
   0 C :    0.017152
   1 C :   -0.022918
   2 C :    0.064247
   3 H :    0.036797
   4 H :    0.042234
   5 C :    0.063276
   6 C :   -0.266167
   7 N :    0.199383
   8 C :    0.200184
   9 H :   -0.170011
  10 H :   -0.071270
  11 H :    0.006569
  12 H :   -0.069473
  13 O :   -0.118884
  14 F :   -0.043962
  15 C :   -0.021672
  16 C :   -0.032323
  17 C :   -0.032031
  18 H :    0.032439
  19 H :    0.007708
  20 H :    0.029793
  21 H :    0.024879
  22 C :   -0.026260
  23 H :    0.010073
  24 H :    0.021643
  25 C :   -0.041500
  26 H :   -0.017041
  27 H :    0.040090
  28 C :   -0.028477
  29 H :    0.013775
  30 H :    0.023915
  31 H :    0.012676
  32 H :    0.024827
  33 H :    0.021377
  34 H :    0.024982
  35 H :    0.024658
  36 H :    0.019315

  Mayer bond orders larger than 0.100000
B(  0-C ,  6-C ) :   1.2955 B(  0-C ,  8-C ) :   0.1015 B(  0-C , 15-C ) :   1.0793
B(  0-C , 24-H ) :   0.1108 B(  0-C , 35-H ) :   0.7104 B(  0-C , 36-H ) :   0.5427
B(  1-C ,  2-C ) :   1.1584 B(  1-C ,  4-H ) :   0.1488 B(  1-C , 17-C ) :   1.2250
B(  1-C , 20-H ) :   0.7802 B(  1-C , 21-H ) :   0.6493 B(  1-C , 28-C ) :   0.1405
B(  2-C ,  3-H ) :   0.8425 B(  2-C ,  4-H ) :   0.7282 B(  2-C ,  5-C ) :   1.1504
B(  2-C , 20-H ) :   0.1387 B(  3-H ,  4-H ) :  -0.1029 B(  3-H ,  5-C ) :   0.1391
B(  4-H ,  5-C ) :   0.2536 B(  5-C , 13-O ) :   1.6942 B(  5-C , 14-F ) :   0.4498
B(  6-C ,  7-N ) :   0.8767 B(  6-C ,  8-C ) :   2.0399 B(  6-C ,  9-H ) :   0.3767
B(  6-C , 10-H ) :   0.2835 B(  6-C , 12-H ) :  -0.1250 B(  6-C , 24-H ) :  -0.1351
B(  6-C , 26-H ) :  -0.1200 B(  6-C , 35-H ) :   0.1819 B(  6-C , 36-H ) :   0.3296
B(  7-N ,  8-C ) :   0.3857 B(  7-N , 11-H ) :   1.0156 B(  7-N , 12-H ) :   1.1024
B(  8-C , 10-H ) :   0.6857 B(  9-H , 13-O ) :   0.1107 B(  9-H , 24-H ) :  -0.1218
B( 10-H , 23-H ) :  -0.1085 B( 11-H , 12-H ) :  -0.2658 B( 12-H , 14-F ) :   0.1086
B( 15-C , 22-C ) :   1.1100 B( 15-C , 23-H ) :   0.8046 B( 15-C , 24-H ) :   0.9559
B( 15-C , 26-H ) :   0.1155 B( 15-C , 35-H ) :   0.1387 B( 15-C , 36-H ) :   0.1794
B( 16-C , 17-C ) :   1.2738 B( 16-C , 18-H ) :   0.1770 B( 16-C , 19-H ) :   0.1382
B( 16-C , 25-C ) :   0.1715 B( 16-C , 28-C ) :   1.0721 B( 16-C , 31-H ) :   0.8056
B( 16-C , 32-H ) :   1.2091 B( 16-C , 33-H ) :   0.1372 B( 16-C , 34-H ) :   0.2870
B( 17-C , 18-H ) :   0.9090 B( 17-C , 19-H ) :   0.9347 B( 17-C , 20-H ) :   0.2010
B( 17-C , 21-H ) :   0.2424 B( 17-C , 25-C ) :   0.1065 B( 17-C , 31-H ) :   0.1009
B( 17-C , 32-H ) :   0.1040 B( 19-H , 29-H ) :   0.1033 B( 20-H , 21-H ) :  -0.1688
B( 22-C , 23-H ) :   0.1204 B( 22-C , 24-H ) :   0.2045 B( 22-C , 25-C ) :   1.1535
B( 22-C , 26-H ) :   1.0026 B( 22-C , 27-H ) :   0.6961 B( 22-C , 29-H ) :   0.1276
B( 22-C , 30-H ) :   0.2497 B( 22-C , 31-H ) :  -0.1002 B( 25-C , 27-H ) :   0.1125
B( 25-C , 28-C ) :   1.1343 B( 25-C , 29-H ) :   0.8000 B( 25-C , 30-H ) :   1.0194
B( 25-C , 33-H ) :   0.2225 B( 25-C , 34-H ) :   0.1392 B( 26-H , 27-H ) :   0.2038
B( 26-H , 31-H ) :   0.2202 B( 26-H , 32-H ) :  -0.1445 B( 28-C , 32-H ) :  -0.1571
B( 28-C , 33-H ) :   0.6495 B( 28-C , 34-H ) :   0.6171 B( 33-H , 34-H ) :  -0.1507

Dispersion correction           -0.002528702
FINAL SINGLE POINT ENERGY      -699.485420868320

DIPOLE MOMENT
-------------
                                X             Y             Z
Electronic contribution:     -2.26792       3.58741      16.18173
Nuclear contribution   :      0.32481      -3.64700     -16.75441
                        -----------------------------------------
Total Dipole Moment    :     -1.94312      -0.05959      -0.57267
                        -----------------------------------------
Magnitude (a.u.)       :      2.02663
Magnitude (Debye)      :      5.15127

Rotational constants in cm-1:     0.021629     0.017327     0.011372
Rotational constants in MHz :   648.414821   519.443407   340.925013

                             ****ORCA TERMINATED NORMALLY****
TOTAL RUN TIME: 0 days 0 hours 4 minutes 12 seconds 34 msec
