                         Program Version 5.0.0 -  RELEASE  -
|  1> !wB97X-D3 RIJCOSX def2-TZVPD def2/J TightSCF
|  2> *xyz -1 1
|  3> C          3.38093        2.08304       -3.35013
|  4> C          2.49556        1.81615       -2.13636
|  5> C          1.87218        0.42790       -2.07750
|  6> H          2.61427       -0.36583       -2.19889
|  7> H          1.38995        0.27309       -1.11236
|  8> S          0.57902        0.14047       -3.29794
|  9> O          0.22886       -1.24687       -3.12787
| 10> O         -0.43927        1.11897       -3.01455
| 11> O          1.24788        0.40347       -4.59565
| 12> H          1.69700        2.56197       -2.14111
| 13> H          3.08079        1.98744       -1.22584
| 14> H          2.81820        1.91840       -4.24519
| 15> H          4.22171        1.42153       -3.33067
| 16> H          3.72372        3.09635       -3.32565
| 17> *
| 18>
| 19> %MaxCore 64000
| 20>
| 21> %pal nprocs 8
| 22> end
| 23>
| 24> %scf
| 25>   MaxIter 150
| 26> end
| 27>
| 28>
| 29>                          ****END OF INPUT****

CARTESIAN COORDINATES (ANGSTROEM)
---------------------------------
  C      3.380930    2.083040   -3.350130
  C      2.495560    1.816150   -2.136360
  C      1.872180    0.427900   -2.077500
  H      2.614270   -0.365830   -2.198890
  H      1.389950    0.273090   -1.112360
  S      0.579020    0.140470   -3.297940
  O      0.228860   -1.246870   -3.127870
  O     -0.439270    1.118970   -3.014550
  O      1.247880    0.403470   -4.595650
  H      1.697000    2.561970   -2.141110
  H      3.080790    1.987440   -1.225840
  H      2.818200    1.918400   -4.245190
  H      4.221710    1.421530   -3.330670
  H      3.723720    3.096350   -3.325650

 Total Charge           Charge          ....   -1
 Multiplicity           Mult            ....    1
 Number of Electrons    NEL             ....   66
 Basis Dimension        Dim             ....  340

ORBITAL ENERGIES
----------------

  NO   OCC          E(Eh)            E(eV)
   0   2.0000     -88.936770     -2420.0926
   1   2.0000     -19.014854      -517.4205
   2   2.0000     -19.014631      -517.4144
   3   2.0000     -19.000863      -517.0398
   4   2.0000     -10.140135      -275.9271
   5   2.0000     -10.134379      -275.7705
   6   2.0000     -10.118044      -275.3260
   7   2.0000      -7.999867      -217.6875
   8   2.0000      -5.954138      -162.0203
   9   2.0000      -5.952919      -161.9872
  10   2.0000      -5.952520      -161.9763
  11   2.0000      -1.045740       -28.4560
  12   2.0000      -0.915226       -24.9046
  13   2.0000      -0.890789       -24.2396
  14   2.0000      -0.770978       -20.9794
  15   2.0000      -0.677227       -18.4283
  16   2.0000      -0.575672       -15.6648
  17   2.0000      -0.489719       -13.3259
  18   2.0000      -0.435309       -11.8454
  19   2.0000      -0.417363       -11.3570
  20   2.0000      -0.390494       -10.6259
  21   2.0000      -0.376965       -10.2577
  22   2.0000      -0.366420        -9.9708
  23   2.0000      -0.352417        -9.5898
  24   2.0000      -0.313255        -8.5241
  25   2.0000      -0.304750        -8.2927
  26   2.0000      -0.293594        -7.9891
  27   2.0000      -0.254547        -6.9266
  28   2.0000      -0.253350        -6.8940
  29   2.0000      -0.217205        -5.9105
  30   2.0000      -0.206274        -5.6130
  31   2.0000      -0.192769        -5.2455
  32   2.0000      -0.163571        -4.4510
  33   0.0000       0.174288         4.7426
  34   0.0000       0.183642         4.9972
  35   0.0000       0.185050         5.0355
  36   0.0000       0.188443         5.1278
  37   0.0000       0.210663         5.7324

MULLIKEN ATOMIC CHARGES
-----------------------
   0 C :   -1.160332
   1 C :   -0.284641
   2 C :   -0.583093
   3 H :    0.287147
   4 H :    0.268112
   5 S :    1.190476
   6 O :   -0.693527
   7 O :   -0.710473
   8 O :   -0.738606
   9 H :    0.268826
  10 H :    0.224709
  11 H :    0.343695
  12 H :    0.290341
  13 H :    0.297365
Sum of atomic charges:   -1.0000000

LOEWDIN ATOMIC CHARGES
----------------------
   0 C :   -0.128504
   1 C :   -0.296950
   2 C :   -0.284650
   3 H :    0.092762
   4 H :    0.085506
   5 S :    0.358092
   6 O :   -0.386528
   7 O :   -0.378968
   8 O :   -0.412405
   9 H :    0.100002
  10 H :    0.092516
  11 H :    0.044765
  12 H :    0.061440
  13 H :    0.052921

  Mayer bond orders larger than 0.100000
B(  0-C ,  1-C ) :   0.6039 B(  0-C ,  2-C ) :   0.1725 B(  0-C , 11-H ) :   0.9927
B(  0-C , 12-H ) :   0.9771 B(  0-C , 13-H ) :   0.9501 B(  1-C ,  2-C ) :   0.9443
B(  1-C ,  5-S ) :   0.1228 B(  1-C ,  9-H ) :   0.9639 B(  1-C , 10-H ) :   0.9627
B(  2-C ,  3-H ) :   0.9239 B(  2-C ,  4-H ) :   0.9750 B(  2-C ,  5-S ) :   0.8215
B(  2-C ,  6-O ) :   0.1476 B(  2-C ,  7-O ) :   0.1056 B(  5-S ,  6-O ) :   1.5008
B(  5-S ,  7-O ) :   1.5178 B(  5-S ,  8-O ) :   1.4852

Dispersion correction           -0.004485001
FINAL SINGLE POINT ENERGY      -742.541778390693

DIPOLE MOMENT
-------------
                                X             Y             Z
Electronic contribution:     -8.84751      -5.56560      -2.90756
Nuclear contribution   :     10.42821       6.37804       4.08250
                        -----------------------------------------
Total Dipole Moment    :      1.58071       0.81244       1.17494
                        -----------------------------------------
Magnitude (a.u.)       :      2.13054
Magnitude (Debye)      :      5.41539

Rotational constants in cm-1:     0.136992     0.054831     0.052480
Rotational constants in MHz :  4106.928256  1643.799656  1573.299166

                             ****ORCA TERMINATED NORMALLY****
TOTAL RUN TIME: 0 days 0 hours 0 minutes 47 seconds 24 msec
