                         Program Version 5.0.0 -  RELEASE  -
|  1> !wB97X-D3 RIJCOSX def2-TZVPD def2/J TightSCF
|  2> *xyz 1 1
|  3> C          3.38093        2.08304       -3.35013
|  4> N          4.53592        1.18245       -3.42852
|  5> C          2.49556        1.81615       -2.13636
|  6> C          1.87218        0.42790       -2.07750
|  7> C          4.67196        0.12227       -4.22060
|  8> N          5.86602       -0.50785       -4.22428
|  9> N          3.69888       -0.31284       -4.98699
| 10> H          2.73141       -0.05009       -4.84900
| 11> H          3.89005       -1.05517       -5.64373
| 12> H          5.25193        1.30346       -2.72101
| 13> H          6.69516       -0.06232       -3.85160
| 14> H          5.97538       -1.39688       -4.69141
| 15> H          1.69700        2.56197       -2.14111
| 16> H          3.08079        1.98744       -1.22584
| 17> H          2.80646        1.98651       -4.26848
| 18> H          3.77871        3.09828       -3.30738
| 19> H          1.29954        0.25615       -2.96490
| 20> H          1.23321        0.35984       -1.22194
| 21> H          2.64581       -0.30765       -2.00430
| 22> *
| 23>
| 24> %MaxCore 64000
| 25>
| 26> %pal nprocs 8
| 27> end
| 28>
| 29> %scf
| 30>   MaxIter 150
| 31> end
| 32>
| 33>
| 34>                          ****END OF INPUT****

CARTESIAN COORDINATES (ANGSTROEM)
---------------------------------
  C      3.380930    2.083040   -3.350130
  N      4.535920    1.182450   -3.428520
  C      2.495560    1.816150   -2.136360
  C      1.872180    0.427900   -2.077500
  C      4.671960    0.122270   -4.220600
  N      5.866020   -0.507850   -4.224280
  N      3.698880   -0.312840   -4.986990
  H      2.731410   -0.050090   -4.849000
  H      3.890050   -1.055170   -5.643730
  H      5.251930    1.303460   -2.721010
  H      6.695160   -0.062320   -3.851600
  H      5.975380   -1.396880   -4.691410
  H      1.697000    2.561970   -2.141110
  H      3.080790    1.987440   -1.225840
  H      2.806460    1.986510   -4.268480
  H      3.778710    3.098280   -3.307380
  H      1.299540    0.256150   -2.964900
  H      1.233210    0.359840   -1.221940
  H      2.645810   -0.307650   -2.004300

 Total Charge           Charge          ....    1
 Multiplicity           Mult            ....    1
 Number of Electrons    NEL             ....   56
 Basis Dimension        Dim             ....  367

ORBITAL ENERGIES
----------------

  NO   OCC          E(Eh)            E(eV)
   0   2.0000     -14.643956      -398.4823
   1   2.0000     -14.640866      -398.3982
   2   2.0000     -14.637129      -398.2965
   3   2.0000     -10.611281      -288.7476
   4   2.0000     -10.476033      -285.0673
   5   2.0000     -10.415158      -283.4109
   6   2.0000     -10.392893      -282.8050
   7   2.0000      -1.328993       -36.1638
   8   2.0000      -1.216949       -33.1149
   9   2.0000      -1.202081       -32.7103
  10   2.0000      -1.055893       -28.7323
  11   2.0000      -0.977892       -26.6098
  12   2.0000      -0.932368       -25.3710
  13   2.0000      -0.888404       -24.1747
  14   2.0000      -0.868313       -23.6280
  15   2.0000      -0.833834       -22.6898
  16   2.0000      -0.793214       -21.5845
  17   2.0000      -0.787158       -21.4197
  18   2.0000      -0.740329       -20.1454
  19   2.0000      -0.730870       -19.8880
  20   2.0000      -0.699231       -19.0270
  21   2.0000      -0.676716       -18.4144
  22   2.0000      -0.651261       -17.7217
  23   2.0000      -0.605819       -16.4852
  24   2.0000      -0.583706       -15.8834
  25   2.0000      -0.576522       -15.6880
  26   2.0000      -0.568003       -15.4562
  27   2.0000      -0.532489       -14.4898
  28   0.0000      -0.086503        -2.3539
  29   0.0000      -0.082954        -2.2573
  30   0.0000      -0.054109        -1.4724
  31   0.0000      -0.045251        -1.2313
  32   0.0000      -0.025062        -0.6820

MULLIKEN ATOMIC CHARGES
-----------------------
   0 C :   -0.823508
   1 N :   -0.171949
   2 C :   -0.094759
   3 C :   -1.213846
   4 C :    0.857674
   5 N :   -0.444568
   6 N :   -0.342647
   7 H :    0.189378
   8 H :    0.201941
   9 H :    0.248527
  10 H :    0.225177
  11 H :    0.207011
  12 H :    0.288407
  13 H :    0.304996
  14 H :    0.396311
  15 H :    0.238749
  16 H :    0.283577
  17 H :    0.336410
  18 H :    0.313118
Sum of atomic charges:    1.0000000

LOEWDIN ATOMIC CHARGES
----------------------
   0 C :   -0.160804
   1 N :    0.088739
   2 C :   -0.230351
   3 C :   -0.096938
   4 C :   -0.430759
   5 N :    0.190881
   6 N :    0.221990
   7 H :    0.126452
   8 H :    0.144237
   9 H :    0.170836
  10 H :    0.137967
  11 H :    0.133996
  12 H :    0.120502
  13 H :    0.117012
  14 H :    0.121941
  15 H :    0.131744
  16 H :    0.066127
  17 H :    0.080198
  18 H :    0.066230

  Mayer bond orders larger than 0.100000
B(  0-C ,  1-N ) :   0.9792 B(  0-C ,  2-C ) :   0.8474 B(  0-C ,  3-C ) :   0.1518
B(  0-C ,  4-C ) :  -0.1630 B(  0-C ,  6-N ) :   0.1015 B(  0-C , 14-H ) :   0.8276
B(  0-C , 15-H ) :   1.0138 B(  1-N ,  4-C ) :   1.2227 B(  1-N ,  5-N ) :   0.1320
B(  1-N ,  9-H ) :   0.9636 B(  2-C ,  3-C ) :   0.6475 B(  2-C , 12-H ) :   0.9741
B(  2-C , 13-H ) :   0.9137 B(  3-C , 16-H ) :   1.0102 B(  3-C , 17-H ) :   0.9342
B(  3-C , 18-H ) :   0.9390 B(  4-C ,  5-N ) :   0.9597 B(  4-C ,  6-N ) :   1.1142
B(  5-N , 10-H ) :   0.9786 B(  5-N , 11-H ) :   1.0309 B(  6-N ,  7-H ) :   0.9464
B(  6-N ,  8-H ) :   1.0418

Dispersion correction           -0.005588697
FINAL SINGLE POINT ENERGY      -323.752179852775

DIPOLE MOMENT
-------------
                                X             Y             Z
Electronic contribution:      5.30783      -1.46942      -3.78453
Nuclear contribution   :     -4.20917       0.72396       2.93051
                        -----------------------------------------
Total Dipole Moment    :      1.09866      -0.74546      -0.85402
                        -----------------------------------------
Magnitude (a.u.)       :      1.57864
Magnitude (Debye)      :      4.01259

Rotational constants in cm-1:     0.153116     0.051500     0.046494
Rotational constants in MHz :  4590.307026  1543.937577  1393.864628

                             ****ORCA TERMINATED NORMALLY****
TOTAL RUN TIME: 0 days 0 hours 1 minutes 4 seconds 642 msec
