                         Program Version 5.0.0 -  RELEASE  -
|  1> !wB97X-D3 RIJCOSX def2-TZVPD def2/J TightSCF
|  2> *xyz 0 1
|  3> C          3.38093        2.08304       -3.35013
|  4> C          2.49556        1.81615       -2.13636
|  5> C          1.87218        0.42790       -2.07750
|  6> H          2.61427       -0.36583       -2.19889
|  7> H          1.38995        0.27309       -1.11236
|  8> S          0.57902        0.14047       -3.29794
|  9> F          0.22886       -1.24687       -3.12787
| 10> O         -0.43927        1.11897       -3.01455
| 11> O          1.24788        0.40347       -4.59565
| 12> H          1.69700        2.56197       -2.14111
| 13> H          3.08079        1.98744       -1.22584
| 14> H          2.81820        1.91840       -4.24519
| 15> H          4.22171        1.42153       -3.33067
| 16> H          3.72372        3.09635       -3.32565
| 17> *
| 18>
| 19> %MaxCore 64000
| 20>
| 21> %pal nprocs 8
| 22> end
| 23>
| 24> %scf
| 25>   MaxIter 150
| 26> end
| 27>
| 28>
| 29>                          ****END OF INPUT****

CARTESIAN COORDINATES (ANGSTROEM)
---------------------------------
  C      3.380930    2.083040   -3.350130
  C      2.495560    1.816150   -2.136360
  C      1.872180    0.427900   -2.077500
  H      2.614270   -0.365830   -2.198890
  H      1.389950    0.273090   -1.112360
  S      0.579020    0.140470   -3.297940
  F      0.228860   -1.246870   -3.127870
  O     -0.439270    1.118970   -3.014550
  O      1.247880    0.403470   -4.595650
  H      1.697000    2.561970   -2.141110
  H      3.080790    1.987440   -1.225840
  H      2.818200    1.918400   -4.245190
  H      4.221710    1.421530   -3.330670
  H      3.723720    3.096350   -3.325650

 Total Charge           Charge          ....    0
 Multiplicity           Mult            ....    1
 Number of Electrons    NEL             ....   66
 Basis Dimension        Dim             ....  340

ORBITAL ENERGIES
----------------

  NO   OCC          E(Eh)            E(eV)
   0   2.0000     -89.196795     -2427.1682
   1   2.0000     -24.910579      -677.8513
   2   2.0000     -19.246845      -523.7333
   3   2.0000     -19.232259      -523.3364
   4   2.0000     -10.333380      -281.1856
   5   2.0000     -10.298895      -280.2472
   6   2.0000     -10.257862      -279.1306
   7   2.0000      -8.260435      -224.7779
   8   2.0000      -6.217716      -169.1926
   9   2.0000      -6.211417      -169.0212
  10   2.0000      -6.211121      -169.0132
  11   2.0000      -1.504375       -40.9361
  12   2.0000      -1.224384       -33.3172
  13   2.0000      -1.121953       -30.5299
  14   2.0000      -0.945028       -25.7155
  15   2.0000      -0.869172       -23.6514
  16   2.0000      -0.817639       -22.2491
  17   2.0000      -0.741261       -20.1707
  18   2.0000      -0.696129       -18.9426
  19   2.0000      -0.686545       -18.6818
  20   2.0000      -0.662067       -18.0158
  21   2.0000      -0.594855       -16.1868
  22   2.0000      -0.586219       -15.9518
  23   2.0000      -0.550527       -14.9806
  24   2.0000      -0.540701       -14.7132
  25   2.0000      -0.529270       -14.4022
  26   2.0000      -0.488405       -13.2902
  27   2.0000      -0.466351       -12.6901
  28   2.0000      -0.464104       -12.6289
  29   2.0000      -0.449927       -12.2431
  30   2.0000      -0.432012       -11.7557
  31   2.0000      -0.407733       -11.0950
  32   2.0000      -0.403224       -10.9723
  33   0.0000       0.048167         1.3107
  34   0.0000       0.063327         1.7232
  35   0.0000       0.067887         1.8473
  36   0.0000       0.074839         2.0365
  37   0.0000       0.097634         2.6568

MULLIKEN ATOMIC CHARGES
-----------------------
   0 C :   -1.202508
   1 C :   -0.352041
   2 C :   -0.587230
   3 H :    0.373387
   4 H :    0.345735
   5 S :    1.190462
   6 F :   -0.111184
   7 O :   -0.587061
   8 O :   -0.617763
   9 H :    0.298988
  10 H :    0.259886
  11 H :    0.347889
  12 H :    0.326148
  13 H :    0.315293
Sum of atomic charges:   -0.0000000

LOEWDIN ATOMIC CHARGES
----------------------
   0 C :   -0.103642
   1 C :   -0.267648
   2 C :   -0.243886
   3 H :    0.108624
   4 H :    0.101892
   5 S :    0.606159
   6 F :   -0.047882
   7 O :   -0.268679
   8 O :   -0.306663
   9 H :    0.111672
  10 H :    0.114984
  11 H :    0.051178
  12 H :    0.073081
  13 H :    0.070811

  Mayer bond orders larger than 0.100000
B(  0-C ,  1-C ) :   0.6410 B(  0-C ,  2-C ) :   0.1649 B(  0-C , 11-H ) :   0.9828
B(  0-C , 12-H ) :   0.9529 B(  0-C , 13-H ) :   0.9512 B(  1-C ,  2-C ) :   0.9901
B(  1-C ,  5-S ) :   0.1307 B(  1-C ,  9-H ) :   0.9356 B(  1-C , 10-H ) :   0.9416
B(  2-C ,  3-H ) :   0.8399 B(  2-C ,  4-H ) :   0.8911 B(  2-C ,  5-S ) :   0.8101
B(  5-S ,  6-F ) :   0.9858 B(  5-S ,  7-O ) :   1.6798 B(  5-S ,  8-O ) :   1.6485

Dispersion correction           -0.004465404
FINAL SINGLE POINT ENERGY      -767.055985206158

DIPOLE MOMENT
-------------
                                X             Y             Z
Electronic contribution:    -10.71947      -8.92760      -2.85589
Nuclear contribution   :     11.47400       8.34657       4.07449
                        -----------------------------------------
Total Dipole Moment    :      0.75453      -0.58102       1.21861
                        -----------------------------------------
Magnitude (a.u.)       :      1.54658
Magnitude (Debye)      :      3.93109

Rotational constants in cm-1:     0.134491     0.052696     0.050832
Rotational constants in MHz :  4031.952949  1579.780527  1523.918863

                             ****ORCA TERMINATED NORMALLY****
TOTAL RUN TIME: 0 days 0 hours 0 minutes 49 seconds 920 msec
