                         Program Version 5.0.0 -  RELEASE  -
|  1> !wB97X-D3 RIJCOSX def2-TZVPD def2/J TightSCF
|  2> *xyz 0 1
|  3> C          3.38093        2.08304       -3.35013
|  4> C          4.53592        1.18245       -3.42852
|  5> C          2.49556        1.81615       -2.13636
|  6> C          1.87218        0.42790       -2.07750
|  7> C          4.67196        0.12227       -4.22060
|  8> N          5.86602       -0.50785       -4.22428
|  9> N          3.69888       -0.31284       -4.98699
| 10> H          2.73141       -0.05009       -4.84900
| 11> H          3.89005       -1.05517       -5.64373
| 12> H          5.25193        1.30346       -2.72101
| 13> H          6.69516       -0.06232       -3.85160
| 14> H          5.97538       -1.39688       -4.69141
| 15> H          1.69700        2.56197       -2.14111
| 16> H          3.08079        1.98744       -1.22584
| 17> H          2.80646        1.98651       -4.26848
| 18> H          3.77871        3.09828       -3.30738
| 19> H          1.29954        0.25615       -2.96490
| 20> H          1.23321        0.35984       -1.22194
| 21> H          2.64581       -0.30765       -2.00430
| 22> *
| 23>
| 24> %MaxCore 64000
| 25>
| 26> %pal nprocs 8
| 27> end
| 28>
| 29> %scf
| 30>   MaxIter 150
| 31> end
| 32>
| 33>
| 34>                          ****END OF INPUT****

CARTESIAN COORDINATES (ANGSTROEM)
---------------------------------
  C      3.380930    2.083040   -3.350130
  C      4.535920    1.182450   -3.428520
  C      2.495560    1.816150   -2.136360
  C      1.872180    0.427900   -2.077500
  C      4.671960    0.122270   -4.220600
  N      5.866020   -0.507850   -4.224280
  N      3.698880   -0.312840   -4.986990
  H      2.731410   -0.050090   -4.849000
  H      3.890050   -1.055170   -5.643730
  H      5.251930    1.303460   -2.721010
  H      6.695160   -0.062320   -3.851600
  H      5.975380   -1.396880   -4.691410
  H      1.697000    2.561970   -2.141110
  H      3.080790    1.987440   -1.225840
  H      2.806460    1.986510   -4.268480
  H      3.778710    3.098280   -3.307380
  H      1.299540    0.256150   -2.964900
  H      1.233210    0.359840   -1.221940
  H      2.645810   -0.307650   -2.004300

 Total Charge           Charge          ....    0
 Multiplicity           Mult            ....    1
 Number of Electrons    NEL             ....   56
 Basis Dimension        Dim             ....  367

ORBITAL ENERGIES
----------------

  NO   OCC          E(Eh)            E(eV)
   0   2.0000     -14.423740      -392.4899
   1   2.0000     -14.417185      -392.3115
   2   2.0000     -10.319950      -280.8201
   3   2.0000     -10.250091      -278.9192
   4   2.0000     -10.246059      -278.8094
   5   2.0000     -10.242672      -278.7173
   6   2.0000     -10.194187      -277.3979
   7   2.0000      -1.078698       -29.3529
   8   2.0000      -0.984160       -26.7804
   9   2.0000      -0.901365       -24.5274
  10   2.0000      -0.835528       -22.7359
  11   2.0000      -0.772324       -21.0160
  12   2.0000      -0.706208       -19.2169
  13   2.0000      -0.670523       -18.2459
  14   2.0000      -0.644999       -17.5513
  15   2.0000      -0.609947       -16.5975
  16   2.0000      -0.578508       -15.7420
  17   2.0000      -0.544057       -14.8045
  18   2.0000      -0.533425       -14.5152
  19   2.0000      -0.513963       -13.9857
  20   2.0000      -0.483553       -13.1581
  21   2.0000      -0.471988       -12.8435
  22   2.0000      -0.445754       -12.1296
  23   2.0000      -0.425325       -11.5737
  24   2.0000      -0.408055       -11.1037
  25   2.0000      -0.402495       -10.9524
  26   2.0000      -0.358852        -9.7649
  27   2.0000      -0.243765        -6.6332
  28   0.0000       0.063921         1.7394
  29   0.0000       0.085646         2.3306
  30   0.0000       0.091534         2.4908
  31   0.0000       0.101139         2.7521
  32   0.0000       0.109885         2.9901

MULLIKEN ATOMIC CHARGES
-----------------------
   0 C :   -0.460681
   1 C :   -0.941332
   2 C :   -0.182399
   3 C :   -1.229835
   4 C :    0.616769
   5 N :   -0.450027
   6 N :   -0.391369
   7 H :    0.163863
   8 H :    0.159183
   9 H :    0.386345
  10 H :    0.194804
  11 H :    0.167591
  12 H :    0.233295
  13 H :    0.303271
  14 H :    0.315473
  15 H :    0.196066
  16 H :    0.272131
  17 H :    0.331094
  18 H :    0.315759
Sum of atomic charges:    0.0000000

LOEWDIN ATOMIC CHARGES
----------------------
   0 C :   -0.239074
   1 C :   -0.141557
   2 C :   -0.265324
   3 C :   -0.114568
   4 C :   -0.546198
   5 N :    0.097163
   6 N :    0.131217
   7 H :    0.100504
   8 H :    0.105900
   9 H :    0.071266
  10 H :    0.108529
  11 H :    0.093812
  12 H :    0.098736
  13 H :    0.107633
  14 H :    0.100990
  15 H :    0.104886
  16 H :    0.058718
  17 H :    0.061959
  18 H :    0.065407

  Mayer bond orders larger than 0.100000
B(  0-C ,  1-C ) :   0.7210 B(  0-C ,  2-C ) :   0.7328 B(  0-C ,  9-H ) :  -0.1054
B(  0-C , 14-H ) :   0.9217 B(  0-C , 15-H ) :   1.1031 B(  1-C ,  2-C ) :   0.1754
B(  1-C ,  3-C ) :   0.1251 B(  1-C ,  4-C ) :   1.3080 B(  1-C ,  5-N ) :   0.1782
B(  1-C ,  9-H ) :   0.8739 B(  2-C ,  3-C ) :   0.6752 B(  2-C , 12-H ) :   0.9654
B(  2-C , 13-H ) :   0.9373 B(  3-C , 16-H ) :   0.9994 B(  3-C , 17-H ) :   0.9197
B(  3-C , 18-H ) :   0.9741 B(  4-C ,  5-N ) :   0.8578 B(  4-C ,  6-N ) :   0.9906
B(  4-C ,  9-H ) :  -0.1060 B(  5-N , 10-H ) :   0.9998 B(  5-N , 11-H ) :   1.0536
B(  6-N ,  7-H ) :   0.9733 B(  6-N ,  8-H ) :   1.0620

Dispersion correction           -0.005564286
FINAL SINGLE POINT ENERGY      -307.265235465779

DIPOLE MOMENT
-------------
                                X             Y             Z
Electronic contribution:      4.22470      -1.64374      -3.46747
Nuclear contribution   :     -4.04774       0.83876       2.94666
                        -----------------------------------------
Total Dipole Moment    :      0.17696      -0.80498      -0.52080
                        -----------------------------------------
Magnitude (a.u.)       :      0.97495
Magnitude (Debye)      :      2.47814

Rotational constants in cm-1:     0.155283     0.051523     0.046710
Rotational constants in MHz :  4655.262593  1544.606434  1400.328421

                             ****ORCA TERMINATED NORMALLY****
TOTAL RUN TIME: 0 days 0 hours 1 minutes 11 seconds 419 msec
