                         Program Version 5.0.0 -  RELEASE  -
|  1> !wB97X-D3 RIJCOSX def2-TZVPD def2/J TightSCF
|  2> *xyz 0 1
|  3> C          3.38093        2.08304       -3.35013
|  4> C          2.49556        1.81615       -2.13636
|  5> C          1.87218        0.42790       -2.07750
|  6> H          2.61427       -0.36583       -2.19889
|  7> H          1.38995        0.27309       -1.11236
|  8> S          0.57902        0.14047       -3.29794
|  9> O          0.22886       -1.24687       -3.12787
| 10> F         -0.43927        1.11897       -3.01455
| 11> O          1.24788        0.40347       -4.59565
| 12> H          1.69700        2.56197       -2.14111
| 13> H          3.08079        1.98744       -1.22584
| 14> H          2.81820        1.91840       -4.24519
| 15> H          4.22171        1.42153       -3.33067
| 16> H          3.72372        3.09635       -3.32565
| 17> *
| 18>
| 19> %MaxCore 64000
| 20>
| 21> %pal nprocs 8
| 22> end
| 23>
| 24> %scf
| 25>   MaxIter 150
| 26> end
| 27>
| 28>
| 29>                          ****END OF INPUT****

CARTESIAN COORDINATES (ANGSTROEM)
---------------------------------
  C      3.380930    2.083040   -3.350130
  C      2.495560    1.816150   -2.136360
  C      1.872180    0.427900   -2.077500
  H      2.614270   -0.365830   -2.198890
  H      1.389950    0.273090   -1.112360
  S      0.579020    0.140470   -3.297940
  O      0.228860   -1.246870   -3.127870
  F     -0.439270    1.118970   -3.014550
  O      1.247880    0.403470   -4.595650
  H      1.697000    2.561970   -2.141110
  H      3.080790    1.987440   -1.225840
  H      2.818200    1.918400   -4.245190
  H      4.221710    1.421530   -3.330670
  H      3.723720    3.096350   -3.325650

 Total Charge           Charge          ....    0
 Multiplicity           Mult            ....    1
 Number of Electrons    NEL             ....   66
 Basis Dimension        Dim             ....  340

ORBITAL ENERGIES
----------------

  NO   OCC          E(Eh)            E(eV)
   0   2.0000     -89.197039     -2427.1748
   1   2.0000     -24.910909      -677.8603
   2   2.0000     -19.246987      -523.7371
   3   2.0000     -19.232736      -523.3494
   4   2.0000     -10.333250      -281.1820
   5   2.0000     -10.302149      -280.3357
   6   2.0000     -10.261078      -279.2181
   7   2.0000      -8.260602      -224.7824
   8   2.0000      -6.218032      -169.2013
   9   2.0000      -6.211574      -169.0255
  10   2.0000      -6.211179      -169.0148
  11   2.0000      -1.505004       -40.9532
  12   2.0000      -1.223675       -33.2979
  13   2.0000      -1.122948       -30.5570
  14   2.0000      -0.948582       -25.8122
  15   2.0000      -0.866692       -23.5839
  16   2.0000      -0.820652       -22.3311
  17   2.0000      -0.741772       -20.1847
  18   2.0000      -0.703208       -19.1353
  19   2.0000      -0.694152       -18.8888
  20   2.0000      -0.652904       -17.7664
  21   2.0000      -0.592186       -16.1142
  22   2.0000      -0.587302       -15.9813
  23   2.0000      -0.554962       -15.1013
  24   2.0000      -0.544659       -14.8209
  25   2.0000      -0.530033       -14.4229
  26   2.0000      -0.489320       -13.3151
  27   2.0000      -0.473144       -12.8749
  28   2.0000      -0.467144       -12.7116
  29   2.0000      -0.452769       -12.3205
  30   2.0000      -0.430530       -11.7153
  31   2.0000      -0.411196       -11.1892
  32   2.0000      -0.400903       -10.9091
  33   0.0000       0.050085         1.3629
  34   0.0000       0.062549         1.7021
  35   0.0000       0.070127         1.9083
  36   0.0000       0.072191         1.9644
  37   0.0000       0.096633         2.6295

MULLIKEN ATOMIC CHARGES
-----------------------
   0 C :   -1.203391
   1 C :   -0.293951
   2 C :   -0.567915
   3 H :    0.350091
   4 H :    0.331807
   5 S :    1.172431
   6 O :   -0.571893
   7 F :   -0.133354
   8 O :   -0.612580
   9 H :    0.283108
  10 H :    0.253944
  11 H :    0.343516
  12 H :    0.330284
  13 H :    0.317902
Sum of atomic charges:    0.0000000

LOEWDIN ATOMIC CHARGES
----------------------
   0 C :   -0.106408
   1 C :   -0.277963
   2 C :   -0.235925
   3 H :    0.119744
   4 H :    0.102375
   5 S :    0.604504
   6 O :   -0.273079
   7 F :   -0.043078
   8 O :   -0.302838
   9 H :    0.106006
  10 H :    0.112892
  11 H :    0.048819
  12 H :    0.074885
  13 H :    0.070068

  Mayer bond orders larger than 0.100000
B(  0-C ,  1-C ) :   0.6695 B(  0-C ,  2-C ) :   0.1497 B(  0-C , 11-H ) :   0.9844
B(  0-C , 12-H ) :   0.9554 B(  0-C , 13-H ) :   0.9559 B(  1-C ,  2-C ) :   0.9056
B(  1-C ,  5-S ) :   0.1019 B(  1-C ,  9-H ) :   0.9288 B(  1-C , 10-H ) :   0.9618
B(  2-C ,  3-H ) :   0.8649 B(  2-C ,  4-H ) :   0.9340 B(  2-C ,  5-S ) :   0.8228
B(  2-C ,  6-O ) :   0.1156 B(  5-S ,  6-O ) :   1.6712 B(  5-S ,  7-F ) :   0.9998
B(  5-S ,  8-O ) :   1.6561

Dispersion correction           -0.004429326
FINAL SINGLE POINT ENERGY      -767.055712830153

DIPOLE MOMENT
-------------
                                X             Y             Z
Electronic contribution:    -11.85026      -4.84349      -2.65890
Nuclear contribution   :     12.19253       5.80225       3.95262
                        -----------------------------------------
Total Dipole Moment    :      0.34227       0.95876       1.29373
                        -----------------------------------------
Magnitude (a.u.)       :      1.64624
Magnitude (Debye)      :      4.18441

Rotational constants in cm-1:     0.130581     0.053444     0.051914
Rotational constants in MHz :  3914.711139  1602.211061  1556.338643

                             ****ORCA TERMINATED NORMALLY****
TOTAL RUN TIME: 0 days 0 hours 0 minutes 50 seconds 97 msec
