                         Program Version 5.0.0 -  RELEASE  -
|  1> !wB97X-D3 RIJCOSX def2-TZVPD def2/J TightSCF
|  2> *xyz 0 1
|  3> C          3.38093        2.08304       -3.35013
|  4> N          4.53592        1.18245       -3.42852
|  5> C          2.49556        1.81615       -2.13636
|  6> C          1.87218        0.42790       -2.07750
|  7> C          4.67196        0.12227       -4.22060
|  8> C          5.86602       -0.50785       -4.22428
|  9> N          3.69888       -0.31284       -4.98699
| 10> H          2.73141       -0.05009       -4.84900
| 11> H          3.89005       -1.05517       -5.64373
| 12> H          5.25193        1.30346       -2.72101
| 13> H          6.69516       -0.06232       -3.85160
| 14> H          5.97538       -1.39688       -4.69141
| 15> H          1.69700        2.56197       -2.14111
| 16> H          3.08079        1.98744       -1.22584
| 17> H          2.80646        1.98651       -4.26848
| 18> H          3.77871        3.09828       -3.30738
| 19> H          1.29954        0.25615       -2.96490
| 20> H          1.23321        0.35984       -1.22194
| 21> H          2.64581       -0.30765       -2.00430
| 22> *
| 23>
| 24> %MaxCore 64000
| 25>
| 26> %pal nprocs 8
| 27> end
| 28>
| 29> %scf
| 30>   MaxIter 150
| 31> end
| 32>
| 33>
| 34>                          ****END OF INPUT****

CARTESIAN COORDINATES (ANGSTROEM)
---------------------------------
  C      3.380930    2.083040   -3.350130
  N      4.535920    1.182450   -3.428520
  C      2.495560    1.816150   -2.136360
  C      1.872180    0.427900   -2.077500
  C      4.671960    0.122270   -4.220600
  C      5.866020   -0.507850   -4.224280
  N      3.698880   -0.312840   -4.986990
  H      2.731410   -0.050090   -4.849000
  H      3.890050   -1.055170   -5.643730
  H      5.251930    1.303460   -2.721010
  H      6.695160   -0.062320   -3.851600
  H      5.975380   -1.396880   -4.691410
  H      1.697000    2.561970   -2.141110
  H      3.080790    1.987440   -1.225840
  H      2.806460    1.986510   -4.268480
  H      3.778710    3.098280   -3.307380
  H      1.299540    0.256150   -2.964900
  H      1.233210    0.359840   -1.221940
  H      2.645810   -0.307650   -2.004300

 Total Charge           Charge          ....    0
 Multiplicity           Mult            ....    1
 Number of Electrons    NEL             ....   56
 Basis Dimension        Dim             ....  367

ORBITAL ENERGIES
----------------

  NO   OCC          E(Eh)            E(eV)
   0   2.0000     -14.423313      -392.4783
   1   2.0000     -14.421239      -392.4219
   2   2.0000     -10.324499      -280.9439
   3   2.0000     -10.313218      -280.6369
   4   2.0000     -10.277357      -279.6611
   5   2.0000     -10.262389      -279.2538
   6   2.0000     -10.179491      -276.9980
   7   2.0000      -1.086135       -29.5552
   8   2.0000      -1.003373       -27.3032
   9   2.0000      -0.908065       -24.7097
  10   2.0000      -0.835621       -22.7384
  11   2.0000      -0.783123       -21.3099
  12   2.0000      -0.708888       -19.2898
  13   2.0000      -0.706530       -19.2257
  14   2.0000      -0.647070       -17.6077
  15   2.0000      -0.599861       -16.3230
  16   2.0000      -0.574753       -15.6398
  17   2.0000      -0.563234       -15.3264
  18   2.0000      -0.551216       -14.9993
  19   2.0000      -0.501750       -13.6533
  20   2.0000      -0.496059       -13.4985
  21   2.0000      -0.484991       -13.1973
  22   2.0000      -0.467639       -12.7251
  23   2.0000      -0.447169       -12.1681
  24   2.0000      -0.440601       -11.9894
  25   2.0000      -0.437242       -11.8979
  26   2.0000      -0.345950        -9.4138
  27   2.0000      -0.243473        -6.6252
  28   0.0000       0.063189         1.7194
  29   0.0000       0.081913         2.2290
  30   0.0000       0.088384         2.4051
  31   0.0000       0.090796         2.4707
  32   0.0000       0.111174         3.0252

MULLIKEN ATOMIC CHARGES
-----------------------
   0 C :   -0.844064
   1 N :   -0.145085
   2 C :   -0.064736
   3 C :   -1.222670
   4 C :    1.063160
   5 C :   -1.670511
   6 N :   -0.379396
   7 H :    0.153848
   8 H :    0.175810
   9 H :    0.216872
  10 H :    0.326959
  11 H :    0.320200
  12 H :    0.262863
  13 H :    0.270585
  14 H :    0.383510
  15 H :    0.224418
  16 H :    0.281873
  17 H :    0.327382
  18 H :    0.318983
Sum of atomic charges:   -0.0000000

LOEWDIN ATOMIC CHARGES
----------------------
   0 C :   -0.195312
   1 N :    0.023060
   2 C :   -0.250471
   3 C :   -0.109522
   4 C :   -0.570979
   5 C :   -0.011716
   6 N :    0.126863
   7 H :    0.092059
   8 H :    0.117390
   9 H :    0.148693
  10 H :    0.002779
  11 H :   -0.001807
  12 H :    0.103953
  13 H :    0.107188
  14 H :    0.110618
  15 H :    0.112454
  16 H :    0.060427
  17 H :    0.065391
  18 H :    0.068931

  Mayer bond orders larger than 0.100000
B(  0-C ,  1-N ) :   0.9755 B(  0-C ,  2-C ) :   0.8246 B(  0-C ,  3-C ) :   0.1264
B(  0-C ,  4-C ) :  -0.1229 B(  0-C ,  6-N ) :   0.1174 B(  0-C , 14-H ) :   0.8553
B(  0-C , 15-H ) :   1.0292 B(  1-N ,  4-C ) :   1.1324 B(  1-N ,  5-C ) :   0.1670
B(  1-N ,  9-H ) :   0.9450 B(  2-C ,  3-C ) :   0.6691 B(  2-C , 12-H ) :   0.9892
B(  2-C , 13-H ) :   0.9272 B(  3-C , 16-H ) :   0.9987 B(  3-C , 17-H ) :   0.9274
B(  3-C , 18-H ) :   0.9622 B(  4-C ,  5-C ) :   0.7492 B(  4-C ,  6-N ) :   0.9970
B(  4-C , 11-H ) :  -0.1301 B(  5-C ,  6-N ) :   0.1200 B(  5-C , 10-H ) :   0.9256
B(  5-C , 11-H ) :   1.0483 B(  6-N ,  7-H ) :   0.9830 B(  6-N ,  8-H ) :   1.0258

Dispersion correction           -0.005635410
FINAL SINGLE POINT ENERGY      -307.254645873651

DIPOLE MOMENT
-------------
                                X             Y             Z
Electronic contribution:      2.66969       0.02637      -2.60194
Nuclear contribution   :     -3.75638       0.46849       2.77235
                        -----------------------------------------
Total Dipole Moment    :     -1.08669       0.49487       0.17041
                        -----------------------------------------
Magnitude (a.u.)       :      1.20616
Magnitude (Debye)      :      3.06582

Rotational constants in cm-1:     0.154609     0.053528     0.048030
Rotational constants in MHz :  4635.053294  1604.739826  1439.897073

                             ****ORCA TERMINATED NORMALLY****
TOTAL RUN TIME: 0 days 0 hours 1 minutes 10 seconds 586 msec
