                         Program Version 5.0.0 -  RELEASE  -
|  1> !wB97X-D3 RIJCOSX def2-TZVPD def2/J TightSCF
|  2> *xyz 0 1
|  3> C          3.38093        2.08304       -3.35013
|  4> C          2.49556        1.81615       -2.13636
|  5> C          1.87218        0.42790       -2.07750
|  6> H          2.61427       -0.36583       -2.19889
|  7> H          1.38995        0.27309       -1.11236
|  8> S          0.57902        0.14047       -3.29794
|  9> O          0.22886       -1.24687       -3.12787
| 10> O         -0.43927        1.11897       -3.01455
| 11> F          1.24788        0.40347       -4.59565
| 12> H          1.69700        2.56197       -2.14111
| 13> H          3.08079        1.98744       -1.22584
| 14> H          2.81820        1.91840       -4.24519
| 15> H          4.22171        1.42153       -3.33067
| 16> H          3.72372        3.09635       -3.32565
| 17> *
| 18>
| 19> %MaxCore 64000
| 20>
| 21> %pal nprocs 8
| 22> end
| 23>
| 24> %scf
| 25>   MaxIter 150
| 26> end
| 27>
| 28>
| 29>                          ****END OF INPUT****

CARTESIAN COORDINATES (ANGSTROEM)
---------------------------------
  C      3.380930    2.083040   -3.350130
  C      2.495560    1.816150   -2.136360
  C      1.872180    0.427900   -2.077500
  H      2.614270   -0.365830   -2.198890
  H      1.389950    0.273090   -1.112360
  S      0.579020    0.140470   -3.297940
  O      0.228860   -1.246870   -3.127870
  O     -0.439270    1.118970   -3.014550
  F      1.247880    0.403470   -4.595650
  H      1.697000    2.561970   -2.141110
  H      3.080790    1.987440   -1.225840
  H      2.818200    1.918400   -4.245190
  H      4.221710    1.421530   -3.330670
  H      3.723720    3.096350   -3.325650

 Total Charge           Charge          ....    0
 Multiplicity           Mult            ....    1
 Number of Electrons    NEL             ....   66
 Basis Dimension        Dim             ....  340

ORBITAL ENERGIES
----------------

  NO   OCC          E(Eh)            E(eV)
   0   2.0000     -89.193601     -2427.0813
   1   2.0000     -24.887669      -677.2279
   2   2.0000     -19.246223      -523.7163
   3   2.0000     -19.245829      -523.7056
   4   2.0000     -10.332012      -281.1483
   5   2.0000     -10.302229      -280.3379
   6   2.0000     -10.275949      -279.6228
   7   2.0000      -8.257261      -224.6915
   8   2.0000      -6.214780      -169.1128
   9   2.0000      -6.208387      -168.9388
  10   2.0000      -6.207713      -168.9204
  11   2.0000      -1.469013       -39.9739
  12   2.0000      -1.233539       -33.5663
  13   2.0000      -1.142141       -31.0792
  14   2.0000      -0.950552       -25.8658
  15   2.0000      -0.865459       -23.5503
  16   2.0000      -0.808413       -21.9980
  17   2.0000      -0.746363       -20.3096
  18   2.0000      -0.682114       -18.5613
  19   2.0000      -0.669643       -18.2219
  20   2.0000      -0.653018       -17.7695
  21   2.0000      -0.594357       -16.1733
  22   2.0000      -0.579147       -15.7594
  23   2.0000      -0.564323       -15.3560
  24   2.0000      -0.554810       -15.0972
  25   2.0000      -0.534385       -14.5414
  26   2.0000      -0.499089       -13.5809
  27   2.0000      -0.482227       -13.1221
  28   2.0000      -0.463665       -12.6170
  29   2.0000      -0.456905       -12.4330
  30   2.0000      -0.438935       -11.9440
  31   2.0000      -0.423585       -11.5263
  32   2.0000      -0.417754       -11.3677
  33   0.0000       0.056559         1.5391
  34   0.0000       0.062523         1.7013
  35   0.0000       0.069530         1.8920
  36   0.0000       0.073099         1.9891
  37   0.0000       0.099348         2.7034

MULLIKEN ATOMIC CHARGES
-----------------------
   0 C :   -1.218652
   1 C :   -0.331399
   2 C :   -0.553112
   3 H :    0.352826
   4 H :    0.324351
   5 S :    1.204547
   6 O :   -0.581398
   7 O :   -0.591192
   8 F :   -0.172976
   9 H :    0.297996
  10 H :    0.270980
  11 H :    0.350753
  12 H :    0.335912
  13 H :    0.311363
Sum of atomic charges:   -0.0000000

LOEWDIN ATOMIC CHARGES
----------------------
   0 C :   -0.104088
   1 C :   -0.277868
   2 C :   -0.235511
   3 H :    0.110558
   4 H :    0.113030
   5 S :    0.598554
   6 O :   -0.274301
   7 O :   -0.267748
   8 F :   -0.086340
   9 H :    0.109346
  10 H :    0.114257
  11 H :    0.052969
  12 H :    0.074317
  13 H :    0.072826

  Mayer bond orders larger than 0.100000
B(  0-C ,  1-C ) :   0.5843 B(  0-C ,  2-C ) :   0.1726 B(  0-C , 11-H ) :   0.9560
B(  0-C , 12-H ) :   0.9617 B(  0-C , 13-H ) :   0.9679 B(  1-C ,  2-C ) :   0.9226
B(  1-C ,  5-S ) :   0.1158 B(  1-C ,  9-H ) :   0.9589 B(  1-C , 10-H ) :   0.9360
B(  2-C ,  3-H ) :   0.8934 B(  2-C ,  4-H ) :   0.9181 B(  2-C ,  5-S ) :   0.7930
B(  2-C ,  6-O ) :   0.1166 B(  5-S ,  6-O ) :   1.6563 B(  5-S ,  7-O ) :   1.6733
B(  5-S ,  8-F ) :   0.9739

Dispersion correction           -0.004450802
FINAL SINGLE POINT ENERGY      -767.074141011535

DIPOLE MOMENT
-------------
                                X             Y             Z
Electronic contribution:     -8.89015      -6.03145      -5.35642
Nuclear contribution   :     10.37810       6.57173       5.65300
                        -----------------------------------------
Total Dipole Moment    :      1.48795       0.54028       0.29658
                        -----------------------------------------
Magnitude (a.u.)       :      1.61054
Magnitude (Debye)      :      4.09367

Rotational constants in cm-1:     0.130522     0.054787     0.051463
Rotational constants in MHz :  3912.959799  1642.486768  1542.828917

                             ****ORCA TERMINATED NORMALLY****
TOTAL RUN TIME: 0 days 0 hours 0 minutes 49 seconds 972 msec
