                         Program Version 5.0.0 -  RELEASE  -
|  1> !wB97X-D3 RIJCOSX def2-TZVPD def2/J TightSCF
|  2> *xyz 0 1
|  3> C          3.38093        2.08304       -3.35013
|  4> N          4.53592        1.18245       -3.42852
|  5> C          2.49556        1.81615       -2.13636
|  6> C          1.87218        0.42790       -2.07750
|  7> C          4.67196        0.12227       -4.22060
|  8> N          5.86602       -0.50785       -4.22428
|  9> C          3.69888       -0.31284       -4.98699
| 10> H          2.73141       -0.05009       -4.84900
| 11> H          3.89005       -1.05517       -5.64373
| 12> H          5.25193        1.30346       -2.72101
| 13> H          6.69516       -0.06232       -3.85160
| 14> H          5.97538       -1.39688       -4.69141
| 15> H          1.69700        2.56197       -2.14111
| 16> H          3.08079        1.98744       -1.22584
| 17> H          2.80646        1.98651       -4.26848
| 18> H          3.77871        3.09828       -3.30738
| 19> H          1.29954        0.25615       -2.96490
| 20> H          1.23321        0.35984       -1.22194
| 21> H          2.64581       -0.30765       -2.00430
| 22> *
| 23>
| 24> %MaxCore 64000
| 25>
| 26> %pal nprocs 8
| 27> end
| 28>
| 29> %scf
| 30>   MaxIter 150
| 31> end
| 32>
| 33>
| 34>                          ****END OF INPUT****

CARTESIAN COORDINATES (ANGSTROEM)
---------------------------------
  C      3.380930    2.083040   -3.350130
  N      4.535920    1.182450   -3.428520
  C      2.495560    1.816150   -2.136360
  C      1.872180    0.427900   -2.077500
  C      4.671960    0.122270   -4.220600
  N      5.866020   -0.507850   -4.224280
  C      3.698880   -0.312840   -4.986990
  H      2.731410   -0.050090   -4.849000
  H      3.890050   -1.055170   -5.643730
  H      5.251930    1.303460   -2.721010
  H      6.695160   -0.062320   -3.851600
  H      5.975380   -1.396880   -4.691410
  H      1.697000    2.561970   -2.141110
  H      3.080790    1.987440   -1.225840
  H      2.806460    1.986510   -4.268480
  H      3.778710    3.098280   -3.307380
  H      1.299540    0.256150   -2.964900
  H      1.233210    0.359840   -1.221940
  H      2.645810   -0.307650   -2.004300

 Total Charge           Charge          ....    0
 Multiplicity           Mult            ....    1
 Number of Electrons    NEL             ....   56
 Basis Dimension        Dim             ....  367

ORBITAL ENERGIES
----------------

  NO   OCC          E(Eh)            E(eV)
   0   2.0000     -14.421978      -392.4420
   1   2.0000     -14.417844      -392.3295
   2   2.0000     -10.321603      -280.8651
   3   2.0000     -10.304977      -280.4127
   4   2.0000     -10.269563      -279.4490
   5   2.0000     -10.249249      -278.8963
   6   2.0000     -10.183626      -277.1105
   7   2.0000      -1.079936       -29.3865
   8   2.0000      -0.994952       -27.0740
   9   2.0000      -0.894141       -24.3308
  10   2.0000      -0.831856       -22.6360
  11   2.0000      -0.798408       -21.7258
  12   2.0000      -0.711656       -19.3652
  13   2.0000      -0.668779       -18.1984
  14   2.0000      -0.643085       -17.4992
  15   2.0000      -0.615389       -16.7456
  16   2.0000      -0.565693       -15.3933
  17   2.0000      -0.558309       -15.1924
  18   2.0000      -0.527604       -14.3568
  19   2.0000      -0.509094       -13.8531
  20   2.0000      -0.486765       -13.2456
  21   2.0000      -0.482045       -13.1171
  22   2.0000      -0.467815       -12.7299
  23   2.0000      -0.439836       -11.9686
  24   2.0000      -0.435657       -11.8548
  25   2.0000      -0.423762       -11.5311
  26   2.0000      -0.339144        -9.2286
  27   2.0000      -0.256536        -6.9807
  28   0.0000       0.065941         1.7944
  29   0.0000       0.083468         2.2713
  30   0.0000       0.088189         2.3997
  31   0.0000       0.094781         2.5791
  32   0.0000       0.111018         3.0210

MULLIKEN ATOMIC CHARGES
-----------------------
   0 C :   -0.843632
   1 N :   -0.196910
   2 C :   -0.087684
   3 C :   -1.184401
   4 C :    1.094051
   5 N :   -0.457585
   6 C :   -1.580349
   7 H :    0.278903
   8 H :    0.343265
   9 H :    0.219137
  10 H :    0.178501
  11 H :    0.182399
  12 H :    0.250117
  13 H :    0.265118
  14 H :    0.410696
  15 H :    0.208033
  16 H :    0.288500
  17 H :    0.325422
  18 H :    0.306419
Sum of atomic charges:    0.0000000

LOEWDIN ATOMIC CHARGES
----------------------
   0 C :   -0.191923
   1 N :    0.016326
   2 C :   -0.248337
   3 C :   -0.108444
   4 C :   -0.561391
   5 N :    0.101313
   6 C :    0.000875
   7 H :    0.003451
   8 H :    0.014320
   9 H :    0.140899
  10 H :    0.098426
  11 H :    0.106001
  12 H :    0.103846
  13 H :    0.104025
  14 H :    0.113884
  15 H :    0.112055
  16 H :    0.064447
  17 H :    0.063153
  18 H :    0.067074

  Mayer bond orders larger than 0.100000
B(  0-C ,  1-N ) :   0.9832 B(  0-C ,  2-C ) :   0.8434 B(  0-C ,  3-C ) :   0.1050
B(  0-C ,  6-C ) :   0.2225 B(  0-C , 14-H ) :   0.8332 B(  0-C , 15-H ) :   1.0007
B(  1-N ,  4-C ) :   1.0583 B(  1-N ,  5-N ) :   0.1014 B(  1-N ,  9-H ) :   0.9640
B(  2-C ,  3-C ) :   0.7203 B(  2-C , 12-H ) :   0.9805 B(  2-C , 13-H ) :   0.9325
B(  3-C , 16-H ) :   0.9950 B(  3-C , 17-H ) :   0.9341 B(  3-C , 18-H ) :   0.9703
B(  4-C ,  5-N ) :   0.8923 B(  4-C ,  6-C ) :   0.8555 B(  4-C ,  8-H ) :  -0.1687
B(  5-N , 10-H ) :   1.0253 B(  5-N , 11-H ) :   1.0207 B(  6-C ,  7-H ) :   0.9276
B(  6-C ,  8-H ) :   1.0667

Dispersion correction           -0.005583955
FINAL SINGLE POINT ENERGY      -307.259196057748

DIPOLE MOMENT
-------------
                                X             Y             Z
Electronic contribution:      4.87290      -0.21742      -1.95716
Nuclear contribution   :     -4.23110       0.51121       2.60527
                        -----------------------------------------
Total Dipole Moment    :      0.64180       0.29379       0.64811
                        -----------------------------------------
Magnitude (a.u.)       :      0.95826
Magnitude (Debye)      :      2.43572

Rotational constants in cm-1:     0.158478     0.052124     0.047173
Rotational constants in MHz :  4751.056263  1562.646208  1414.197352

                             ****ORCA TERMINATED NORMALLY****
TOTAL RUN TIME: 0 days 0 hours 1 minutes 8 seconds 165 msec
