                         Program Version 5.0.0 -  RELEASE  -
|  1> !wB97X-D3 RIJCOSX def2-TZVPD def2/J TightSCF xyzfile
|  2>
|  3> *xyzfile 0 1 D5.xyz
|  4>
|  5> %MaxCore 64000
|  6>
|  7> %pal nprocs 18
|  8> end
|  9>
| 10> %scf
| 11>   MaxIter 150
| 12> end
| 13>
| 14>
| 15>                          ****END OF INPUT****

CARTESIAN COORDINATES (ANGSTROEM)
---------------------------------
  C      3.380928    2.083045   -3.350127
  N      4.535924    1.182447   -3.428518
  C      2.495557    1.816150   -2.136364
  C      1.872181    0.427903   -2.077497
  H      2.614270   -0.365825   -2.198894
  H      1.389953    0.273087   -1.112360
  S      0.579024    0.140472   -3.297943
  C      4.671956    0.122273   -4.220598
  C      5.866023   -0.507849   -4.224284
  N      3.698881   -0.312844   -4.986988
  H      2.731405   -0.050091   -4.849000
  H      3.890046   -1.055172   -5.643730
  H      5.251933    1.303459   -2.721014
  H      6.695165   -0.062322   -3.851596
  H      5.975383   -1.396884   -4.691414
  O      0.228860   -1.246868   -3.127871
  F     -0.439269    1.118966   -3.014550
  O      1.247881    0.403474   -4.595647
  H      1.697003    2.561969   -2.141109
  H      3.080787    1.987436   -1.225838
  H      2.806463    1.986511   -4.268484
  H      3.778714    3.098282   -3.307383

 Total Charge           Charge          ....    0
 Multiplicity           Mult            ....    1
 Number of Electrons    NEL             ....   96
 Basis Dimension        Dim             ....  524

ORBITAL ENERGIES
----------------

  NO   OCC          E(Eh)            E(eV)
   0   2.0000     -89.219769     -2427.7933
   1   2.0000     -24.930190      -678.3850
   2   2.0000     -19.266311      -524.2630
   3   2.0000     -19.260504      -524.1050
   4   2.0000     -14.423848      -392.4928
   5   2.0000     -14.393737      -391.6735
   6   2.0000     -10.347082      -281.5584
   7   2.0000     -10.321109      -280.8516
   8   2.0000     -10.316450      -280.7249
   9   2.0000     -10.315096      -280.6880
  10   2.0000     -10.172187      -276.7993
  11   2.0000      -8.283450      -225.4041
  12   2.0000      -6.240751      -169.8195
  13   2.0000      -6.234637      -169.6531
  14   2.0000      -6.233927      -169.6338
  15   2.0000      -1.524224       -41.4762
  16   2.0000      -1.247831       -33.9552
  17   2.0000      -1.152541       -31.3622
  18   2.0000      -1.079915       -29.3860
  19   2.0000      -0.996907       -27.1272
  20   2.0000      -0.955305       -25.9952
  21   2.0000      -0.883705       -24.0468
  22   2.0000      -0.840643       -22.8751
  23   2.0000      -0.801951       -21.8222
  24   2.0000      -0.747018       -20.3274
  25   2.0000      -0.719576       -19.5807
  26   2.0000      -0.717247       -19.5173
  27   2.0000      -0.701660       -19.0931
  28   2.0000      -0.679817       -18.4988
  29   2.0000      -0.644381       -17.5345
  30   2.0000      -0.611756       -16.6467
  31   2.0000      -0.599894       -16.3240
  32   2.0000      -0.589246       -16.0342
  33   2.0000      -0.580321       -15.7913
  34   2.0000      -0.561545       -15.2804
  35   2.0000      -0.550271       -14.9736
  36   2.0000      -0.519079       -14.1249
  37   2.0000      -0.511566       -13.9204
  38   2.0000      -0.504995       -13.7416
  39   2.0000      -0.488309       -13.2876
  40   2.0000      -0.479801       -13.0561
  41   2.0000      -0.461417       -12.5558
  42   2.0000      -0.449526       -12.2322
  43   2.0000      -0.438466       -11.9313
  44   2.0000      -0.433740       -11.8027
  45   2.0000      -0.427575       -11.6349
  46   2.0000      -0.340126        -9.2553
  47   2.0000      -0.237082        -6.4513
  48   0.0000       0.037294         1.0148
  49   0.0000       0.054496         1.4829
  50   0.0000       0.061636         1.6772
  51   0.0000       0.066723         1.8156
  52   0.0000       0.082978         2.2579

MULLIKEN ATOMIC CHARGES
-----------------------
   0 C :   -0.815711
   1 N :   -0.161403
   2 C :   -0.456485
   3 C :   -0.592404
   4 H :    0.363730
   5 H :    0.371075
   6 S :    1.164805
   7 C :    0.962201
   8 C :   -1.698555
   9 N :   -0.270837
  10 H :    0.157551
  11 H :    0.167765
  12 H :    0.235634
  13 H :    0.326845
  14 H :    0.328923
  15 O :   -0.585764
  16 F :   -0.121904
  17 O :   -0.689174
  18 H :    0.293035
  19 H :    0.306844
  20 H :    0.442204
  21 H :    0.271627
Sum of atomic charges:   -0.0000000

LOEWDIN ATOMIC CHARGES
----------------------
   0 C :   -0.180999
   1 N :    0.027797
   2 C :   -0.204227
   3 C :   -0.211170
   4 H :    0.120698
   5 H :    0.106887
   6 S :    0.642689
   7 C :   -0.567530
   8 C :   -0.015605
   9 N :    0.141352
  10 H :    0.014647
  11 H :    0.122623
  12 H :    0.147468
  13 H :   -0.001167
  14 H :   -0.002151
  15 O :   -0.252390
  16 F :   -0.031394
  17 O :   -0.313859
  18 H :    0.111204
  19 H :    0.120245
  20 H :    0.105478
  21 H :    0.119403

  Mayer bond orders larger than 0.100000
B(  0-C ,  1-N ) :   0.9788 B(  0-C ,  2-C ) :   0.8959 B(  0-C ,  7-C ) :  -0.1036
B(  0-C , 20-H ) :   0.8286 B(  0-C , 21-H ) :   0.9688 B(  1-N ,  7-C ) :   1.1356
B(  1-N ,  8-C ) :   0.1581 B(  1-N , 12-H ) :   0.9238 B(  2-C ,  3-C ) :   1.0745
B(  2-C ,  6-S ) :   0.1625 B(  2-C , 18-H ) :   0.9412 B(  2-C , 19-H ) :   0.8933
B(  3-C ,  4-H ) :   0.8447 B(  3-C ,  5-H ) :   0.8810 B(  3-C ,  6-S ) :   0.7709
B(  3-C , 15-O ) :   0.1097 B(  6-S , 15-O ) :   1.6380 B(  6-S , 16-F ) :   1.0034
B(  6-S , 17-O ) :   1.6149 B(  7-C ,  8-C ) :   0.7795 B(  7-C ,  9-N ) :   1.0634
B(  7-C , 14-H ) :  -0.1003 B(  8-C ,  9-N ) :   0.1023 B(  8-C , 13-H ) :   0.9606
B(  8-C , 14-H ) :   1.0125 B(  9-N , 10-H ) :   0.8484 B(  9-N , 11-H ) :   1.0136
B( 10-H , 17-O ) :   0.1059

Dispersion correction           -0.009879548
FINAL SINGLE POINT ENERGY      -955.157578985075

DIPOLE MOMENT
-------------
                                X             Y             Z
Electronic contribution:    -17.92551      -1.17206      -0.17735
Nuclear contribution   :     16.78714       2.58368       1.61768
                        -----------------------------------------
Total Dipole Moment    :     -1.13837       1.41163       1.44033
                        -----------------------------------------
Magnitude (a.u.)       :      2.31584
Magnitude (Debye)      :      5.88641

Rotational constants in cm-1:     0.059928     0.020911     0.017993
Rotational constants in MHz :  1796.610847   626.896941   539.414615

                             ****ORCA TERMINATED NORMALLY****
TOTAL RUN TIME: 0 days 0 hours 1 minutes 26 seconds 789 msec
