                         Program Version 5.0.0 -  RELEASE  -
|  1> !wB97X-D3 RIJCOSX def2-TZVPD def2/J TightSCF xyzfile
|  2>
|  3> *xyzfile 0 1 D6.xyz
|  4>
|  5> %MaxCore 64000
|  6>
|  7> %pal nprocs 18
|  8> end
|  9>
| 10> %scf
| 11>   MaxIter 150
| 12> end
| 13>
| 14>
| 15>                          ****END OF INPUT****

CARTESIAN COORDINATES (ANGSTROEM)
---------------------------------
  C      3.380928    2.083045   -3.350127
  N      4.535924    1.182447   -3.428518
  C      2.495557    1.816150   -2.136364
  C      1.872181    0.427903   -2.077497
  H      2.614270   -0.365825   -2.198894
  H      1.389953    0.273087   -1.112360
  S      0.579024    0.140472   -3.297943
  C      4.671956    0.122273   -4.220598
  N      5.866023   -0.507849   -4.224284
  C      3.698881   -0.312844   -4.986988
  H      2.731405   -0.050091   -4.849000
  H      3.890046   -1.055172   -5.643730
  H      5.251933    1.303459   -2.721014
  H      6.695165   -0.062322   -3.851596
  H      5.975383   -1.396884   -4.691414
  O      0.228860   -1.246868   -3.127871
  F     -0.439269    1.118966   -3.014550
  O      1.247881    0.403474   -4.595647
  H      1.697003    2.561969   -2.141109
  H      3.080787    1.987436   -1.225838
  H      2.806463    1.986511   -4.268484
  H      3.778714    3.098282   -3.307383

 Total Charge           Charge          ....    0
 Multiplicity           Mult            ....    1
 Number of Electrons    NEL             ....   96
 Basis Dimension        Dim             ....  524

ORBITAL ENERGIES
----------------

  NO   OCC          E(Eh)            E(eV)
   0   2.0000     -89.196967     -2427.1729
   1   2.0000     -24.910395      -677.8463
   2   2.0000     -19.246520      -523.7244
   3   2.0000     -19.232653      -523.3471
   4   2.0000     -14.423924      -392.4949
   5   2.0000     -14.411513      -392.1572
   6   2.0000     -10.332625      -281.1650
   7   2.0000     -10.314412      -280.6694
   8   2.0000     -10.311891      -280.6008
   9   2.0000     -10.306533      -280.4550
  10   2.0000     -10.160870      -276.4913
  11   2.0000      -8.260751      -224.7865
  12   2.0000      -6.218163      -169.2048
  13   2.0000      -6.211673      -169.0282
  14   2.0000      -6.211373      -169.0201
  15   2.0000      -1.504818       -40.9482
  16   2.0000      -1.225213       -33.3397
  17   2.0000      -1.127664       -30.6853
  18   2.0000      -1.078212       -29.3396
  19   2.0000      -0.995404       -27.0863
  20   2.0000      -0.942376       -25.6434
  21   2.0000      -0.864382       -23.5210
  22   2.0000      -0.830669       -22.6036
  23   2.0000      -0.807750       -21.9800
  24   2.0000      -0.753413       -20.5014
  25   2.0000      -0.705387       -19.1945
  26   2.0000      -0.696988       -18.9660
  27   2.0000      -0.673854       -18.3365
  28   2.0000      -0.658204       -17.9106
  29   2.0000      -0.636799       -17.3282
  30   2.0000      -0.616994       -16.7892
  31   2.0000      -0.596342       -16.2273
  32   2.0000      -0.587934       -15.9985
  33   2.0000      -0.564327       -15.3561
  34   2.0000      -0.549824       -14.9615
  35   2.0000      -0.542293       -14.7566
  36   2.0000      -0.514859       -14.0100
  37   2.0000      -0.497330       -13.5330
  38   2.0000      -0.490451       -13.3459
  39   2.0000      -0.482425       -13.1274
  40   2.0000      -0.471415       -12.8279
  41   2.0000      -0.463297       -12.6070
  42   2.0000      -0.447509       -12.1773
  43   2.0000      -0.417828       -11.3697
  44   2.0000      -0.405443       -11.0327
  45   2.0000      -0.390443       -10.6245
  46   2.0000      -0.340402        -9.2628
  47   2.0000      -0.247454        -6.7336
  48   0.0000       0.045072         1.2265
  49   0.0000       0.059431         1.6172
  50   0.0000       0.067082         1.8254
  51   0.0000       0.071249         1.9388
  52   0.0000       0.089509         2.4357

MULLIKEN ATOMIC CHARGES
-----------------------
   0 C :   -0.805316
   1 N :   -0.203587
   2 C :   -0.487207
   3 C :   -0.543152
   4 H :    0.343483
   5 H :    0.361104
   6 S :    1.142513
   7 C :    1.098764
   8 N :   -0.459388
   9 C :   -1.488677
  10 H :    0.163228
  11 H :    0.311819
  12 H :    0.228176
  13 H :    0.169221
  14 H :    0.187584
  15 O :   -0.601330
  16 F :   -0.128291
  17 O :   -0.570069
  18 H :    0.280392
  19 H :    0.303615
  20 H :    0.444188
  21 H :    0.252931
Sum of atomic charges:   -0.0000000

LOEWDIN ATOMIC CHARGES
----------------------
   0 C :   -0.176117
   1 N :    0.018330
   2 C :   -0.203502
   3 C :   -0.212221
   4 H :    0.117572
   5 H :    0.104202
   6 S :    0.631935
   7 C :   -0.552919
   8 N :    0.096946
   9 C :    0.022631
  10 H :   -0.051426
  11 H :    0.027852
  12 H :    0.139213
  13 H :    0.095043
  14 H :    0.105630
  15 O :   -0.260100
  16 F :   -0.040197
  17 O :   -0.319858
  18 H :    0.111002
  19 H :    0.117069
  20 H :    0.109764
  21 H :    0.119150

  Mayer bond orders larger than 0.100000
B(  0-C ,  1-N ) :   1.0379 B(  0-C ,  2-C ) :   0.9005 B(  0-C , 20-H ) :   0.8183
B(  0-C , 21-H ) :   0.9614 B(  1-N ,  7-C ) :   1.0722 B(  1-N , 12-H ) :   0.9480
B(  2-C ,  3-C ) :   1.0867 B(  2-C ,  6-S ) :   0.1844 B(  2-C , 18-H ) :   0.9318
B(  2-C , 19-H ) :   0.8942 B(  3-C ,  4-H ) :   0.8719 B(  3-C ,  5-H ) :   0.8940
B(  3-C ,  6-S ) :   0.7333 B(  3-C , 15-O ) :   0.1248 B(  6-S , 15-O ) :   1.6132
B(  6-S , 16-F ) :   1.0008 B(  6-S , 17-O ) :   1.6783 B(  7-C ,  8-N ) :   0.8827
B(  7-C ,  9-C ) :   0.6693 B(  7-C , 10-H ) :  -0.1121 B(  7-C , 11-H ) :  -0.2046
B(  8-N ,  9-C ) :   0.1191 B(  8-N , 13-H ) :   1.0356 B(  8-N , 14-H ) :   1.0186
B(  9-C , 10-H ) :   1.1899 B(  9-C , 11-H ) :   1.0926 B( 10-H , 17-O ) :  -0.1625

Dispersion correction           -0.009822600
FINAL SINGLE POINT ENERGY      -955.141845974585

DIPOLE MOMENT
-------------
                                X             Y             Z
Electronic contribution:    -15.85280      -1.41474       0.24495
Nuclear contribution   :     16.57580       2.60270       1.54331
                        -----------------------------------------
Total Dipole Moment    :      0.72300       1.18796       1.78825
                        -----------------------------------------
Magnitude (a.u.)       :      2.26536
Magnitude (Debye)      :      5.75808

Rotational constants in cm-1:     0.060402     0.020377     0.017632
Rotational constants in MHz :  1810.792194   610.900365   528.582827

                             ****ORCA TERMINATED NORMALLY****
TOTAL RUN TIME: 0 days 0 hours 1 minutes 21 seconds 32 msec
