                         Program Version 5.0.0 -  RELEASE  -
|  1> !wB97X-D3 RIJCOSX def2-TZVPD def2/J TightSCF xyzfile
|  2>
|  3> *xyzfile 0 1 D7.xyz
|  4>
|  5> %MaxCore 64000
|  6>
|  7> %pal nprocs 18
|  8> end
|  9>
| 10> %scf
| 11>   MaxIter 150
| 12> end
| 13>
| 14>
| 15>                          ****END OF INPUT****

CARTESIAN COORDINATES (ANGSTROEM)
---------------------------------
  C      3.380928    2.083045   -3.350127
  C      4.535924    1.182447   -3.428518
  C      2.495557    1.816150   -2.136364
  C      1.872181    0.427903   -2.077497
  H      2.614270   -0.365825   -2.198894
  H      1.389953    0.273087   -1.112360
  S      0.579024    0.140472   -3.297943
  C      4.671956    0.122273   -4.220598
  N      5.866023   -0.507849   -4.224284
  N      3.698881   -0.312844   -4.986988
  H      2.731405   -0.050091   -4.849000
  H      3.890046   -1.055172   -5.643730
  H      5.251933    1.303459   -2.721014
  H      6.695165   -0.062322   -3.851596
  H      5.975383   -1.396884   -4.691414
  O      0.228860   -1.246868   -3.127871
  O     -0.439269    1.118966   -3.014550
  F      1.247881    0.403474   -4.595647
  H      1.697003    2.561969   -2.141109
  H      3.080787    1.987436   -1.225838
  H      2.806463    1.986511   -4.268484
  H      3.778714    3.098282   -3.307383

 Total Charge           Charge          ....    0
 Multiplicity           Mult            ....    1
 Number of Electrons    NEL             ....   96
 Basis Dimension        Dim             ....  524

ORBITAL ENERGIES
----------------

  NO   OCC          E(Eh)            E(eV)
   0   2.0000     -89.196087     -2427.1489
   1   2.0000     -24.904884      -677.6963
   2   2.0000     -19.249228      -523.7981
   3   2.0000     -19.248583      -523.7806
   4   2.0000     -14.427307      -392.5870
   5   2.0000     -14.426936      -392.5769
   6   2.0000     -10.333546      -281.1901
   7   2.0000     -10.324325      -280.9392
   8   2.0000     -10.286504      -279.9100
   9   2.0000     -10.267633      -279.3965
  10   2.0000     -10.208461      -277.7864
  11   2.0000      -8.260322      -224.7748
  12   2.0000      -6.218218      -169.2063
  13   2.0000      -6.210973      -169.0092
  14   2.0000      -6.210611      -168.9993
  15   2.0000      -1.489932       -40.5431
  16   2.0000      -1.237828       -33.6830
  17   2.0000      -1.144842       -31.1527
  18   2.0000      -1.089172       -29.6379
  19   2.0000      -0.994801       -27.0699
  20   2.0000      -0.945825       -25.7372
  21   2.0000      -0.882005       -24.0006
  22   2.0000      -0.842855       -22.9352
  23   2.0000      -0.800137       -21.7728
  24   2.0000      -0.754435       -20.5292
  25   2.0000      -0.705152       -19.1882
  26   2.0000      -0.695420       -18.9233
  27   2.0000      -0.679833       -18.4992
  28   2.0000      -0.657382       -17.8883
  29   2.0000      -0.651428       -17.7262
  30   2.0000      -0.617940       -16.8150
  31   2.0000      -0.595030       -16.1916
  32   2.0000      -0.579517       -15.7695
  33   2.0000      -0.573223       -15.5982
  34   2.0000      -0.560646       -15.2559
  35   2.0000      -0.554137       -15.0788
  36   2.0000      -0.511279       -13.9126
  37   2.0000      -0.507923       -13.8213
  38   2.0000      -0.506267       -13.7762
  39   2.0000      -0.486740       -13.2449
  40   2.0000      -0.459898       -12.5145
  41   2.0000      -0.447766       -12.1843
  42   2.0000      -0.439634       -11.9630
  43   2.0000      -0.432476       -11.7683
  44   2.0000      -0.423683       -11.5290
  45   2.0000      -0.415743       -11.3129
  46   2.0000      -0.368136       -10.0175
  47   2.0000      -0.258847        -7.0436
  48   0.0000       0.053938         1.4677
  49   0.0000       0.062257         1.6941
  50   0.0000       0.065674         1.7871
  51   0.0000       0.074178         2.0185
  52   0.0000       0.088240         2.4011

MULLIKEN ATOMIC CHARGES
-----------------------
   0 C :   -0.348689
   1 C :   -1.126989
   2 C :   -0.601914
   3 C :   -0.540487
   4 H :    0.331368
   5 H :    0.361274
   6 S :    1.143206
   7 C :    0.729969
   8 N :   -0.454373
   9 N :   -0.349141
  10 H :    0.199217
  11 H :    0.172868
  12 H :    0.390195
  13 H :    0.205775
  14 H :    0.173890
  15 O :   -0.593012
  16 O :   -0.587940
  17 F :   -0.261681
  18 H :    0.228700
  19 H :    0.371692
  20 H :    0.302211
  21 H :    0.253862
Sum of atomic charges:   -0.0000000

LOEWDIN ATOMIC CHARGES
----------------------
   0 C :   -0.223311
   1 C :   -0.134336
   2 C :   -0.219662
   3 C :   -0.216502
   4 H :    0.107827
   5 H :    0.114752
   6 S :    0.611165
   7 C :   -0.535313
   8 N :    0.102974
   9 N :    0.145452
  10 H :    0.047162
  11 H :    0.115252
  12 H :    0.072472
  13 H :    0.110131
  14 H :    0.097099
  15 O :   -0.266390
  16 O :   -0.258369
  17 F :   -0.113667
  18 H :    0.109855
  19 H :    0.121671
  20 H :    0.097683
  21 H :    0.114053

  Mayer bond orders larger than 0.100000
B(  0-C ,  1-C ) :   0.6923 B(  0-C ,  2-C ) :   0.7247 B(  0-C , 20-H ) :   0.9094
B(  0-C , 21-H ) :   1.0483 B(  1-C ,  2-C ) :   0.1814 B(  1-C ,  3-C ) :   0.1624
B(  1-C ,  7-C ) :   1.2922 B(  1-C ,  8-N ) :   0.2105 B(  1-C ,  9-N ) :   0.1058
B(  1-C , 12-H ) :   0.8585 B(  2-C ,  3-C ) :   1.1845 B(  2-C ,  6-S ) :   0.1864
B(  2-C , 18-H ) :   0.9921 B(  2-C , 19-H ) :   0.8495 B(  3-C ,  4-H ) :   0.9103
B(  3-C ,  5-H ) :   0.8470 B(  3-C ,  6-S ) :   0.7388 B(  3-C , 15-O ) :   0.1040
B(  6-S , 15-O ) :   1.6280 B(  6-S , 16-O ) :   1.6509 B(  6-S , 17-F ) :   1.0074
B(  7-C ,  8-N ) :   0.8416 B(  7-C ,  9-N ) :   0.9448 B(  7-C , 12-H ) :  -0.1111
B(  8-N , 13-H ) :   0.9925 B(  8-N , 14-H ) :   1.0473 B(  9-N , 10-H ) :   0.8974
B(  9-N , 11-H ) :   1.0399

Dispersion correction           -0.009842883
FINAL SINGLE POINT ENERGY      -955.179932215993

DIPOLE MOMENT
-------------
                                X             Y             Z
Electronic contribution:    -13.21991      -3.84498      -3.66261
Nuclear contribution   :     14.80811       3.53278       3.42836
                        -----------------------------------------
Total Dipole Moment    :      1.58820      -0.31220      -0.23425
                        -----------------------------------------
Magnitude (a.u.)       :      1.63546
Magnitude (Debye)      :      4.15701

Rotational constants in cm-1:     0.059173     0.020923     0.018056
Rotational constants in MHz :  1773.956621   627.264018   541.303397

                             ****ORCA TERMINATED NORMALLY****
TOTAL RUN TIME: 0 days 0 hours 1 minutes 31 seconds 359 msec
