                         Program Version 5.0.0 -  RELEASE  -
|  1> !CAM-B3LYP RIJCOSX def2-TZVPD def2/J TightSCF
|  2> *xyz -1 1
|  3> C          0.96805        1.63064       -3.71575
|  4> C         -0.50835        1.72268       -4.12430
|  5> S         -1.32861        0.14674       -4.43578
|  6> H         -0.59151        2.29496       -5.04722
|  7> H         -1.11411        2.23561       -3.37436
|  8> O         -2.57135        0.47573       -5.06834
|  9> O         -1.51496       -0.40051       -3.06342
| 10> O         -0.37793       -0.62756       -5.20114
| 11> H          1.51840        1.12197       -4.47946
| 12> H          1.05062        1.08971       -2.79625
| 13> H          1.36450        2.61606       -3.58668
| 14> *
| 15> %MaxCore 64000
| 16>
| 17> %pal nprocs 4
| 18> end
| 19>
| 20> %scf
| 21>   MaxIter 150
| 22> end
| 23>
| 24>
| 25>                          ****END OF INPUT****

CARTESIAN COORDINATES (ANGSTROEM)
---------------------------------
  C      0.968050    1.630640   -3.715750
  C     -0.508350    1.722680   -4.124300
  S     -1.328610    0.146740   -4.435780
  H     -0.591510    2.294960   -5.047220
  H     -1.114110    2.235610   -3.374360
  O     -2.571350    0.475730   -5.068340
  O     -1.514960   -0.400510   -3.063420
  O     -0.377930   -0.627560   -5.201140
  H      1.518400    1.121970   -4.479460
  H      1.050620    1.089710   -2.796250
  H      1.364500    2.616060   -3.586680

 Total Charge           Charge          ....   -1
 Multiplicity           Mult            ....    1
 Number of Electrons    NEL             ....   58
 Basis Dimension        Dim             ....  285

ORBITAL ENERGIES
----------------

  NO   OCC          E(Eh)            E(eV)
   0   2.0000     -88.918108     -2419.5847
   1   2.0000     -18.984771      -516.6019
   2   2.0000     -18.981295      -516.5073
   3   2.0000     -18.965670      -516.0821
   4   2.0000     -10.103420      -274.9280
   5   2.0000     -10.097183      -274.7583
   6   2.0000      -7.961674      -216.6482
   7   2.0000      -5.926305      -161.2630
   8   2.0000      -5.925116      -161.2306
   9   2.0000      -5.924854      -161.2235
  10   2.0000      -1.012262       -27.5451
  11   2.0000      -0.882900       -24.0249
  12   2.0000      -0.852346       -23.1935
  13   2.0000      -0.711978       -19.3739
  14   2.0000      -0.584342       -15.9008
  15   2.0000      -0.455297       -12.3893
  16   2.0000      -0.387766       -10.5516
  17   2.0000      -0.386573       -10.5192
  18   2.0000      -0.345814        -9.4101
  19   2.0000      -0.333618        -9.0782
  20   2.0000      -0.325134        -8.8473
  21   2.0000      -0.294757        -8.0208
  22   2.0000      -0.279894        -7.6163
  23   2.0000      -0.224025        -6.0960
  24   2.0000      -0.223312        -6.0766
  25   2.0000      -0.188663        -5.1338
  26   2.0000      -0.176474        -4.8021
  27   2.0000      -0.164007        -4.4629
  28   2.0000      -0.132896        -3.6163
  29   0.0000       0.146368         3.9829
  30   0.0000       0.163603         4.4519
  31   0.0000       0.166402         4.5280
  32   0.0000       0.174795         4.7564
  33   0.0000       0.194201         5.2845

MULLIKEN ATOMIC CHARGES
-----------------------
   0 C :   -1.124376
   1 C :   -0.423605
   2 S :    1.194820
   3 H :    0.290179
   4 H :    0.275889
   5 O :   -0.679930
   6 O :   -0.752682
   7 O :   -0.705141
   8 H :    0.299515
   9 H :    0.299254
  10 H :    0.326077
Sum of atomic charges:   -1.0000000

LOEWDIN ATOMIC CHARGES
----------------------
   0 C :   -0.145610
   1 C :   -0.328083
   2 S :    0.346426
   3 H :    0.078366
   4 H :    0.083419
   5 O :   -0.383819
   6 O :   -0.428351
   7 O :   -0.388009
   8 H :    0.055875
   9 H :    0.061429
  10 H :    0.048354

  Mayer bond orders larger than 0.100000
B(  0-C ,  1-C ) :   0.6167 B(  0-C ,  8-H ) :   0.9833 B(  0-C ,  9-H ) :   0.9818
B(  0-C , 10-H ) :   0.9252 B(  1-C ,  2-S ) :   0.8997 B(  1-C ,  3-H ) :   0.9506
B(  1-C ,  4-H ) :   0.9645 B(  1-C ,  5-O ) :   0.1197 B(  1-C ,  6-O ) :   0.1086
B(  2-S ,  5-O ) :   1.5147 B(  2-S ,  6-O ) :   1.4526 B(  2-S ,  7-O ) :   1.4933

FINAL SINGLE POINT ENERGY      -703.207509693862

DIPOLE MOMENT
-------------
                                X             Y             Z
Electronic contribution:     -5.56622      -5.26087      -1.93241
Nuclear contribution   :      6.64523       6.80157       2.07300
                        -----------------------------------------
Total Dipole Moment    :      1.07900       1.54070       0.14059
                        -----------------------------------------
Magnitude (a.u.)       :      1.88620
Magnitude (Debye)      :      4.79435

Rotational constants in cm-1:     0.163070     0.082807     0.081541
Rotational constants in MHz :  4888.719902  2482.497026  2444.541148

                             ****ORCA TERMINATED NORMALLY****
TOTAL RUN TIME: 0 days 0 hours 1 minutes 8 seconds 414 msec
