                         Program Version 5.0.0 -  RELEASE  -
|  1> !CAM-B3LYP RIJCOSX def2-TZVPD def2/J TightSCF
|  2> *xyz 1 1
|  3> C          1.36401        0.46874       -2.81376
|  4> N          0.42884        0.32140       -1.65531
|  5> C          0.96805        1.63064       -3.71575
|  6> H          0.74858       -0.40054       -1.00134
|  7> H         -0.46105        0.02333       -2.07773
|  8> H          0.31026        1.20137       -1.13495
|  9> H          1.29485       -0.46874       -3.36468
| 10> H          2.37622        0.59740       -2.43149
| 11> H          1.65923        1.70213       -4.52942
| 12> H          0.98421        2.54058       -3.15304
| 13> H         -0.01744        1.46536       -4.09838
| 14> *
| 15> %MaxCore 64000
| 16>
| 17> %pal nprocs 4
| 18> end
| 19>
| 20> %scf
| 21>   MaxIter 150
| 22> end
| 23>
| 24>
| 25>                          ****END OF INPUT****

CARTESIAN COORDINATES (ANGSTROEM)
---------------------------------
  C      1.364010    0.468740   -2.813760
  N      0.428840    0.321400   -1.655310
  C      0.968050    1.630640   -3.715750
  H      0.748580   -0.400540   -1.001340
  H     -0.461050    0.023330   -2.077730
  H      0.310260    1.201370   -1.134950
  H      1.294850   -0.468740   -3.364680
  H      2.376220    0.597400   -2.431490
  H      1.659230    1.702130   -4.529420
  H      0.984210    2.540580   -3.153040
  H     -0.017440    1.465360   -4.098380

 Total Charge           Charge          ....    1
 Multiplicity           Mult            ....    1
 Number of Electrons    NEL             ....   26
 Basis Dimension        Dim             ....  183

ORBITAL ENERGIES
----------------

  NO   OCC          E(Eh)            E(eV)
   0   2.0000     -14.724349      -400.6699
   1   2.0000     -10.498725      -285.6848
   2   2.0000     -10.418308      -283.4966
   3   2.0000      -1.298473       -35.3332
   4   2.0000      -1.047700       -28.5094
   5   2.0000      -0.921230       -25.0680
   6   2.0000      -0.876497       -23.8507
   7   2.0000      -0.860019       -23.4023
   8   2.0000      -0.763258       -20.7693
   9   2.0000      -0.714712       -19.4483
  10   2.0000      -0.651797       -17.7363
  11   2.0000      -0.634764       -17.2728
  12   2.0000      -0.619950       -16.8697
  13   0.0000      -0.166646        -4.5347
  14   0.0000      -0.107470        -2.9244
  15   0.0000      -0.106223        -2.8905
  16   0.0000      -0.099908        -2.7186
  17   0.0000      -0.068474        -1.8633

MULLIKEN ATOMIC CHARGES
-----------------------
   0 C :   -0.357125
   1 N :   -0.314762
   2 C :   -1.146426
   3 H :    0.350137
   4 H :    0.356052
   5 H :    0.336696
   6 H :    0.330423
   7 H :    0.340035
   8 H :    0.338856
   9 H :    0.380111
  10 H :    0.386005
Sum of atomic charges:    1.0000000

LOEWDIN ATOMIC CHARGES
----------------------
   0 C :   -0.200577
   1 N :    0.183916
   2 C :   -0.057214
   3 H :    0.179736
   4 H :    0.180421
   5 H :    0.182043
   6 H :    0.135648
   7 H :    0.135647
   8 H :    0.094021
   9 H :    0.083244
  10 H :    0.083116

  Mayer bond orders larger than 0.100000
B(  0-C ,  1-N ) :   0.8714 B(  0-C ,  2-C ) :   0.5870 B(  0-C ,  6-H ) :   0.9287
B(  0-C ,  7-H ) :   0.9220 B(  1-N ,  3-H ) :   0.8735 B(  1-N ,  4-H ) :   0.8636
B(  1-N ,  5-H ) :   0.8758 B(  2-C ,  8-H ) :   0.9837 B(  2-C ,  9-H ) :   0.9011
B(  2-C , 10-H ) :   0.8978

FINAL SINGLE POINT ENERGY      -135.507469311196

DIPOLE MOMENT
-------------
                                X             Y             Z
Electronic contribution:     -0.34029      -0.94411       1.56200
Nuclear contribution   :     -0.20470       0.31427      -0.31587
                        -----------------------------------------
Total Dipole Moment    :     -0.54498      -0.62984       1.24613
                        -----------------------------------------
Magnitude (a.u.)       :      1.49885
Magnitude (Debye)      :      3.80978

Rotational constants in cm-1:     1.011480     0.279280     0.248378
Rotational constants in MHz : 30323.408050  8372.602834  7446.185305

                             ****ORCA TERMINATED NORMALLY****
TOTAL RUN TIME: 0 days 0 hours 0 minutes 25 seconds 376 msec
