                         Program Version 5.0.0 -  RELEASE  -
|  1> !CAM-B3LYP RIJCOSX def2-TZVPD def2/J TightSCF xyzfile
|  2>
|  3> *xyzfile 0 1 B.xyz
|  4>
|  5> %MaxCore 64000
|  6>
|  7> %pal nprocs 4
|  8> end
|  9>
| 10> %scf
| 11>   MaxIter 150
| 12> end
| 13>
| 14>
| 15>                          ****END OF INPUT****

CARTESIAN COORDINATES (ANGSTROEM)
---------------------------------
  C      1.364014    0.468742   -2.813764
  N      0.428844    0.321402   -1.655312
  C      0.968045    1.630639   -3.715749
  C     -0.508347    1.722679   -4.124300
  S     -1.328608    0.146737   -4.435781
  H     -0.591511    2.294958   -5.047219
  H     -1.114114    2.235610   -3.374362
  H      0.748578   -0.400542   -1.001345
  H     -0.461053    0.023332   -2.077731
  H      0.310258    1.201375   -1.134948
  O     -2.571347    0.475733   -5.068341
  O     -1.514963   -0.400512   -3.063420
  H      1.294847   -0.468742   -3.364684
  H      2.376216    0.597400   -2.431495
  H      1.578688    1.520652   -4.612733
  H      1.266653    2.575988   -3.250448
  O     -0.377928   -0.627558   -5.201141

 Total Charge           Charge          ....    0
 Multiplicity           Mult            ....    1
 Number of Electrons    NEL             ....   74
 Basis Dimension        Dim             ....  395

ORBITAL ENERGIES
----------------

  NO   OCC          E(Eh)            E(eV)
   0   2.0000     -89.085488     -2424.1394
   1   2.0000     -19.155571      -521.2496
   2   2.0000     -19.140180      -520.8308
   3   2.0000     -19.137859      -520.7676
   4   2.0000     -14.524589      -395.2342
   5   2.0000     -10.337232      -281.2904
   6   2.0000     -10.287725      -279.9432
   7   2.0000     -10.266992      -279.3791
   8   2.0000      -8.129234      -221.2077
   9   2.0000      -6.094205      -165.8318
  10   2.0000      -6.093057      -165.8005
  11   2.0000      -6.091638      -165.7619
  12   2.0000      -1.180736       -32.1295
  13   2.0000      -1.115729       -30.3605
  14   2.0000      -1.040012       -28.3002
  15   2.0000      -1.038573       -28.2610
  16   2.0000      -0.910493       -24.7758
  17   2.0000      -0.821266       -22.3478
  18   2.0000      -0.732964       -19.9450
  19   2.0000      -0.700275       -19.0554
  20   2.0000      -0.685856       -18.6631
  21   2.0000      -0.620900       -16.8956
  22   2.0000      -0.596949       -16.2438
  23   2.0000      -0.560799       -15.2601
  24   2.0000      -0.543341       -14.7850
  25   2.0000      -0.532305       -14.4848
  26   2.0000      -0.501521       -13.6471
  27   2.0000      -0.492558       -13.4032
  28   2.0000      -0.470806       -12.8113
  29   2.0000      -0.460635       -12.5345
  30   2.0000      -0.444317       -12.0905
  31   2.0000      -0.394543       -10.7361
  32   2.0000      -0.386018       -10.5041
  33   2.0000      -0.354411        -9.6440
  34   2.0000      -0.343972        -9.3599
  35   2.0000      -0.333983        -9.0882
  36   2.0000      -0.304065        -8.2740
  37   0.0000      -0.021412        -0.5827
  38   0.0000       0.018558         0.5050
  39   0.0000       0.021863         0.5949
  40   0.0000       0.047750         1.2993
  41   0.0000       0.059649         1.6231

MULLIKEN ATOMIC CHARGES
-----------------------
   0 C :   -0.766393
   1 N :   -0.191922
   2 C :   -0.369559
   3 C :   -0.760474
   4 S :    1.302091
   5 H :    0.309747
   6 H :    0.331193
   7 H :    0.344193
   8 H :    0.295794
   9 H :    0.318967
  10 O :   -0.637072
  11 O :   -0.847641
  12 H :    0.425078
  13 H :    0.348278
  14 H :    0.278594
  15 H :    0.297121
  16 O :   -0.677996
Sum of atomic charges:   -0.0000000

LOEWDIN ATOMIC CHARGES
----------------------
   0 C :   -0.169045
   1 N :    0.156312
   2 C :   -0.206407
   3 C :   -0.243385
   4 S :    0.432213
   5 H :    0.103546
   6 H :    0.098663
   7 H :    0.168687
   8 H :    0.027695
   9 H :    0.171418
  10 O :   -0.316834
  11 O :   -0.373586
  12 H :    0.122952
  13 H :    0.125310
  14 H :    0.122685
  15 H :    0.113766
  16 O :   -0.333991

  Mayer bond orders larger than 0.100000
B(  0-C ,  1-N ) :   0.8909 B(  0-C ,  2-C ) :   0.7353 B(  0-C , 12-H ) :   0.8899
B(  0-C , 13-H ) :   0.9045 B(  1-N ,  7-H ) :   0.8613 B(  1-N ,  8-H ) :   0.7926
B(  1-N ,  9-H ) :   0.8669 B(  1-N , 11-O ) :  -0.1113 B(  2-C ,  3-C ) :   0.8006
B(  2-C , 14-H ) :   0.9557 B(  2-C , 15-H ) :   0.9515 B(  3-C ,  4-S ) :   0.8983
B(  3-C ,  5-H ) :   0.9831 B(  3-C ,  6-H ) :   0.9297 B(  3-C , 10-O ) :   0.1465
B(  3-C , 11-O ) :   0.1117 B(  4-S , 10-O ) :   1.5435 B(  4-S , 11-O ) :   1.2670
B(  4-S , 16-O ) :   1.5011 B(  8-H , 11-O ) :   0.1643

FINAL SINGLE POINT ENERGY      -798.374535472270

DIPOLE MOMENT
-------------
                                X             Y             Z
Electronic contribution:     -6.87966      -4.11748      -4.27146
Nuclear contribution   :      9.95459       5.57517       7.68169
                        -----------------------------------------
Total Dipole Moment    :      3.07493       1.45770       3.41023
                        -----------------------------------------
Magnitude (a.u.)       :      4.81765
Magnitude (Debye)      :     12.24549

Rotational constants in cm-1:     0.102119     0.045768     0.041299
Rotational constants in MHz :  3061.441288  1372.093000  1238.124534

                             ****ORCA TERMINATED NORMALLY****
TOTAL RUN TIME: 0 days 0 hours 2 minutes 28 seconds 340 msec
