                         Program Version 5.0.0 -  RELEASE  -
|  1> !CAM-B3LYP RIJCOSX def2-TZVPD def2/J TightSCF
|  2> *xyz 0 1
|  3> C          0.96805        1.63064       -3.71575
|  4> C         -0.50835        1.72268       -4.12430
|  5> S         -1.32861        0.14674       -4.43578
|  6> H         -0.59151        2.29496       -5.04722
|  7> H         -1.11411        2.23561       -3.37436
|  8> F         -2.57135        0.47573       -5.06834
|  9> O         -1.51496       -0.40051       -3.06342
| 10> O         -0.37793       -0.62756       -5.20114
| 11> H          1.51840        1.12197       -4.47946
| 12> H          1.05062        1.08971       -2.79625
| 13> H          1.36450        2.61606       -3.58668
| 14> *
| 15> %MaxCore 64000
| 16>
| 17> %pal nprocs 4
| 18> end
| 19>
| 20> %scf
| 21>   MaxIter 150
| 22> end
| 23>
| 24>
| 25>                          ****END OF INPUT****

CARTESIAN COORDINATES (ANGSTROEM)
---------------------------------
  C      0.968050    1.630640   -3.715750
  C     -0.508350    1.722680   -4.124300
  S     -1.328610    0.146740   -4.435780
  H     -0.591510    2.294960   -5.047220
  H     -1.114110    2.235610   -3.374360
  F     -2.571350    0.475730   -5.068340
  O     -1.514960   -0.400510   -3.063420
  O     -0.377930   -0.627560   -5.201140
  H      1.518400    1.121970   -4.479460
  H      1.050620    1.089710   -2.796250
  H      1.364500    2.616060   -3.586680

 Total Charge           Charge          ....    0
 Multiplicity           Mult            ....    1
 Number of Electrons    NEL             ....   58
 Basis Dimension        Dim             ....  285

ORBITAL ENERGIES
----------------

  NO   OCC          E(Eh)            E(eV)
   0   2.0000     -89.181492     -2426.7518
   1   2.0000     -24.887785      -677.2311
   2   2.0000     -19.216034      -522.8949
   3   2.0000     -19.200228      -522.4648
   4   2.0000     -10.305352      -280.4229
   5   2.0000     -10.260577      -279.2045
   6   2.0000      -8.225503      -223.8273
   7   2.0000      -6.193267      -168.5274
   8   2.0000      -6.186894      -168.3539
   9   2.0000      -6.186557      -168.3448
  10   2.0000      -1.480355       -40.2825
  11   2.0000      -1.189418       -32.3657
  12   2.0000      -1.086507       -29.5654
  13   2.0000      -0.902536       -24.5593
  14   2.0000      -0.821258       -22.3476
  15   2.0000      -0.756832       -20.5944
  16   2.0000      -0.673167       -18.3178
  17   2.0000      -0.670441       -18.2436
  18   2.0000      -0.631519       -17.1845
  19   2.0000      -0.564711       -15.3666
  20   2.0000      -0.555454       -15.1147
  21   2.0000      -0.513927       -13.9847
  22   2.0000      -0.499467       -13.5912
  23   2.0000      -0.475847       -12.9485
  24   2.0000      -0.456022       -12.4090
  25   2.0000      -0.454206       -12.3596
  26   2.0000      -0.403558       -10.9814
  27   2.0000      -0.386818       -10.5258
  28   2.0000      -0.374298       -10.1852
  29   0.0000       0.015127         0.4116
  30   0.0000       0.034798         0.9469
  31   0.0000       0.044295         1.2053
  32   0.0000       0.046169         1.2563
  33   0.0000       0.070698         1.9238

MULLIKEN ATOMIC CHARGES
-----------------------
   0 C :   -1.164470
   1 C :   -0.447377
   2 S :    1.153395
   3 H :    0.354542
   4 H :    0.345193
   5 F :   -0.110304
   6 O :   -0.595237
   7 O :   -0.559491
   8 H :    0.343438
   9 H :    0.340073
  10 H :    0.340238
Sum of atomic charges:   -0.0000000

LOEWDIN ATOMIC CHARGES
----------------------
   0 C :   -0.100854
   1 C :   -0.285142
   2 S :    0.595285
   3 H :    0.095335
   4 H :    0.101350
   5 F :   -0.042764
   6 O :   -0.311064
   7 O :   -0.275812
   8 H :    0.071677
   9 H :    0.077443
  10 H :    0.074545

  Mayer bond orders larger than 0.100000
B(  0-C ,  1-C ) :   0.6745 B(  0-C ,  8-H ) :   0.9427 B(  0-C ,  9-H ) :   0.9444
B(  0-C , 10-H ) :   0.9245 B(  1-C ,  2-S ) :   0.8852 B(  1-C ,  3-H ) :   0.8759
B(  1-C ,  4-H ) :   0.9035 B(  2-S ,  5-F ) :   1.0187 B(  2-S ,  6-O ) :   1.6514
B(  2-S ,  7-O ) :   1.6962

FINAL SINGLE POINT ENERGY      -727.720024100068

DIPOLE MOMENT
-------------
                                X             Y             Z
Electronic contribution:     -8.31824      -5.11270      -3.23965
Nuclear contribution   :      8.31000       6.74109       2.87442
                        -----------------------------------------
Total Dipole Moment    :     -0.00823       1.62838      -0.36523
                        -----------------------------------------
Magnitude (a.u.)       :      1.66886
Magnitude (Debye)      :      4.24191

Rotational constants in cm-1:     0.158705     0.080192     0.078179
Rotational constants in MHz :  4757.865601  2404.095079  2343.752507

                             ****ORCA TERMINATED NORMALLY****
TOTAL RUN TIME: 0 days 0 hours 1 minutes 14 seconds 926 msec
