                         Program Version 5.0.0 -  RELEASE  -
|  1> !CAM-B3LYP RIJCOSX def2-TZVPD def2/J TightSCF
|  2> *xyz 0 1
|  3> C          1.36401        0.46874       -2.81376
|  4> C          0.42884        0.32140       -1.65531
|  5> C          0.96805        1.63064       -3.71575
|  6> H          0.74858       -0.40054       -1.00134
|  7> H         -0.46105        0.02333       -2.07773
|  8> H          0.31026        1.20137       -1.13495
|  9> H          1.29485       -0.46874       -3.36468
| 10> H          2.37622        0.59740       -2.43149
| 11> H          1.65923        1.70213       -4.52942
| 12> H          0.98421        2.54058       -3.15304
| 13> H         -0.01744        1.46536       -4.09838
| 14> *
| 15> %MaxCore 64000
| 16>
| 17> %pal nprocs 4
| 18> end
| 19>
| 20> %scf
| 21>   MaxIter 150
| 22> end
| 23>
| 24>
| 25>                          ****END OF INPUT****

CARTESIAN COORDINATES (ANGSTROEM)
---------------------------------
  C      1.364010    0.468740   -2.813760
  C      0.428840    0.321400   -1.655310
  C      0.968050    1.630640   -3.715750
  H      0.748580   -0.400540   -1.001340
  H     -0.461050    0.023330   -2.077730
  H      0.310260    1.201370   -1.134950
  H      1.294850   -0.468740   -3.364680
  H      2.376220    0.597400   -2.431490
  H      1.659230    1.702130   -4.529420
  H      0.984210    2.540580   -3.153040
  H     -0.017440    1.465360   -4.098380

 Total Charge           Charge          ....    0
 Multiplicity           Mult            ....    1
 Number of Electrons    NEL             ....   26
 Basis Dimension        Dim             ....  183

ORBITAL ENERGIES
----------------

  NO   OCC          E(Eh)            E(eV)
   0   2.0000     -10.228674      -278.3364
   1   2.0000     -10.219567      -278.0886
   2   2.0000     -10.202058      -277.6121
   3   2.0000      -0.874578       -23.7985
   4   2.0000      -0.770190       -20.9579
   5   2.0000      -0.660935       -17.9849
   6   2.0000      -0.542697       -14.7675
   7   2.0000      -0.515144       -14.0178
   8   2.0000      -0.470205       -12.7949
   9   2.0000      -0.458178       -12.4676
  10   2.0000      -0.401358       -10.9215
  11   2.0000      -0.397237       -10.8094
  12   2.0000      -0.393462       -10.7066
  13   0.0000       0.040432         1.1002
  14   0.0000       0.061581         1.6757
  15   0.0000       0.064539         1.7562
  16   0.0000       0.088158         2.3989
  17   0.0000       0.109484         2.9792

MULLIKEN ATOMIC CHARGES
-----------------------
   0 C :   -0.082033
   1 C :   -1.273981
   2 C :   -1.106545
   3 H :    0.332170
   4 H :    0.347544
   5 H :    0.358478
   6 H :    0.231012
   7 H :    0.272811
   8 H :    0.288056
   9 H :    0.313114
  10 H :    0.319373
Sum of atomic charges:    0.0000000

LOEWDIN ATOMIC CHARGES
----------------------
   0 C :   -0.319436
   1 C :   -0.125716
   2 C :   -0.118847
   3 H :    0.050891
   4 H :    0.056267
   5 H :    0.056019
   6 H :    0.103204
   7 H :    0.102239
   8 H :    0.061696
   9 H :    0.066578
  10 H :    0.067106

  Mayer bond orders larger than 0.100000
B(  0-C ,  1-C ) :   0.5350 B(  0-C ,  2-C ) :   0.5901 B(  0-C ,  6-H ) :   0.9983
B(  0-C ,  7-H ) :   0.9602 B(  1-C ,  3-H ) :   0.9828 B(  1-C ,  4-H ) :   0.9589
B(  1-C ,  5-H ) :   0.9182 B(  2-C ,  8-H ) :   1.0012 B(  2-C ,  9-H ) :   0.9694
B(  2-C , 10-H ) :   0.9609

FINAL SINGLE POINT ENERGY      -119.095606181115

DIPOLE MOMENT
-------------
                                X             Y             Z
Electronic contribution:      0.36712      -0.18404      -0.01692
Nuclear contribution   :     -0.35842       0.15752       0.02695
                        -----------------------------------------
Total Dipole Moment    :      0.00870      -0.02652       0.01004
                        -----------------------------------------
Magnitude (a.u.)       :      0.02965
Magnitude (Debye)      :      0.07538

Rotational constants in cm-1:     1.019891     0.293671     0.260247
Rotational constants in MHz : 30575.551403  8804.039097  7802.009261

                             ****ORCA TERMINATED NORMALLY****
TOTAL RUN TIME: 0 days 0 hours 0 minutes 25 seconds 651 msec
