                         Program Version 5.0.0 -  RELEASE  -
|  1> !CAM-B3LYP RIJCOSX def2-TZVPD def2/J TightSCF
|  2> *xyz 0 1
|  3> C          0.96805        1.63064       -3.71575
|  4> C         -0.50835        1.72268       -4.12430
|  5> S         -1.32861        0.14674       -4.43578
|  6> H         -0.59151        2.29496       -5.04722
|  7> H         -1.11411        2.23561       -3.37436
|  8> O         -2.57135        0.47573       -5.06834
|  9> F         -1.51496       -0.40051       -3.06342
| 10> O         -0.37793       -0.62756       -5.20114
| 11> H          1.51840        1.12197       -4.47946
| 12> H          1.05062        1.08971       -2.79625
| 13> H          1.36450        2.61606       -3.58668
| 14> *
| 15> %MaxCore 64000
| 16>
| 17> %pal nprocs 4
| 18> end
| 19>
| 20> %scf
| 21>   MaxIter 150
| 22> end
| 23>
| 24>
| 25>                          ****END OF INPUT****

CARTESIAN COORDINATES (ANGSTROEM)
---------------------------------
  C      0.968050    1.630640   -3.715750
  C     -0.508350    1.722680   -4.124300
  S     -1.328610    0.146740   -4.435780
  H     -0.591510    2.294960   -5.047220
  H     -1.114110    2.235610   -3.374360
  O     -2.571350    0.475730   -5.068340
  F     -1.514960   -0.400510   -3.063420
  O     -0.377930   -0.627560   -5.201140
  H      1.518400    1.121970   -4.479460
  H      1.050620    1.089710   -2.796250
  H      1.364500    2.616060   -3.586680

 Total Charge           Charge          ....    0
 Multiplicity           Mult            ....    1
 Number of Electrons    NEL             ....   58
 Basis Dimension        Dim             ....  285

ORBITAL ENERGIES
----------------

  NO   OCC          E(Eh)            E(eV)
   0   2.0000     -89.178397     -2426.6675
   1   2.0000     -24.858479      -676.4336
   2   2.0000     -19.219097      -522.9782
   3   2.0000     -19.215566      -522.8821
   4   2.0000     -10.304431      -280.3978
   5   2.0000     -10.262155      -279.2474
   6   2.0000      -8.222423      -223.7435
   7   2.0000      -6.190398      -168.4493
   8   2.0000      -6.183942      -168.2736
   9   2.0000      -6.183345      -168.2574
  10   2.0000      -1.433134       -38.9976
  11   2.0000      -1.204699       -32.7815
  12   2.0000      -1.112603       -30.2755
  13   2.0000      -0.904207       -24.6047
  14   2.0000      -0.801371       -21.8064
  15   2.0000      -0.749028       -20.3821
  16   2.0000      -0.653923       -17.7941
  17   2.0000      -0.639201       -17.3935
  18   2.0000      -0.623449       -16.9649
  19   2.0000      -0.566303       -15.4099
  20   2.0000      -0.550273       -14.9737
  21   2.0000      -0.530354       -14.4317
  22   2.0000      -0.504854       -13.7378
  23   2.0000      -0.477037       -12.9808
  24   2.0000      -0.471538       -12.8312
  25   2.0000      -0.451573       -12.2879
  26   2.0000      -0.413565       -11.2537
  27   2.0000      -0.400875       -10.9084
  28   2.0000      -0.393939       -10.7196
  29   0.0000       0.016376         0.4456
  30   0.0000       0.039477         1.0742
  31   0.0000       0.042406         1.1539
  32   0.0000       0.046108         1.2546
  33   0.0000       0.072382         1.9696

MULLIKEN ATOMIC CHARGES
-----------------------
   0 C :   -1.136109
   1 C :   -0.442213
   2 S :    1.154686
   3 H :    0.336584
   4 H :    0.351977
   5 O :   -0.543547
   6 F :   -0.178614
   7 O :   -0.561258
   8 H :    0.339233
   9 H :    0.338446
  10 H :    0.340814
Sum of atomic charges:    0.0000000

LOEWDIN ATOMIC CHARGES
----------------------
   0 C :   -0.111016
   1 C :   -0.276002
   2 S :    0.594325
   3 H :    0.106848
   4 H :    0.100919
   5 O :   -0.269113
   6 F :   -0.087128
   7 O :   -0.273995
   8 H :    0.070528
   9 H :    0.071753
  10 H :    0.072881

  Mayer bond orders larger than 0.100000
B(  0-C ,  1-C ) :   0.6264 B(  0-C ,  8-H ) :   0.9711 B(  0-C ,  9-H ) :   0.9266
B(  0-C , 10-H ) :   0.9371 B(  1-C ,  2-S ) :   0.8861 B(  1-C ,  3-H ) :   0.9138
B(  1-C ,  4-H ) :   0.8969 B(  2-S ,  5-O ) :   1.7093 B(  2-S ,  6-F ) :   0.9631
B(  2-S ,  7-O ) :   1.6951

FINAL SINGLE POINT ENERGY      -727.744216880867

DIPOLE MOMENT
-------------
                                X             Y             Z
Electronic contribution:     -6.52877      -6.60691       0.19086
Nuclear contribution   :      7.20921       7.65416       0.78523
                        -----------------------------------------
Total Dipole Moment    :      0.68044       1.04725       0.97609
                        -----------------------------------------
Magnitude (a.u.)       :      1.58508
Magnitude (Debye)      :      4.02896

Rotational constants in cm-1:     0.153780     0.081282     0.079816
Rotational constants in MHz :  4610.199589  2436.778679  2392.820729

                             ****ORCA TERMINATED NORMALLY****
TOTAL RUN TIME: 0 days 0 hours 1 minutes 11 seconds 493 msec
