                         Program Version 5.0.0 -  RELEASE  -
|  1> !CAM-B3LYP RIJCOSX def2-TZVPD def2/J TightSCF
|  2> *xyz 0 1
|  3> C          0.96805        1.63064       -3.71575
|  4> C         -0.50835        1.72268       -4.12430
|  5> S         -1.32861        0.14674       -4.43578
|  6> H         -0.59151        2.29496       -5.04722
|  7> H         -1.11411        2.23561       -3.37436
|  8> O         -2.57135        0.47573       -5.06834
|  9> O         -1.51496       -0.40051       -3.06342
| 10> F         -0.37793       -0.62756       -5.20114
| 11> H          1.51840        1.12197       -4.47946
| 12> H          1.05062        1.08971       -2.79625
| 13> H          1.36450        2.61606       -3.58668
| 14> *
| 15> %MaxCore 64000
| 16>
| 17> %pal nprocs 4
| 18> end
| 19>
| 20> %scf
| 21>   MaxIter 150
| 22> end
| 23>
| 24>
| 25>                          ****END OF INPUT****

CARTESIAN COORDINATES (ANGSTROEM)
---------------------------------
  C      0.968050    1.630640   -3.715750
  C     -0.508350    1.722680   -4.124300
  S     -1.328610    0.146740   -4.435780
  H     -0.591510    2.294960   -5.047220
  H     -1.114110    2.235610   -3.374360
  O     -2.571350    0.475730   -5.068340
  O     -1.514960   -0.400510   -3.063420
  F     -0.377930   -0.627560   -5.201140
  H      1.518400    1.121970   -4.479460
  H      1.050620    1.089710   -2.796250
  H      1.364500    2.616060   -3.586680

 Total Charge           Charge          ....    0
 Multiplicity           Mult            ....    1
 Number of Electrons    NEL             ....   58
 Basis Dimension        Dim             ....  285

ORBITAL ENERGIES
----------------

  NO   OCC          E(Eh)            E(eV)
   0   2.0000     -89.180673     -2426.7295
   1   2.0000     -24.881535      -677.0610
   2   2.0000     -19.219707      -522.9948
   3   2.0000     -19.200242      -522.4651
   4   2.0000     -10.305175      -280.4181
   5   2.0000     -10.265820      -279.3472
   6   2.0000      -8.224710      -223.8057
   7   2.0000      -6.192658      -168.5108
   8   2.0000      -6.186019      -168.3301
   9   2.0000      -6.185711      -168.3218
  10   2.0000      -1.469790       -39.9950
  11   2.0000      -1.195327       -32.5265
  12   2.0000      -1.089321       -29.6419
  13   2.0000      -0.906501       -24.6672
  14   2.0000      -0.814119       -22.1533
  15   2.0000      -0.759179       -20.6583
  16   2.0000      -0.676264       -18.4021
  17   2.0000      -0.664997       -18.0955
  18   2.0000      -0.622672       -16.9438
  19   2.0000      -0.566398       -15.4125
  20   2.0000      -0.549702       -14.9581
  21   2.0000      -0.523533       -14.2461
  22   2.0000      -0.508696       -13.8423
  23   2.0000      -0.480758       -13.0821
  24   2.0000      -0.465395       -12.6640
  25   2.0000      -0.452423       -12.3110
  26   2.0000      -0.405919       -11.0456
  27   2.0000      -0.387522       -10.5450
  28   2.0000      -0.377225       -10.2648
  29   0.0000       0.013788         0.3752
  30   0.0000       0.037779         1.0280
  31   0.0000       0.041571         1.1312
  32   0.0000       0.046463         1.2643
  33   0.0000       0.071185         1.9370

MULLIKEN ATOMIC CHARGES
-----------------------
   0 C :   -1.177681
   1 C :   -0.400963
   2 S :    1.144133
   3 H :    0.350102
   4 H :    0.325587
   5 O :   -0.536393
   6 O :   -0.597350
   7 F :   -0.139754
   8 H :    0.351491
   9 H :    0.344206
  10 H :    0.336621
Sum of atomic charges:    0.0000000

LOEWDIN ATOMIC CHARGES
----------------------
   0 C :   -0.111602
   1 C :   -0.276204
   2 S :    0.592887
   3 H :    0.098147
   4 H :    0.111444
   5 O :   -0.268119
   6 O :   -0.310073
   7 F :   -0.051323
   8 H :    0.066947
   9 H :    0.074425
  10 H :    0.073470

  Mayer bond orders larger than 0.100000
B(  0-C ,  1-C ) :   0.5953 B(  0-C ,  8-H ) :   0.9162 B(  0-C ,  9-H ) :   0.9669
B(  0-C , 10-H ) :   0.9430 B(  1-C ,  2-S ) :   0.8851 B(  1-C ,  3-H ) :   0.9108
B(  1-C ,  4-H ) :   0.9212 B(  2-S ,  5-O ) :   1.7156 B(  2-S ,  6-O ) :   1.6558
B(  2-S ,  7-F ) :   1.0119

FINAL SINGLE POINT ENERGY      -727.724879433590

DIPOLE MOMENT
-------------
                                X             Y             Z
Electronic contribution:     -4.59381      -6.96617      -3.45108
Nuclear contribution   :      6.02439       7.89075       3.01280
                        -----------------------------------------
Total Dipole Moment    :      1.43058       0.92458      -0.43828
                        -----------------------------------------
Magnitude (a.u.)       :      1.75884
Magnitude (Debye)      :      4.47061

Rotational constants in cm-1:     0.153652     0.082400     0.079295
Rotational constants in MHz :  4606.361242  2470.285703  2377.214112

                             ****ORCA TERMINATED NORMALLY****
TOTAL RUN TIME: 0 days 0 hours 1 minutes 11 seconds 88 msec
