                         Program Version 5.0.0 -  RELEASE  -
|  1> !CAM-B3LYP RIJCOSX def2-TZVPD def2/J TightSCF xyzfile
|  2>
|  3> *xyzfile 0 1 D1.xyz
|  4>
|  5> %MaxCore 64000
|  6>
|  7> %pal nprocs 4
|  8> end
|  9>
| 10> %scf
| 11>   MaxIter 150
| 12> end
| 13>
| 14>
| 15>                          ****END OF INPUT****

CARTESIAN COORDINATES (ANGSTROEM)
---------------------------------
  C      1.364014    0.468742   -2.813764
  C      0.428844    0.321402   -1.655312
  C      0.968045    1.630639   -3.715749
  C     -0.508347    1.722679   -4.124300
  S     -1.328608    0.146737   -4.435781
  H     -0.591511    2.294958   -5.047219
  H     -1.114114    2.235610   -3.374362
  H      0.748578   -0.400542   -1.001345
  H     -0.461053    0.023332   -2.077731
  H      0.310258    1.201375   -1.134948
  F     -2.571347    0.475733   -5.068341
  O     -1.514963   -0.400512   -3.063420
  H      1.294847   -0.468742   -3.364684
  H      2.376216    0.597400   -2.431495
  H      1.578688    1.520652   -4.612733
  H      1.266653    2.575988   -3.250448
  O     -0.377928   -0.627558   -5.201141

 Total Charge           Charge          ....    0
 Multiplicity           Mult            ....    1
 Number of Electrons    NEL             ....   74
 Basis Dimension        Dim             ....  395

ORBITAL ENERGIES
----------------

  NO   OCC          E(Eh)            E(eV)
   0   2.0000     -89.187311     -2426.9101
   1   2.0000     -24.891052      -677.3199
   2   2.0000     -19.220800      -523.0245
   3   2.0000     -19.207218      -522.6550
   4   2.0000     -10.305797      -280.4350
   5   2.0000     -10.264819      -279.3199
   6   2.0000     -10.227960      -278.3169
   7   2.0000     -10.169800      -276.7343
   8   2.0000      -8.231579      -223.9926
   9   2.0000      -6.199335      -168.6925
  10   2.0000      -6.192860      -168.5163
  11   2.0000      -6.192740      -168.5130
  12   2.0000      -1.484012       -40.3820
  13   2.0000      -1.198529       -32.6136
  14   2.0000      -1.100303       -29.9408
  15   2.0000      -0.915500       -24.9120
  16   2.0000      -0.858077       -23.3495
  17   2.0000      -0.804860       -21.9014
  18   2.0000      -0.758169       -20.6308
  19   2.0000      -0.688421       -18.7329
  20   2.0000      -0.678223       -18.4554
  21   2.0000      -0.656376       -17.8609
  22   2.0000      -0.623225       -16.9588
  23   2.0000      -0.581104       -15.8126
  24   2.0000      -0.567834       -15.4516
  25   2.0000      -0.533606       -14.5202
  26   2.0000      -0.529094       -14.3974
  27   2.0000      -0.493007       -13.4154
  28   2.0000      -0.473661       -12.8890
  29   2.0000      -0.470020       -12.7899
  30   2.0000      -0.455665       -12.3993
  31   2.0000      -0.424770       -11.5586
  32   2.0000      -0.415036       -11.2937
  33   2.0000      -0.388259       -10.5651
  34   2.0000      -0.387523       -10.5450
  35   2.0000      -0.382321       -10.4035
  36   2.0000      -0.343096        -9.3361
  37   0.0000       0.013830         0.3763
  38   0.0000       0.032683         0.8894
  39   0.0000       0.040105         1.0913
  40   0.0000       0.048230         1.3124
  41   0.0000       0.065519         1.7829

MULLIKEN ATOMIC CHARGES
-----------------------
   0 C :   -0.425909
   1 C :   -1.236133
   2 C :   -0.421117
   3 C :   -0.737109
   4 S :    1.180810
   5 H :    0.352751
   6 H :    0.372902
   7 H :    0.401959
   8 H :    0.347558
   9 H :    0.341372
  10 F :   -0.096890
  11 O :   -0.632088
  12 H :    0.301585
  13 H :    0.278313
  14 H :    0.245843
  15 H :    0.315399
  16 O :   -0.589249
Sum of atomic charges:    0.0000000

LOEWDIN ATOMIC CHARGES
----------------------
   0 C :   -0.251890
   1 C :   -0.117084
   2 C :   -0.214720
   3 C :   -0.215712
   4 S :    0.642741
   5 H :    0.101289
   6 H :    0.110613
   7 H :    0.063147
   8 H :   -0.034590
   9 H :    0.065684
  10 F :   -0.035410
  11 O :   -0.304934
  12 H :    0.104010
  13 H :    0.111612
  14 H :    0.112279
  15 H :    0.122401
  16 O :   -0.259435

  Mayer bond orders larger than 0.100000
B(  0-C ,  1-C ) :   0.5111 B(  0-C ,  2-C ) :   0.8181 B(  0-C , 12-H ) :   0.9637
B(  0-C , 13-H ) :   0.9458 B(  1-C ,  7-H ) :   0.9445 B(  1-C ,  8-H ) :   1.0320
B(  1-C ,  9-H ) :   1.0064 B(  2-C ,  3-C ) :   0.8891 B(  2-C , 14-H ) :   0.9468
B(  2-C , 15-H ) :   0.9292 B(  3-C ,  4-S ) :   0.8903 B(  3-C ,  5-H ) :   0.8930
B(  3-C ,  6-H ) :   0.8630 B(  3-C , 11-O ) :   0.1219 B(  4-S , 10-F ) :   1.0075
B(  4-S , 11-O ) :   1.6322 B(  4-S , 16-O ) :   1.6836 B(  8-H , 11-O ) :  -0.2178

FINAL SINGLE POINT ENERGY      -806.280175357375

DIPOLE MOMENT
-------------
                                X             Y             Z
Electronic contribution:    -12.47467      -4.05402      -9.72766
Nuclear contribution   :     12.25227       5.48563       9.26621
                        -----------------------------------------
Total Dipole Moment    :     -0.22240       1.43161      -0.46145
                        -----------------------------------------
Magnitude (a.u.)       :      1.52050
Magnitude (Debye)      :      3.86480

Rotational constants in cm-1:     0.103176     0.044975     0.040960
Rotational constants in MHz :  3093.138469  1348.317425  1227.945122

                             ****ORCA TERMINATED NORMALLY****
TOTAL RUN TIME: 0 days 0 hours 2 minutes 33 seconds 635 msec
