                         Program Version 5.0.0 -  RELEASE  -
|  1> !CAM-B3LYP RIJCOSX def2-TZVPD def2/J TightSCF xyzfile
|  2>
|  3> *xyzfile 0 1 D2.xyz
|  4>
|  5> %MaxCore 64000
|  6>
|  7> %pal nprocs 4
|  8> end
|  9>
| 10> %scf
| 11>   MaxIter 150
| 12> end
| 13>
| 14>
| 15>                          ****END OF INPUT****

CARTESIAN COORDINATES (ANGSTROEM)
---------------------------------
  C      1.364014    0.468742   -2.813764
  C      0.428844    0.321402   -1.655312
  C      0.968045    1.630639   -3.715749
  C     -0.508347    1.722679   -4.124300
  S     -1.328608    0.146737   -4.435781
  H     -0.591511    2.294958   -5.047219
  H     -1.114114    2.235610   -3.374362
  H      0.748578   -0.400542   -1.001345
  H     -0.461053    0.023332   -2.077731
  H      0.310258    1.201375   -1.134948
  O     -2.571347    0.475733   -5.068341
  F     -1.514963   -0.400512   -3.063420
  H      1.294847   -0.468742   -3.364684
  H      2.376216    0.597400   -2.431495
  H      1.578688    1.520652   -4.612733
  H      1.266653    2.575988   -3.250448
  O     -0.377928   -0.627558   -5.201141

 Total Charge           Charge          ....    0
 Multiplicity           Mult            ....    1
 Number of Electrons    NEL             ....   74
 Basis Dimension        Dim             ....  395

ORBITAL ENERGIES
----------------

  NO   OCC          E(Eh)            E(eV)
   0   2.0000     -89.181647     -2426.7560
   1   2.0000     -24.864089      -676.5863
   2   2.0000     -19.221621      -523.0469
   3   2.0000     -19.218253      -522.9552
   4   2.0000     -10.303634      -280.3761
   5   2.0000     -10.266381      -279.3624
   6   2.0000     -10.242730      -278.7189
   7   2.0000     -10.201238      -277.5898
   8   2.0000      -8.225997      -223.8407
   9   2.0000      -6.194104      -168.5501
  10   2.0000      -6.187366      -168.3668
  11   2.0000      -6.186815      -168.3518
  12   2.0000      -1.447019       -39.3754
  13   2.0000      -1.208844       -32.8943
  14   2.0000      -1.115782       -30.3620
  15   2.0000      -0.923101       -25.1189
  16   2.0000      -0.862832       -23.4789
  17   2.0000      -0.795353       -21.6427
  18   2.0000      -0.775547       -21.1037
  19   2.0000      -0.678346       -18.4587
  20   2.0000      -0.666510       -18.1367
  21   2.0000      -0.649065       -17.6620
  22   2.0000      -0.624910       -17.0047
  23   2.0000      -0.572331       -15.5739
  24   2.0000      -0.554879       -15.0990
  25   2.0000      -0.548209       -14.9175
  26   2.0000      -0.533186       -14.5087
  27   2.0000      -0.501672       -13.6512
  28   2.0000      -0.482938       -13.1414
  29   2.0000      -0.472963       -12.8700
  30   2.0000      -0.466177       -12.6853
  31   2.0000      -0.425062       -11.5665
  32   2.0000      -0.420448       -11.4410
  33   2.0000      -0.406866       -11.0714
  34   2.0000      -0.401269       -10.9191
  35   2.0000      -0.395259       -10.7555
  36   2.0000      -0.385085       -10.4787
  37   0.0000       0.020721         0.5639
  38   0.0000       0.035415         0.9637
  39   0.0000       0.041164         1.1201
  40   0.0000       0.044142         1.2012
  41   0.0000       0.066912         1.8208

MULLIKEN ATOMIC CHARGES
-----------------------
   0 C :   -0.449109
   1 C :   -1.298519
   2 C :   -0.357823
   3 C :   -0.711545
   4 S :    1.161395
   5 H :    0.319423
   6 H :    0.358735
   7 H :    0.410057
   8 H :    0.394543
   9 H :    0.360366
  10 O :   -0.566685
  11 F :   -0.213995
  12 H :    0.315127
  13 H :    0.280983
  14 H :    0.248235
  15 H :    0.324141
  16 O :   -0.575330
Sum of atomic charges:   -0.0000000

LOEWDIN ATOMIC CHARGES
----------------------
   0 C :   -0.254548
   1 C :   -0.104327
   2 C :   -0.221687
   3 C :   -0.211401
   4 S :    0.619275
   5 H :    0.112329
   6 H :    0.109835
   7 H :    0.065335
   8 H :   -0.004966
   9 H :    0.069753
  10 O :   -0.259654
  11 F :   -0.111415
  12 H :    0.102202
  13 H :    0.114141
  14 H :    0.113239
  15 H :    0.120115
  16 O :   -0.258226

  Mayer bond orders larger than 0.100000
B(  0-C ,  1-C ) :   0.4978 B(  0-C ,  2-C ) :   0.7914 B(  0-C , 12-H ) :   0.9767
B(  0-C , 13-H ) :   0.9456 B(  1-C ,  7-H ) :   0.9232 B(  1-C ,  8-H ) :   0.9859
B(  1-C ,  9-H ) :   0.9540 B(  1-C , 11-F ) :   0.1130 B(  2-C ,  3-C ) :   0.7937
B(  2-C , 14-H ) :   0.9612 B(  2-C , 15-H ) :   0.9428 B(  3-C ,  4-S ) :   0.8953
B(  3-C ,  5-H ) :   0.9329 B(  3-C ,  6-H ) :   0.8929 B(  4-S , 10-O ) :   1.6493
B(  4-S , 11-F ) :   1.0082 B(  4-S , 16-O ) :   1.6762 B(  8-H , 11-F ) :  -0.1689

FINAL SINGLE POINT ENERGY      -806.302599255445

DIPOLE MOMENT
-------------
                                X             Y             Z
Electronic contribution:    -10.48781      -5.54540      -6.13980
Nuclear contribution   :     11.08796       6.45140       7.05645
                        -----------------------------------------
Total Dipole Moment    :      0.60015       0.90599       0.91665
                        -----------------------------------------
Magnitude (a.u.)       :      1.42171
Magnitude (Debye)      :      3.61370

Rotational constants in cm-1:     0.100113     0.046890     0.041843
Rotational constants in MHz :  3001.313402  1405.711946  1254.411771

                             ****ORCA TERMINATED NORMALLY****
TOTAL RUN TIME: 0 days 0 hours 2 minutes 32 seconds 299 msec
