                         Program Version 5.0.0 -  RELEASE  -
|  1> !CAM-B3LYP RIJCOSX def2-TZVPD def2/J TightSCF xyzfile
|  2>
|  3> *xyzfile 0 1 D3.xyz
|  4>
|  5> %MaxCore 64000
|  6>
|  7> %pal nprocs 4
|  8> end
|  9>
| 10> %scf
| 11>   MaxIter 150
| 12> end
| 13>
| 14>
| 15>                          ****END OF INPUT****

CARTESIAN COORDINATES (ANGSTROEM)
---------------------------------
  C      1.364014    0.468742   -2.813764
  C      0.428844    0.321402   -1.655312
  C      0.968045    1.630639   -3.715749
  C     -0.508347    1.722679   -4.124300
  S     -1.328608    0.146737   -4.435781
  H     -0.591511    2.294958   -5.047219
  H     -1.114114    2.235610   -3.374362
  H      0.748578   -0.400542   -1.001345
  H     -0.461053    0.023332   -2.077731
  H      0.310258    1.201375   -1.134948
  O     -2.571347    0.475733   -5.068341
  O     -1.514963   -0.400512   -3.063420
  H      1.294847   -0.468742   -3.364684
  H      2.376216    0.597400   -2.431495
  H      1.578688    1.520652   -4.612733
  H      1.266653    2.575988   -3.250448
  F     -0.377928   -0.627558   -5.201141

 Total Charge           Charge          ....    0
 Multiplicity           Mult            ....    1
 Number of Electrons    NEL             ....   74
 Basis Dimension        Dim             ....  395

ORBITAL ENERGIES
----------------

  NO   OCC          E(Eh)            E(eV)
   0   2.0000     -89.187027     -2426.9024
   1   2.0000     -24.885922      -677.1804
   2   2.0000     -19.223869      -523.1081
   3   2.0000     -19.205945      -522.6203
   4   2.0000     -10.305390      -280.4239
   5   2.0000     -10.269004      -279.4338
   6   2.0000     -10.240270      -278.6519
   7   2.0000     -10.174281      -276.8563
   8   2.0000      -8.231249      -223.9837
   9   2.0000      -6.199187      -168.6884
  10   2.0000      -6.192624      -168.5099
  11   2.0000      -6.192177      -168.4977
  12   2.0000      -1.474730       -40.1294
  13   2.0000      -1.202874       -32.7319
  14   2.0000      -1.103685       -30.0328
  15   2.0000      -0.921747       -25.0820
  16   2.0000      -0.857252       -23.3270
  17   2.0000      -0.804551       -21.8929
  18   2.0000      -0.760476       -20.6936
  19   2.0000      -0.692900       -18.8548
  20   2.0000      -0.672224       -18.2922
  21   2.0000      -0.663050       -18.0425
  22   2.0000      -0.620462       -16.8836
  23   2.0000      -0.575488       -15.6598
  24   2.0000      -0.569703       -15.5024
  25   2.0000      -0.542339       -14.7578
  26   2.0000      -0.530876       -14.4459
  27   2.0000      -0.498795       -13.5729
  28   2.0000      -0.481928       -13.1139
  29   2.0000      -0.467118       -12.7109
  30   2.0000      -0.461476       -12.5574
  31   2.0000      -0.436519       -11.8783
  32   2.0000      -0.413278       -11.2459
  33   2.0000      -0.400688       -10.9033
  34   2.0000      -0.398193       -10.8354
  35   2.0000      -0.388557       -10.5732
  36   2.0000      -0.338709        -9.2167
  37   0.0000       0.014758         0.4016
  38   0.0000       0.033537         0.9126
  39   0.0000       0.039549         1.0762
  40   0.0000       0.046096         1.2543
  41   0.0000       0.065082         1.7710

MULLIKEN ATOMIC CHARGES
-----------------------
   0 C :   -0.357587
   1 C :   -1.224167
   2 C :   -0.443960
   3 C :   -0.662209
   4 S :    1.176141
   5 H :    0.322904
   6 H :    0.345839
   7 H :    0.401987
   8 H :    0.356449
   9 H :    0.348045
  10 O :   -0.557135
  11 O :   -0.624967
  12 H :    0.242283
  13 H :    0.270853
  14 H :    0.249500
  15 H :    0.315561
  16 F :   -0.159536
Sum of atomic charges:    0.0000000

LOEWDIN ATOMIC CHARGES
----------------------
   0 C :   -0.256778
   1 C :   -0.118655
   2 C :   -0.225279
   3 C :   -0.205074
   4 S :    0.639737
   5 H :    0.103947
   6 H :    0.120766
   7 H :    0.063180
   8 H :   -0.036377
   9 H :    0.067333
  10 O :   -0.256987
  11 O :   -0.299613
  12 H :    0.100949
  13 H :    0.112311
  14 H :    0.108334
  15 H :    0.121441
  16 F :   -0.039235

  Mayer bond orders larger than 0.100000
B(  0-C ,  1-C ) :   0.5104 B(  0-C ,  2-C ) :   0.7508 B(  0-C , 12-H ) :   1.0066
B(  0-C , 13-H ) :   0.9529 B(  1-C ,  7-H ) :   0.9515 B(  1-C ,  8-H ) :   1.0603
B(  1-C ,  9-H ) :   1.0031 B(  2-C ,  3-C ) :   0.8213 B(  2-C , 14-H ) :   0.9813
B(  2-C , 15-H ) :   0.9288 B(  3-C ,  4-S ) :   0.8824 B(  3-C ,  5-H ) :   0.9626
B(  3-C ,  6-H ) :   0.8936 B(  3-C , 11-O ) :   0.1150 B(  4-S , 10-O ) :   1.6850
B(  4-S , 11-O ) :   1.6430 B(  4-S , 16-F ) :   1.0113 B(  8-H , 11-O ) :  -0.2498

FINAL SINGLE POINT ENERGY      -806.284121260566

DIPOLE MOMENT
-------------
                                X             Y             Z
Electronic contribution:     -8.63794      -5.94737      -9.90568
Nuclear contribution   :      9.83476       6.70164       9.41257
                        -----------------------------------------
Total Dipole Moment    :      1.19682       0.75427      -0.49310
                        -----------------------------------------
Magnitude (a.u.)       :      1.49815
Magnitude (Debye)      :      3.80799

Rotational constants in cm-1:     0.099832     0.045916     0.042219
Rotational constants in MHz :  2992.874960  1376.530174  1265.693813

                             ****ORCA TERMINATED NORMALLY****
TOTAL RUN TIME: 0 days 0 hours 2 minutes 36 seconds 40 msec
