                         Program Version 5.0.0 -  RELEASE  -
|  1> !wB97X-D3 RIJCOSX def2-SVP def2/J TightSCF
|  2> *xyz -1 1
|  3> C          0.84888        2.66797       -4.30235
|  4> C          2.09343        1.86104       -4.65684
|  5> H          2.44481        2.04157       -5.67499
|  6> H          2.90175        2.13786       -3.98034
|  7> S          1.87964        0.07859       -4.46297
|  8> O          3.20757       -0.46611       -4.42026
|  9> O          1.07506       -0.05616       -3.26876
| 10> O          1.13166       -0.31996       -5.67903
| 11> H          0.05064        2.40112       -4.96303
| 12> H          1.06043        3.71210       -4.40203
| 13> H          0.56237        2.45684       -3.29327
| 14> *
| 15>
| 16> %MaxCore 64000
| 17>
| 18> %pal nprocs 4
| 19> end
| 20>
| 21> %scf
| 22>   MaxIter 150
| 23> end
| 24>
| 25>
| 26>                          ****END OF INPUT****

CARTESIAN COORDINATES (ANGSTROEM)
---------------------------------
  C      0.848880    2.667970   -4.302350
  C      2.093430    1.861040   -4.656840
  H      2.444810    2.041570   -5.674990
  H      2.901750    2.137860   -3.980340
  S      1.879640    0.078590   -4.462970
  O      3.207570   -0.466110   -4.420260
  O      1.075060   -0.056160   -3.268760
  O      1.131660   -0.319960   -5.679030
  H      0.050640    2.401120   -4.963030
  H      1.060430    3.712100   -4.402030
  H      0.562370    2.456840   -3.293270

 Total Charge           Charge          ....   -1
 Multiplicity           Mult            ....    1
 Number of Electrons    NEL             ....   58
 Basis Dimension        Dim             ....  113

ORBITAL ENERGIES
----------------

  NO   OCC          E(Eh)            E(eV)
   0   2.0000     -88.937897     -2420.1232
   1   2.0000     -18.993562      -516.8411
   2   2.0000     -18.990849      -516.7673
   3   2.0000     -18.974804      -516.3307
   4   2.0000     -10.136591      -275.8307
   5   2.0000     -10.132619      -275.7226
   6   2.0000      -8.018630      -218.1980
   7   2.0000      -5.977650      -162.6601
   8   2.0000      -5.977436      -162.6543
   9   2.0000      -5.977372      -162.6526
  10   2.0000      -1.022986       -27.8369
  11   2.0000      -0.881894       -23.9976
  12   2.0000      -0.853397       -23.2221
  13   2.0000      -0.731581       -19.9073
  14   2.0000      -0.600199       -16.3322
  15   2.0000      -0.467166       -12.7122
  16   2.0000      -0.408434       -11.1140
  17   2.0000      -0.402293       -10.9469
  18   2.0000      -0.360600        -9.8124
  19   2.0000      -0.342716        -9.3258
  20   2.0000      -0.336887        -9.1672
  21   2.0000      -0.313167        -8.5217
  22   2.0000      -0.296904        -8.0792
  23   2.0000      -0.222493        -6.0543
  24   2.0000      -0.221484        -6.0269
  25   2.0000      -0.187476        -5.1015
  26   2.0000      -0.176813        -4.8113
  27   2.0000      -0.165153        -4.4940
  28   2.0000      -0.131582        -3.5805
  29   0.0000       0.290678         7.9097
  30   0.0000       0.342628         9.3234
  31   0.0000       0.347861         9.4658
  32   0.0000       0.356090         9.6897
  33   0.0000       0.384327        10.4581

MULLIKEN ATOMIC CHARGES
-----------------------
   0 C :   -0.006893
   1 C :   -0.135310
   2 H :    0.017236
   3 H :    0.007092
   4 S :    0.883525
   5 O :   -0.574025
   6 O :   -0.585650
   7 O :   -0.629166
   8 H :    0.019763
   9 H :   -0.022044
  10 H :    0.025472
Sum of atomic charges:   -1.0000000

LOEWDIN ATOMIC CHARGES
----------------------
   0 C :   -0.076172
   1 C :   -0.191954
   2 H :    0.009475
   3 H :    0.004566
   4 S :    1.099054
   5 O :   -0.606489
   6 O :   -0.614880
   7 O :   -0.661828
   8 H :    0.018119
   9 H :    0.001419
  10 H :    0.018691

  Mayer bond orders larger than 0.100000
B(  0-C ,  1-C ) :   1.0531 B(  0-C ,  8-H ) :   0.9717 B(  0-C ,  9-H ) :   0.9669
B(  0-C , 10-H ) :   0.9683 B(  1-C ,  2-H ) :   0.9506 B(  1-C ,  3-H ) :   0.9476
B(  1-C ,  4-S ) :   0.8998 B(  4-S ,  5-O ) :   1.6529 B(  4-S ,  6-O ) :   1.6242
B(  4-S ,  7-O ) :   1.5896

Dispersion correction           -0.002879580
FINAL SINGLE POINT ENERGY      -702.637118888699

DIPOLE MOMENT
-------------
                                X             Y             Z
Electronic contribution:      1.62656      -7.79776       0.06672
Nuclear contribution   :     -1.55288       9.51857       0.00420
                        -----------------------------------------
Total Dipole Moment    :      0.07368       1.72081       0.07092
                        -----------------------------------------
Magnitude (a.u.)       :      1.72385
Magnitude (Debye)      :      4.38167

Rotational constants in cm-1:     0.163401     0.083833     0.082462
Rotational constants in MHz :  4898.624208  2513.264548  2472.149188

                             ****ORCA TERMINATED NORMALLY****
TOTAL RUN TIME: 0 days 0 hours 0 minutes 17 seconds 180 msec
