                         Program Version 5.0.0 -  RELEASE  -
|  1> !wB97X-D3 RIJCOSX def2-SVP def2/J TightSCF
|  2> *xyz 1 1
|  3> C         -0.46129        2.23469       -4.98962
|  4> C          0.84888        2.66797       -4.30235
|  5> C         -0.42384        2.39877       -6.47432
|  6> N         -0.95947        3.49265       -7.00740
|  7> N          0.14558        1.48689       -7.20399
|  8> H          0.56537        0.69681       -6.72386
|  9> H          0.22068        1.58177       -8.20752
| 10> H         -1.40624        4.18151       -6.40326
| 11> H         -0.93421        3.68160       -7.99947
| 12> H         -1.28888        2.82674       -4.59500
| 13> H         -0.65170        1.18634       -4.75655
| 14> H          1.66208        2.08894       -4.68750
| 15> H          0.76716        2.51042       -3.24717
| 16> H          1.02677        3.70527       -4.49537
| 17> *
| 18>
| 19> %MaxCore 64000
| 20>
| 21> %pal nprocs 4
| 22> end
| 23>
| 24> %scf
| 25>   MaxIter 150
| 26> end
| 27>
| 28>
| 29>                          ****END OF INPUT****

CARTESIAN COORDINATES (ANGSTROEM)
---------------------------------
  C     -0.461290    2.234690   -4.989620
  C      0.848880    2.667970   -4.302350
  C     -0.423840    2.398770   -6.474320
  N     -0.959470    3.492650   -7.007400
  N      0.145580    1.486890   -7.203990
  H      0.565370    0.696810   -6.723860
  H      0.220680    1.581770   -8.207520
  H     -1.406240    4.181510   -6.403260
  H     -0.934210    3.681600   -7.999470
  H     -1.288880    2.826740   -4.595000
  H     -0.651700    1.186340   -4.756550
  H      1.662080    2.088940   -4.687500
  H      0.767160    2.510420   -3.247170
  H      1.026770    3.705270   -4.495370

 Total Charge           Charge          ....    1
 Multiplicity           Mult            ....    1
 Number of Electrons    NEL             ....   40
 Basis Dimension        Dim             ....  115

ORBITAL ENERGIES
----------------

  NO   OCC          E(Eh)            E(eV)
   0   2.0000     -14.685659      -399.6171
   1   2.0000     -14.681151      -399.4944
   2   2.0000     -10.614506      -288.8354
   3   2.0000     -10.487517      -285.3798
   4   2.0000     -10.445512      -284.2368
   5   2.0000      -1.315976       -35.8095
   6   2.0000      -1.216956       -33.1151
   7   2.0000      -1.080245       -29.3950
   8   2.0000      -0.967242       -26.3200
   9   2.0000      -0.922220       -25.0949
  10   2.0000      -0.882604       -24.0169
  11   2.0000      -0.854187       -23.2436
  12   2.0000      -0.801679       -21.8148
  13   2.0000      -0.753189       -20.4953
  14   2.0000      -0.724068       -19.7029
  15   2.0000      -0.715160       -19.4605
  16   2.0000      -0.640726       -17.4350
  17   2.0000      -0.630714       -17.1626
  18   2.0000      -0.623728       -16.9725
  19   2.0000      -0.586355       -15.9555
  20   0.0000      -0.120245        -3.2720
  21   0.0000      -0.056425        -1.5354
  22   0.0000      -0.009347        -0.2543
  23   0.0000      -0.007678        -0.2089
  24   0.0000       0.016334         0.4445

MULLIKEN ATOMIC CHARGES
-----------------------
   0 C :   -0.075342
   1 C :   -0.016824
   2 C :   -0.030033
   3 N :   -0.043776
   4 N :    0.004412
   5 H :    0.197488
   6 H :    0.188076
   7 H :    0.199070
   8 H :    0.183711
   9 H :    0.083623
  10 H :    0.097206
  11 H :    0.053277
  12 H :    0.097916
  13 H :    0.061196
Sum of atomic charges:    1.0000000

LOEWDIN ATOMIC CHARGES
----------------------
   0 C :   -0.039433
   1 C :   -0.022562
   2 C :    0.159353
   3 N :    0.079677
   4 N :    0.102382
   5 H :    0.125782
   6 H :    0.117060
   7 H :    0.125050
   8 H :    0.112263
   9 H :    0.056038
  10 H :    0.060177
  11 H :    0.032690
  12 H :    0.054198
  13 H :    0.037326

  Mayer bond orders larger than 0.100000
B(  0-C ,  1-C ) :   1.0560 B(  0-C ,  2-C ) :   1.0168 B(  0-C ,  9-H ) :   0.9319
B(  0-C , 10-H ) :   0.9313 B(  1-C , 11-H ) :   0.9746 B(  1-C , 12-H ) :   0.9674
B(  1-C , 13-H ) :   0.9721 B(  2-C ,  3-N ) :   1.4951 B(  2-C ,  4-N ) :   1.5307
B(  3-N ,  7-H ) :   0.9193 B(  3-N ,  8-H ) :   0.9307 B(  4-N ,  5-H ) :   0.9160
B(  4-N ,  6-H ) :   0.9264

Dispersion correction           -0.003018431
FINAL SINGLE POINT ENERGY      -228.807798051417

DIPOLE MOMENT
-------------
                                X             Y             Z
Electronic contribution:     -1.55910      -0.26610      -3.92129
Nuclear contribution   :      1.33202       0.27544       2.83701
                        -----------------------------------------
Total Dipole Moment    :     -0.22708       0.00934      -1.08428
                        -----------------------------------------
Magnitude (a.u.)       :      1.10785
Magnitude (Debye)      :      2.81592

Rotational constants in cm-1:     0.258570     0.126296     0.098869
Rotational constants in MHz :  7751.748523  3786.267300  2964.011691

                             ****ORCA TERMINATED NORMALLY****
TOTAL RUN TIME: 0 days 0 hours 0 minutes 18 seconds 613 msec
