                         Program Version 5.0.0 -  RELEASE  -
|  1> !wB97X-D3 RIJCOSX def2-SVP def2/J TightSCF
|  2> *xyz 0 1
|  3> C          0.84888        2.66797       -4.30235
|  4> C          2.09343        1.86104       -4.65684
|  5> H          2.44481        2.04157       -5.67499
|  6> H          2.90175        2.13786       -3.98034
|  7> S          1.87964        0.07859       -4.46297
|  8> F          3.20757       -0.46611       -4.42026
|  9> O          1.07506       -0.05616       -3.26876
| 10> O          1.13166       -0.31996       -5.67903
| 11> H          0.05064        2.40112       -4.96303
| 12> H          1.06043        3.71210       -4.40203
| 13> H          0.56237        2.45684       -3.29327
| 14> *
| 15>
| 16> %MaxCore 64000
| 17>
| 18> %pal nprocs 4
| 19> end
| 20>
| 21> %scf
| 22>   MaxIter 150
| 23> end
| 24>
| 25>
| 26>                          ****END OF INPUT****

CARTESIAN COORDINATES (ANGSTROEM)
---------------------------------
  C      0.848880    2.667970   -4.302350
  C      2.093430    1.861040   -4.656840
  H      2.444810    2.041570   -5.674990
  H      2.901750    2.137860   -3.980340
  S      1.879640    0.078590   -4.462970
  F      3.207570   -0.466110   -4.420260
  O      1.075060   -0.056160   -3.268760
  O      1.131660   -0.319960   -5.679030
  H      0.050640    2.401120   -4.963030
  H      1.060430    3.712100   -4.402030
  H      0.562370    2.456840   -3.293270

 Total Charge           Charge          ....    0
 Multiplicity           Mult            ....    1
 Number of Electrons    NEL             ....   58
 Basis Dimension        Dim             ....  113

ORBITAL ENERGIES
----------------

  NO   OCC          E(Eh)            E(eV)
   0   2.0000     -89.213182     -2427.6141
   1   2.0000     -24.912604      -677.9064
   2   2.0000     -19.242653      -523.6192
   3   2.0000     -19.228207      -523.2261
   4   2.0000     -10.345370      -281.5118
   5   2.0000     -10.305161      -280.4177
   6   2.0000      -8.296351      -225.7552
   7   2.0000      -6.259486      -170.3293
   8   2.0000      -6.252815      -170.1477
   9   2.0000      -6.251653      -170.1161
  10   2.0000      -1.495117       -40.6842
  11   2.0000      -1.215099       -33.0645
  12   2.0000      -1.106620       -30.1127
  13   2.0000      -0.930694       -25.3255
  14   2.0000      -0.843736       -22.9592
  15   2.0000      -0.781213       -21.2579
  16   2.0000      -0.694467       -18.8974
  17   2.0000      -0.694167       -18.8892
  18   2.0000      -0.653950       -17.7949
  19   2.0000      -0.593621       -16.1532
  20   2.0000      -0.580481       -15.7957
  21   2.0000      -0.532876       -14.5003
  22   2.0000      -0.525328       -14.2949
  23   2.0000      -0.502509       -13.6740
  24   2.0000      -0.480867       -13.0851
  25   2.0000      -0.474464       -12.9108
  26   2.0000      -0.420452       -11.4411
  27   2.0000      -0.404246       -11.0001
  28   2.0000      -0.390414       -10.6237
  29   0.0000       0.123497         3.3605
  30   0.0000       0.134390         3.6569
  31   0.0000       0.161446         4.3932
  32   0.0000       0.173051         4.7090
  33   0.0000       0.185726         5.0539

MULLIKEN ATOMIC CHARGES
-----------------------
   0 C :   -0.022957
   1 C :   -0.172983
   2 H :    0.088758
   3 H :    0.070511
   4 S :    0.958952
   5 F :   -0.167244
   6 O :   -0.448694
   7 O :   -0.487744
   8 H :    0.064226
   9 H :    0.052070
  10 H :    0.065106
Sum of atomic charges:   -0.0000000

LOEWDIN ATOMIC CHARGES
----------------------
   0 C :   -0.050702
   1 C :   -0.155615
   2 H :    0.039209
   3 H :    0.029973
   4 S :    1.156774
   5 F :   -0.110716
   6 O :   -0.487439
   7 O :   -0.530686
   8 H :    0.036967
   9 H :    0.036511
  10 H :    0.035724

  Mayer bond orders larger than 0.100000
B(  0-C ,  1-C ) :   1.0600 B(  0-C ,  8-H ) :   0.9745 B(  0-C ,  9-H ) :   0.9675
B(  0-C , 10-H ) :   0.9692 B(  1-C ,  2-H ) :   0.9380 B(  1-C ,  3-H ) :   0.9361
B(  1-C ,  4-S ) :   0.9246 B(  4-S ,  5-F ) :   1.0353 B(  4-S ,  6-O ) :   1.7754
B(  4-S ,  7-O ) :   1.7413

Dispersion correction           -0.002877013
FINAL SINGLE POINT ENERGY      -727.131870963454

DIPOLE MOMENT
-------------
                                X             Y             Z
Electronic contribution:      4.20597      -9.36543       0.11309
Nuclear contribution   :     -3.08754      10.54185      -0.04092
                        -----------------------------------------
Total Dipole Moment    :      1.11843       1.17643       0.07218
                        -----------------------------------------
Magnitude (a.u.)       :      1.62483
Magnitude (Debye)      :      4.12999

Rotational constants in cm-1:     0.158925     0.081210     0.079022
Rotational constants in MHz :  4764.450166  2434.603461  2369.014434

                             ****ORCA TERMINATED NORMALLY****
TOTAL RUN TIME: 0 days 0 hours 0 minutes 17 seconds 596 msec
