                         Program Version 5.0.0 -  RELEASE  -
|  1> !wB97X-D3 RIJCOSX def2-SVP def2/J TightSCF
|  2> *xyz 0 1
|  3> C         -0.46129        2.23469       -4.98962
|  4> C          0.84888        2.66797       -4.30235
|  5> C         -0.42384        2.39877       -6.47432
|  6> C         -0.95947        3.49265       -7.00740
|  7> N          0.14558        1.48689       -7.20399
|  8> H          0.56537        0.69681       -6.72386
|  9> H          0.22068        1.58177       -8.20752
| 10> H         -1.40624        4.18151       -6.40326
| 11> H         -0.93421        3.68160       -7.99947
| 12> H         -1.28888        2.82674       -4.59500
| 13> H         -0.65170        1.18634       -4.75655
| 14> H          1.66208        2.08894       -4.68750
| 15> H          0.76716        2.51042       -3.24717
| 16> H          1.02677        3.70527       -4.49537
| 17> *
| 18>
| 19> %MaxCore 64000
| 20>
| 21> %pal nprocs 4
| 22> end
| 23>
| 24> %scf
| 25>   MaxIter 150
| 26> end
| 27>
| 28>
| 29>                          ****END OF INPUT****

CARTESIAN COORDINATES (ANGSTROEM)
---------------------------------
  C     -0.461290    2.234690   -4.989620
  C      0.848880    2.667970   -4.302350
  C     -0.423840    2.398770   -6.474320
  C     -0.959470    3.492650   -7.007400
  N      0.145580    1.486890   -7.203990
  H      0.565370    0.696810   -6.723860
  H      0.220680    1.581770   -8.207520
  H     -1.406240    4.181510   -6.403260
  H     -0.934210    3.681600   -7.999470
  H     -1.288880    2.826740   -4.595000
  H     -0.651700    1.186340   -4.756550
  H      1.662080    2.088940   -4.687500
  H      0.767160    2.510420   -3.247170
  H      1.026770    3.705270   -4.495370

 Total Charge           Charge          ....    0
 Multiplicity           Mult            ....    1
 Number of Electrons    NEL             ....   40
 Basis Dimension        Dim             ....  115

ORBITAL ENERGIES
----------------

  NO   OCC          E(Eh)            E(eV)
   0   2.0000     -14.432796      -392.7363
   1   2.0000     -10.304015      -280.3865
   2   2.0000     -10.285980      -279.8958
   3   2.0000     -10.274722      -279.5894
   4   2.0000     -10.214697      -277.9560
   5   2.0000      -1.038800       -28.2672
   6   2.0000      -0.885501       -24.0957
   7   2.0000      -0.816590       -22.2206
   8   2.0000      -0.739045       -20.1104
   9   2.0000      -0.668667       -18.1953
  10   2.0000      -0.627373       -17.0717
  11   2.0000      -0.578337       -15.7373
  12   2.0000      -0.535604       -14.5745
  13   2.0000      -0.516333       -14.0501
  14   2.0000      -0.485877       -13.2214
  15   2.0000      -0.475086       -12.9277
  16   2.0000      -0.445202       -12.1146
  17   2.0000      -0.426015       -11.5924
  18   2.0000      -0.423623       -11.5274
  19   2.0000      -0.267739        -7.2855
  20   0.0000       0.130949         3.5633
  21   0.0000       0.149478         4.0675
  22   0.0000       0.183491         4.9930
  23   0.0000       0.190261         5.1773
  24   0.0000       0.204796         5.5728

MULLIKEN ATOMIC CHARGES
-----------------------
   0 C :   -0.011708
   1 C :    0.001420
   2 C :   -0.138533
   3 C :   -0.083213
   4 N :   -0.080903
   5 H :    0.120047
   6 H :    0.129094
   7 H :   -0.021929
   8 H :   -0.037042
   9 H :    0.033904
  10 H :    0.014548
  11 H :    0.013323
  12 H :    0.030865
  13 H :    0.030127
Sum of atomic charges:   -0.0000000

LOEWDIN ATOMIC CHARGES
----------------------
   0 C :   -0.032336
   1 C :   -0.046809
   2 C :    0.002835
   3 C :   -0.188928
   4 N :   -0.003045
   5 H :    0.073607
   6 H :    0.081540
   7 H :    0.000475
   8 H :   -0.008444
   9 H :    0.036060
  10 H :    0.019367
  11 H :    0.016978
  12 H :    0.022869
  13 H :    0.025832

  Mayer bond orders larger than 0.100000
B(  0-C ,  1-C ) :   1.0790 B(  0-C ,  2-C ) :   1.0147 B(  0-C ,  9-H ) :   0.9437
B(  0-C , 10-H ) :   0.9424 B(  1-C , 11-H ) :   0.9736 B(  1-C , 12-H ) :   0.9744
B(  1-C , 13-H ) :   0.9734 B(  2-C ,  3-C ) :   1.8505 B(  2-C ,  4-N ) :   1.2734
B(  3-C ,  7-H ) :   0.9504 B(  3-C ,  8-H ) :   0.9641 B(  4-N ,  5-H ) :   0.9497
B(  4-N ,  6-H ) :   0.9483

Dispersion correction           -0.003017054
FINAL SINGLE POINT ENERGY      -212.348080920487

DIPOLE MOMENT
-------------
                                X             Y             Z
Electronic contribution:     -0.68162      -1.22657      -2.59256
Nuclear contribution   :      1.14741       0.51394       2.60761
                        -----------------------------------------
Total Dipole Moment    :      0.46579      -0.71263       0.01505
                        -----------------------------------------
Magnitude (a.u.)       :      0.85149
Magnitude (Debye)      :      2.16431

Rotational constants in cm-1:     0.269157     0.129188     0.102123
Rotational constants in MHz :  8069.118715  3872.945231  3061.580645

                             ****ORCA TERMINATED NORMALLY****
TOTAL RUN TIME: 0 days 0 hours 0 minutes 18 seconds 969 msec
