                         Program Version 5.0.0 -  RELEASE  -
|  1> !wB97X-D3 RIJCOSX def2-SVP def2/J TightSCF
|  2> *xyz 0 1
|  3> C          0.84888        2.66797       -4.30235
|  4> C          2.09343        1.86104       -4.65684
|  5> H          2.44481        2.04157       -5.67499
|  6> H          2.90175        2.13786       -3.98034
|  7> S          1.87964        0.07859       -4.46297
|  8> O          3.20757       -0.46611       -4.42026
|  9> F          1.07506       -0.05616       -3.26876
| 10> O          1.13166       -0.31996       -5.67903
| 11> H          0.05064        2.40112       -4.96303
| 12> H          1.06043        3.71210       -4.40203
| 13> H          0.56237        2.45684       -3.29327
| 14> *
| 15>
| 16> %MaxCore 64000
| 17>
| 18> %pal nprocs 4
| 19> end
| 20>
| 21> %scf
| 22>   MaxIter 150
| 23> end
| 24>
| 25>
| 26>                          ****END OF INPUT****

CARTESIAN COORDINATES (ANGSTROEM)
---------------------------------
  C      0.848880    2.667970   -4.302350
  C      2.093430    1.861040   -4.656840
  H      2.444810    2.041570   -5.674990
  H      2.901750    2.137860   -3.980340
  S      1.879640    0.078590   -4.462970
  O      3.207570   -0.466110   -4.420260
  F      1.075060   -0.056160   -3.268760
  O      1.131660   -0.319960   -5.679030
  H      0.050640    2.401120   -4.963030
  H      1.060430    3.712100   -4.402030
  H      0.562370    2.456840   -3.293270

 Total Charge           Charge          ....    0
 Multiplicity           Mult            ....    1
 Number of Electrons    NEL             ....   58
 Basis Dimension        Dim             ....  113

ORBITAL ENERGIES
----------------

  NO   OCC          E(Eh)            E(eV)
   0   2.0000     -89.212516     -2427.5960
   1   2.0000     -24.907315      -677.7625
   2   2.0000     -19.246144      -523.7142
   3   2.0000     -19.228384      -523.2309
   4   2.0000     -10.345131      -281.5053
   5   2.0000     -10.312571      -280.6193
   6   2.0000      -8.295648      -225.7360
   7   2.0000      -6.258884      -170.3129
   8   2.0000      -6.252092      -170.1281
   9   2.0000      -6.250943      -170.0968
  10   2.0000      -1.486153       -40.4403
  11   2.0000      -1.219195       -33.1760
  12   2.0000      -1.109925       -30.2026
  13   2.0000      -0.936472       -25.4827
  14   2.0000      -0.836742       -22.7689
  15   2.0000      -0.784688       -21.3525
  16   2.0000      -0.703070       -19.1315
  17   2.0000      -0.687153       -18.6984
  18   2.0000      -0.643486       -17.5101
  19   2.0000      -0.595424       -16.2023
  20   2.0000      -0.574876       -15.6432
  21   2.0000      -0.547614       -14.9013
  22   2.0000      -0.531079       -14.4514
  23   2.0000      -0.508254       -13.8303
  24   2.0000      -0.490343       -13.3429
  25   2.0000      -0.475302       -12.9336
  26   2.0000      -0.421788       -11.4774
  27   2.0000      -0.405179       -11.0255
  28   2.0000      -0.393540       -10.7088
  29   0.0000       0.112281         3.0553
  30   0.0000       0.147879         4.0240
  31   0.0000       0.158288         4.3072
  32   0.0000       0.178725         4.8633
  33   0.0000       0.186441         5.0733

MULLIKEN ATOMIC CHARGES
-----------------------
   0 C :   -0.045138
   1 C :   -0.173107
   2 H :    0.111844
   3 H :    0.081751
   4 S :    0.959117
   5 O :   -0.431843
   6 F :   -0.180063
   7 O :   -0.488453
   8 H :    0.063083
   9 H :    0.057900
  10 H :    0.044909
Sum of atomic charges:   -0.0000000

LOEWDIN ATOMIC CHARGES
----------------------
   0 C :   -0.066583
   1 C :   -0.151311
   2 H :    0.054240
   3 H :    0.035213
   4 S :    1.158938
   5 O :   -0.476331
   6 F :   -0.120516
   7 O :   -0.531832
   8 H :    0.033952
   9 H :    0.038466
  10 H :    0.025764

  Mayer bond orders larger than 0.100000
B(  0-C ,  1-C ) :   1.0390 B(  0-C ,  8-H ) :   0.9734 B(  0-C ,  9-H ) :   0.9671
B(  0-C , 10-H ) :   0.9753 B(  1-C ,  2-H ) :   0.9406 B(  1-C ,  3-H ) :   0.9402
B(  1-C ,  4-S ) :   0.9292 B(  4-S ,  5-O ) :   1.8009 B(  4-S ,  6-F ) :   1.0142
B(  4-S ,  7-O ) :   1.7415

Dispersion correction           -0.002881376
FINAL SINGLE POINT ENERGY      -727.136694575235

DIPOLE MOMENT
-------------
                                X             Y             Z
Electronic contribution:      0.56713      -8.64133       2.05826
Nuclear contribution   :     -0.86540      10.11467      -1.24082
                        -----------------------------------------
Total Dipole Moment    :     -0.29827       1.47334       0.81744
                        -----------------------------------------
Magnitude (a.u.)       :      1.71112
Magnitude (Debye)      :      4.34931

Rotational constants in cm-1:     0.154065     0.083345     0.080357
Rotational constants in MHz :  4618.752213  2498.631937  2409.037217

                             ****ORCA TERMINATED NORMALLY****
TOTAL RUN TIME: 0 days 0 hours 0 minutes 17 seconds 861 msec
