                         Program Version 5.0.0 -  RELEASE  -
|  1> !wB97X-D3 RIJCOSX def2-SVP def2/J TightSCF
|  2> *xyz 0 1
|  3> C         -0.46129        2.23469       -4.98962
|  4> C          0.84888        2.66797       -4.30235
|  5> C         -0.42384        2.39877       -6.47432
|  6> N         -0.95947        3.49265       -7.00740
|  7> C          0.14558        1.48689       -7.20399
|  8> H          0.56537        0.69681       -6.72386
|  9> H          0.22068        1.58177       -8.20752
| 10> H         -1.40624        4.18151       -6.40326
| 11> H         -0.93421        3.68160       -7.99947
| 12> H         -1.28888        2.82674       -4.59500
| 13> H         -0.65170        1.18634       -4.75655
| 14> H          1.66208        2.08894       -4.68750
| 15> H          0.76716        2.51042       -3.24717
| 16> H          1.02677        3.70527       -4.49537
| 17> *
| 18>
| 19> %MaxCore 64000
| 20>
| 21> %pal nprocs 4
| 22> end
| 23>
| 24> %scf
| 25>   MaxIter 150
| 26> end
| 27>
| 28>
| 29>                          ****END OF INPUT****

CARTESIAN COORDINATES (ANGSTROEM)
---------------------------------
  C     -0.461290    2.234690   -4.989620
  C      0.848880    2.667970   -4.302350
  C     -0.423840    2.398770   -6.474320
  N     -0.959470    3.492650   -7.007400
  C      0.145580    1.486890   -7.203990
  H      0.565370    0.696810   -6.723860
  H      0.220680    1.581770   -8.207520
  H     -1.406240    4.181510   -6.403260
  H     -0.934210    3.681600   -7.999470
  H     -1.288880    2.826740   -4.595000
  H     -0.651700    1.186340   -4.756550
  H      1.662080    2.088940   -4.687500
  H      0.767160    2.510420   -3.247170
  H      1.026770    3.705270   -4.495370

 Total Charge           Charge          ....    0
 Multiplicity           Mult            ....    1
 Number of Electrons    NEL             ....   40
 Basis Dimension        Dim             ....  115

ORBITAL ENERGIES
----------------

  NO   OCC          E(Eh)            E(eV)
   0   2.0000     -14.428700      -392.6249
   1   2.0000     -10.301738      -280.3245
   2   2.0000     -10.285644      -279.8866
   3   2.0000     -10.273142      -279.5464
   4   2.0000     -10.213745      -277.9301
   5   2.0000      -1.025896       -27.9161
   6   2.0000      -0.886679       -24.1278
   7   2.0000      -0.820488       -22.3266
   8   2.0000      -0.740087       -20.1388
   9   2.0000      -0.662648       -18.0316
  10   2.0000      -0.617021       -16.7900
  11   2.0000      -0.580516       -15.7966
  12   2.0000      -0.537180       -14.6174
  13   2.0000      -0.510938       -13.9033
  14   2.0000      -0.486274       -13.2322
  15   2.0000      -0.476587       -12.9686
  16   2.0000      -0.442568       -12.0429
  17   2.0000      -0.428592       -11.6626
  18   2.0000      -0.419581       -11.4174
  19   2.0000      -0.272245        -7.4082
  20   0.0000       0.132991         3.6189
  21   0.0000       0.151200         4.1144
  22   0.0000       0.183256         4.9866
  23   0.0000       0.189025         5.1436
  24   0.0000       0.208041         5.6611

MULLIKEN ATOMIC CHARGES
-----------------------
   0 C :   -0.009339
   1 C :    0.000098
   2 C :   -0.107084
   3 N :   -0.127504
   4 C :   -0.065912
   5 H :   -0.023552
   6 H :   -0.035408
   7 H :    0.119969
   8 H :    0.124066
   9 H :    0.006421
  10 H :    0.039462
  11 H :    0.029359
  12 H :    0.028627
  13 H :    0.020796
Sum of atomic charges:   -0.0000000

LOEWDIN ATOMIC CHARGES
----------------------
   0 C :   -0.032478
   1 C :   -0.044458
   2 C :    0.008716
   3 N :   -0.023875
   4 C :   -0.174276
   5 H :    0.001951
   6 H :   -0.004707
   7 H :    0.072056
   8 H :    0.076408
   9 H :    0.018037
  10 H :    0.035746
  11 H :    0.024468
  12 H :    0.021632
  13 H :    0.020781

  Mayer bond orders larger than 0.100000
B(  0-C ,  1-C ) :   1.0841 B(  0-C ,  2-C ) :   1.0023 B(  0-C ,  9-H ) :   0.9439
B(  0-C , 10-H ) :   0.9456 B(  1-C , 11-H ) :   0.9760 B(  1-C , 12-H ) :   0.9743
B(  1-C , 13-H ) :   0.9724 B(  2-C ,  3-N ) :   1.2379 B(  2-C ,  4-C ) :   1.8850
B(  3-N ,  7-H ) :   0.9525 B(  3-N ,  8-H ) :   0.9533 B(  4-C ,  5-H ) :   0.9434
B(  4-C ,  6-H ) :   0.9624

Dispersion correction           -0.003006437
FINAL SINGLE POINT ENERGY      -212.347969846017

DIPOLE MOMENT
-------------
                                X             Y             Z
Electronic contribution:     -1.72810       0.63977      -2.40499
Nuclear contribution   :      1.40335       0.04939       2.56207
                        -----------------------------------------
Total Dipole Moment    :     -0.32475       0.68916       0.15708
                        -----------------------------------------
Magnitude (a.u.)       :      0.77787
Magnitude (Debye)      :      1.97718

Rotational constants in cm-1:     0.271383     0.128194     0.101873
Rotational constants in MHz :  8135.853259  3843.152748  3054.074278

                             ****ORCA TERMINATED NORMALLY****
TOTAL RUN TIME: 0 days 0 hours 0 minutes 18 seconds 944 msec
