                         Program Version 5.0.0 -  RELEASE  -
|  1> !wB97X-D3 RIJCOSX def2-SVP def2/J TightSCF
|  2> *xyz 0 1
|  3> C          0.84888        2.66797       -4.30235
|  4> C          2.09343        1.86104       -4.65684
|  5> H          2.44481        2.04157       -5.67499
|  6> H          2.90175        2.13786       -3.98034
|  7> S          1.87964        0.07859       -4.46297
|  8> O          3.20757       -0.46611       -4.42026
|  9> O          1.07506       -0.05616       -3.26876
| 10> F          1.13166       -0.31996       -5.67903
| 11> H          0.05064        2.40112       -4.96303
| 12> H          1.06043        3.71210       -4.40203
| 13> H          0.56237        2.45684       -3.29327
| 14> *
| 15>
| 16> %MaxCore 64000
| 17>
| 18> %pal nprocs 4
| 19> end
| 20>
| 21> %scf
| 22>   MaxIter 150
| 23> end
| 24>
| 25>
| 26>                          ****END OF INPUT****

CARTESIAN COORDINATES (ANGSTROEM)
---------------------------------
  C      0.848880    2.667970   -4.302350
  C      2.093430    1.861040   -4.656840
  H      2.444810    2.041570   -5.674990
  H      2.901750    2.137860   -3.980340
  S      1.879640    0.078590   -4.462970
  O      3.207570   -0.466110   -4.420260
  O      1.075060   -0.056160   -3.268760
  F      1.131660   -0.319960   -5.679030
  H      0.050640    2.401120   -4.963030
  H      1.060430    3.712100   -4.402030
  H      0.562370    2.456840   -3.293270

 Total Charge           Charge          ....    0
 Multiplicity           Mult            ....    1
 Number of Electrons    NEL             ....   58
 Basis Dimension        Dim             ....  113

ORBITAL ENERGIES
----------------

  NO   OCC          E(Eh)            E(eV)
   0   2.0000     -89.211855     -2427.5780
   1   2.0000     -24.887819      -677.2320
   2   2.0000     -19.246406      -523.7213
   3   2.0000     -19.243543      -523.6434
   4   2.0000     -10.344376      -281.4848
   5   2.0000     -10.306733      -280.4605
   6   2.0000      -8.294813      -225.7133
   7   2.0000      -6.257776      -170.2827
   8   2.0000      -6.251530      -170.1128
   9   2.0000      -6.250342      -170.0805
  10   2.0000      -1.454437       -39.5772
  11   2.0000      -1.228409       -33.4267
  12   2.0000      -1.131060       -30.7777
  13   2.0000      -0.932340       -25.3703
  14   2.0000      -0.826121       -22.4799
  15   2.0000      -0.775157       -21.0931
  16   2.0000      -0.683172       -18.5900
  17   2.0000      -0.664686       -18.0870
  18   2.0000      -0.646017       -17.5790
  19   2.0000      -0.593827       -16.1589
  20   2.0000      -0.577936       -15.7264
  21   2.0000      -0.551010       -14.9937
  22   2.0000      -0.527476       -14.3534
  23   2.0000      -0.499814       -13.6006
  24   2.0000      -0.496119       -13.5001
  25   2.0000      -0.474939       -12.9238
  26   2.0000      -0.429680       -11.6922
  27   2.0000      -0.417548       -11.3620
  28   2.0000      -0.408840       -11.1251
  29   0.0000       0.117787         3.2052
  30   0.0000       0.144291         3.9264
  31   0.0000       0.161853         4.4042
  32   0.0000       0.175874         4.7858
  33   0.0000       0.185706         5.0533

MULLIKEN ATOMIC CHARGES
-----------------------
   0 C :   -0.033259
   1 C :   -0.182858
   2 H :    0.082555
   3 H :    0.104053
   4 S :    0.969385
   5 O :   -0.437517
   6 O :   -0.453097
   7 F :   -0.215611
   8 H :    0.044734
   9 H :    0.051336
  10 H :    0.070279
Sum of atomic charges:   -0.0000000

LOEWDIN ATOMIC CHARGES
----------------------
   0 C :   -0.062531
   1 C :   -0.156483
   2 H :    0.035357
   3 H :    0.050610
   4 S :    1.163768
   5 O :   -0.480262
   6 O :   -0.490282
   7 F :   -0.160166
   8 H :    0.028087
   9 H :    0.035707
  10 H :    0.036193

  Mayer bond orders larger than 0.100000
B(  0-C ,  1-C ) :   1.0430 B(  0-C ,  8-H ) :   0.9770 B(  0-C ,  9-H ) :   0.9662
B(  0-C , 10-H ) :   0.9694 B(  1-C ,  2-H ) :   0.9404 B(  1-C ,  3-H ) :   0.9412
B(  1-C ,  4-S ) :   0.9215 B(  4-S ,  5-O ) :   1.8052 B(  4-S ,  6-O ) :   1.7804
B(  4-S ,  7-F ) :   0.9775

Dispersion correction           -0.002844617
FINAL SINGLE POINT ENERGY      -727.154135943233

DIPOLE MOMENT
-------------
                                X             Y             Z
Electronic contribution:      0.65801      -9.12131      -2.05702
Nuclear contribution   :     -0.92438      10.38956       1.27076
                        -----------------------------------------
Total Dipole Moment    :     -0.26637       1.26825      -0.78626
                        -----------------------------------------
Magnitude (a.u.)       :      1.51579
Magnitude (Debye)      :      3.85282

Rotational constants in cm-1:     0.154243     0.082247     0.080562
Rotational constants in MHz :  4624.087322  2465.703680  2415.175852

                             ****ORCA TERMINATED NORMALLY****
TOTAL RUN TIME: 0 days 0 hours 0 minutes 17 seconds 730 msec
