                         Program Version 5.0.0 -  RELEASE  -
|  1> !wB97X-D3 RIJCOSX def2-SVP def2/J TightSCF xyzfile
|  2>
|  3> *xyzfile 0 1 D4.xyz
|  4>
|  5> %MaxCore 64000
|  6>
|  7> %pal nprocs 18
|  8> end
|  9>
| 10> %scf
| 11>   MaxIter 150
| 12> end
| 13>
| 14>
| 15>                          ****END OF INPUT****

CARTESIAN COORDINATES (ANGSTROEM)
---------------------------------
  C     -0.461293    2.234686   -4.989619
  C      0.848883    2.667967   -4.302351
  C      2.093434    1.861037   -4.656845
  H      2.444814    2.041567   -5.674990
  H      2.901748    2.137864   -3.980338
  S      1.879644    0.078594   -4.462965
  C     -0.423841    2.398772   -6.474317
  N     -0.959467    3.492647   -7.007401
  C      0.145585    1.486891   -7.203987
  H      0.565371    0.696807   -6.723858
  H      0.220682    1.581768   -8.207520
  H     -1.406243    4.181507   -6.403261
  H     -0.934215    3.681601   -7.999468
  O      3.207574   -0.466111   -4.420259
  F      1.075064   -0.056160   -3.268758
  O      1.131661   -0.319960   -5.679031
  H      0.668432    2.559427   -3.232850
  H      1.034074    3.729426   -4.497081
  H     -1.288884    2.826737   -4.594997
  H     -0.651696    1.186343   -4.756552

 Total Charge           Charge          ....    0
 Multiplicity           Mult            ....    1
 Number of Electrons    NEL             ....   88
 Basis Dimension        Dim             ....  194

ORBITAL ENERGIES
----------------

  NO   OCC          E(Eh)            E(eV)
   0   2.0000     -89.217415     -2427.7293
   1   2.0000     -24.910669      -677.8538
   2   2.0000     -19.248905      -523.7893
   3   2.0000     -19.233884      -523.3806
   4   2.0000     -14.425288      -392.5320
   5   2.0000     -10.341644      -281.4104
   6   2.0000     -10.320592      -280.8376
   7   2.0000     -10.298820      -280.2451
   8   2.0000     -10.296948      -280.1942
   9   2.0000     -10.192816      -277.3606
  10   2.0000      -8.300246      -225.8612
  11   2.0000      -6.263562      -170.4402
  12   2.0000      -6.256861      -170.2578
  13   2.0000      -6.255346      -170.2166
  14   2.0000      -1.489463       -40.5303
  15   2.0000      -1.224546       -33.3216
  16   2.0000      -1.120240       -30.4833
  17   2.0000      -1.024135       -27.8681
  18   2.0000      -0.946348       -25.7514
  19   2.0000      -0.874477       -23.7957
  20   2.0000      -0.827863       -22.5273
  21   2.0000      -0.809364       -22.0239
  22   2.0000      -0.746218       -20.3056
  23   2.0000      -0.703439       -19.1415
  24   2.0000      -0.693592       -18.8736
  25   2.0000      -0.664924       -18.0935
  26   2.0000      -0.652452       -17.7541
  27   2.0000      -0.612880       -16.6773
  28   2.0000      -0.596896       -16.2424
  29   2.0000      -0.580080       -15.7848
  30   2.0000      -0.576450       -15.6860
  31   2.0000      -0.556673       -15.1478
  32   2.0000      -0.538420       -14.6512
  33   2.0000      -0.507698       -13.8152
  34   2.0000      -0.497345       -13.5335
  35   2.0000      -0.487894       -13.2763
  36   2.0000      -0.470978       -12.8160
  37   2.0000      -0.464939       -12.6516
  38   2.0000      -0.433993       -11.8096
  39   2.0000      -0.423716       -11.5299
  40   2.0000      -0.414567       -11.2810
  41   2.0000      -0.408760       -11.1229
  42   2.0000      -0.376490       -10.2448
  43   2.0000      -0.266023        -7.2389
  44   0.0000       0.112857         3.0710
  45   0.0000       0.132068         3.5937
  46   0.0000       0.142632         3.8812
  47   0.0000       0.153424         4.1749
  48   0.0000       0.159227         4.3328

MULLIKEN ATOMIC CHARGES
-----------------------
   0 C :    0.023971
   1 C :   -0.053395
   2 C :   -0.112622
   3 H :    0.116605
   4 H :    0.082950
   5 S :    0.963131
   6 C :   -0.130951
   7 N :   -0.124271
   8 C :   -0.074147
   9 H :    0.019865
  10 H :   -0.047758
  11 H :    0.111874
  12 H :    0.124027
  13 O :   -0.422483
  14 F :   -0.177020
  15 O :   -0.449698
  16 H :    0.041252
  17 H :    0.048343
  18 H :    0.013251
  19 H :    0.047077
Sum of atomic charges:    0.0000000

LOEWDIN ATOMIC CHARGES
----------------------
   0 C :   -0.037301
   1 C :   -0.048086
   2 C :   -0.143138
   3 H :    0.056085
   4 H :    0.038508
   5 S :    1.169978
   6 C :   -0.012558
   7 N :   -0.031449
   8 C :   -0.163025
   9 H :   -0.028584
  10 H :   -0.009654
  11 H :    0.066991
  12 H :    0.075957
  13 O :   -0.471756
  14 F :   -0.117247
  15 O :   -0.458275
  16 H :    0.024043
  17 H :    0.037434
  18 H :    0.024499
  19 H :    0.027579

  Mayer bond orders larger than 0.100000
B(  0-C ,  1-C ) :   1.0737 B(  0-C ,  6-C ) :   0.9903 B(  0-C , 18-H ) :   0.9338
B(  0-C , 19-H ) :   0.9345 B(  1-C ,  2-C ) :   1.0367 B(  1-C , 16-H ) :   0.9543
B(  1-C , 17-H ) :   0.9398 B(  2-C ,  3-H ) :   0.9209 B(  2-C ,  4-H ) :   0.9379
B(  2-C ,  5-S ) :   0.9425 B(  5-S , 13-O ) :   1.8100 B(  5-S , 14-F ) :   1.0119
B(  5-S , 15-O ) :   1.6618 B(  6-C ,  7-N ) :   1.2193 B(  6-C ,  8-C ) :   1.9020
B(  7-N , 11-H ) :   0.9525 B(  7-N , 12-H ) :   0.9534 B(  8-C ,  9-H ) :   0.8969
B(  8-C , 10-H ) :   0.9598 B(  9-H , 15-O ) :   0.1418

Dispersion correction           -0.008575530
FINAL SINGLE POINT ENERGY      -898.996662287318

DIPOLE MOMENT
-------------
                                X             Y             Z
Electronic contribution:      5.57482     -11.69587       7.38855
Nuclear contribution   :     -6.09390      13.51614      -6.45360
                        -----------------------------------------
Total Dipole Moment    :     -0.51908       1.82027       0.93495
                        -----------------------------------------
Magnitude (a.u.)       :      2.11115
Magnitude (Debye)      :      5.36611

Rotational constants in cm-1:     0.081469     0.024519     0.022336
Rotational constants in MHz :  2442.393231   735.066768   669.628729

                             ****ORCA TERMINATED NORMALLY****
TOTAL RUN TIME: 0 days 0 hours 0 minutes 18 seconds 897 msec
