                         Program Version 5.0.0 -  RELEASE  -
|  1> !wB97X-D3 RIJCOSX def2-TZVPD def2/J TightSCF
|  2> *xyz -1 1
|  3> C         -0.91495        0.61511        2.50554
|  4> C         -0.05915        1.50352        3.41058
|  5> H          0.36536        2.34431        2.86116
|  6> H         -0.69226        1.92021        4.19898
|  7> C          1.08303        0.74964        4.08571
|  8> O          2.22817        1.26348        4.01983
|  9> O          0.81003       -0.34541        4.63627
| 10> H         -0.30401        0.20228        1.73015
| 11> H         -1.69811        1.19946        2.06954
| 12> H         -1.34124       -0.17772        3.08397
| 13> *
| 14>
| 15> %MaxCore 64000
| 16>
| 17> %pal nprocs 4
| 18> end
| 19>
| 20> %scf
| 21>   MaxIter 150
| 22> end
| 23>
| 24>
| 25>                          ****END OF INPUT****

CARTESIAN COORDINATES (ANGSTROEM)
---------------------------------
  C     -0.914950    0.615110    2.505540
  C     -0.059150    1.503520    3.410580
  H      0.365360    2.344310    2.861160
  H     -0.692260    1.920210    4.198980
  C      1.083030    0.749640    4.085710
  O      2.228170    1.263480    4.019830
  O      0.810030   -0.345410    4.636270
  H     -0.304010    0.202280    1.730150
  H     -1.698110    1.199460    2.069540
  H     -1.341240   -0.177720    3.083970

 Total Charge           Charge          ....   -1
 Multiplicity           Mult            ....    1
 Number of Electrons    NEL             ....   40
 Basis Dimension        Dim             ....  236

ORBITAL ENERGIES
----------------

  NO   OCC          E(Eh)            E(eV)
   0   2.0000     -18.963366      -516.0194
   1   2.0000     -18.962802      -516.0041
   2   2.0000     -10.157021      -276.3866
   3   2.0000     -10.109314      -275.0884
   4   2.0000     -10.099967      -274.8341
   5   2.0000      -0.935135       -25.4463
   6   2.0000      -0.840009       -22.8578
   7   2.0000      -0.721844       -19.6424
   8   2.0000      -0.586527       -15.9602
   9   2.0000      -0.424394       -11.5484
  10   2.0000      -0.394556       -10.7364
  11   2.0000      -0.361756        -9.8439
  12   2.0000      -0.329282        -8.9602
  13   2.0000      -0.312403        -8.5009
  14   2.0000      -0.304914        -8.2971
  15   2.0000      -0.273929        -7.4540
  16   2.0000      -0.256611        -6.9827
  17   2.0000      -0.140220        -3.8156
  18   2.0000      -0.134492        -3.6597
  19   2.0000      -0.122389        -3.3304
  20   0.0000       0.192323         5.2334
  21   0.0000       0.212874         5.7926
  22   0.0000       0.219629         5.9764
  23   0.0000       0.235896         6.4191
  24   0.0000       0.258755         7.0411

MULLIKEN ATOMIC CHARGES
-----------------------
   0 C :   -1.042129
   1 C :   -0.027787
   2 H :    0.211248
   3 H :    0.189856
   4 C :    0.359325
   5 O :   -0.769580
   6 O :   -0.764213
   7 H :    0.294655
   8 H :    0.290116
   9 H :    0.258510
Sum of atomic charges:   -1.0000000

LOEWDIN ATOMIC CHARGES
----------------------
   0 C :   -0.133357
   1 C :   -0.212672
   2 H :    0.088258
   3 H :    0.096167
   4 C :   -0.772584
   5 O :   -0.116969
   6 O :   -0.108489
   7 H :    0.061696
   8 H :    0.043140
   9 H :    0.054810

  Mayer bond orders larger than 0.100000
B(  0-C ,  1-C ) :   0.5766 B(  0-C ,  4-C ) :   0.1565 B(  0-C ,  7-H ) :   0.9628
B(  0-C ,  8-H ) :   0.9349 B(  0-C ,  9-H ) :   1.0169 B(  1-C ,  2-H ) :   1.0073
B(  1-C ,  3-H ) :   0.9434 B(  1-C ,  4-C ) :   0.9493 B(  4-C ,  5-O ) :   1.4441
B(  4-C ,  6-O ) :   1.4805

Dispersion correction           -0.001940068
FINAL SINGLE POINT ENERGY      -267.871615639954

DIPOLE MOMENT
-------------
                                X             Y             Z
Electronic contribution:      4.70734      -0.99707       3.34765
Nuclear contribution   :     -6.38408       1.63097      -4.40540
                        -----------------------------------------
Total Dipole Moment    :     -1.67674       0.63389      -1.05775
                        -----------------------------------------
Magnitude (a.u.)       :      2.08137
Magnitude (Debye)      :      5.29042

Rotational constants in cm-1:     0.319732     0.134414     0.104753
Rotational constants in MHz :  9585.336550  4029.633034  3140.404334

                             ****ORCA TERMINATED NORMALLY****
TOTAL RUN TIME: 0 days 0 hours 0 minutes 43 seconds 775 msec
