                         Program Version 5.0.0 -  RELEASE  -
|  1> !wB97X-D3 RIJCOSX def2-TZVPD def2/J TightSCF
|  2> *xyz 1 1
|  3> C          4.60295       -2.44010        2.63478
|  4> C          3.86085       -1.59157        3.62289
|  5> N          2.75650       -2.04616        4.16633
|  6> N          4.25433       -0.36291        3.86046
|  7> H          3.56526        0.31099        4.16898
|  8> H          5.05429       -0.01606        3.33784
|  9> H          2.43970       -2.97389        3.89740
| 10> H          2.06687       -1.41253        4.54981
| 11> C          3.74469       -2.58056        1.36188
| 12> H          5.56156       -1.97135        2.40708
| 13> H          4.81050       -3.42255        3.06310
| 14> H          4.26314       -3.18477        0.64702
| 15> H          3.56325       -1.61180        0.94535
| 16> H          2.81197       -3.04259        1.60980
| 17> *
| 18>
| 19> %MaxCore 64000
| 20>
| 21> %pal nprocs 4
| 22> end
| 23>
| 24> %scf
| 25>   MaxIter 150
| 26> end
| 27>
| 28>
| 29>                          ****END OF INPUT****

CARTESIAN COORDINATES (ANGSTROEM)
---------------------------------
  C      4.602950   -2.440100    2.634780
  C      3.860850   -1.591570    3.622890
  N      2.756500   -2.046160    4.166330
  N      4.254330   -0.362910    3.860460
  H      3.565260    0.310990    4.168980
  H      5.054290   -0.016060    3.337840
  H      2.439700   -2.973890    3.897400
  H      2.066870   -1.412530    4.549810
  C      3.744690   -2.580560    1.361880
  H      5.561560   -1.971350    2.407080
  H      4.810500   -3.422550    3.063100
  H      4.263140   -3.184770    0.647020
  H      3.563250   -1.611800    0.945350
  H      2.811970   -3.042590    1.609800

 Total Charge           Charge          ....    1
 Multiplicity           Mult            ....    1
 Number of Electrons    NEL             ....   40
 Basis Dimension        Dim             ....  266

ORBITAL ENERGIES
----------------

  NO   OCC          E(Eh)            E(eV)
   0   2.0000     -14.666964      -399.1084
   1   2.0000     -14.666091      -399.0846
   2   2.0000     -10.601212      -288.4736
   3   2.0000     -10.477848      -285.1167
   4   2.0000     -10.434866      -283.9472
   5   2.0000      -1.327150       -36.1136
   6   2.0000      -1.226757       -33.3818
   7   2.0000      -1.089101       -29.6359
   8   2.0000      -0.972847       -26.4725
   9   2.0000      -0.925124       -25.1739
  10   2.0000      -0.875296       -23.8180
  11   2.0000      -0.858260       -23.3544
  12   2.0000      -0.796006       -21.6604
  13   2.0000      -0.767133       -20.8748
  14   2.0000      -0.726707       -19.7747
  15   2.0000      -0.700672       -19.0663
  16   2.0000      -0.645422       -17.5628
  17   2.0000      -0.639766       -17.4089
  18   2.0000      -0.627101       -17.0643
  19   2.0000      -0.589107       -16.0304
  20   0.0000      -0.134985        -3.6731
  21   0.0000      -0.093747        -2.5510
  22   0.0000      -0.054928        -1.4947
  23   0.0000      -0.050249        -1.3674
  24   0.0000      -0.033848        -0.9211

MULLIKEN ATOMIC CHARGES
-----------------------
   0 C :   -0.353485
   1 C :    0.691096
   2 N :   -0.422456
   3 N :   -0.389277
   4 H :    0.243606
   5 H :    0.267745
   6 H :    0.270891
   7 H :    0.222677
   8 C :   -1.135722
   9 H :    0.290030
  10 H :    0.304762
  11 H :    0.321116
  12 H :    0.350589
  13 H :    0.338427
Sum of atomic charges:    1.0000000

LOEWDIN ATOMIC CHARGES
----------------------
   0 C :   -0.139729
   1 C :   -0.363874
   2 N :    0.222714
   3 N :    0.224522
   4 H :    0.149795
   5 H :    0.151633
   6 H :    0.151005
   7 H :    0.151781
   8 C :   -0.054403
   9 H :    0.125472
  10 H :    0.135433
  11 H :    0.088181
  12 H :    0.085390
  13 H :    0.072080

  Mayer bond orders larger than 0.100000
B(  0-C ,  1-C ) :   0.8502 B(  0-C ,  8-C ) :   0.6332 B(  0-C ,  9-H ) :   0.9486
B(  0-C , 10-H ) :   0.9522 B(  1-C ,  2-N ) :   1.2114 B(  1-C ,  3-N ) :   1.2263
B(  1-C ,  8-C ) :   0.1477 B(  2-N ,  6-H ) :   0.9154 B(  2-N ,  7-H ) :   1.0030
B(  3-N ,  4-H ) :   0.9647 B(  3-N ,  5-H ) :   0.9278 B(  8-C , 11-H ) :   0.9677
B(  8-C , 12-H ) :   0.9535 B(  8-C , 13-H ) :   0.9023

Dispersion correction           -0.003043751
FINAL SINGLE POINT ENERGY      -229.054026919035

DIPOLE MOMENT
-------------
                                X             Y             Z
Electronic contribution:     -0.23539       1.78800       3.72859
Nuclear contribution   :     -0.22400      -1.16268      -3.30447
                        -----------------------------------------
Total Dipole Moment    :     -0.45940       0.62532       0.42412
                        -----------------------------------------
Magnitude (a.u.)       :      0.88428
Magnitude (Debye)      :      2.24766

Rotational constants in cm-1:     0.258103     0.130571     0.102508
Rotational constants in MHz :  7737.732062  3914.431392  3073.119154

                             ****ORCA TERMINATED NORMALLY****
TOTAL RUN TIME: 0 days 0 hours 0 minutes 59 seconds 725 msec
