                         Program Version 5.0.0 -  RELEASE  -
|  1> !wB97X-D3 RIJCOSX def2-TZVPD def2/J TightSCF
|  2> *xyz 0 1
|  3> C         -0.91495        0.61511        2.50554
|  4> C         -0.05915        1.50352        3.41058
|  5> H          0.36536        2.34431        2.86116
|  6> H         -0.69226        1.92021        4.19898
|  7> C          1.08303        0.74964        4.08571
|  8> F          2.22817        1.26348        4.01983
|  9> O          0.81003       -0.34541        4.63627
| 10> H         -0.30401        0.20228        1.73015
| 11> H         -1.69811        1.19946        2.06954
| 12> H         -1.34124       -0.17772        3.08397
| 13> *
| 14>
| 15> %MaxCore 64000
| 16>
| 17> %pal nprocs 4
| 18> end
| 19>
| 20> %scf
| 21>   MaxIter 150
| 22> end
| 23>
| 24>
| 25>                          ****END OF INPUT****

CARTESIAN COORDINATES (ANGSTROEM)
---------------------------------
  C     -0.914950    0.615110    2.505540
  C     -0.059150    1.503520    3.410580
  H      0.365360    2.344310    2.861160
  H     -0.692260    1.920210    4.198980
  C      1.083030    0.749640    4.085710
  F      2.228170    1.263480    4.019830
  O      0.810030   -0.345410    4.636270
  H     -0.304010    0.202280    1.730150
  H     -1.698110    1.199460    2.069540
  H     -1.341240   -0.177720    3.083970

 Total Charge           Charge          ....    0
 Multiplicity           Mult            ....    1
 Number of Electrons    NEL             ....   40
 Basis Dimension        Dim             ....  236

ORBITAL ENERGIES
----------------

  NO   OCC          E(Eh)            E(eV)
   0   2.0000     -24.855764      -676.3597
   1   2.0000     -19.236330      -523.4471
   2   2.0000     -10.455729      -284.5149
   3   2.0000     -10.308014      -280.4953
   4   2.0000     -10.277161      -279.6558
   5   2.0000      -1.435424       -39.0599
   6   2.0000      -1.149312       -31.2744
   7   2.0000      -0.918256       -24.9870
   8   2.0000      -0.803662       -21.8688
   9   2.0000      -0.746468       -20.3124
  10   2.0000      -0.653992       -17.7960
  11   2.0000      -0.640020       -17.4158
  12   2.0000      -0.613945       -16.7063
  13   2.0000      -0.567671       -15.4471
  14   2.0000      -0.534731       -14.5508
  15   2.0000      -0.494975       -13.4689
  16   2.0000      -0.474610       -12.9148
  17   2.0000      -0.470997       -12.8165
  18   2.0000      -0.442611       -12.0441
  19   2.0000      -0.390682       -10.6310
  20   0.0000       0.051063         1.3895
  21   0.0000       0.066750         1.8164
  22   0.0000       0.087586         2.3833
  23   0.0000       0.093542         2.5454
  24   0.0000       0.105978         2.8838

MULLIKEN ATOMIC CHARGES
-----------------------
   0 C :   -1.109695
   1 C :   -0.141795
   2 H :    0.272599
   3 H :    0.258006
   4 C :    0.573492
   5 F :   -0.232567
   6 O :   -0.566073
   7 H :    0.330920
   8 H :    0.310588
   9 H :    0.304522
Sum of atomic charges:    0.0000000

LOEWDIN ATOMIC CHARGES
----------------------
   0 C :   -0.090178
   1 C :   -0.158308
   2 H :    0.109121
   3 H :    0.123184
   4 C :   -0.477274
   5 F :    0.202362
   6 O :    0.073634
   7 H :    0.075388
   8 H :    0.069582
   9 H :    0.072490

  Mayer bond orders larger than 0.100000
B(  0-C ,  1-C ) :   0.6598 B(  0-C ,  4-C ) :   0.1376 B(  0-C ,  7-H ) :   0.9261
B(  0-C ,  8-H ) :   0.9417 B(  0-C ,  9-H ) :   0.9881 B(  1-C ,  2-H ) :   0.9510
B(  1-C ,  3-H ) :   0.9199 B(  1-C ,  4-C ) :   0.9349 B(  4-C ,  5-F ) :   0.9568
B(  4-C ,  6-O ) :   1.6842

Dispersion correction           -0.001903263
FINAL SINGLE POINT ENERGY      -292.439364838806

DIPOLE MOMENT
-------------
                                X             Y             Z
Electronic contribution:      7.73314      -0.15344       4.08446
Nuclear contribution   :     -8.12386       1.06915      -4.71960
                        -----------------------------------------
Total Dipole Moment    :     -0.39072       0.91571      -0.63514
                        -----------------------------------------
Magnitude (a.u.)       :      1.18092
Magnitude (Debye)      :      3.00167

Rotational constants in cm-1:     0.309513     0.127560     0.099675
Rotational constants in MHz :  9278.979128  3824.146597  2988.174827

                             ****ORCA TERMINATED NORMALLY****
TOTAL RUN TIME: 0 days 0 hours 0 minutes 44 seconds 507 msec
