                         Program Version 5.0.0 -  RELEASE  -
|  1> !wB97X-D3 RIJCOSX def2-TZVPD def2/J TightSCF
|  2> *xyz 0 1
|  3> C          4.60295       -2.44010        2.63478
|  4> C          3.86085       -1.59157        3.62289
|  5> C          2.75650       -2.04616        4.16633
|  6> N          4.25433       -0.36291        3.86046
|  7> H          3.56526        0.31099        4.16898
|  8> H          5.05429       -0.01606        3.33784
|  9> H          2.43970       -2.97389        3.89740
| 10> H          2.06687       -1.41253        4.54981
| 11> C          3.74469       -2.58056        1.36188
| 12> H          5.56156       -1.97135        2.40708
| 13> H          4.81050       -3.42255        3.06310
| 14> H          4.26314       -3.18477        0.64702
| 15> H          3.56325       -1.61180        0.94535
| 16> H          2.81197       -3.04259        1.60980
| 17> *
| 18>
| 19> %MaxCore 64000
| 20>
| 21> %pal nprocs 4
| 22> end
| 23>
| 24> %scf
| 25>   MaxIter 150
| 26> end
| 27>
| 28>
| 29>                          ****END OF INPUT****

CARTESIAN COORDINATES (ANGSTROEM)
---------------------------------
  C      4.602950   -2.440100    2.634780
  C      3.860850   -1.591570    3.622890
  C      2.756500   -2.046160    4.166330
  N      4.254330   -0.362910    3.860460
  H      3.565260    0.310990    4.168980
  H      5.054290   -0.016060    3.337840
  H      2.439700   -2.973890    3.897400
  H      2.066870   -1.412530    4.549810
  C      3.744690   -2.580560    1.361880
  H      5.561560   -1.971350    2.407080
  H      4.810500   -3.422550    3.063100
  H      4.263140   -3.184770    0.647020
  H      3.563250   -1.611800    0.945350
  H      2.811970   -3.042590    1.609800

 Total Charge           Charge          ....    0
 Multiplicity           Mult            ....    1
 Number of Electrons    NEL             ....   40
 Basis Dimension        Dim             ....  266

ORBITAL ENERGIES
----------------

  NO   OCC          E(Eh)            E(eV)
   0   2.0000     -14.422050      -392.4439
   1   2.0000     -10.294313      -280.1225
   2   2.0000     -10.277709      -279.6707
   3   2.0000     -10.259020      -279.1621
   4   2.0000     -10.200450      -277.5684
   5   2.0000      -1.051249       -28.6059
   6   2.0000      -0.899169       -24.4676
   7   2.0000      -0.827010       -22.5041
   8   2.0000      -0.752234       -20.4693
   9   2.0000      -0.668330       -18.1862
  10   2.0000      -0.626777       -17.0555
  11   2.0000      -0.585090       -15.9211
  12   2.0000      -0.549399       -14.9499
  13   2.0000      -0.511833       -13.9277
  14   2.0000      -0.486162       -13.2292
  15   2.0000      -0.474883       -12.9222
  16   2.0000      -0.448149       -12.1948
  17   2.0000      -0.437165       -11.8959
  18   2.0000      -0.424142       -11.5415
  19   2.0000      -0.277992        -7.5645
  20   0.0000       0.068197         1.8557
  21   0.0000       0.091518         2.4903
  22   0.0000       0.093157         2.5349
  23   0.0000       0.102180         2.7805
  24   0.0000       0.119032         3.2390

MULLIKEN ATOMIC CHARGES
-----------------------
   0 C :   -0.276684
   1 C :    0.762342
   2 C :   -1.463143
   3 N :   -0.446907
   4 H :    0.193666
   5 H :    0.217252
   6 H :    0.373691
   7 H :    0.314752
   8 C :   -1.144988
   9 H :    0.265014
  10 H :    0.269346
  11 H :    0.303339
  12 H :    0.306978
  13 H :    0.325342
Sum of atomic charges:    0.0000000

LOEWDIN ATOMIC CHARGES
----------------------
   0 C :   -0.190841
   1 C :   -0.508162
   2 C :    0.003929
   3 N :    0.096212
   4 H :    0.114382
   5 H :    0.107487
   6 H :    0.027648
   7 H :    0.026131
   8 C :   -0.091557
   9 H :    0.102307
  10 H :    0.114820
  11 H :    0.062247
  12 H :    0.072310
  13 H :    0.063087

  Mayer bond orders larger than 0.100000
B(  0-C ,  1-C ) :   0.7376 B(  0-C ,  8-C ) :   0.5943 B(  0-C ,  9-H ) :   1.0316
B(  0-C , 10-H ) :   0.9439 B(  1-C ,  2-C ) :   1.2135 B(  1-C ,  3-N ) :   1.0122
B(  1-C ,  8-C ) :   0.1575 B(  2-C ,  3-N ) :   0.1117 B(  2-C ,  6-H ) :   0.8822
B(  2-C ,  7-H ) :   1.0146 B(  3-N ,  4-H ) :   0.9737 B(  3-N ,  5-H ) :   0.9710
B(  8-C , 11-H ) :   0.9444 B(  8-C , 12-H ) :   0.9686 B(  8-C , 13-H ) :   0.9592

Dispersion correction           -0.003025704
FINAL SINGLE POINT ENERGY      -212.579360020011

DIPOLE MOMENT
-------------
                                X             Y             Z
Electronic contribution:      0.80689       1.77038       2.53254
Nuclear contribution   :     -0.47010      -1.22282      -3.06417
                        -----------------------------------------
Total Dipole Moment    :      0.33679       0.54756      -0.53163
                        -----------------------------------------
Magnitude (a.u.)       :      0.83419
Magnitude (Debye)      :      2.12035

Rotational constants in cm-1:     0.271862     0.131962     0.105499
Rotational constants in MHz :  8150.219120  3956.123671  3162.785522

                             ****ORCA TERMINATED NORMALLY****
TOTAL RUN TIME: 0 days 0 hours 1 minutes 0 seconds 826 msec
