                         Program Version 5.0.0 -  RELEASE  -
|  1> !wB97X-D3 RIJCOSX def2-TZVPD def2/J TightSCF
|  2> *xyz 0 1
|  3> C         -0.91495        0.61511        2.50554
|  4> C         -0.05915        1.50352        3.41058
|  5> H          0.36536        2.34431        2.86116
|  6> H         -0.69226        1.92021        4.19898
|  7> C          1.08303        0.74964        4.08571
|  8> O          2.22817        1.26348        4.01983
|  9> F          0.81003       -0.34541        4.63627
| 10> H         -0.30401        0.20228        1.73015
| 11> H         -1.69811        1.19946        2.06954
| 12> H         -1.34124       -0.17772        3.08397
| 13> *
| 14>
| 15> %MaxCore 64000
| 16>
| 17> %pal nprocs 4
| 18> end
| 19>
| 20> %scf
| 21>   MaxIter 150
| 22> end
| 23>
| 24>
| 25>                          ****END OF INPUT****

CARTESIAN COORDINATES (ANGSTROEM)
---------------------------------
  C     -0.914950    0.615110    2.505540
  C     -0.059150    1.503520    3.410580
  H      0.365360    2.344310    2.861160
  H     -0.692260    1.920210    4.198980
  C      1.083030    0.749640    4.085710
  O      2.228170    1.263480    4.019830
  F      0.810030   -0.345410    4.636270
  H     -0.304010    0.202280    1.730150
  H     -1.698110    1.199460    2.069540
  H     -1.341240   -0.177720    3.083970

 Total Charge           Charge          ....    0
 Multiplicity           Mult            ....    1
 Number of Electrons    NEL             ....   40
 Basis Dimension        Dim             ....  236

ORBITAL ENERGIES
----------------

  NO   OCC          E(Eh)            E(eV)
   0   2.0000     -24.856905      -676.3908
   1   2.0000     -19.235360      -523.4208
   2   2.0000     -10.455137      -284.4987
   3   2.0000     -10.307474      -280.4806
   4   2.0000     -10.282679      -279.8059
   5   2.0000      -1.436909       -39.1003
   6   2.0000      -1.147431       -31.2232
   7   2.0000      -0.922595       -25.1051
   8   2.0000      -0.799507       -21.7557
   9   2.0000      -0.753723       -20.5099
  10   2.0000      -0.656850       -17.8738
  11   2.0000      -0.646983       -17.6053
  12   2.0000      -0.604175       -16.4404
  13   2.0000      -0.568696       -15.4750
  14   2.0000      -0.535492       -14.5715
  15   2.0000      -0.500353       -13.6153
  16   2.0000      -0.481920       -13.1137
  17   2.0000      -0.474639       -12.9156
  18   2.0000      -0.444256       -12.0888
  19   2.0000      -0.385246       -10.4831
  20   0.0000       0.052777         1.4361
  21   0.0000       0.066601         1.8123
  22   0.0000       0.086743         2.3604
  23   0.0000       0.092676         2.5219
  24   0.0000       0.105777         2.8784

MULLIKEN ATOMIC CHARGES
-----------------------
   0 C :   -1.136396
   1 C :   -0.101071
   2 H :    0.240795
   3 H :    0.270848
   4 C :    0.564215
   5 O :   -0.571643
   6 F :   -0.232383
   7 H :    0.345622
   8 H :    0.304710
   9 H :    0.315305
Sum of atomic charges:    0.0000000

LOEWDIN ATOMIC CHARGES
----------------------
   0 C :   -0.094229
   1 C :   -0.153991
   2 H :    0.118234
   3 H :    0.120987
   4 C :   -0.482025
   5 O :    0.069323
   6 F :    0.206626
   7 H :    0.075888
   8 H :    0.070112
   9 H :    0.069074

  Mayer bond orders larger than 0.100000
B(  0-C ,  1-C ) :   0.6086 B(  0-C ,  4-C ) :   0.1201 B(  0-C ,  7-H ) :   0.9346
B(  0-C ,  8-H ) :   0.9593 B(  0-C ,  9-H ) :   0.9607 B(  1-C ,  2-H ) :   0.9846
B(  1-C ,  3-H ) :   0.9111 B(  1-C ,  4-C ) :   0.9454 B(  4-C ,  5-O ) :   1.6584
B(  4-C ,  6-F ) :   0.9664

Dispersion correction           -0.001900834
FINAL SINGLE POINT ENERGY      -292.438382280331

DIPOLE MOMENT
-------------
                                X             Y             Z
Electronic contribution:      5.32821      -2.84469       5.10276
Nuclear contribution   :     -6.57765       2.82334      -5.39171
                        -----------------------------------------
Total Dipole Moment    :     -1.24944      -0.02135      -0.28894
                        -----------------------------------------
Magnitude (a.u.)       :      1.28259
Magnitude (Debye)      :      3.26010

Rotational constants in cm-1:     0.294245     0.132994     0.101060
Rotational constants in MHz :  8821.228602  3987.049251  3029.696815

                             ****ORCA TERMINATED NORMALLY****
TOTAL RUN TIME: 0 days 0 hours 0 minutes 42 seconds 917 msec
