                         Program Version 5.0.0 -  RELEASE  -
|  1> !wB97X-D3 RIJCOSX def2-TZVPD def2/J TightSCF
|  2> *xyz 0 1
|  3> C          4.60295       -2.44010        2.63478
|  4> C          3.86085       -1.59157        3.62289
|  5> N          2.75650       -2.04616        4.16633
|  6> C          4.25433       -0.36291        3.86046
|  7> H          3.56526        0.31099        4.16898
|  8> H          5.05429       -0.01606        3.33784
|  9> H          2.43970       -2.97389        3.89740
| 10> H          2.06687       -1.41253        4.54981
| 11> C          3.74469       -2.58056        1.36188
| 12> H          5.56156       -1.97135        2.40708
| 13> H          4.81050       -3.42255        3.06310
| 14> H          4.26314       -3.18477        0.64702
| 15> H          3.56325       -1.61180        0.94535
| 16> H          2.81197       -3.04259        1.60980
| 17> *
| 18>
| 19> %MaxCore 64000
| 20>
| 21> %pal nprocs 4
| 22> end
| 23>
| 24> %scf
| 25>   MaxIter 150
| 26> end
| 27>
| 28>
| 29>                          ****END OF INPUT****

CARTESIAN COORDINATES (ANGSTROEM)
---------------------------------
  C      4.602950   -2.440100    2.634780
  C      3.860850   -1.591570    3.622890
  N      2.756500   -2.046160    4.166330
  C      4.254330   -0.362910    3.860460
  H      3.565260    0.310990    4.168980
  H      5.054290   -0.016060    3.337840
  H      2.439700   -2.973890    3.897400
  H      2.066870   -1.412530    4.549810
  C      3.744690   -2.580560    1.361880
  H      5.561560   -1.971350    2.407080
  H      4.810500   -3.422550    3.063100
  H      4.263140   -3.184770    0.647020
  H      3.563250   -1.611800    0.945350
  H      2.811970   -3.042590    1.609800

 Total Charge           Charge          ....    0
 Multiplicity           Mult            ....    1
 Number of Electrons    NEL             ....   40
 Basis Dimension        Dim             ....  266

ORBITAL ENERGIES
----------------

  NO   OCC          E(Eh)            E(eV)
   0   2.0000     -14.421915      -392.4403
   1   2.0000     -10.295415      -280.1525
   2   2.0000     -10.277301      -279.6596
   3   2.0000     -10.262854      -279.2665
   4   2.0000     -10.201811      -277.6054
   5   2.0000      -1.050983       -28.5987
   6   2.0000      -0.897259       -24.4157
   7   2.0000      -0.835250       -22.7283
   8   2.0000      -0.747532       -20.3414
   9   2.0000      -0.675248       -18.3744
  10   2.0000      -0.628343       -17.0981
  11   2.0000      -0.580211       -15.7883
  12   2.0000      -0.539235       -14.6733
  13   2.0000      -0.529836       -14.4176
  14   2.0000      -0.485606       -13.2140
  15   2.0000      -0.477702       -12.9989
  16   2.0000      -0.451933       -12.2977
  17   2.0000      -0.434822       -11.8321
  18   2.0000      -0.420016       -11.4292
  19   2.0000      -0.280508        -7.6330
  20   0.0000       0.066931         1.8213
  21   0.0000       0.091601         2.4926
  22   0.0000       0.096489         2.6256
  23   0.0000       0.100338         2.7303
  24   0.0000       0.117567         3.1992

MULLIKEN ATOMIC CHARGES
-----------------------
   0 C :   -0.351064
   1 C :    0.723395
   2 N :   -0.485913
   3 C :   -1.299517
   4 H :    0.332596
   5 H :    0.322232
   6 H :    0.213494
   7 H :    0.177255
   8 C :   -1.085819
   9 H :    0.240201
  10 H :    0.288406
  11 H :    0.300400
  12 H :    0.323612
  13 H :    0.300722
Sum of atomic charges:   -0.0000000

LOEWDIN ATOMIC CHARGES
----------------------
   0 C :   -0.192576
   1 C :   -0.512148
   2 N :    0.096966
   3 C :    0.009956
   4 H :    0.024678
   5 H :    0.023989
   6 H :    0.109301
   7 H :    0.116618
   8 C :   -0.091559
   9 H :    0.109600
  10 H :    0.109522
  11 H :    0.063762
  12 H :    0.074587
  13 H :    0.057305

  Mayer bond orders larger than 0.100000
B(  0-C ,  1-C ) :   0.8547 B(  0-C ,  8-C ) :   0.6599 B(  0-C ,  9-H ) :   0.9728
B(  0-C , 10-H ) :   0.9478 B(  1-C ,  2-N ) :   1.0122 B(  1-C ,  3-C ) :   1.2733
B(  1-C ,  8-C ) :   0.1058 B(  2-N ,  3-C ) :   0.1203 B(  2-N ,  6-H ) :   0.9501
B(  2-N ,  7-H ) :   1.0034 B(  3-C ,  4-H ) :   0.9713 B(  3-C ,  5-H ) :   0.9711
B(  8-C , 11-H ) :   0.9626 B(  8-C , 12-H ) :   0.9926 B(  8-C , 13-H ) :   0.9362

Dispersion correction           -0.003043251
FINAL SINGLE POINT ENERGY      -212.579815900864

DIPOLE MOMENT
-------------
                                X             Y             Z
Electronic contribution:     -0.48900       0.30514       2.80928
Nuclear contribution   :     -0.12319      -0.83296      -3.13501
                        -----------------------------------------
Total Dipole Moment    :     -0.61219      -0.52782      -0.32573
                        -----------------------------------------
Magnitude (a.u.)       :      0.87148
Magnitude (Debye)      :      2.21513

Rotational constants in cm-1:     0.266453     0.134423     0.106086
Rotational constants in MHz :  7988.053142  4029.892766  3180.375228

                             ****ORCA TERMINATED NORMALLY****
TOTAL RUN TIME: 0 days 0 hours 1 minutes 2 seconds 54 msec
