                         Program Version 5.0.0 -  RELEASE  -
|  1> !wB97X-D3 RIJCOSX def2-TZVPD def2/J TightSCF xyzfile
|  2>
|  3> *xyzfile 0 1 D2.xyz
|  4>
|  5> %MaxCore 64000
|  6>
|  7> %pal nprocs 18
|  8> end
|  9>
| 10> %scf
| 11>   MaxIter 150
| 12> end
| 13>
| 14>
| 15>                          ****END OF INPUT****

CARTESIAN COORDINATES (ANGSTROEM)
---------------------------------
  C      4.602954   -2.440100    2.634780
  C     -0.914947    0.615112    2.505538
  C     -0.059146    1.503524    3.410578
  H      0.365364    2.344315    2.861161
  H     -0.692261    1.920207    4.198985
  C      1.083027    0.749640    4.085705
  C      3.860851   -1.591565    3.622893
  N      2.756502   -2.046159    4.166333
  C      4.254325   -0.362905    3.860455
  H      3.565256    0.310994    4.168983
  H      5.054292   -0.016059    3.337838
  H      2.439696   -2.973894    3.897395
  H      2.066869   -1.412532    4.549813
  F      2.228167    1.263475    4.019826
  O      0.810034   -0.345411    4.636269
  C      3.744685   -2.580557    1.361882
  C      0.772139    0.636882    0.562129
  C     -0.130740   -0.193985    1.470763
  H     -0.840563   -0.760165    0.856377
  H      0.466691   -0.938942    2.006959
  H     -1.647961    1.245963    1.991076
  H     -1.478180   -0.081046    3.130424
  C      3.203721   -1.256004    0.826211
  H      2.898939   -3.239289    1.583074
  H      4.334962   -3.095523    0.600188
  C      2.107815   -1.442385   -0.216865
  H      2.786775   -0.672760    1.650711
  H      4.021008   -0.652993    0.414046
  C      1.390662   -0.145912   -0.602422
  H      1.372179   -2.152184    0.176151
  H      2.523302   -1.906787   -1.117115
  H      1.561361    1.100094    1.161831
  H      0.195516    1.468325    0.142758
  H      0.602893   -0.398214   -1.319716
  H      2.087247    0.508272   -1.137335
  H      5.561557   -1.971347    2.407084
  H      4.810498   -3.422552    3.063099

 Total Charge           Charge          ....    0
 Multiplicity           Mult            ....    1
 Number of Electrons    NEL             ....  118
 Basis Dimension        Dim             ....  759

ORBITAL ENERGIES
----------------

  NO   OCC          E(Eh)            E(eV)
   0   2.0000     -24.872166      -676.8060
   1   2.0000     -19.260231      -524.0975
   2   2.0000     -14.386526      -391.4773
   3   2.0000     -10.478798      -285.1426
   4   2.0000     -10.316294      -280.7206
   5   2.0000     -10.295060      -280.1428
   6   2.0000     -10.279568      -279.7213
   7   2.0000     -10.276849      -279.6473
   8   2.0000     -10.275654      -279.6148
   9   2.0000     -10.271472      -279.5010
  10   2.0000     -10.266483      -279.3652
  11   2.0000     -10.265095      -279.3274
  12   2.0000     -10.262065      -279.2450
  13   2.0000     -10.259066      -279.1634
  14   2.0000     -10.176673      -276.9214
  15   2.0000      -1.456591       -39.6358
  16   2.0000      -1.179344       -32.0916
  17   2.0000      -1.026029       -27.9197
  18   2.0000      -0.952570       -25.9208
  19   2.0000      -0.924877       -25.1672
  20   2.0000      -0.897771       -24.4296
  21   2.0000      -0.862098       -23.4589
  22   2.0000      -0.830834       -22.6081
  23   2.0000      -0.816224       -22.2106
  24   2.0000      -0.782092       -21.2818
  25   2.0000      -0.761457       -20.7203
  26   2.0000      -0.722782       -19.6679
  27   2.0000      -0.696580       -18.9549
  28   2.0000      -0.676138       -18.3987
  29   2.0000      -0.670836       -18.2544
  30   2.0000      -0.661964       -18.0130
  31   2.0000      -0.655534       -17.8380
  32   2.0000      -0.632120       -17.2009
  33   2.0000      -0.602179       -16.3861
  34   2.0000      -0.589424       -16.0390
  35   2.0000      -0.581787       -15.8312
  36   2.0000      -0.564625       -15.3642
  37   2.0000      -0.555387       -15.1129
  38   2.0000      -0.544064       -14.8047
  39   2.0000      -0.534668       -14.5491
  40   2.0000      -0.524469       -14.2715
  41   2.0000      -0.509139       -13.8544
  42   2.0000      -0.505325       -13.7506
  43   2.0000      -0.492811       -13.4101
  44   2.0000      -0.478556       -13.0222
  45   2.0000      -0.470890       -12.8136
  46   2.0000      -0.465770       -12.6742
  47   2.0000      -0.462688       -12.5904
  48   2.0000      -0.447849       -12.1866
  49   2.0000      -0.443478       -12.0676
  50   2.0000      -0.437258       -11.8984
  51   2.0000      -0.424011       -11.5379
  52   2.0000      -0.417240       -11.3537
  53   2.0000      -0.413755       -11.2589
  54   2.0000      -0.407352       -11.0846
  55   2.0000      -0.404771       -11.0144
  56   2.0000      -0.395379       -10.7588
  57   2.0000      -0.385932       -10.5017
  58   2.0000      -0.258351        -7.0301
  59   0.0000       0.031027         0.8443
  60   0.0000       0.060924         1.6578
  61   0.0000       0.068727         1.8702
  62   0.0000       0.074316         2.0222
  63   0.0000       0.078758         2.1431

MULLIKEN ATOMIC CHARGES
-----------------------
   0 C :   -0.804291
   1 C :   -0.653232
   2 C :   -0.532191
   3 H :    0.346051
   4 H :    0.318131
   5 C :    0.719756
   6 C :    0.461612
   7 N :   -0.276666
   8 C :   -1.543040
   9 H :    0.594764
  10 H :    0.347327
  11 H :    0.256262
  12 H :    0.274365
  13 F :   -0.293459
  14 O :   -0.720447
  15 C :   -0.627651
  16 C :   -0.321993
  17 C :   -0.548579
  18 H :    0.411019
  19 H :    0.189816
  20 H :    0.303954
  21 H :    0.314397
  22 C :    0.520189
  23 H :    0.262923
  24 H :    0.280114
  25 C :   -0.540362
  26 H :   -0.562682
  27 H :    0.242903
  28 C :   -0.852598
  29 H :    0.270997
  30 H :    0.322059
  31 H :    0.274688
  32 H :    0.340674
  33 H :    0.308560
  34 H :    0.306786
  35 H :    0.322382
  36 H :    0.287462
Sum of atomic charges:   -0.0000000

LOEWDIN ATOMIC CHARGES
----------------------
   0 C :   -0.142350
   1 C :   -0.192924
   2 C :   -0.096317
   3 H :    0.116650
   4 H :    0.130756
   5 C :   -0.425018
   6 C :   -0.500810
   7 N :    0.127106
   8 C :    0.014407
   9 H :   -0.002509
  10 H :    0.033322
  11 H :    0.114556
  12 H :    0.043030
  13 F :    0.186472
  14 O :    0.076424
  15 C :   -0.195297
  16 C :   -0.215713
  17 C :   -0.209651
  18 H :    0.123399
  19 H :    0.104285
  20 H :    0.117883
  21 H :    0.115363
  22 C :   -0.212739
  23 H :    0.103914
  24 H :    0.112440
  25 C :   -0.219981
  26 H :    0.083757
  27 H :    0.129570
  28 C :   -0.208727
  29 H :    0.106862
  30 H :    0.114149
  31 H :    0.103115
  32 H :    0.116814
  33 H :    0.109473
  34 H :    0.111281
  35 H :    0.114166
  36 H :    0.112845

  Mayer bond orders larger than 0.100000
B(  0-C ,  6-C ) :   0.9060 B(  0-C , 15-C ) :   0.8582 B(  0-C , 22-C ) :   0.1031
B(  0-C , 35-H ) :   0.8441 B(  0-C , 36-H ) :   1.0120 B(  1-C ,  2-C ) :   0.8945
B(  1-C ,  5-C ) :   0.1499 B(  1-C , 16-C ) :   0.2489 B(  1-C , 17-C ) :   0.9932
B(  1-C , 20-H ) :   0.9176 B(  1-C , 21-H ) :   0.8881 B(  2-C ,  3-H ) :   0.9277
B(  2-C ,  4-H ) :   0.8298 B(  2-C ,  5-C ) :   0.9750 B(  2-C , 16-C ) :   0.1900
B(  5-C , 13-F ) :   0.8145 B(  5-C , 14-O ) :   1.5184 B(  5-C , 17-C ) :   0.1249
B(  6-C ,  7-N ) :   1.1132 B(  6-C ,  8-C ) :   1.4933 B(  6-C ,  9-H ) :  -0.1155
B(  6-C , 10-H ) :  -0.1539 B(  7-N , 11-H ) :   0.8526 B(  7-N , 12-H ) :   0.7842
B(  8-C ,  9-H ) :   0.6544 B(  8-C , 10-H ) :   1.1125 B( 15-C , 22-C ) :   0.5557
B( 15-C , 23-H ) :   0.9033 B( 15-C , 24-H ) :   0.9437 B( 15-C , 25-C ) :   0.5274
B( 15-C , 26-H ) :   0.1998 B( 15-C , 27-H ) :  -0.1627 B( 16-C , 17-C ) :   0.4081
B( 16-C , 19-H ) :  -0.1600 B( 16-C , 22-C ) :   0.1338 B( 16-C , 28-C ) :   0.9088
B( 16-C , 31-H ) :   1.0561 B( 16-C , 32-H ) :   0.8007 B( 17-C , 18-H ) :   0.7075
B( 17-C , 19-H ) :   1.2787 B( 17-C , 25-C ) :   0.1606 B( 17-C , 28-C ) :   0.3523
B( 17-C , 29-H ) :   0.1063 B( 17-C , 31-H ) :  -0.1371 B( 22-C , 25-C ) :   0.4628
B( 22-C , 26-H ) :   1.4668 B( 22-C , 27-H ) :   0.8532 B( 22-C , 28-C ) :   0.2691
B( 23-H , 25-C ) :   0.1010 B( 25-C , 27-H ) :  -0.1333 B( 25-C , 28-C ) :   0.9281
B( 25-C , 29-H ) :   0.9369 B( 25-C , 30-H ) :   0.9005 B( 28-C , 33-H ) :   0.9218
B( 28-C , 34-H ) :   0.9371

Dispersion correction           -0.019723586
FINAL SINGLE POINT ENERGY      -700.389967765635

DIPOLE MOMENT
-------------
                                X             Y             Z
Electronic contribution:      0.06346       6.25731      15.10891
Nuclear contribution   :     -1.39991      -5.60370     -16.00470
                        -----------------------------------------
Total Dipole Moment    :     -1.33645       0.65361      -0.89578
                        -----------------------------------------
Magnitude (a.u.)       :      1.73658
Magnitude (Debye)      :      4.41405

Rotational constants in cm-1:     0.021622     0.017313     0.011402
Rotational constants in MHz :   648.226014   519.043632   341.814105

                             ****ORCA TERMINATED NORMALLY****
TOTAL RUN TIME: 0 days 0 hours 5 minutes 8 seconds 208 msec
