                         Program Version 5.0.0 -  RELEASE  -
|  1> !wB97X-D3 RIJCOSX def2-TZVPD def2/J TightSCF xyzfile
|  2>
|  3> *xyzfile 0 1 D4.xyz
|  4>
|  5> %MaxCore 64000
|  6>
|  7> %pal nprocs 18
|  8> end
|  9>
| 10> %scf
| 11>   MaxIter 150
| 12> end
| 13>
| 14>
| 15>                          ****END OF INPUT****

CARTESIAN COORDINATES (ANGSTROEM)
---------------------------------
  C      4.602954   -2.440100    2.634780
  C     -0.914947    0.615112    2.505538
  C     -0.059146    1.503524    3.410578
  H      0.365364    2.344315    2.861161
  H     -0.692261    1.920207    4.198985
  C      1.083027    0.749640    4.085705
  C      3.860851   -1.591565    3.622893
  N      2.756502   -2.046159    4.166333
  C      4.254325   -0.362905    3.860455
  H      3.565256    0.310994    4.168983
  H      5.054292   -0.016059    3.337838
  H      2.439696   -2.973894    3.897395
  H      2.066869   -1.412532    4.549813
  O      2.228167    1.263475    4.019826
  F      0.810034   -0.345411    4.636269
  C      3.744685   -2.580557    1.361882
  C      0.772139    0.636882    0.562129
  C     -0.130740   -0.193985    1.470763
  H     -0.840563   -0.760165    0.856377
  H      0.466691   -0.938942    2.006959
  H     -1.647961    1.245963    1.991076
  H     -1.478180   -0.081046    3.130424
  C      3.203721   -1.256004    0.826211
  H      2.898939   -3.239289    1.583074
  H      4.334962   -3.095523    0.600188
  C      2.107815   -1.442385   -0.216865
  H      2.786775   -0.672760    1.650711
  H      4.021008   -0.652993    0.414046
  C      1.390662   -0.145912   -0.602422
  H      1.372179   -2.152184    0.176151
  H      2.523302   -1.906787   -1.117115
  H      1.561361    1.100094    1.161831
  H      0.195516    1.468325    0.142758
  H      0.602893   -0.398214   -1.319716
  H      2.087247    0.508272   -1.137335
  H      5.561557   -1.971347    2.407084
  H      4.810498   -3.422552    3.063099

 Total Charge           Charge          ....    0
 Multiplicity           Mult            ....    1
 Number of Electrons    NEL             ....  118
 Basis Dimension        Dim             ....  759

ORBITAL ENERGIES
----------------

  NO   OCC          E(Eh)            E(eV)
   0   2.0000     -24.883662      -677.1189
   1   2.0000     -19.250490      -523.8325
   2   2.0000     -14.399278      -391.8243
   3   2.0000     -10.472881      -284.9816
   4   2.0000     -10.314065      -280.6600
   5   2.0000     -10.297657      -280.2135
   6   2.0000     -10.283292      -279.8226
   7   2.0000     -10.274071      -279.5717
   8   2.0000     -10.270807      -279.4829
   9   2.0000     -10.269739      -279.4538
  10   2.0000     -10.264962      -279.3238
  11   2.0000     -10.263888      -279.2946
  12   2.0000     -10.260387      -279.1993
  13   2.0000     -10.256362      -279.0898
  14   2.0000     -10.166521      -276.6451
  15   2.0000      -1.467338       -39.9283
  16   2.0000      -1.169199       -31.8155
  17   2.0000      -1.032659       -28.1001
  18   2.0000      -0.954468       -25.9724
  19   2.0000      -0.924243       -25.1499
  20   2.0000      -0.897622       -24.4255
  21   2.0000      -0.859845       -23.3976
  22   2.0000      -0.832648       -22.6575
  23   2.0000      -0.807179       -21.9645
  24   2.0000      -0.791930       -21.5495
  25   2.0000      -0.760098       -20.6833
  26   2.0000      -0.725660       -19.7462
  27   2.0000      -0.696749       -18.9595
  28   2.0000      -0.689894       -18.7730
  29   2.0000      -0.679602       -18.4929
  30   2.0000      -0.662329       -18.0229
  31   2.0000      -0.648607       -17.6495
  32   2.0000      -0.624916       -17.0048
  33   2.0000      -0.604035       -16.4366
  34   2.0000      -0.590019       -16.0552
  35   2.0000      -0.585553       -15.9337
  36   2.0000      -0.562443       -15.3049
  37   2.0000      -0.548472       -14.9247
  38   2.0000      -0.541659       -14.7393
  39   2.0000      -0.536318       -14.5939
  40   2.0000      -0.520444       -14.1620
  41   2.0000      -0.513019       -13.9599
  42   2.0000      -0.507175       -13.8009
  43   2.0000      -0.487241       -13.2585
  44   2.0000      -0.480551       -13.0764
  45   2.0000      -0.472185       -12.8488
  46   2.0000      -0.468835       -12.7577
  47   2.0000      -0.457143       -12.4395
  48   2.0000      -0.451182       -12.2773
  49   2.0000      -0.443109       -12.0576
  50   2.0000      -0.439011       -11.9461
  51   2.0000      -0.423763       -11.5312
  52   2.0000      -0.416905       -11.3446
  53   2.0000      -0.415484       -11.3059
  54   2.0000      -0.404551       -11.0084
  55   2.0000      -0.400682       -10.9031
  56   2.0000      -0.393691       -10.7129
  57   2.0000      -0.363761        -9.8984
  58   2.0000      -0.256665        -6.9842
  59   0.0000       0.036932         1.0050
  60   0.0000       0.058075         1.5803
  61   0.0000       0.068277         1.8579
  62   0.0000       0.074435         2.0255
  63   0.0000       0.078307         2.1309

MULLIKEN ATOMIC CHARGES
-----------------------
   0 C :   -0.811038
   1 C :   -0.725472
   2 C :   -0.439894
   3 H :    0.301078
   4 H :    0.324698
   5 C :    0.633074
   6 C :    0.412365
   7 N :   -0.297479
   8 C :   -1.493513
   9 H :    0.625976
  10 H :    0.325609
  11 H :    0.265707
  12 H :    0.309915
  13 O :   -0.606527
  14 F :   -0.384924
  15 C :   -0.625363
  16 C :   -0.368583
  17 C :   -0.443475
  18 H :    0.406646
  19 H :    0.139377
  20 H :    0.304243
  21 H :    0.322393
  22 C :    0.529771
  23 H :    0.252817
  24 H :    0.274645
  25 C :   -0.543793
  26 H :   -0.542126
  27 H :    0.242857
  28 C :   -0.840043
  29 H :    0.263548
  30 H :    0.319020
  31 H :    0.306995
  32 H :    0.344189
  33 H :    0.305622
  34 H :    0.308434
  35 H :    0.318372
  36 H :    0.284880
Sum of atomic charges:   -0.0000000

LOEWDIN ATOMIC CHARGES
----------------------
   0 C :   -0.144108
   1 C :   -0.199421
   2 C :   -0.094282
   3 H :    0.124172
   4 H :    0.127989
   5 C :   -0.433180
   6 C :   -0.502910
   7 N :    0.124550
   8 C :    0.019333
   9 H :   -0.022667
  10 H :    0.036878
  11 H :    0.113792
  12 H :    0.068496
  13 O :    0.075058
  14 F :    0.193099
  15 C :   -0.196937
  16 C :   -0.212955
  17 C :   -0.211157
  18 H :    0.122739
  19 H :    0.102713
  20 H :    0.117611
  21 H :    0.111747
  22 C :   -0.211271
  23 H :    0.102321
  24 H :    0.112036
  25 C :   -0.220864
  26 H :    0.085457
  27 H :    0.130521
  28 C :   -0.208584
  29 H :    0.105584
  30 H :    0.113878
  31 H :    0.106290
  32 H :    0.117343
  33 H :    0.108745
  34 H :    0.111864
  35 H :    0.114697
  36 H :    0.111423

  Mayer bond orders larger than 0.100000
B(  0-C ,  6-C ) :   0.8953 B(  0-C , 15-C ) :   0.8541 B(  0-C , 35-H ) :   0.8462
B(  0-C , 36-H ) :   1.0251 B(  1-C ,  2-C ) :   0.8324 B(  1-C ,  5-C ) :   0.1618
B(  1-C , 16-C ) :   0.2606 B(  1-C , 17-C ) :   0.9103 B(  1-C , 20-H ) :   0.9129
B(  1-C , 21-H ) :   0.9178 B(  2-C ,  3-H ) :   0.9597 B(  2-C ,  4-H ) :   0.8461
B(  2-C ,  5-C ) :   0.9798 B(  2-C , 16-C ) :   0.1953 B(  5-C , 13-O ) :   1.6460
B(  5-C , 14-F ) :   0.7130 B(  5-C , 17-C ) :   0.1164 B(  6-C ,  7-N ) :   1.1448
B(  6-C ,  8-C ) :   1.4556 B(  6-C ,  9-H ) :  -0.1331 B(  6-C , 10-H ) :  -0.1620
B(  7-N , 11-H ) :   0.8528 B(  7-N , 12-H ) :   0.7577 B(  8-C ,  9-H ) :   0.7061
B(  8-C , 10-H ) :   1.1513 B(  9-H , 13-O ) :  -0.2148 B( 13-O , 14-F ) :   0.1123
B( 15-C , 22-C ) :   0.5312 B( 15-C , 23-H ) :   0.9113 B( 15-C , 24-H ) :   0.9444
B( 15-C , 25-C ) :   0.5278 B( 15-C , 26-H ) :   0.2095 B( 15-C , 27-H ) :  -0.1626
B( 16-C , 17-C ) :   0.4456 B( 16-C , 19-H ) :  -0.1345 B( 16-C , 22-C ) :   0.1168
B( 16-C , 28-C ) :   0.8944 B( 16-C , 31-H ) :   1.0383 B( 16-C , 32-H ) :   0.7938
B( 17-C , 18-H ) :   0.7338 B( 17-C , 19-H ) :   1.2557 B( 17-C , 25-C ) :   0.1678
B( 17-C , 28-C ) :   0.3432 B( 17-C , 29-H ) :   0.1091 B( 17-C , 31-H ) :  -0.1190
B( 22-C , 25-C ) :   0.4464 B( 22-C , 26-H ) :   1.4632 B( 22-C , 27-H ) :   0.8491
B( 22-C , 28-C ) :   0.2698 B( 23-H , 25-C ) :   0.1017 B( 25-C , 27-H ) :  -0.1332
B( 25-C , 28-C ) :   0.9243 B( 25-C , 29-H ) :   0.9397 B( 25-C , 30-H ) :   0.9017
B( 28-C , 33-H ) :   0.9248 B( 28-C , 34-H ) :   0.9331

Dispersion correction           -0.019740342
FINAL SINGLE POINT ENERGY      -700.378441965997

DIPOLE MOMENT
-------------
                                X             Y             Z
Electronic contribution:     -2.28739       3.58833      16.19014
Nuclear contribution   :      0.32481      -3.64700     -16.75441
                        -----------------------------------------
Total Dipole Moment    :     -1.96258      -0.05867      -0.56426
                        -----------------------------------------
Magnitude (a.u.)       :      2.04293
Magnitude (Debye)      :      5.19272

Rotational constants in cm-1:     0.021629     0.017327     0.011372
Rotational constants in MHz :   648.414821   519.443407   340.925013

                             ****ORCA TERMINATED NORMALLY****
TOTAL RUN TIME: 0 days 0 hours 5 minutes 8 seconds 91 msec
