                         Program Version 5.0.0 -  RELEASE  -
|  1> !TPSS D3BJ RIJCOSX def2-TZVP def2/J TightSCF
|  2> *xyz -1 1
|  3> C         -1.91658       -2.48508       -3.64367
|  4> C         -1.36353       -1.98134       -2.29361
|  5> O         -0.35039       -2.74969       -1.79601
|  6> H         -2.22622       -1.90839       -1.60204
|  7> H         -1.05135       -0.91567       -2.44333
|  8> H         -1.11522       -2.57167       -4.34739
|  9> H         -2.64227       -1.79099       -4.01314
| 10> H         -2.37564       -3.44180       -3.50640
| 11> *
| 12>
| 13> %MaxCore 64000
| 14> %pal nprocs 4
| 15> end
| 16>
| 17> %scf
| 18>   MaxIter 150
| 19> end
| 20>
| 21>
| 22>                          ****END OF INPUT****

CARTESIAN COORDINATES (ANGSTROEM)
---------------------------------
  C     -1.916580   -2.485080   -3.643670
  C     -1.363530   -1.981340   -2.293610
  O     -0.350390   -2.749690   -1.796010
  H     -2.226220   -1.908390   -1.602040
  H     -1.051350   -0.915670   -2.443330
  H     -1.115220   -2.571670   -4.347390
  H     -2.642270   -1.790990   -4.013140
  H     -2.375640   -3.441800   -3.506400

 Total Charge           Charge          ....   -1
 Multiplicity           Mult            ....    1
 Number of Electrons    NEL             ....   26
 Basis Dimension        Dim             ....  123

ORBITAL ENERGIES
----------------

  NO   OCC          E(Eh)            E(eV)
   0   2.0000     -18.534311      -504.3442
   1   2.0000      -9.788935      -266.3705
   2   2.0000      -9.768541      -265.8155
   3   2.0000      -0.602930       -16.4066
   4   2.0000      -0.464126       -12.6295
   5   2.0000      -0.316341        -8.6081
   6   2.0000      -0.200612        -5.4589
   7   2.0000      -0.180595        -4.9142
   8   2.0000      -0.124571        -3.3898
   9   2.0000      -0.111092        -3.0230
  10   2.0000      -0.059382        -1.6159
  11   2.0000       0.081833         2.2268
  12   2.0000       0.084966         2.3120
  13   0.0000       0.208708         5.6792
  14   0.0000       0.243234         6.6187
  15   0.0000       0.266569         7.2537
  16   0.0000       0.272925         7.4267
  17   0.0000       0.303708         8.2643

MULLIKEN ATOMIC CHARGES
-----------------------
   0 C :   -0.098452
   1 C :    0.059840
   2 O :   -0.752904
   3 H :   -0.085684
   4 H :   -0.090930
   5 H :    0.011046
   6 H :   -0.054735
   7 H :    0.011820
Sum of atomic charges:   -1.0000000

LOEWDIN ATOMIC CHARGES
----------------------
   0 C :   -0.358880
   1 C :   -0.553411
   2 O :   -0.402827
   3 H :    0.045746
   4 H :    0.043443
   5 H :    0.080703
   6 H :    0.064789
   7 H :    0.080438

  Mayer bond orders larger than 0.100000
B(  0-C ,  1-C ) :   0.8923 B(  0-C ,  2-O ) :  -0.3170 B(  0-C ,  5-H ) :   0.9512
B(  0-C ,  6-H ) :   0.8994 B(  0-C ,  7-H ) :   0.9556 B(  1-C ,  2-O ) :   1.6389
B(  1-C ,  3-H ) :   0.9002 B(  1-C ,  4-H ) :   0.9030 B(  2-O ,  6-H ) :   0.1296

Dispersion correction           -0.004550127
FINAL SINGLE POINT ENERGY      -154.505244766239

DIPOLE MOMENT
-------------
                                X             Y             Z
Electronic contribution:      2.28551      -1.04112       1.98847
Nuclear contribution   :     -3.14382       1.30299      -2.83231
                        -----------------------------------------
Total Dipole Moment    :     -0.85831       0.26187      -0.84384
                        -----------------------------------------
Magnitude (a.u.)       :      1.23180
Magnitude (Debye)      :      3.13099

Rotational constants in cm-1:     1.288206     0.322942     0.285188
Rotational constants in MHz : 38619.437223  9681.562038  8549.712012

                             ****ORCA TERMINATED NORMALLY****
TOTAL RUN TIME: 0 days 0 hours 0 minutes 5 seconds 863 msec
