                         Program Version 5.0.0 -  RELEASE  -
|  1> !TPSS D3BJ RIJCOSX def2-TZVP def2/J TightSCF
|  2> *xyz 1 1
|  3> C          1.64703       -2.34528       -5.02041
|  4> C          2.20996       -2.81239       -3.66571
|  5> C          2.48901       -1.66851       -2.73754
|  6> N          3.59631       -0.94761       -2.95225
|  7> N          1.66394       -1.41369       -1.77781
|  8> H          0.81164       -1.96318       -1.70275
|  9> H          1.84550       -0.63508       -1.15875
| 10> H          4.20535       -1.17600       -3.73383
| 11> H          3.81723       -0.12585       -2.40604
| 12> H          3.14311       -3.36280       -3.81152
| 13> H          1.48768       -3.45893       -3.16521
| 14> H          1.46566       -3.19589       -5.64368
| 15> H          2.35406       -1.69850       -5.49654
| 16> H          0.73014       -1.81680       -4.86253
| 17> *
| 18>
| 19> %MaxCore 64000
| 20> %pal nprocs 4
| 21> end
| 22>
| 23> %scf
| 24>   MaxIter 150
| 25> end
| 26>
| 27>
| 28>                          ****END OF INPUT****

CARTESIAN COORDINATES (ANGSTROEM)
---------------------------------
  C      1.647030   -2.345280   -5.020410
  C      2.209960   -2.812390   -3.665710
  C      2.489010   -1.668510   -2.737540
  N      3.596310   -0.947610   -2.952250
  N      1.663940   -1.413690   -1.777810
  H      0.811640   -1.963180   -1.702750
  H      1.845500   -0.635080   -1.158750
  H      4.205350   -1.176000   -3.733830
  H      3.817230   -0.125850   -2.406040
  H      3.143110   -3.362800   -3.811520
  H      1.487680   -3.458930   -3.165210
  H      1.465660   -3.195890   -5.643680
  H      2.354060   -1.698500   -5.496540
  H      0.730140   -1.816800   -4.862530

 Total Charge           Charge          ....    1
 Multiplicity           Mult            ....    1
 Number of Electrons    NEL             ....   40
 Basis Dimension        Dim             ....  209

ORBITAL ENERGIES
----------------

  NO   OCC          E(Eh)            E(eV)
   0   2.0000     -14.351248      -390.5173
   1   2.0000     -14.342691      -390.2845
   2   2.0000     -10.295604      -280.1576
   3   2.0000     -10.183800      -277.1153
   4   2.0000     -10.140799      -275.9452
   5   2.0000      -1.139188       -30.9989
   6   2.0000      -1.049907       -28.5694
   7   2.0000      -0.911653       -24.8074
   8   2.0000      -0.810131       -22.0448
   9   2.0000      -0.768016       -20.8988
  10   2.0000      -0.727672       -19.8010
  11   2.0000      -0.706489       -19.2245
  12   2.0000      -0.661438       -17.9986
  13   2.0000      -0.604561       -16.4509
  14   2.0000      -0.582474       -15.8499
  15   2.0000      -0.571041       -15.5388
  16   2.0000      -0.506084       -13.7712
  17   2.0000      -0.498921       -13.5763
  18   2.0000      -0.495021       -13.4702
  19   2.0000      -0.455373       -12.3913
  20   0.0000      -0.233724        -6.3600
  21   0.0000      -0.174427        -4.7464
  22   0.0000      -0.128374        -3.4932
  23   0.0000      -0.127272        -3.4632
  24   0.0000      -0.098384        -2.6772

MULLIKEN ATOMIC CHARGES
-----------------------
   0 C :   -0.320144
   1 C :   -0.222133
   2 C :    0.273960
   3 N :   -0.350372
   4 N :   -0.287025
   5 H :    0.302913
   6 H :    0.281772
   7 H :    0.302589
   8 H :    0.281181
   9 H :    0.164463
  10 H :    0.133193
  11 H :    0.172508
  12 H :    0.130397
  13 H :    0.136698
Sum of atomic charges:    1.0000000

LOEWDIN ATOMIC CHARGES
----------------------
   0 C :   -0.251376
   1 C :   -0.214424
   2 C :   -0.303821
   3 N :    0.103990
   4 N :    0.141187
   5 H :    0.215416
   6 H :    0.201840
   7 H :    0.208164
   8 H :    0.193399
   9 H :    0.164177
  10 H :    0.155941
  11 H :    0.136828
  12 H :    0.122441
  13 H :    0.126238

  Mayer bond orders larger than 0.100000
B(  0-C ,  1-C ) :   1.0048 B(  0-C , 11-H ) :   0.9546 B(  0-C , 12-H ) :   0.9646
B(  0-C , 13-H ) :   0.9567 B(  1-C ,  2-C ) :   1.0129 B(  1-C ,  9-H ) :   0.9301
B(  1-C , 10-H ) :   0.9431 B(  2-C ,  3-N ) :   1.4339 B(  2-C ,  4-N ) :   1.5173
B(  3-N ,  7-H ) :   0.8804 B(  3-N ,  8-H ) :   0.8856 B(  4-N ,  5-H ) :   0.8728
B(  4-N ,  6-H ) :   0.8802

Dispersion correction           -0.012451825
FINAL SINGLE POINT ENERGY      -229.162900825143

DIPOLE MOMENT
-------------
                                X             Y             Z
Electronic contribution:      1.19821       1.66937       3.62438
Nuclear contribution   :     -0.98617      -1.03178      -2.77619
                        -----------------------------------------
Total Dipole Moment    :      0.21205       0.63760       0.84819
                        -----------------------------------------
Magnitude (a.u.)       :      1.08209
Magnitude (Debye)      :      2.75046

Rotational constants in cm-1:     0.257311     0.127495     0.099037
Rotational constants in MHz :  7713.982239  3822.189706  2969.039713

                             ****ORCA TERMINATED NORMALLY****
TOTAL RUN TIME: 0 days 0 hours 0 minutes 11 seconds 173 msec
