                         Program Version 5.0.0 -  RELEASE  -
|  1> !TPSS D3BJ RIJCOSX def2-TZVP def2/J TightSCF xyzfile
|  2>
|  3> *xyzfile 0 1 B.xyz
|  4>
|  5> %MaxCore 64000
|  6>
|  7> %pal nprocs 18
|  8> end
|  9>
| 10> %scf
| 11>   MaxIter 150
| 12> end
| 13>
| 14>
| 15>                          ****END OF INPUT****

CARTESIAN COORDINATES (ANGSTROEM)
---------------------------------
  C      1.647032   -2.345276   -5.020411
  C      0.217628   -1.814022   -4.924389
  C      2.209964   -2.812388   -3.665708
  C     -0.811356   -2.908780   -4.607625
  C     -1.916579   -2.485081   -3.643665
  H     -2.554525   -1.712428   -4.091993
  C     -1.363531   -1.981337   -2.293608
  H     -2.553448   -3.355667   -3.458815
  O     -0.350395   -2.749689   -1.796006
  H      2.308385   -1.588704   -5.457128
  H      1.674286   -3.203478   -5.697392
  C      2.489007   -1.668510   -2.737538
  N      3.596314   -0.947608   -2.952247
  N      1.663936   -1.413685   -1.777806
  H      0.811642   -1.963178   -1.702755
  H      1.845503   -0.635078   -1.158749
  H      4.205351   -1.176003   -3.733825
  H      3.817230   -0.125845   -2.406041
  H     -1.244829   -3.280884   -5.541040
  H     -0.306331   -3.757746   -4.142734
  H     -0.036244   -1.318555   -5.865303
  H      0.175004   -1.035382   -4.158095
  H      3.143106   -3.362803   -3.811524
  H      1.487683   -3.458935   -3.165211
  H     -2.226220   -1.908386   -1.602039
  H     -1.051353   -0.915671   -2.443331

 Total Charge           Charge          ....    0
 Multiplicity           Mult            ....    1
 Number of Electrons    NEL             ....   80
 Basis Dimension        Dim             ....  406

ORBITAL ENERGIES
----------------

  NO   OCC          E(Eh)            E(eV)
   0   2.0000     -18.739726      -509.9339
   1   2.0000     -14.175997      -385.7485
   2   2.0000     -14.130783      -384.5182
   3   2.0000     -10.111784      -275.1556
   4   2.0000     -10.009552      -272.3738
   5   2.0000      -9.997072      -272.0342
   6   2.0000      -9.967863      -271.2393
   7   2.0000      -9.957987      -270.9706
   8   2.0000      -9.948551      -270.7138
   9   2.0000      -9.930921      -270.2341
  10   2.0000      -0.954806       -25.9816
  11   2.0000      -0.867724       -23.6120
  12   2.0000      -0.812103       -22.0984
  13   2.0000      -0.756882       -20.5958
  14   2.0000      -0.697195       -18.9716
  15   2.0000      -0.649820       -17.6825
  16   2.0000      -0.599824       -16.3220
  17   2.0000      -0.579376       -15.7656
  18   2.0000      -0.549821       -14.9614
  19   2.0000      -0.539677       -14.6854
  20   2.0000      -0.516031       -14.0419
  21   2.0000      -0.475993       -12.9524
  22   2.0000      -0.454646       -12.3716
  23   2.0000      -0.440049       -11.9743
  24   2.0000      -0.421526       -11.4703
  25   2.0000      -0.396794       -10.7973
  26   2.0000      -0.386572       -10.5191
  27   2.0000      -0.362079        -9.8527
  28   2.0000      -0.350144        -9.5279
  29   2.0000      -0.347186        -9.4474
  30   2.0000      -0.317307        -8.6344
  31   2.0000      -0.308363        -8.3910
  32   2.0000      -0.299723        -8.1559
  33   2.0000      -0.279574        -7.6076
  34   2.0000      -0.272995        -7.4286
  35   2.0000      -0.261266        -7.1094
  36   2.0000      -0.253256        -6.8914
  37   2.0000      -0.245386        -6.6773
  38   2.0000      -0.128696        -3.5020
  39   2.0000      -0.120170        -3.2700
  40   0.0000      -0.055902        -1.5212
  41   0.0000      -0.025792        -0.7018
  42   0.0000       0.012659         0.3445
  43   0.0000       0.036846         1.0026
  44   0.0000       0.050313         1.3691

MULLIKEN ATOMIC CHARGES
-----------------------
   0 C :   -0.128126
   1 C :   -0.191044
   2 C :   -0.252479
   3 C :   -0.176389
   4 C :   -0.052294
   5 H :    0.038518
   6 C :   -0.028980
   7 H :    0.058799
   8 O :   -0.671961
   9 H :    0.072460
  10 H :    0.101093
  11 C :    0.240902
  12 N :   -0.401722
  13 N :   -0.270380
  14 H :    0.291406
  15 H :    0.210046
  16 H :    0.263240
  17 H :    0.245336
  18 H :    0.071524
  19 H :    0.086412
  20 H :    0.079627
  21 H :    0.095620
  22 H :    0.113515
  23 H :    0.180424
  24 H :    0.031957
  25 H :   -0.007506
Sum of atomic charges:    0.0000000

LOEWDIN ATOMIC CHARGES
----------------------
   0 C :   -0.252319
   1 C :   -0.255638
   2 C :   -0.208249
   3 C :   -0.270448
   4 C :   -0.280999
   5 H :    0.119209
   6 C :   -0.485918
   7 H :    0.126409
   8 O :   -0.259455
   9 H :    0.124464
  10 H :    0.140440
  11 C :   -0.326655
  12 N :    0.045462
  13 N :    0.154607
  14 H :    0.101362
  15 H :    0.169257
  16 H :    0.184930
  17 H :    0.172779
  18 H :    0.124487
  19 H :    0.136786
  20 H :    0.129454
  21 H :    0.134786
  22 H :    0.143521
  23 H :    0.163675
  24 H :    0.095357
  25 H :    0.072695

  Mayer bond orders larger than 0.100000
B(  0-C ,  1-C ) :   1.0073 B(  0-C ,  2-C ) :   0.9941 B(  0-C ,  9-H ) :   0.9443
B(  0-C , 10-H ) :   0.9372 B(  1-C ,  3-C ) :   1.0083 B(  1-C , 20-H ) :   0.9381
B(  1-C , 21-H ) :   0.9664 B(  2-C , 11-C ) :   0.9983 B(  2-C , 22-H ) :   0.9294
B(  2-C , 23-H ) :   0.9304 B(  3-C ,  4-C ) :   1.0181 B(  3-C , 18-H ) :   0.9405
B(  3-C , 19-H ) :   0.9519 B(  4-C ,  5-H ) :   0.9333 B(  4-C ,  6-C ) :   0.9744
B(  4-C ,  7-H ) :   0.9297 B(  4-C ,  8-O ) :  -0.1303 B(  6-C ,  8-O ) :   1.2613
B(  6-C , 24-H ) :   0.9367 B(  6-C , 25-H ) :   0.9442 B(  8-O , 14-H ) :   0.3797
B( 11-C , 12-N ) :   1.3059 B( 11-C , 13-N ) :   1.6787 B( 12-N , 16-H ) :   0.8939
B( 12-N , 17-H ) :   0.8979 B( 13-N , 14-H ) :   0.6291 B( 13-N , 15-H ) :   0.9005

Dispersion correction           -0.033295761
FINAL SINGLE POINT ENERGY      -461.339384889721

DIPOLE MOMENT
-------------
                                X             Y             Z
Electronic contribution:      5.56574       0.83291       4.40533
Nuclear contribution   :     -2.25948       0.71378      -5.15247
                        -----------------------------------------
Total Dipole Moment    :      3.30625       1.54669      -0.74714
                        -----------------------------------------
Magnitude (a.u.)       :      3.72583
Magnitude (Debye)      :      9.47030

Rotational constants in cm-1:     0.063973     0.031829     0.024059
Rotational constants in MHz :  1917.874550   954.201145   721.285252

                             ****ORCA TERMINATED NORMALLY****
TOTAL RUN TIME: 0 days 0 hours 0 minutes 16 seconds 528 msec
