                         Program Version 5.0.0 -  RELEASE  -
|  1> !TPSS D3BJ RIJCOSX def2-TZVP def2/J TightSCF
|  2> *xyz 0 1
|  3> C         -1.91658       -2.48508       -3.64367
|  4> C         -1.36353       -1.98134       -2.29361
|  5> F         -0.35039       -2.74969       -1.79601
|  6> H         -2.22622       -1.90839       -1.60204
|  7> H         -1.05135       -0.91567       -2.44333
|  8> H         -1.11522       -2.57167       -4.34739
|  9> H         -2.64227       -1.79099       -4.01314
| 10> H         -2.37564       -3.44180       -3.50640
| 11> *
| 12>
| 13> %MaxCore 64000
| 14> %pal nprocs 4
| 15> end
| 16>
| 17> %scf
| 18>   MaxIter 150
| 19> end
| 20>
| 21>
| 22>                          ****END OF INPUT****

CARTESIAN COORDINATES (ANGSTROEM)
---------------------------------
  C     -1.916580   -2.485080   -3.643670
  C     -1.363530   -1.981340   -2.293610
  F     -0.350390   -2.749690   -1.796010
  H     -2.226220   -1.908390   -1.602040
  H     -1.051350   -0.915670   -2.443330
  H     -1.115220   -2.571670   -4.347390
  H     -2.642270   -1.790990   -4.013140
  H     -2.375640   -3.441800   -3.506400

 Total Charge           Charge          ....    0
 Multiplicity           Mult            ....    1
 Number of Electrons    NEL             ....   26
 Basis Dimension        Dim             ....  123

ORBITAL ENERGIES
----------------

  NO   OCC          E(Eh)            E(eV)
   0   2.0000     -24.395145      -663.8256
   1   2.0000     -10.061563      -273.7890
   2   2.0000      -9.980263      -271.5768
   3   2.0000      -1.122297       -30.5393
   4   2.0000      -0.707236       -19.2449
   5   2.0000      -0.580791       -15.8041
   6   2.0000      -0.459004       -12.4901
   7   2.0000      -0.444441       -12.0939
   8   2.0000      -0.406280       -11.0554
   9   2.0000      -0.362625        -9.8675
  10   2.0000      -0.360502        -9.8098
  11   2.0000      -0.289230        -7.8703
  12   2.0000      -0.286566        -7.7979
  13   0.0000       0.032050         0.8721
  14   0.0000       0.069574         1.8932
  15   0.0000       0.077558         2.1104
  16   0.0000       0.086185         2.3452
  17   0.0000       0.102147         2.7795

MULLIKEN ATOMIC CHARGES
-----------------------
   0 C :   -0.315597
   1 C :    0.025501
   2 F :   -0.218496
   3 H :    0.085799
   4 H :    0.084266
   5 H :    0.115768
   6 H :    0.108084
   7 H :    0.114676
Sum of atomic charges:    0.0000000

LOEWDIN ATOMIC CHARGES
----------------------
   0 C :   -0.303669
   1 C :   -0.375658
   2 F :    0.107694
   3 H :    0.112595
   4 H :    0.113934
   5 H :    0.113751
   6 H :    0.118615
   7 H :    0.112737

  Mayer bond orders larger than 0.100000
B(  0-C ,  1-C ) :   1.0224 B(  0-C ,  5-H ) :   0.9655 B(  0-C ,  6-H ) :   0.9524
B(  0-C ,  7-H ) :   0.9668 B(  1-C ,  2-F ) :   1.0232 B(  1-C ,  3-H ) :   0.9604
B(  1-C ,  4-H ) :   0.9621

Dispersion correction           -0.004197165
FINAL SINGLE POINT ENERGY      -179.156617534262

DIPOLE MOMENT
-------------
                                X             Y             Z
Electronic contribution:      3.65675      -1.38580       3.44849
Nuclear contribution   :     -4.15401       1.70894      -3.75000
                        -----------------------------------------
Total Dipole Moment    :     -0.49726       0.32314      -0.30150
                        -----------------------------------------
Magnitude (a.u.)       :      0.66528
Magnitude (Debye)      :      1.69100

Rotational constants in cm-1:     1.266842     0.300492     0.266603
Rotational constants in MHz : 37978.968232  9008.526876  7992.551454

                             ****ORCA TERMINATED NORMALLY****
TOTAL RUN TIME: 0 days 0 hours 0 minutes 4 seconds 601 msec
