                         Program Version 5.0.0 -  RELEASE  -
|  1> !TPSS D3BJ RIJCOSX def2-TZVP def2/J TightSCF
|  2> *xyz 0 1
|  3> C          1.64703       -2.34528       -5.02041
|  4> C          2.20996       -2.81239       -3.66571
|  5> C          2.48901       -1.66851       -2.73754
|  6> C          3.59631       -0.94761       -2.95225
|  7> N          1.66394       -1.41369       -1.77781
|  8> H          0.81164       -1.96318       -1.70275
|  9> H          1.84550       -0.63508       -1.15875
| 10> H          4.20535       -1.17600       -3.73383
| 11> H          3.81723       -0.12585       -2.40604
| 12> H          3.14311       -3.36280       -3.81152
| 13> H          1.48768       -3.45893       -3.16521
| 14> H          1.46566       -3.19589       -5.64368
| 15> H          2.35406       -1.69850       -5.49654
| 16> H          0.73014       -1.81680       -4.86253
| 17> *
| 18>
| 19> %MaxCore 64000
| 20> %pal nprocs 4
| 21> end
| 22>
| 23> %scf
| 24>   MaxIter 150
| 25> end
| 26>
| 27>
| 28>                          ****END OF INPUT****

CARTESIAN COORDINATES (ANGSTROEM)
---------------------------------
  C      1.647030   -2.345280   -5.020410
  C      2.209960   -2.812390   -3.665710
  C      2.489010   -1.668510   -2.737540
  C      3.596310   -0.947610   -2.952250
  N      1.663940   -1.413690   -1.777810
  H      0.811640   -1.963180   -1.702750
  H      1.845500   -0.635080   -1.158750
  H      4.205350   -1.176000   -3.733830
  H      3.817230   -0.125850   -2.406040
  H      3.143110   -3.362800   -3.811520
  H      1.487680   -3.458930   -3.165210
  H      1.465660   -3.195890   -5.643680
  H      2.354060   -1.698500   -5.496540
  H      0.730140   -1.816800   -4.862530

 Total Charge           Charge          ....    0
 Multiplicity           Mult            ....    1
 Number of Electrons    NEL             ....   40
 Basis Dimension        Dim             ....  209

ORBITAL ENERGIES
----------------

  NO   OCC          E(Eh)            E(eV)
   0   2.0000     -14.105572      -383.8321
   1   2.0000      -9.996097      -272.0076
   2   2.0000      -9.983910      -271.6760
   3   2.0000      -9.968429      -271.2547
   4   2.0000      -9.911350      -269.7016
   5   2.0000      -0.875129       -23.8135
   6   2.0000      -0.721038       -19.6204
   7   2.0000      -0.652475       -17.7548
   8   2.0000      -0.587731       -15.9930
   9   2.0000      -0.519914       -14.1476
  10   2.0000      -0.488047       -13.2804
  11   2.0000      -0.435085       -11.8393
  12   2.0000      -0.400063       -10.8863
  13   2.0000      -0.369489       -10.0543
  14   2.0000      -0.351878        -9.5751
  15   2.0000      -0.341521        -9.2932
  16   2.0000      -0.315355        -8.5812
  17   2.0000      -0.296137        -8.0583
  18   2.0000      -0.293639        -7.9903
  19   2.0000      -0.151946        -4.1347
  20   0.0000       0.012153         0.3307
  21   0.0000       0.026727         0.7273
  22   0.0000       0.055576         1.5123
  23   0.0000       0.063088         1.7167
  24   0.0000       0.081015         2.2045

MULLIKEN ATOMIC CHARGES
-----------------------
   0 C :   -0.309430
   1 C :   -0.169046
   2 C :    0.174626
   3 C :   -0.426217
   4 N :   -0.420434
   5 H :    0.229110
   6 H :    0.231980
   7 H :    0.104499
   8 H :    0.083233
   9 H :    0.111448
  10 H :    0.063187
  11 H :    0.107660
  12 H :    0.118329
  13 H :    0.101056
Sum of atomic charges:    0.0000000

LOEWDIN ATOMIC CHARGES
----------------------
   0 C :   -0.283006
   1 C :   -0.232652
   2 C :   -0.382455
   3 C :   -0.285009
   4 N :    0.026035
   5 H :    0.172866
   6 H :    0.175891
   7 H :    0.103137
   8 H :    0.091143
   9 H :    0.146233
  10 H :    0.127894
  11 H :    0.110182
  12 H :    0.116709
  13 H :    0.113033

  Mayer bond orders larger than 0.100000
B(  0-C ,  1-C ) :   1.0106 B(  0-C , 11-H ) :   0.9638 B(  0-C , 12-H ) :   0.9707
B(  0-C , 13-H ) :   0.9713 B(  1-C ,  2-C ) :   0.9785 B(  1-C ,  9-H ) :   0.9620
B(  1-C , 10-H ) :   0.9467 B(  2-C ,  3-C ) :   1.7594 B(  2-C ,  4-N ) :   1.2303
B(  3-C ,  7-H ) :   0.9796 B(  3-C ,  8-H ) :   0.9706 B(  4-N ,  5-H ) :   0.9116
B(  4-N ,  6-H ) :   0.9054

Dispersion correction           -0.012969366
FINAL SINGLE POINT ENERGY      -212.684099145398

DIPOLE MOMENT
-------------
                                X             Y             Z
Electronic contribution:     -0.07036       0.66606       3.05539
Nuclear contribution   :     -0.69146      -0.83112      -2.71336
                        -----------------------------------------
Total Dipole Moment    :     -0.76182      -0.16505       0.34203
                        -----------------------------------------
Magnitude (a.u.)       :      0.85124
Magnitude (Debye)      :      2.16367

Rotational constants in cm-1:     0.270661     0.129240     0.102040
Rotational constants in MHz :  8114.202941  3874.518141  3059.074383

                             ****ORCA TERMINATED NORMALLY****
TOTAL RUN TIME: 0 days 0 hours 0 minutes 11 seconds 768 msec
