                         Program Version 5.0.0 -  RELEASE  -
|  1> !TPSS D3BJ RIJCOSX def2-TZVP def2/J TightSCF
|  2> *xyz 0 1
|  3> C          1.64703       -2.34528       -5.02041
|  4> C          2.20996       -2.81239       -3.66571
|  5> C          2.48901       -1.66851       -2.73754
|  6> N          3.59631       -0.94761       -2.95225
|  7> C          1.66394       -1.41369       -1.77781
|  8> H          0.81164       -1.96318       -1.70275
|  9> H          1.84550       -0.63508       -1.15875
| 10> H          4.20535       -1.17600       -3.73383
| 11> H          3.81723       -0.12585       -2.40604
| 12> H          3.14311       -3.36280       -3.81152
| 13> H          1.48768       -3.45893       -3.16521
| 14> H          1.46566       -3.19589       -5.64368
| 15> H          2.35406       -1.69850       -5.49654
| 16> H          0.73014       -1.81680       -4.86253
| 17> *
| 18>
| 19> %MaxCore 64000
| 20> %pal nprocs 4
| 21> end
| 22>
| 23> %scf
| 24>   MaxIter 150
| 25> end
| 26>
| 27>
| 28>                          ****END OF INPUT****

CARTESIAN COORDINATES (ANGSTROEM)
---------------------------------
  C      1.647030   -2.345280   -5.020410
  C      2.209960   -2.812390   -3.665710
  C      2.489010   -1.668510   -2.737540
  N      3.596310   -0.947610   -2.952250
  C      1.663940   -1.413690   -1.777810
  H      0.811640   -1.963180   -1.702750
  H      1.845500   -0.635080   -1.158750
  H      4.205350   -1.176000   -3.733830
  H      3.817230   -0.125850   -2.406040
  H      3.143110   -3.362800   -3.811520
  H      1.487680   -3.458930   -3.165210
  H      1.465660   -3.195890   -5.643680
  H      2.354060   -1.698500   -5.496540
  H      0.730140   -1.816800   -4.862530

 Total Charge           Charge          ....    0
 Multiplicity           Mult            ....    1
 Number of Electrons    NEL             ....   40
 Basis Dimension        Dim             ....  209

ORBITAL ENERGIES
----------------

  NO   OCC          E(Eh)            E(eV)
   0   2.0000     -14.098976      -383.6526
   1   2.0000      -9.993630      -271.9405
   2   2.0000      -9.982323      -271.6328
   3   2.0000      -9.969552      -271.2853
   4   2.0000      -9.913882      -269.7705
   5   2.0000      -0.857156       -23.3244
   6   2.0000      -0.721475       -19.6323
   7   2.0000      -0.665775       -18.1167
   8   2.0000      -0.583524       -15.8785
   9   2.0000      -0.516306       -14.0494
  10   2.0000      -0.476094       -12.9552
  11   2.0000      -0.435354       -11.8466
  12   2.0000      -0.393694       -10.7130
  13   2.0000      -0.380001       -10.3404
  14   2.0000      -0.355787        -9.6815
  15   2.0000      -0.343016        -9.3339
  16   2.0000      -0.315259        -8.5786
  17   2.0000      -0.295218        -8.0333
  18   2.0000      -0.285236        -7.7617
  19   2.0000      -0.162085        -4.4106
  20   0.0000       0.013855         0.3770
  21   0.0000       0.030178         0.8212
  22   0.0000       0.058455         1.5906
  23   0.0000       0.067921         1.8482
  24   0.0000       0.077815         2.1174

MULLIKEN ATOMIC CHARGES
-----------------------
   0 C :   -0.312784
   1 C :   -0.179371
   2 C :    0.210507
   3 N :   -0.483256
   4 C :   -0.381099
   5 H :    0.101263
   6 H :    0.077856
   7 H :    0.231888
   8 H :    0.228277
   9 H :    0.083951
  10 H :    0.099137
  11 H :    0.111853
  12 H :    0.095953
  13 H :    0.115826
Sum of atomic charges:   -0.0000000

LOEWDIN ATOMIC CHARGES
----------------------
   0 C :   -0.286636
   1 C :   -0.232568
   2 C :   -0.368791
   3 N :   -0.008119
   4 C :   -0.260155
   5 H :    0.109169
   6 H :    0.098613
   7 H :    0.167209
   8 H :    0.166548
   9 H :    0.132665
  10 H :    0.144068
  11 H :    0.111538
  12 H :    0.109725
  13 H :    0.116734

  Mayer bond orders larger than 0.100000
B(  0-C ,  1-C ) :   1.0042 B(  0-C , 11-H ) :   0.9657 B(  0-C , 12-H ) :   0.9707
B(  0-C , 13-H ) :   0.9729 B(  1-C ,  2-C ) :   0.9980 B(  1-C ,  9-H ) :   0.9481
B(  1-C , 10-H ) :   0.9581 B(  2-C ,  3-N ) :   1.1474 B(  2-C ,  4-C ) :   1.8220
B(  3-N ,  7-H ) :   0.9188 B(  3-N ,  8-H ) :   0.9122 B(  4-C ,  5-H ) :   0.9729
B(  4-C ,  6-H ) :   0.9698

Dispersion correction           -0.012955130
FINAL SINGLE POINT ENERGY      -212.687895607456

DIPOLE MOMENT
-------------
                                X             Y             Z
Electronic contribution:      1.67972       1.09830       1.99660
Nuclear contribution   :     -1.13902      -0.93906      -2.44135
                        -----------------------------------------
Total Dipole Moment    :      0.54070       0.15924      -0.44475
                        -----------------------------------------
Magnitude (a.u.)       :      0.71799
Magnitude (Debye)      :      1.82498

Rotational constants in cm-1:     0.267243     0.130607     0.102304
Rotational constants in MHz :  8011.748167  3915.504600  3066.999841

                             ****ORCA TERMINATED NORMALLY****
TOTAL RUN TIME: 0 days 0 hours 0 minutes 10 seconds 986 msec
