                         Program Version 5.0.0 -  RELEASE  -
|  1> !TPSS D3BJ RIJCOSX def2-TZVP def2/J TightSCF xyzfile
|  2>
|  3> *xyzfile 0 1 D2.xyz
|  4>
|  5> %MaxCore 64000
|  6>
|  7> %pal nprocs 18
|  8> end
|  9>
| 10> %scf
| 11>   MaxIter 150
| 12> end
| 13>
| 14>
| 15>                          ****END OF INPUT****

CARTESIAN COORDINATES (ANGSTROEM)
---------------------------------
  C      1.647032   -2.345276   -5.020411
  C      0.217628   -1.814022   -4.924389
  C      2.209964   -2.812388   -3.665708
  C     -0.811356   -2.908780   -4.607625
  C     -1.916579   -2.485081   -3.643665
  H     -2.554525   -1.712428   -4.091993
  C     -1.363531   -1.981337   -2.293608
  H     -2.553448   -3.355667   -3.458815
  F     -0.350395   -2.749689   -1.796006
  H      2.308385   -1.588704   -5.457128
  H      1.674286   -3.203478   -5.697392
  C      2.489007   -1.668510   -2.737538
  N      3.596314   -0.947608   -2.952247
  C      1.663936   -1.413685   -1.777806
  H      0.811642   -1.963178   -1.702755
  H      1.845503   -0.635078   -1.158749
  H      4.205351   -1.176003   -3.733825
  H      3.817230   -0.125845   -2.406041
  H     -1.244829   -3.280884   -5.541040
  H     -0.306331   -3.757746   -4.142734
  H     -0.036244   -1.318555   -5.865303
  H      0.175004   -1.035382   -4.158095
  H      3.143106   -3.362803   -3.811524
  H      1.487683   -3.458935   -3.165211
  H     -2.226220   -1.908386   -1.602039
  H     -1.051353   -0.915671   -2.443331

 Total Charge           Charge          ....    0
 Multiplicity           Mult            ....    1
 Number of Electrons    NEL             ....   80
 Basis Dimension        Dim             ....  406

ORBITAL ENERGIES
----------------

  NO   OCC          E(Eh)            E(eV)
   0   2.0000     -24.410047      -664.2312
   1   2.0000     -14.085932      -383.2977
   2   2.0000     -10.061954      -273.7997
   3   2.0000      -9.989867      -271.8381
   4   2.0000      -9.978740      -271.5353
   5   2.0000      -9.977792      -271.5095
   6   2.0000      -9.975627      -271.4506
   7   2.0000      -9.972019      -271.3524
   8   2.0000      -9.970864      -271.3210
   9   2.0000      -9.882290      -268.9108
  10   2.0000      -1.147501       -31.2251
  11   2.0000      -0.844122       -22.9697
  12   2.0000      -0.752796       -20.4846
  13   2.0000      -0.719252       -19.5718
  14   2.0000      -0.671324       -18.2676
  15   2.0000      -0.645443       -17.5634
  16   2.0000      -0.604289       -16.4435
  17   2.0000      -0.553883       -15.0719
  18   2.0000      -0.522005       -14.2045
  19   2.0000      -0.515726       -14.0336
  20   2.0000      -0.478392       -13.0177
  21   2.0000      -0.462579       -12.5874
  22   2.0000      -0.450579       -12.2609
  23   2.0000      -0.439521       -11.9600
  24   2.0000      -0.417466       -11.3598
  25   2.0000      -0.399945       -10.8831
  26   2.0000      -0.396657       -10.7936
  27   2.0000      -0.389224       -10.5913
  28   2.0000      -0.357784        -9.7358
  29   2.0000      -0.342365        -9.3162
  30   2.0000      -0.329181        -8.9575
  31   2.0000      -0.319577        -8.6961
  32   2.0000      -0.310772        -8.4565
  33   2.0000      -0.298054        -8.1105
  34   2.0000      -0.286175        -7.7872
  35   2.0000      -0.284595        -7.7442
  36   2.0000      -0.275350        -7.4927
  37   2.0000      -0.268030        -7.2935
  38   2.0000      -0.254323        -6.9205
  39   2.0000      -0.147274        -4.0075
  40   0.0000       0.021497         0.5850
  41   0.0000       0.029473         0.8020
  42   0.0000       0.034776         0.9463
  43   0.0000       0.054793         1.4910
  44   0.0000       0.056889         1.5480

MULLIKEN ATOMIC CHARGES
-----------------------
   0 C :   -0.107402
   1 C :   -0.199435
   2 C :   -0.225751
   3 C :   -0.187122
   4 C :   -0.146485
   5 H :    0.090561
   6 C :   -0.067243
   7 H :    0.092153
   8 F :   -0.172502
   9 H :    0.076606
  10 H :    0.081104
  11 C :    0.225177
  12 N :   -0.488622
  13 C :   -0.519939
  14 H :    0.229261
  15 H :    0.058388
  16 H :    0.224612
  17 H :    0.224253
  18 H :    0.092921
  19 H :    0.099208
  20 H :    0.081389
  21 H :    0.114885
  22 H :    0.084634
  23 H :    0.117662
  24 H :    0.103528
  25 H :    0.118160
Sum of atomic charges:    0.0000000

LOEWDIN ATOMIC CHARGES
----------------------
   0 C :   -0.255888
   1 C :   -0.255657
   2 C :   -0.213544
   3 C :   -0.264685
   4 C :   -0.271317
   5 H :    0.138612
   6 C :   -0.354879
   7 H :    0.132937
   8 F :    0.179706
   9 H :    0.129183
  10 H :    0.131983
  11 C :   -0.375971
  12 N :   -0.014169
  13 C :   -0.262460
  14 H :    0.073373
  15 H :    0.092682
  16 H :    0.162948
  17 H :    0.163921
  18 H :    0.132375
  19 H :    0.138113
  20 H :    0.129345
  21 H :    0.138486
  22 H :    0.133719
  23 H :    0.145110
  24 H :    0.120629
  25 H :    0.125448

  Mayer bond orders larger than 0.100000
B(  0-C ,  1-C ) :   1.0219 B(  0-C ,  2-C ) :   0.9886 B(  0-C ,  9-H ) :   0.9365
B(  0-C , 10-H ) :   0.9436 B(  1-C ,  3-C ) :   1.0011 B(  1-C , 20-H ) :   0.9378
B(  1-C , 21-H ) :   0.9667 B(  2-C , 11-C ) :   0.9959 B(  2-C , 22-H ) :   0.9376
B(  2-C , 23-H ) :   0.9747 B(  3-C ,  4-C ) :   1.0135 B(  3-C , 18-H ) :   0.9447
B(  3-C , 19-H ) :   0.9604 B(  4-C ,  5-H ) :   0.9346 B(  4-C ,  6-C ) :   1.0342
B(  4-C ,  7-H ) :   0.9442 B(  6-C ,  8-F ) :   0.9635 B(  6-C , 24-H ) :   0.9519
B(  6-C , 25-H ) :   0.9671 B( 11-C , 12-N ) :   1.1218 B( 11-C , 13-C ) :   1.7642
B( 12-N , 16-H ) :   0.9197 B( 12-N , 17-H ) :   0.9145 B( 13-C , 14-H ) :   0.9275
B( 13-C , 15-H ) :   0.9692

Dispersion correction           -0.033160266
FINAL SINGLE POINT ENERGY      -469.276920467347

DIPOLE MOMENT
-------------
                                X             Y             Z
Electronic contribution:      0.49258      -1.31404       6.09906
Nuclear contribution   :     -0.73748       1.64619      -6.72655
                        -----------------------------------------
Total Dipole Moment    :     -0.24490       0.33215      -0.62749
                        -----------------------------------------
Magnitude (a.u.)       :      0.75103
Magnitude (Debye)      :      1.90896

Rotational constants in cm-1:     0.063169     0.031711     0.023958
Rotational constants in MHz :  1893.751676   950.657187   718.229932

                             ****ORCA TERMINATED NORMALLY****
TOTAL RUN TIME: 0 days 0 hours 0 minutes 13 seconds 275 msec
