                         Program Version 5.0.0 -  RELEASE  -
|  1> !CAM-B3LYP RIJCOSX def2-TZVP def2/J TightSCF
|  2> *xyz -1 1
|  3> C          4.90646       -3.10282       -5.95484
|  4> C          3.51177       -2.80621       -6.49228
|  5> H          2.73604       -3.37345       -5.97374
|  6> H          3.44490       -3.04083       -7.55528
|  7> S          3.00462       -1.09621       -6.38926
|  8> O          4.12886       -0.32965       -6.95372
|  9> O          1.78128       -1.00078       -7.13640
| 10> O          2.85155       -0.78368       -4.95679
| 11> H          5.62703       -2.52424       -6.49422
| 12> H          5.12164       -4.14387       -6.07654
| 13> H          4.95004       -2.84862       -4.91639
| 14> *
| 15>
| 16> %MaxCore 64000
| 17>
| 18> %pal nprocs 4
| 19> end
| 20>
| 21> %scf
| 22>   MaxIter 150
| 23> end
| 24>
| 25>
| 26>                          ****END OF INPUT****

CARTESIAN COORDINATES (ANGSTROEM)
---------------------------------
  C      4.906460   -3.102820   -5.954840
  C      3.511770   -2.806210   -6.492280
  H      2.736040   -3.373450   -5.973740
  H      3.444900   -3.040830   -7.555280
  S      3.004620   -1.096210   -6.389260
  O      4.128860   -0.329650   -6.953720
  O      1.781280   -1.000780   -7.136400
  O      2.851550   -0.783680   -4.956790
  H      5.627030   -2.524240   -6.494220
  H      5.121640   -4.143870   -6.076540
  H      4.950040   -2.848620   -4.916390

 Total Charge           Charge          ....   -1
 Multiplicity           Mult            ....    1
 Number of Electrons    NEL             ....   58
 Basis Dimension        Dim             ....  222

ORBITAL ENERGIES
----------------

  NO   OCC          E(Eh)            E(eV)
   0   2.0000     -88.910731     -2419.3840
   1   2.0000     -18.973686      -516.3002
   2   2.0000     -18.961294      -515.9630
   3   2.0000     -18.960781      -515.9491
   4   2.0000     -10.104488      -274.9571
   5   2.0000     -10.096784      -274.7475
   6   2.0000      -7.953955      -216.4381
   7   2.0000      -5.918448      -161.0492
   8   2.0000      -5.917466      -161.0224
   9   2.0000      -5.917197      -161.0151
  10   2.0000      -1.000041       -27.2125
  11   2.0000      -0.865258       -23.5449
  12   2.0000      -0.844792       -22.9880
  13   2.0000      -0.715710       -19.4755
  14   2.0000      -0.586867       -15.9695
  15   2.0000      -0.451573       -12.2879
  16   2.0000      -0.389348       -10.5947
  17   2.0000      -0.381275       -10.3750
  18   2.0000      -0.341633        -9.2963
  19   2.0000      -0.326252        -8.8778
  20   2.0000      -0.318774        -8.6743
  21   2.0000      -0.294421        -8.0116
  22   2.0000      -0.278215        -7.5706
  23   2.0000      -0.213082        -5.7983
  24   2.0000      -0.212719        -5.7884
  25   2.0000      -0.175774        -4.7831
  26   2.0000      -0.166534        -4.5316
  27   2.0000      -0.162136        -4.4119
  28   2.0000      -0.122700        -3.3388
  29   0.0000       0.209384         5.6976
  30   0.0000       0.252052         6.8587
  31   0.0000       0.268877         7.3165
  32   0.0000       0.274585         7.4718
  33   0.0000       0.304207         8.2779

MULLIKEN ATOMIC CHARGES
-----------------------
   0 C :   -0.329436
   1 C :   -0.222117
   2 H :    0.077642
   3 H :    0.078939
   4 S :    0.827629
   5 O :   -0.590945
   6 O :   -0.543370
   7 O :   -0.590417
   8 H :    0.117279
   9 H :    0.066005
  10 H :    0.108790
Sum of atomic charges:   -1.0000000

LOEWDIN ATOMIC CHARGES
----------------------
   0 C :   -0.340457
   1 C :   -0.430325
   2 H :    0.117737
   3 H :    0.119141
   4 S :    0.429423
   5 O :   -0.421905
   6 O :   -0.376392
   7 O :   -0.426974
   8 H :    0.115900
   9 H :    0.099145
  10 H :    0.114708

  Mayer bond orders larger than 0.100000
B(  0-C ,  1-C ) :   0.9389 B(  0-C ,  8-H ) :   0.9750 B(  0-C ,  9-H ) :   0.9693
B(  0-C , 10-H ) :   0.9770 B(  1-C ,  2-H ) :   0.9637 B(  1-C ,  3-H ) :   0.9618
B(  1-C ,  4-S ) :   0.8827 B(  4-S ,  5-O ) :   1.7402 B(  4-S ,  6-O ) :   1.8427
B(  4-S ,  7-O ) :   1.7635

FINAL SINGLE POINT ENERGY      -703.202046495818

DIPOLE MOMENT
-------------
                                X             Y             Z
Electronic contribution:     -4.37370       6.39868      -0.66642
Nuclear contribution   :      5.05690      -8.21735       0.57889
                        -----------------------------------------
Total Dipole Moment    :      0.68321      -1.81868      -0.08752
                        -----------------------------------------
Magnitude (a.u.)       :      1.94474
Magnitude (Debye)      :      4.94314

Rotational constants in cm-1:     0.162547     0.083494     0.081672
Rotational constants in MHz :  4873.033504  2503.090885  2448.458543

                             ****ORCA TERMINATED NORMALLY****
TOTAL RUN TIME: 0 days 0 hours 0 minutes 33 seconds 499 msec
