                         Program Version 5.0.0 -  RELEASE  -
|  1> !CAM-B3LYP RIJCOSX def2-TZVP def2/J TightSCF
|  2> *xyz 1 1
|  3> C          4.49059        1.15590       -2.46929
|  4> N          4.30539        1.22276       -3.90832
|  5> C          4.63192        2.24637       -4.67096
|  6> N          4.54169        2.14399       -5.98714
|  7> N          5.08409        3.39358       -4.11855
|  8> H          4.92067        3.57050       -3.13587
|  9> H          5.25465        4.19739       -4.70696
| 10> H          3.82453        0.44911       -4.35093
| 11> H          4.34337        1.24932       -6.41665
| 12> H          4.67671        2.95662       -6.57411
| 13> C          5.94213        0.93950       -2.03689
| 14> H          3.86431        0.32853       -2.13661
| 15> H          4.07623        2.04999       -1.98901
| 16> H          6.32982        0.06401       -2.51451
| 17> H          5.98308        0.81426       -0.97504
| 18> H          6.52865        1.78889       -2.31873
| 19> *
| 20>
| 21> %MaxCore 64000
| 22>
| 23> %pal nprocs 4
| 24> end
| 25>
| 26> %scf
| 27>   MaxIter 150
| 28> end
| 29>
| 30>
| 31>                          ****END OF INPUT****

CARTESIAN COORDINATES (ANGSTROEM)
---------------------------------
  C      4.490590    1.155900   -2.469290
  N      4.305390    1.222760   -3.908320
  C      4.631920    2.246370   -4.670960
  N      4.541690    2.143990   -5.987140
  N      5.084090    3.393580   -4.118550
  H      4.920670    3.570500   -3.135870
  H      5.254650    4.197390   -4.706960
  H      3.824530    0.449110   -4.350930
  H      4.343370    1.249320   -6.416650
  H      4.676710    2.956620   -6.574110
  C      5.942130    0.939500   -2.036890
  H      3.864310    0.328530   -2.136610
  H      4.076230    2.049990   -1.989010
  H      6.329820    0.064010   -2.514510
  H      5.983080    0.814260   -0.975040
  H      6.528650    1.788890   -2.318730

 Total Charge           Charge          ....    1
 Multiplicity           Mult            ....    1
 Number of Electrons    NEL             ....   48
 Basis Dimension        Dim             ....  246

ORBITAL ENERGIES
----------------

  NO   OCC          E(Eh)            E(eV)
   0   2.0000     -14.612667      -397.6309
   1   2.0000     -14.612338      -397.6219
   2   2.0000     -14.609692      -397.5499
   3   2.0000     -10.582838      -287.9737
   4   2.0000     -10.450342      -284.3683
   5   2.0000     -10.375557      -282.3333
   6   2.0000      -1.300677       -35.3932
   7   2.0000      -1.188756       -32.3477
   8   2.0000      -1.172844       -31.9147
   9   2.0000      -1.011436       -27.5226
  10   2.0000      -0.922052       -25.0903
  11   2.0000      -0.876725       -23.8569
  12   2.0000      -0.859459       -23.3871
  13   2.0000      -0.815828       -22.1998
  14   2.0000      -0.762026       -20.7358
  15   2.0000      -0.758829       -20.6488
  16   2.0000      -0.730445       -19.8764
  17   2.0000      -0.695741       -18.9321
  18   2.0000      -0.672929       -18.3113
  19   2.0000      -0.625155       -17.0113
  20   2.0000      -0.597404       -16.2562
  21   2.0000      -0.576931       -15.6991
  22   2.0000      -0.541596       -14.7376
  23   2.0000      -0.513533       -13.9739
  24   0.0000      -0.116721        -3.1761
  25   0.0000      -0.114340        -3.1113
  26   0.0000      -0.081897        -2.2285
  27   0.0000      -0.074189        -2.0188
  28   0.0000      -0.050631        -1.3777

MULLIKEN ATOMIC CHARGES
-----------------------
   0 C :   -0.213894
   1 N :   -0.245986
   2 C :    0.445283
   3 N :   -0.396739
   4 N :   -0.410215
   5 H :    0.285512
   6 H :    0.272819
   7 H :    0.258569
   8 H :    0.283637
   9 H :    0.283389
  10 C :   -0.308163
  11 H :    0.164414
  12 H :    0.151211
  13 H :    0.139221
  14 H :    0.162655
  15 H :    0.128286
Sum of atomic charges:    1.0000000

LOEWDIN ATOMIC CHARGES
----------------------
   0 C :   -0.286021
   1 N :    0.170180
   2 C :   -0.394424
   3 N :    0.067979
   4 N :    0.053410
   5 H :    0.194843
   6 H :    0.194515
   7 H :    0.212180
   8 H :    0.199432
   9 H :    0.198915
  10 C :   -0.282759
  11 H :    0.151450
  12 H :    0.136999
  13 H :    0.127305
  14 H :    0.136011
  15 H :    0.119986

  Mayer bond orders larger than 0.100000
B(  0-C ,  1-N ) :   0.8694 B(  0-C , 10-C ) :   0.9371 B(  0-C , 11-H ) :   0.9568
B(  0-C , 12-H ) :   0.9859 B(  1-N ,  2-C ) :   1.3862 B(  1-N ,  7-H ) :   0.9075
B(  2-C ,  3-N ) :   1.3311 B(  2-C ,  4-N ) :   1.3081 B(  3-N ,  8-H ) :   0.9005
B(  3-N ,  9-H ) :   0.8984 B(  4-N ,  5-H ) :   0.8900 B(  4-N ,  6-H ) :   0.9051
B( 10-C , 13-H ) :   0.9647 B( 10-C , 14-H ) :   0.9699 B( 10-C , 15-H ) :   0.9688

FINAL SINGLE POINT ENERGY      -284.363980684178

DIPOLE MOMENT
-------------
                                X             Y             Z
Electronic contribution:     -1.82580       1.58569      -4.48794
Nuclear contribution   :      1.34333      -1.11039       3.43667
                        -----------------------------------------
Total Dipole Moment    :     -0.48248       0.47530      -1.05128
                        -----------------------------------------
Magnitude (a.u.)       :      1.25055
Magnitude (Debye)      :      3.17864

Rotational constants in cm-1:     0.227161     0.075356     0.065003
Rotational constants in MHz :  6810.114531  2259.122204  1948.738523

                             ****ORCA TERMINATED NORMALLY****
TOTAL RUN TIME: 0 days 0 hours 0 minutes 42 seconds 885 msec
