                         Program Version 5.0.0 -  RELEASE  -
|  1> !CAM-B3LYP RIJCOSX def2-TZVP def2/J TightSCF
|  2> *xyz 0 1
|  3> C          4.90646       -3.10282       -5.95484
|  4> C          3.51177       -2.80621       -6.49228
|  5> H          2.73604       -3.37345       -5.97374
|  6> H          3.44490       -3.04083       -7.55528
|  7> S          3.00462       -1.09621       -6.38926
|  8> F          4.12886       -0.32965       -6.95372
|  9> O          1.78128       -1.00078       -7.13640
| 10> O          2.85155       -0.78368       -4.95679
| 11> H          5.62703       -2.52424       -6.49422
| 12> H          5.12164       -4.14387       -6.07654
| 13> H          4.95004       -2.84862       -4.91639
| 14> *
| 15>
| 16> %MaxCore 64000
| 17>
| 18> %pal nprocs 4
| 19> end
| 20>
| 21> %scf
| 22>   MaxIter 150
| 23> end
| 24>
| 25>
| 26>                          ****END OF INPUT****

CARTESIAN COORDINATES (ANGSTROEM)
---------------------------------
  C      4.906460   -3.102820   -5.954840
  C      3.511770   -2.806210   -6.492280
  H      2.736040   -3.373450   -5.973740
  H      3.444900   -3.040830   -7.555280
  S      3.004620   -1.096210   -6.389260
  F      4.128860   -0.329650   -6.953720
  O      1.781280   -1.000780   -7.136400
  O      2.851550   -0.783680   -4.956790
  H      5.627030   -2.524240   -6.494220
  H      5.121640   -4.143870   -6.076540
  H      4.950040   -2.848620   -4.916390

 Total Charge           Charge          ....    0
 Multiplicity           Mult            ....    1
 Number of Electrons    NEL             ....   58
 Basis Dimension        Dim             ....  222

ORBITAL ENERGIES
----------------

  NO   OCC          E(Eh)            E(eV)
   0   2.0000     -89.176943     -2426.6280
   1   2.0000     -24.864426      -676.5954
   2   2.0000     -19.213812      -522.8344
   3   2.0000     -19.201413      -522.4970
   4   2.0000     -10.309130      -280.5257
   5   2.0000     -10.267438      -279.3912
   6   2.0000      -8.220764      -223.6984
   7   2.0000      -6.188788      -168.4055
   8   2.0000      -6.182025      -168.2215
   9   2.0000      -6.181788      -168.2150
  10   2.0000      -1.444131       -39.2968
  11   2.0000      -1.193148       -32.4672
  12   2.0000      -1.093226       -29.7482
  13   2.0000      -0.913739       -24.8641
  14   2.0000      -0.806062       -21.9340
  15   2.0000      -0.755900       -20.5691
  16   2.0000      -0.662100       -18.0166
  17   2.0000      -0.646237       -17.5850
  18   2.0000      -0.620092       -16.8736
  19   2.0000      -0.569911       -15.5081
  20   2.0000      -0.549290       -14.9469
  21   2.0000      -0.524996       -14.2859
  22   2.0000      -0.507513       -13.8101
  23   2.0000      -0.481466       -13.1014
  24   2.0000      -0.469246       -12.7688
  25   2.0000      -0.450795       -12.2668
  26   2.0000      -0.405229       -11.0268
  27   2.0000      -0.393948       -10.7199
  28   2.0000      -0.379119       -10.3164
  29   0.0000       0.050269         1.3679
  30   0.0000       0.089619         2.4387
  31   0.0000       0.101948         2.7741
  32   0.0000       0.110147         2.9973
  33   0.0000       0.118555         3.2260

MULLIKEN ATOMIC CHARGES
-----------------------
   0 C :   -0.357056
   1 C :   -0.241622
   2 H :    0.162771
   3 H :    0.146511
   4 S :    0.862730
   5 F :   -0.129724
   6 O :   -0.403481
   7 O :   -0.450329
   8 H :    0.127196
   9 H :    0.133089
  10 H :    0.149914
Sum of atomic charges:    0.0000000

LOEWDIN ATOMIC CHARGES
----------------------
   0 C :   -0.314012
   1 C :   -0.391338
   2 H :    0.151149
   3 H :    0.140438
   4 S :    0.555781
   5 F :    0.060059
   6 O :   -0.263489
   7 O :   -0.311841
   8 H :    0.120183
   9 H :    0.125825
  10 H :    0.127245

  Mayer bond orders larger than 0.100000
B(  0-C ,  1-C ) :   0.9388 B(  0-C ,  8-H ) :   0.9718 B(  0-C ,  9-H ) :   0.9661
B(  0-C , 10-H ) :   0.9679 B(  1-C ,  2-H ) :   0.9437 B(  1-C ,  3-H ) :   0.9450
B(  1-C ,  4-S ) :   0.9119 B(  4-S ,  5-F ) :   1.1009 B(  4-S ,  6-O ) :   1.9659
B(  4-S ,  7-O ) :   1.8963

FINAL SINGLE POINT ENERGY      -727.735797173136

DIPOLE MOMENT
-------------
                                X             Y             Z
Electronic contribution:     -2.97153       8.17557      -1.76157
Nuclear contribution   :      4.18919      -9.36357       1.23251
                        -----------------------------------------
Total Dipole Moment    :      1.21767      -1.18800      -0.52905
                        -----------------------------------------
Magnitude (a.u.)       :      1.78156
Magnitude (Debye)      :      4.52836

Rotational constants in cm-1:     0.153152     0.082513     0.079874
Rotational constants in MHz :  4591.373714  2473.673397  2394.575279

                             ****ORCA TERMINATED NORMALLY****
TOTAL RUN TIME: 0 days 0 hours 0 minutes 31 seconds 256 msec
