                         Program Version 5.0.0 -  RELEASE  -
|  1> !CAM-B3LYP RIJCOSX def2-TZVP def2/J TightSCF
|  2> *xyz 0 1
|  3> C          4.49059        1.15590       -2.46929
|  4> C          4.30539        1.22276       -3.90832
|  5> C          4.63192        2.24637       -4.67096
|  6> N          4.54169        2.14399       -5.98714
|  7> N          5.08409        3.39358       -4.11855
|  8> H          4.92067        3.57050       -3.13587
|  9> H          5.25465        4.19739       -4.70696
| 10> H          3.82453        0.44911       -4.35093
| 11> H          4.34337        1.24932       -6.41665
| 12> H          4.67671        2.95662       -6.57411
| 13> C          5.94213        0.93950       -2.03689
| 14> H          3.86431        0.32853       -2.13661
| 15> H          4.07623        2.04999       -1.98901
| 16> H          6.32982        0.06401       -2.51451
| 17> H          5.98308        0.81426       -0.97504
| 18> H          6.52865        1.78889       -2.31873
| 19> *
| 20>
| 21> %MaxCore 64000
| 22>
| 23> %pal nprocs 4
| 24> end
| 25>
| 26> %scf
| 27>   MaxIter 150
| 28> end
| 29>
| 30>
| 31>                          ****END OF INPUT****

CARTESIAN COORDINATES (ANGSTROEM)
---------------------------------
  C      4.490590    1.155900   -2.469290
  C      4.305390    1.222760   -3.908320
  C      4.631920    2.246370   -4.670960
  N      4.541690    2.143990   -5.987140
  N      5.084090    3.393580   -4.118550
  H      4.920670    3.570500   -3.135870
  H      5.254650    4.197390   -4.706960
  H      3.824530    0.449110   -4.350930
  H      4.343370    1.249320   -6.416650
  H      4.676710    2.956620   -6.574110
  C      5.942130    0.939500   -2.036890
  H      3.864310    0.328530   -2.136610
  H      4.076230    2.049990   -1.989010
  H      6.329820    0.064010   -2.514510
  H      5.983080    0.814260   -0.975040
  H      6.528650    1.788890   -2.318730

 Total Charge           Charge          ....    0
 Multiplicity           Mult            ....    1
 Number of Electrons    NEL             ....   48
 Basis Dimension        Dim             ....  246

ORBITAL ENERGIES
----------------

  NO   OCC          E(Eh)            E(eV)
   0   2.0000     -14.386887      -391.4871
   1   2.0000     -14.384443      -391.4206
   2   2.0000     -10.285850      -279.8922
   3   2.0000     -10.213816      -277.9321
   4   2.0000     -10.201963      -277.6095
   5   2.0000     -10.159039      -276.4415
   6   2.0000      -1.041707       -28.3463
   7   2.0000      -0.949824       -25.8460
   8   2.0000      -0.852545       -23.1989
   9   2.0000      -0.772337       -21.0163
  10   2.0000      -0.692987       -18.8571
  11   2.0000      -0.649335       -17.6693
  12   2.0000      -0.611594       -16.6423
  13   2.0000      -0.578700       -15.7472
  14   2.0000      -0.541745       -14.7416
  15   2.0000      -0.504453       -13.7269
  16   2.0000      -0.489055       -13.3079
  17   2.0000      -0.456798       -12.4301
  18   2.0000      -0.451547       -12.2872
  19   2.0000      -0.413547       -11.2532
  20   2.0000      -0.391225       -10.6458
  21   2.0000      -0.379261       -10.3202
  22   2.0000      -0.328884        -8.9494
  23   2.0000      -0.215288        -5.8583
  24   0.0000       0.056884         1.5479
  25   0.0000       0.087182         2.3723
  26   0.0000       0.100197         2.7265
  27   0.0000       0.119198         3.2435
  28   0.0000       0.124205         3.3798

MULLIKEN ATOMIC CHARGES
-----------------------
   0 C :   -0.241225
   1 C :   -0.321252
   2 C :    0.349641
   3 N :   -0.461928
   4 N :   -0.482273
   5 H :    0.240733
   6 H :    0.208592
   7 H :    0.089252
   8 H :    0.238749
   9 H :    0.210626
  10 C :   -0.294590
  11 H :    0.090020
  12 H :    0.071973
  13 H :    0.102335
  14 H :    0.097695
  15 H :    0.101651
Sum of atomic charges:   -0.0000000

LOEWDIN ATOMIC CHARGES
----------------------
   0 C :   -0.308213
   1 C :   -0.286634
   2 C :   -0.448269
   3 N :   -0.013612
   4 N :   -0.023605
   5 H :    0.173219
   6 H :    0.159417
   7 H :    0.119196
   8 H :    0.177898
   9 H :    0.160705
  10 C :   -0.303730
  11 H :    0.138946
  12 H :    0.122200
  13 H :    0.113972
  14 H :    0.107435
  15 H :    0.111075

  Mayer bond orders larger than 0.100000
B(  0-C ,  1-C ) :   0.9973 B(  0-C , 10-C ) :   0.9331 B(  0-C , 11-H ) :   0.9903
B(  0-C , 12-H ) :   0.9884 B(  1-C ,  2-C ) :   1.6661 B(  1-C ,  7-H ) :   0.9917
B(  2-C ,  3-N ) :   1.1340 B(  2-C ,  4-N ) :   1.1173 B(  3-N ,  8-H ) :   0.9251
B(  3-N ,  9-H ) :   0.9300 B(  4-N ,  5-H ) :   0.9173 B(  4-N ,  6-H ) :   0.9348
B( 10-C , 13-H ) :   0.9819 B( 10-C , 14-H ) :   0.9836 B( 10-C , 15-H ) :   0.9790

FINAL SINGLE POINT ENERGY      -267.876238422305

DIPOLE MOMENT
-------------
                                X             Y             Z
Electronic contribution:     -1.25897       2.03245      -4.18209
Nuclear contribution   :      1.23062      -1.24683       3.43056
                        -----------------------------------------
Total Dipole Moment    :     -0.02836       0.78562      -0.75153
                        -----------------------------------------
Magnitude (a.u.)       :      1.08757
Magnitude (Debye)      :      2.76437

Rotational constants in cm-1:     0.231477     0.075416     0.065327
Rotational constants in MHz :  6939.497385  2260.912204  1958.442932

                             ****ORCA TERMINATED NORMALLY****
TOTAL RUN TIME: 0 days 0 hours 0 minutes 41 seconds 779 msec
