                         Program Version 5.0.0 -  RELEASE  -
|  1> !CAM-B3LYP RIJCOSX def2-TZVP def2/J TightSCF
|  2> *xyz 0 1
|  3> C          4.90646       -3.10282       -5.95484
|  4> C          3.51177       -2.80621       -6.49228
|  5> H          2.73604       -3.37345       -5.97374
|  6> H          3.44490       -3.04083       -7.55528
|  7> S          3.00462       -1.09621       -6.38926
|  8> O          4.12886       -0.32965       -6.95372
|  9> F          1.78128       -1.00078       -7.13640
| 10> O          2.85155       -0.78368       -4.95679
| 11> H          5.62703       -2.52424       -6.49422
| 12> H          5.12164       -4.14387       -6.07654
| 13> H          4.95004       -2.84862       -4.91639
| 14> *
| 15>
| 16> %MaxCore 64000
| 17>
| 18> %pal nprocs 4
| 19> end
| 20>
| 21> %scf
| 22>   MaxIter 150
| 23> end
| 24>
| 25>
| 26>                          ****END OF INPUT****

CARTESIAN COORDINATES (ANGSTROEM)
---------------------------------
  C      4.906460   -3.102820   -5.954840
  C      3.511770   -2.806210   -6.492280
  H      2.736040   -3.373450   -5.973740
  H      3.444900   -3.040830   -7.555280
  S      3.004620   -1.096210   -6.389260
  O      4.128860   -0.329650   -6.953720
  F      1.781280   -1.000780   -7.136400
  O      2.851550   -0.783680   -4.956790
  H      5.627030   -2.524240   -6.494220
  H      5.121640   -4.143870   -6.076540
  H      4.950040   -2.848620   -4.916390

 Total Charge           Charge          ....    0
 Multiplicity           Mult            ....    1
 Number of Electrons    NEL             ....   58
 Basis Dimension        Dim             ....  222

ORBITAL ENERGIES
----------------

  NO   OCC          E(Eh)            E(eV)
   0   2.0000     -89.178862     -2426.6802
   1   2.0000     -24.883507      -677.1147
   2   2.0000     -19.201450      -522.4980
   3   2.0000     -19.201412      -522.4970
   4   2.0000     -10.309800      -280.5439
   5   2.0000     -10.262470      -279.2560
   6   2.0000      -8.222669      -223.7502
   7   2.0000      -6.190475      -168.4514
   8   2.0000      -6.183937      -168.2735
   9   2.0000      -6.183762      -168.2687
  10   2.0000      -1.475034       -40.1377
  11   2.0000      -1.179334       -32.0913
  12   2.0000      -1.079622       -29.3780
  13   2.0000      -0.910463       -24.7749
  14   2.0000      -0.820652       -22.3311
  15   2.0000      -0.757640       -20.6164
  16   2.0000      -0.669102       -18.2072
  17   2.0000      -0.666925       -18.1479
  18   2.0000      -0.630551       -17.1582
  19   2.0000      -0.570388       -15.5210
  20   2.0000      -0.551321       -15.0022
  21   2.0000      -0.508612       -13.8400
  22   2.0000      -0.500964       -13.6319
  23   2.0000      -0.478377       -13.0173
  24   2.0000      -0.458002       -12.4629
  25   2.0000      -0.448371       -12.2008
  26   2.0000      -0.393126       -10.6975
  27   2.0000      -0.392063       -10.6686
  28   2.0000      -0.367689       -10.0053
  29   0.0000       0.061343         1.6692
  30   0.0000       0.076354         2.0777
  31   0.0000       0.103613         2.8195
  32   0.0000       0.106455         2.8968
  33   0.0000       0.120999         3.2925

MULLIKEN ATOMIC CHARGES
-----------------------
   0 C :   -0.353306
   1 C :   -0.229323
   2 H :    0.142754
   3 H :    0.135586
   4 S :    0.861114
   5 O :   -0.444044
   6 F :   -0.096997
   7 O :   -0.442810
   8 H :    0.150278
   9 H :    0.130273
  10 H :    0.146475
Sum of atomic charges:   -0.0000000

LOEWDIN ATOMIC CHARGES
----------------------
   0 C :   -0.299896
   1 C :   -0.397666
   2 H :    0.138601
   3 H :    0.137265
   4 S :    0.549630
   5 O :   -0.305395
   6 F :    0.103761
   7 O :   -0.308965
   8 H :    0.128687
   9 H :    0.125409
  10 H :    0.128571

  Mayer bond orders larger than 0.100000
B(  0-C ,  1-C ) :   0.9549 B(  0-C ,  8-H ) :   0.9681 B(  0-C ,  9-H ) :   0.9627
B(  0-C , 10-H ) :   0.9697 B(  1-C ,  2-H ) :   0.9392 B(  1-C ,  3-H ) :   0.9381
B(  1-C ,  4-S ) :   0.9189 B(  4-S ,  5-O ) :   1.8868 B(  4-S ,  6-F ) :   1.1508
B(  4-S ,  7-O ) :   1.9016

FINAL SINGLE POINT ENERGY      -727.720301671783

DIPOLE MOMENT
-------------
                                X             Y             Z
Electronic contribution:     -6.98289       7.05146      -2.07284
Nuclear contribution   :      6.63544      -8.66423       1.42287
                        -----------------------------------------
Total Dipole Moment    :     -0.34745      -1.61277      -0.64997
                        -----------------------------------------
Magnitude (a.u.)       :      1.77320
Magnitude (Debye)      :      4.50711

Rotational constants in cm-1:     0.158118     0.080978     0.078216
Rotational constants in MHz :  4740.271775  2427.649826  2344.849020

                             ****ORCA TERMINATED NORMALLY****
TOTAL RUN TIME: 0 days 0 hours 0 minutes 33 seconds 44 msec
