                         Program Version 5.0.0 -  RELEASE  -
|  1> !CAM-B3LYP RIJCOSX def2-TZVP def2/J TightSCF
|  2> *xyz 0 1
|  3> C          4.49059        1.15590       -2.46929
|  4> N          4.30539        1.22276       -3.90832
|  5> C          4.63192        2.24637       -4.67096
|  6> C          4.54169        2.14399       -5.98714
|  7> N          5.08409        3.39358       -4.11855
|  8> H          4.92067        3.57050       -3.13587
|  9> H          5.25465        4.19739       -4.70696
| 10> H          3.82453        0.44911       -4.35093
| 11> H          4.34337        1.24932       -6.41665
| 12> H          4.67671        2.95662       -6.57411
| 13> C          5.94213        0.93950       -2.03689
| 14> H          3.86431        0.32853       -2.13661
| 15> H          4.07623        2.04999       -1.98901
| 16> H          6.32982        0.06401       -2.51451
| 17> H          5.98308        0.81426       -0.97504
| 18> H          6.52865        1.78889       -2.31873
| 19> *
| 20>
| 21> %MaxCore 64000
| 22>
| 23> %pal nprocs 4
| 24> end
| 25>
| 26> %scf
| 27>   MaxIter 150
| 28> end
| 29>
| 30>
| 31>                          ****END OF INPUT****

CARTESIAN COORDINATES (ANGSTROEM)
---------------------------------
  C      4.490590    1.155900   -2.469290
  N      4.305390    1.222760   -3.908320
  C      4.631920    2.246370   -4.670960
  C      4.541690    2.143990   -5.987140
  N      5.084090    3.393580   -4.118550
  H      4.920670    3.570500   -3.135870
  H      5.254650    4.197390   -4.706960
  H      3.824530    0.449110   -4.350930
  H      4.343370    1.249320   -6.416650
  H      4.676710    2.956620   -6.574110
  C      5.942130    0.939500   -2.036890
  H      3.864310    0.328530   -2.136610
  H      4.076230    2.049990   -1.989010
  H      6.329820    0.064010   -2.514510
  H      5.983080    0.814260   -0.975040
  H      6.528650    1.788890   -2.318730

 Total Charge           Charge          ....    0
 Multiplicity           Mult            ....    1
 Number of Electrons    NEL             ....   48
 Basis Dimension        Dim             ....  246

ORBITAL ENERGIES
----------------

  NO   OCC          E(Eh)            E(eV)
   0   2.0000     -14.386868      -391.4866
   1   2.0000     -14.385409      -391.4469
   2   2.0000     -10.288704      -279.9699
   3   2.0000     -10.283620      -279.8315
   4   2.0000     -10.229376      -278.3555
   5   2.0000     -10.150044      -276.1968
   6   2.0000      -1.050765       -28.5928
   7   2.0000      -0.962232       -26.1837
   8   2.0000      -0.852124       -23.1875
   9   2.0000      -0.781176       -21.2569
  10   2.0000      -0.707659       -19.2564
  11   2.0000      -0.670745       -18.2519
  12   2.0000      -0.606584       -16.5060
  13   2.0000      -0.568151       -15.4602
  14   2.0000      -0.548184       -14.9169
  15   2.0000      -0.517281       -14.0759
  16   2.0000      -0.492651       -13.4057
  17   2.0000      -0.470414       -12.8006
  18   2.0000      -0.448000       -12.1907
  19   2.0000      -0.440239       -11.9795
  20   2.0000      -0.425633       -11.5820
  21   2.0000      -0.418503       -11.3880
  22   2.0000      -0.318100        -8.6559
  23   2.0000      -0.218929        -5.9574
  24   0.0000       0.058771         1.5992
  25   0.0000       0.084639         2.3032
  26   0.0000       0.097008         2.6397
  27   0.0000       0.110529         3.0077
  28   0.0000       0.132499         3.6055

MULLIKEN ATOMIC CHARGES
-----------------------
   0 C :   -0.184569
   1 N :   -0.299439
   2 C :    0.409914
   3 C :   -0.561831
   4 N :   -0.485337
   5 H :    0.220909
   6 H :    0.232551
   7 H :    0.219346
   8 H :    0.090372
   9 H :    0.085070
  10 C :   -0.275004
  11 H :    0.112705
  12 H :    0.104663
  13 H :    0.107973
  14 H :    0.106902
  15 H :    0.115775
Sum of atomic charges:   -0.0000000

LOEWDIN ATOMIC CHARGES
----------------------
   0 C :   -0.317171
   1 N :    0.118616
   2 C :   -0.452403
   3 C :   -0.343954
   4 N :   -0.021682
   5 H :    0.159729
   6 H :    0.174620
   7 H :    0.194658
   8 H :    0.096012
   9 H :    0.095294
  10 C :   -0.304132
  11 H :    0.131943
  12 H :    0.120621
  13 H :    0.116953
  14 H :    0.115080
  15 H :    0.115815

  Mayer bond orders larger than 0.100000
B(  0-C ,  1-N ) :   0.9604 B(  0-C , 10-C ) :   0.9223 B(  0-C , 11-H ) :   0.9784
B(  0-C , 12-H ) :   0.9934 B(  1-N ,  2-C ) :   1.1822 B(  1-N ,  7-H ) :   0.9324
B(  2-C ,  3-C ) :   1.5905 B(  2-C ,  4-N ) :   1.1107 B(  3-C ,  8-H ) :   1.0195
B(  3-C ,  9-H ) :   1.0082 B(  4-N ,  5-H ) :   0.9237 B(  4-N ,  6-H ) :   0.9293
B( 10-C , 13-H ) :   0.9737 B( 10-C , 14-H ) :   0.9728 B( 10-C , 15-H ) :   0.9736

FINAL SINGLE POINT ENERGY      -267.869993552208

DIPOLE MOMENT
-------------
                                X             Y             Z
Electronic contribution:     -1.42907       1.09281      -1.92522
Nuclear contribution   :      1.28075      -1.05140       2.98955
                        -----------------------------------------
Total Dipole Moment    :     -0.14832       0.04141       1.06434
                        -----------------------------------------
Magnitude (a.u.)       :      1.07542
Magnitude (Debye)      :      2.73350

Rotational constants in cm-1:     0.229858     0.078444     0.067377
Rotational constants in MHz :  6890.979812  2351.691803  2019.910665

                             ****ORCA TERMINATED NORMALLY****
TOTAL RUN TIME: 0 days 0 hours 0 minutes 44 seconds 929 msec
