                         Program Version 5.0.0 -  RELEASE  -
|  1> !CAM-B3LYP RIJCOSX def2-TZVP def2/J TightSCF
|  2> *xyz 0 1
|  3> C          4.90646       -3.10282       -5.95484
|  4> C          3.51177       -2.80621       -6.49228
|  5> H          2.73604       -3.37345       -5.97374
|  6> H          3.44490       -3.04083       -7.55528
|  7> S          3.00462       -1.09621       -6.38926
|  8> O          4.12886       -0.32965       -6.95372
|  9> O          1.78128       -1.00078       -7.13640
| 10> F          2.85155       -0.78368       -4.95679
| 11> H          5.62703       -2.52424       -6.49422
| 12> H          5.12164       -4.14387       -6.07654
| 13> H          4.95004       -2.84862       -4.91639
| 14> *
| 15>
| 16> %MaxCore 64000
| 17>
| 18> %pal nprocs 4
| 19> end
| 20>
| 21> %scf
| 22>   MaxIter 150
| 23> end
| 24>
| 25>
| 26>                          ****END OF INPUT****

CARTESIAN COORDINATES (ANGSTROEM)
---------------------------------
  C      4.906460   -3.102820   -5.954840
  C      3.511770   -2.806210   -6.492280
  H      2.736040   -3.373450   -5.973740
  H      3.444900   -3.040830   -7.555280
  S      3.004620   -1.096210   -6.389260
  O      4.128860   -0.329650   -6.953720
  O      1.781280   -1.000780   -7.136400
  F      2.851550   -0.783680   -4.956790
  H      5.627030   -2.524240   -6.494220
  H      5.121640   -4.143870   -6.076540
  H      4.950040   -2.848620   -4.916390

 Total Charge           Charge          ....    0
 Multiplicity           Mult            ....    1
 Number of Electrons    NEL             ....   58
 Basis Dimension        Dim             ....  222

ORBITAL ENERGIES
----------------

  NO   OCC          E(Eh)            E(eV)
   0   2.0000     -89.177052     -2426.6310
   1   2.0000     -24.864189      -676.5890
   2   2.0000     -19.214028      -522.8403
   3   2.0000     -19.201822      -522.5081
   4   2.0000     -10.308966      -280.5212
   5   2.0000     -10.264256      -279.3046
   6   2.0000      -8.220865      -223.7011
   7   2.0000      -6.188838      -168.4068
   8   2.0000      -6.182252      -168.2276
   9   2.0000      -6.181817      -168.2158
  10   2.0000      -1.443254       -39.2729
  11   2.0000      -1.193375       -32.4734
  12   2.0000      -1.094910       -29.7940
  13   2.0000      -0.911362       -24.7994
  14   2.0000      -0.805449       -21.9174
  15   2.0000      -0.754729       -20.5372
  16   2.0000      -0.659247       -17.9390
  17   2.0000      -0.645239       -17.5578
  18   2.0000      -0.622011       -16.9258
  19   2.0000      -0.568385       -15.4665
  20   2.0000      -0.551895       -15.0178
  21   2.0000      -0.526110       -14.3162
  22   2.0000      -0.503409       -13.6985
  23   2.0000      -0.477528       -12.9942
  24   2.0000      -0.469633       -12.7794
  25   2.0000      -0.448256       -12.1977
  26   2.0000      -0.405518       -11.0347
  27   2.0000      -0.394530       -10.7357
  28   2.0000      -0.380686       -10.3590
  29   0.0000       0.051636         1.4051
  30   0.0000       0.086108         2.3431
  31   0.0000       0.099667         2.7121
  32   0.0000       0.112324         3.0565
  33   0.0000       0.121469         3.3053

MULLIKEN ATOMIC CHARGES
-----------------------
   0 C :   -0.349460
   1 C :   -0.246189
   2 H :    0.142650
   3 H :    0.162495
   4 S :    0.864904
   5 O :   -0.451556
   6 O :   -0.405229
   7 F :   -0.128125
   8 H :    0.155559
   9 H :    0.130864
  10 H :    0.124087
Sum of atomic charges:    0.0000000

LOEWDIN ATOMIC CHARGES
----------------------
   0 C :   -0.312489
   1 C :   -0.393106
   2 H :    0.137902
   3 H :    0.152152
   4 S :    0.556552
   5 O :   -0.307875
   6 O :   -0.264097
   7 F :    0.057054
   8 H :    0.128294
   9 H :    0.124835
  10 H :    0.120778

  Mayer bond orders larger than 0.100000
B(  0-C ,  1-C ) :   0.9395 B(  0-C ,  8-H ) :   0.9667 B(  0-C ,  9-H ) :   0.9650
B(  0-C , 10-H ) :   0.9722 B(  1-C ,  2-H ) :   0.9466 B(  1-C ,  3-H ) :   0.9424
B(  1-C ,  4-S ) :   0.9137 B(  4-S ,  5-O ) :   1.8822 B(  4-S ,  6-O ) :   1.9644
B(  4-S ,  7-F ) :   1.1063

FINAL SINGLE POINT ENERGY      -727.736114799058

DIPOLE MOMENT
-------------
                                X             Y             Z
Electronic contribution:     -5.16149       7.41366       1.65856
Nuclear contribution   :      5.52019      -8.89046      -0.84835
                        -----------------------------------------
Total Dipole Moment    :      0.35870      -1.47679       0.81021
                        -----------------------------------------
Magnitude (a.u.)       :      1.72221
Magnitude (Debye)      :      4.37752

Rotational constants in cm-1:     0.153332     0.082132     0.079755
Rotational constants in MHz :  4596.775407  2462.251277  2391.008596

                             ****ORCA TERMINATED NORMALLY****
TOTAL RUN TIME: 0 days 0 hours 0 minutes 31 seconds 248 msec
