                         Program Version 5.0.0 -  RELEASE  -
|  1> !CAM-B3LYP RIJCOSX def2-TZVP def2/J TightSCF
|  2> *xyz 0 1
|  3> C          4.49059        1.15590       -2.46929
|  4> N          4.30539        1.22276       -3.90832
|  5> C          4.63192        2.24637       -4.67096
|  6> N          4.54169        2.14399       -5.98714
|  7> C          5.08409        3.39358       -4.11855
|  8> H          4.92067        3.57050       -3.13587
|  9> H          5.25465        4.19739       -4.70696
| 10> H          3.82453        0.44911       -4.35093
| 11> H          4.34337        1.24932       -6.41665
| 12> H          4.67671        2.95662       -6.57411
| 13> C          5.94213        0.93950       -2.03689
| 14> H          3.86431        0.32853       -2.13661
| 15> H          4.07623        2.04999       -1.98901
| 16> H          6.32982        0.06401       -2.51451
| 17> H          5.98308        0.81426       -0.97504
| 18> H          6.52865        1.78889       -2.31873
| 19> *
| 20>
| 21> %MaxCore 64000
| 22>
| 23> %pal nprocs 4
| 24> end
| 25>
| 26> %scf
| 27>   MaxIter 150
| 28> end
| 29>
| 30>
| 31>                          ****END OF INPUT****

CARTESIAN COORDINATES (ANGSTROEM)
---------------------------------
  C      4.490590    1.155900   -2.469290
  N      4.305390    1.222760   -3.908320
  C      4.631920    2.246370   -4.670960
  N      4.541690    2.143990   -5.987140
  C      5.084090    3.393580   -4.118550
  H      4.920670    3.570500   -3.135870
  H      5.254650    4.197390   -4.706960
  H      3.824530    0.449110   -4.350930
  H      4.343370    1.249320   -6.416650
  H      4.676710    2.956620   -6.574110
  C      5.942130    0.939500   -2.036890
  H      3.864310    0.328530   -2.136610
  H      4.076230    2.049990   -1.989010
  H      6.329820    0.064010   -2.514510
  H      5.983080    0.814260   -0.975040
  H      6.528650    1.788890   -2.318730

 Total Charge           Charge          ....    0
 Multiplicity           Mult            ....    1
 Number of Electrons    NEL             ....   48
 Basis Dimension        Dim             ....  246

ORBITAL ENERGIES
----------------

  NO   OCC          E(Eh)            E(eV)
   0   2.0000     -14.390560      -391.5870
   1   2.0000     -14.387653      -391.5079
   2   2.0000     -10.291373      -280.0425
   3   2.0000     -10.275019      -279.5975
   4   2.0000     -10.218774      -278.0670
   5   2.0000     -10.149768      -276.1892
   6   2.0000      -1.054542       -28.6955
   7   2.0000      -0.969230       -26.3741
   8   2.0000      -0.832523       -22.6541
   9   2.0000      -0.785640       -21.3783
  10   2.0000      -0.716598       -19.4996
  11   2.0000      -0.635085       -17.2815
  12   2.0000      -0.623455       -16.9651
  13   2.0000      -0.591816       -16.1041
  14   2.0000      -0.539072       -14.6689
  15   2.0000      -0.507842       -13.8191
  16   2.0000      -0.480792       -13.0830
  17   2.0000      -0.463219       -12.6048
  18   2.0000      -0.446613       -12.1529
  19   2.0000      -0.429707       -11.6929
  20   2.0000      -0.427326       -11.6281
  21   2.0000      -0.409642       -11.1469
  22   2.0000      -0.313330        -8.5261
  23   2.0000      -0.219438        -5.9712
  24   0.0000       0.057807         1.5730
  25   0.0000       0.086290         2.3481
  26   0.0000       0.099556         2.7091
  27   0.0000       0.113781         3.0961
  28   0.0000       0.128581         3.4989

MULLIKEN ATOMIC CHARGES
-----------------------
   0 C :   -0.135796
   1 N :   -0.310345
   2 C :    0.377226
   3 N :   -0.465285
   4 C :   -0.549368
   5 H :    0.096203
   6 H :    0.071573
   7 H :    0.191054
   8 H :    0.211470
   9 H :    0.242044
  10 C :   -0.297242
  11 H :    0.105234
  12 H :    0.117293
  13 H :    0.094279
  14 H :    0.106656
  15 H :    0.145001
Sum of atomic charges:    0.0000000

LOEWDIN ATOMIC CHARGES
----------------------
   0 C :   -0.300302
   1 N :    0.115924
   2 C :   -0.460383
   3 N :   -0.009016
   4 C :   -0.359768
   5 H :    0.096341
   6 H :    0.091685
   7 H :    0.177966
   8 H :    0.161158
   9 H :    0.178741
  10 C :   -0.301984
  11 H :    0.128519
  12 H :    0.129637
  13 H :    0.112875
  14 H :    0.115205
  15 H :    0.123401

  Mayer bond orders larger than 0.100000
B(  0-C ,  1-N ) :   0.9506 B(  0-C , 10-C ) :   0.9386 B(  0-C , 11-H ) :   0.9763
B(  0-C , 12-H ) :   0.9851 B(  1-N ,  2-C ) :   1.1722 B(  1-N ,  7-H ) :   0.9361
B(  2-C ,  3-N ) :   1.1346 B(  2-C ,  4-C ) :   1.6050 B(  3-N ,  8-H ) :   0.9312
B(  3-N ,  9-H ) :   0.9237 B(  4-C ,  5-H ) :   1.0017 B(  4-C ,  6-H ) :   1.0066
B( 10-C , 13-H ) :   0.9748 B( 10-C , 14-H ) :   0.9760 B( 10-C , 15-H ) :   0.9741

FINAL SINGLE POINT ENERGY      -267.868687586088

DIPOLE MOMENT
-------------
                                X             Y             Z
Electronic contribution:     -1.92323      -0.17975      -3.88285
Nuclear contribution   :      1.39581      -0.78630       3.38596
                        -----------------------------------------
Total Dipole Moment    :     -0.52742      -0.96605      -0.49688
                        -----------------------------------------
Magnitude (a.u.)       :      1.20761
Magnitude (Debye)      :      3.06950

Rotational constants in cm-1:     0.239249     0.075811     0.066261
Rotational constants in MHz :  7172.504830  2272.756282  1986.457543

                             ****ORCA TERMINATED NORMALLY****
TOTAL RUN TIME: 0 days 0 hours 0 minutes 41 seconds 839 msec
