                         Program Version 5.0.0 -  RELEASE  -
|  1> !CAM-B3LYP RIJCOSX def2-TZVP def2/J TightSCF xyzfile
|  2>
|  3> *xyzfile 0 1 D5.xyz
|  4>
|  5> %MaxCore 64000
|  6>
|  7> %pal nprocs 18
|  8> end
|  9>
| 10> %scf
| 11>   MaxIter 150
| 12> end
| 13>
| 14>
| 15>                          ****END OF INPUT****

CARTESIAN COORDINATES (ANGSTROEM)
---------------------------------
  C      4.490588    1.155899   -2.469290
  N      4.305394    1.222762   -3.908317
  C      4.906458   -3.102816   -5.954844
  C      3.511771   -2.806215   -6.492283
  H      2.736044   -3.373445   -5.973736
  H      3.444904   -3.040831   -7.555281
  S      3.004618   -1.096206   -6.389259
  C      4.631918    2.246365   -4.670958
  C      4.541686    2.143990   -5.987139
  N      5.084086    3.393584   -4.118545
  H      4.920675    3.570501   -3.135870
  H      5.254652    4.197390   -4.706956
  H      3.824530    0.449113   -4.350926
  H      4.343373    1.249318   -6.416646
  H      4.676712    2.956624   -6.574113
  O      4.128856   -0.329647   -6.953717
  F      1.781285   -1.000779   -7.136399
  C      5.942129    0.939500   -2.036893
  H      3.864305    0.328532   -2.136611
  H      4.076233    2.049994   -1.989010
  C      6.462677   -3.117775   -3.944671
  C      5.024977   -3.025679   -4.437625
  H      4.423321   -3.818693   -3.977648
  H      4.579350   -2.087131   -4.108727
  H      5.201533   -4.100207   -6.296905
  H      5.605922   -2.397822   -6.413368
  C      6.559957   -0.356290   -2.559086
  H      5.967976    0.952567   -0.942444
  H      6.547184    1.788331   -2.368849
  C      6.006283   -1.615917   -1.899301
  H      7.642360   -0.318000   -2.402059
  H      6.414855   -0.403433   -3.642587
  C      6.608718   -2.917014   -2.435655
  H      6.190324   -1.561115   -0.820948
  H      4.919250   -1.651245   -2.016586
  H      7.066975   -2.374258   -4.475514
  H      6.887808   -4.089747   -4.215332
  H      6.135197   -3.755573   -1.915159
  H      7.671142   -2.955503   -2.172291
  O      2.851546   -0.783683   -4.956789

 Total Charge           Charge          ....    0
 Multiplicity           Mult            ....    1
 Number of Electrons    NEL             ....  144
 Basis Dimension        Dim             ....  671

ORBITAL ENERGIES
----------------

  NO   OCC          E(Eh)            E(eV)
   0   2.0000     -89.193909     -2427.0897
   1   2.0000     -24.893887      -677.3971
   2   2.0000     -19.222116      -523.0604
   3   2.0000     -19.211676      -522.7763
   4   2.0000     -14.359422      -390.7397
   5   2.0000     -14.345282      -390.3550
   6   2.0000     -10.314391      -280.6688
   7   2.0000     -10.273146      -279.5465
   8   2.0000     -10.257643      -279.1246
   9   2.0000     -10.256603      -279.0964
  10   2.0000     -10.244989      -278.7803
  11   2.0000     -10.239591      -278.6334
  12   2.0000     -10.235653      -278.5263
  13   2.0000     -10.229704      -278.3644
  14   2.0000     -10.223646      -278.1995
  15   2.0000     -10.223163      -278.1864
  16   2.0000     -10.109326      -275.0887
  17   2.0000      -8.237883      -224.1642
  18   2.0000      -6.205649      -168.8643
  19   2.0000      -6.199243      -168.6900
  20   2.0000      -6.198900      -168.6807
  21   2.0000      -1.485303       -40.4172
  22   2.0000      -1.199621       -32.6434
  23   2.0000      -1.100531       -29.9470
  24   2.0000      -1.019718       -27.7479
  25   2.0000      -0.934906       -25.4401
  26   2.0000      -0.929577       -25.2951
  27   2.0000      -0.893434       -24.3116
  28   2.0000      -0.863742       -23.5036
  29   2.0000      -0.833272       -22.6745
  30   2.0000      -0.807291       -21.9675
  31   2.0000      -0.779189       -21.2028
  32   2.0000      -0.748942       -20.3797
  33   2.0000      -0.721588       -19.6354
  34   2.0000      -0.699337       -19.0299
  35   2.0000      -0.681798       -18.5527
  36   2.0000      -0.668626       -18.1942
  37   2.0000      -0.666665       -18.1409
  38   2.0000      -0.652860       -17.7652
  39   2.0000      -0.633772       -17.2458
  40   2.0000      -0.622428       -16.9371
  41   2.0000      -0.585872       -15.9424
  42   2.0000      -0.576822       -15.6961
  43   2.0000      -0.561986       -15.2924
  44   2.0000      -0.549207       -14.9447
  45   2.0000      -0.544454       -14.8153
  46   2.0000      -0.532657       -14.4943
  47   2.0000      -0.531206       -14.4548
  48   2.0000      -0.518323       -14.1043
  49   2.0000      -0.510445       -13.8899
  50   2.0000      -0.499697       -13.5974
  51   2.0000      -0.492664       -13.4061
  52   2.0000      -0.483749       -13.1635
  53   2.0000      -0.465124       -12.6567
  54   2.0000      -0.456360       -12.4182
  55   2.0000      -0.453050       -12.3281
  56   2.0000      -0.443335       -12.0638
  57   2.0000      -0.437983       -11.9181
  58   2.0000      -0.425075       -11.5669
  59   2.0000      -0.421376       -11.4662
  60   2.0000      -0.419321       -11.4103
  61   2.0000      -0.411790       -11.2054
  62   2.0000      -0.402467       -10.9517
  63   2.0000      -0.396460       -10.7882
  64   2.0000      -0.390608       -10.6290
  65   2.0000      -0.383351       -10.4315
  66   2.0000      -0.373350       -10.1594
  67   2.0000      -0.371867       -10.1190
  68   2.0000      -0.365344        -9.9415
  69   2.0000      -0.354951        -9.6587
  70   2.0000      -0.288555        -7.8520
  71   2.0000      -0.187548        -5.1034
  72   0.0000       0.056192         1.5291
  73   0.0000       0.061289         1.6678
  74   0.0000       0.076613         2.0847
  75   0.0000       0.083380         2.2689
  76   0.0000       0.085380         2.3233

MULLIKEN ATOMIC CHARGES
-----------------------
   0 C :   -0.267010
   1 N :   -0.292236
   2 C :   -0.216351
   3 C :   -0.235715
   4 H :    0.147856
   5 H :    0.160162
   6 S :    0.901822
   7 C :    0.406505
   8 C :   -0.616157
   9 N :   -0.495060
  10 H :    0.214047
  11 H :    0.224190
  12 H :    0.241822
  13 H :    0.140052
  14 H :    0.070698
  15 O :   -0.421799
  16 F :   -0.092442
  17 C :   -0.101980
  18 H :    0.133073
  19 H :    0.114055
  20 C :   -0.232196
  21 C :   -0.263937
  22 H :    0.098337
  23 H :    0.141117
  24 H :    0.125163
  25 H :    0.156152
  26 C :   -0.232301
  27 H :    0.082890
  28 H :    0.112167
  29 C :   -0.253393
  30 H :    0.100572
  31 H :    0.135248
  32 C :   -0.161772
  33 H :    0.103131
  34 H :    0.114437
  35 H :    0.127814
  36 H :    0.103888
  37 H :    0.100871
  38 H :    0.105723
  39 O :   -0.479442
Sum of atomic charges:   -0.0000000

LOEWDIN ATOMIC CHARGES
----------------------
   0 C :   -0.298534
   1 N :    0.118728
   2 C :   -0.272380
   3 C :   -0.365378
   4 H :    0.142136
   5 H :    0.142854
   6 S :    0.579518
   7 C :   -0.461712
   8 C :   -0.360644
   9 N :   -0.029922
  10 H :    0.155543
  11 H :    0.169953
  12 H :    0.167048
  13 H :    0.085102
  14 H :    0.088903
  15 O :   -0.255790
  16 F :    0.112747
  17 C :   -0.271577
  18 H :    0.132831
  19 H :    0.121230
  20 C :   -0.268728
  21 C :   -0.270278
  22 H :    0.135891
  23 H :    0.141126
  24 H :    0.146660
  25 H :    0.151940
  26 C :   -0.267126
  27 H :    0.132671
  28 H :    0.136196
  29 C :   -0.271213
  30 H :    0.135538
  31 H :    0.141046
  32 C :   -0.266297
  33 H :    0.135079
  34 H :    0.131737
  35 H :    0.138713
  36 H :    0.134170
  37 H :    0.134533
  38 H :    0.136445
  39 O :   -0.288760

  Mayer bond orders larger than 0.100000
B(  0-C ,  1-N ) :   0.9509 B(  0-C , 17-C ) :   0.8972 B(  0-C , 18-H ) :   0.9961
B(  0-C , 19-H ) :   0.9985 B(  1-N ,  7-C ) :   1.1871 B(  1-N , 12-H ) :   0.8840
B(  2-C ,  3-C ) :   0.9491 B(  2-C , 21-C ) :   0.9529 B(  2-C , 24-H ) :   0.9622
B(  2-C , 25-H ) :   0.9664 B(  3-C ,  4-H ) :   0.9410 B(  3-C ,  5-H ) :   0.9490
B(  3-C ,  6-S ) :   0.9280 B(  6-S , 15-O ) :   1.8451 B(  6-S , 16-F ) :   1.1632
B(  6-S , 39-O ) :   1.7674 B(  7-C ,  8-C ) :   1.5722 B(  7-C ,  9-N ) :   1.0957
B(  8-C , 13-H ) :   1.0208 B(  8-C , 14-H ) :   1.0049 B(  9-N , 10-H ) :   0.9269
B(  9-N , 11-H ) :   0.9321 B( 17-C , 26-C ) :   0.9556 B( 17-C , 27-H ) :   0.9743
B( 17-C , 28-H ) :   0.9726 B( 20-C , 21-C ) :   0.9420 B( 20-C , 32-C ) :   0.9542
B( 20-C , 35-H ) :   0.9857 B( 20-C , 36-H ) :   0.9788 B( 21-C , 22-H ) :   0.9696
B( 21-C , 23-H ) :   0.9745 B( 26-C , 29-C ) :   0.9258 B( 26-C , 30-H ) :   0.9772
B( 26-C , 31-H ) :   0.9729 B( 29-C , 32-C ) :   0.9491 B( 29-C , 33-H ) :   0.9763
B( 29-C , 34-H ) :   0.9900 B( 32-C , 37-H ) :   0.9878 B( 32-C , 38-H ) :   0.9833

FINAL SINGLE POINT ENERGY     -1190.884953528526

DIPOLE MOMENT
-------------
                                X             Y             Z
Electronic contribution:    -20.64577       2.65099     -20.20667
Nuclear contribution   :     20.03262      -4.53368      20.24480
                        -----------------------------------------
Total Dipole Moment    :     -0.61314      -1.88269       0.03812
                        -----------------------------------------
Magnitude (a.u.)       :      1.98039
Magnitude (Debye)      :      5.03375

Rotational constants in cm-1:     0.014367     0.012055     0.007393
Rotational constants in MHz :   430.711297   361.391195   221.649333

                             ****ORCA TERMINATED NORMALLY****
TOTAL RUN TIME: 0 days 0 hours 2 minutes 52 seconds 516 msec
