                         Program Version 5.0.0 -  RELEASE  -
|  1> !CAM-B3LYP RIJCOSX def2-TZVP def2/J TightSCF xyzfile
|  2>
|  3> *xyzfile 0 1 D9.xyz
|  4>
|  5> %MaxCore 64000
|  6>
|  7> %pal nprocs 18
|  8> end
|  9>
| 10> %scf
| 11>   MaxIter 150
| 12> end
| 13>
| 14>
| 15>                          ****END OF INPUT****

CARTESIAN COORDINATES (ANGSTROEM)
---------------------------------
  C      4.490588    1.155899   -2.469290
  N      4.305394    1.222762   -3.908317
  C      4.906458   -3.102816   -5.954844
  C      3.511771   -2.806215   -6.492283
  H      2.736044   -3.373445   -5.973736
  H      3.444904   -3.040831   -7.555281
  S      3.004618   -1.096206   -6.389259
  C      4.631918    2.246365   -4.670958
  N      4.541686    2.143990   -5.987139
  C      5.084086    3.393584   -4.118545
  H      4.920675    3.570501   -3.135870
  H      5.254652    4.197390   -4.706956
  H      3.824530    0.449113   -4.350926
  H      4.343373    1.249318   -6.416646
  H      4.676712    2.956624   -6.574113
  O      4.128856   -0.329647   -6.953717
  O      1.781285   -1.000779   -7.136399
  C      5.942129    0.939500   -2.036893
  H      3.864305    0.328532   -2.136611
  H      4.076233    2.049994   -1.989010
  C      6.462677   -3.117775   -3.944671
  C      5.024977   -3.025679   -4.437625
  H      4.423321   -3.818693   -3.977648
  H      4.579350   -2.087131   -4.108727
  H      5.201533   -4.100207   -6.296905
  H      5.605922   -2.397822   -6.413368
  C      6.559957   -0.356290   -2.559086
  H      5.967976    0.952567   -0.942444
  H      6.547184    1.788331   -2.368849
  C      6.006283   -1.615917   -1.899301
  H      7.642360   -0.318000   -2.402059
  H      6.414855   -0.403433   -3.642587
  C      6.608718   -2.917014   -2.435655
  H      6.190324   -1.561115   -0.820948
  H      4.919250   -1.651245   -2.016586
  H      7.066975   -2.374258   -4.475514
  H      6.887808   -4.089747   -4.215332
  H      6.135197   -3.755573   -1.915159
  H      7.671142   -2.955503   -2.172291
  F      2.851546   -0.783683   -4.956789

 Total Charge           Charge          ....    0
 Multiplicity           Mult            ....    1
 Number of Electrons    NEL             ....  144
 Basis Dimension        Dim             ....  671

ORBITAL ENERGIES
----------------

  NO   OCC          E(Eh)            E(eV)
   0   2.0000     -89.204341     -2427.3735
   1   2.0000     -24.896981      -677.4813
   2   2.0000     -19.238100      -523.4953
   3   2.0000     -19.234583      -523.3996
   4   2.0000     -14.375039      -391.1647
   5   2.0000     -14.352292      -390.5457
   6   2.0000     -10.323550      -280.9181
   7   2.0000     -10.281684      -279.7789
   8   2.0000     -10.273608      -279.5591
   9   2.0000     -10.267237      -279.3857
  10   2.0000     -10.264309      -279.3060
  11   2.0000     -10.251937      -278.9694
  12   2.0000     -10.245297      -278.7887
  13   2.0000     -10.239253      -278.6242
  14   2.0000     -10.231331      -278.4087
  15   2.0000     -10.226358      -278.2733
  16   2.0000     -10.134295      -275.7682
  17   2.0000      -8.248652      -224.4572
  18   2.0000      -6.216772      -169.1670
  19   2.0000      -6.209925      -168.9806
  20   2.0000      -6.209366      -168.9654
  21   2.0000      -1.479646       -40.2632
  22   2.0000      -1.222411       -33.2635
  23   2.0000      -1.127576       -30.6829
  24   2.0000      -1.037769       -28.2391
  25   2.0000      -0.950130       -25.8544
  26   2.0000      -0.942221       -25.6391
  27   2.0000      -0.903703       -24.5910
  28   2.0000      -0.869950       -23.6725
  29   2.0000      -0.837858       -22.7993
  30   2.0000      -0.814998       -22.1772
  31   2.0000      -0.781019       -21.2526
  32   2.0000      -0.768074       -20.9003
  33   2.0000      -0.742135       -20.1945
  34   2.0000      -0.718354       -19.5474
  35   2.0000      -0.693021       -18.8581
  36   2.0000      -0.682222       -18.5642
  37   2.0000      -0.673818       -18.3355
  38   2.0000      -0.656095       -17.8532
  39   2.0000      -0.640842       -17.4382
  40   2.0000      -0.611275       -16.6336
  41   2.0000      -0.598109       -16.2754
  42   2.0000      -0.588046       -16.0016
  43   2.0000      -0.580558       -15.7978
  44   2.0000      -0.566032       -15.4025
  45   2.0000      -0.563359       -15.3298
  46   2.0000      -0.546753       -14.8779
  47   2.0000      -0.543342       -14.7851
  48   2.0000      -0.524871       -14.2825
  49   2.0000      -0.520161       -14.1543
  50   2.0000      -0.508170       -13.8280
  51   2.0000      -0.506347       -13.7784
  52   2.0000      -0.488958       -13.3052
  53   2.0000      -0.480091       -13.0639
  54   2.0000      -0.466275       -12.6880
  55   2.0000      -0.460028       -12.5180
  56   2.0000      -0.453080       -12.3289
  57   2.0000      -0.444208       -12.0875
  58   2.0000      -0.438250       -11.9254
  59   2.0000      -0.431391       -11.7387
  60   2.0000      -0.427379       -11.6296
  61   2.0000      -0.422888       -11.5074
  62   2.0000      -0.417018       -11.3476
  63   2.0000      -0.411743       -11.2041
  64   2.0000      -0.409349       -11.1390
  65   2.0000      -0.403391       -10.9768
  66   2.0000      -0.399747       -10.8777
  67   2.0000      -0.382991       -10.4217
  68   2.0000      -0.381742       -10.3877
  69   2.0000      -0.372424       -10.1342
  70   2.0000      -0.294427        -8.0118
  71   2.0000      -0.203713        -5.5433
  72   0.0000       0.036255         0.9865
  73   0.0000       0.057751         1.5715
  74   0.0000       0.069453         1.8899
  75   0.0000       0.072939         1.9848
  76   0.0000       0.083469         2.2713

MULLIKEN ATOMIC CHARGES
-----------------------
   0 C :   -0.216999
   1 N :   -0.304098
   2 C :   -0.199852
   3 C :   -0.256748
   4 H :    0.158883
   5 H :    0.184708
   6 S :    0.883673
   7 C :    0.373044
   8 N :   -0.485735
   9 C :   -0.563842
  10 H :    0.092205
  11 H :    0.069186
  12 H :    0.176516
  13 H :    0.247548
  14 H :    0.226861
  15 O :   -0.468238
  16 O :   -0.390168
  17 C :   -0.115162
  18 H :    0.121303
  19 H :    0.133368
  20 C :   -0.233531
  21 C :   -0.260652
  22 H :    0.112437
  23 H :    0.088572
  24 H :    0.126953
  25 H :    0.156187
  26 C :   -0.237479
  27 H :    0.090362
  28 H :    0.141545
  29 C :   -0.250673
  30 H :    0.107090
  31 H :    0.121442
  32 C :   -0.166341
  33 H :    0.109494
  34 H :    0.104745
  35 H :    0.130512
  36 H :    0.111657
  37 H :    0.104456
  38 H :    0.110753
  39 F :   -0.133983
Sum of atomic charges:   -0.0000000

LOEWDIN ATOMIC CHARGES
----------------------
   0 C :   -0.280702
   1 N :    0.110111
   2 C :   -0.281358
   3 C :   -0.357504
   4 H :    0.144458
   5 H :    0.157690
   6 S :    0.575585
   7 C :   -0.463588
   8 N :   -0.013734
   9 C :   -0.369905
  10 H :    0.093435
  11 H :    0.090189
  12 H :    0.154961
  13 H :    0.136787
  14 H :    0.173109
  15 O :   -0.279284
  16 O :   -0.245805
  17 C :   -0.264766
  18 H :    0.127193
  19 H :    0.133466
  20 C :   -0.266695
  21 C :   -0.274115
  22 H :    0.138362
  23 H :    0.129522
  24 H :    0.146964
  25 H :    0.150109
  26 C :   -0.268450
  27 H :    0.135337
  28 H :    0.146165
  29 C :   -0.271985
  30 H :    0.137469
  31 H :    0.135930
  32 C :   -0.265842
  33 H :    0.137173
  34 H :    0.127688
  35 H :    0.139562
  36 H :    0.136973
  37 H :    0.135218
  38 H :    0.138255
  39 F :    0.072021

  Mayer bond orders larger than 0.100000
B(  0-C ,  1-N ) :   0.9363 B(  0-C , 17-C ) :   0.9218 B(  0-C , 18-H ) :   0.9954
B(  0-C , 19-H ) :   0.9870 B(  1-N ,  7-C ) :   1.1561 B(  1-N , 12-H ) :   0.9258
B(  2-C ,  3-C ) :   0.9264 B(  2-C , 21-C ) :   0.9428 B(  2-C , 24-H ) :   0.9595
B(  2-C , 25-H ) :   0.9677 B(  3-C ,  4-H ) :   0.9518 B(  3-C ,  5-H ) :   0.9514
B(  3-C ,  6-S ) :   0.9151 B(  6-S , 15-O ) :   1.7644 B(  6-S , 16-O ) :   2.0059
B(  6-S , 39-F ) :   1.0527 B(  7-C ,  8-N ) :   1.1652 B(  7-C ,  9-C ) :   1.6023
B(  8-N , 13-H ) :   0.8702 B(  8-N , 14-H ) :   0.9313 B(  9-C , 10-H ) :   1.0023
B(  9-C , 11-H ) :   1.0060 B( 17-C , 26-C ) :   0.9588 B( 17-C , 27-H ) :   0.9804
B( 17-C , 28-H ) :   0.9666 B( 20-C , 21-C ) :   0.9466 B( 20-C , 32-C ) :   0.9501
B( 20-C , 35-H ) :   0.9856 B( 20-C , 36-H ) :   0.9792 B( 21-C , 22-H ) :   0.9679
B( 21-C , 23-H ) :   0.9796 B( 26-C , 29-C ) :   0.9182 B( 26-C , 30-H ) :   0.9782
B( 26-C , 31-H ) :   0.9754 B( 29-C , 32-C ) :   0.9460 B( 29-C , 33-H ) :   0.9761
B( 29-C , 34-H ) :   0.9928 B( 32-C , 37-H ) :   0.9888 B( 32-C , 38-H ) :   0.9827

FINAL SINGLE POINT ENERGY     -1190.906208936859

DIPOLE MOMENT
-------------
                                X             Y             Z
Electronic contribution:    -18.98837       1.81687     -17.86926
Nuclear contribution   :     18.85717      -4.60195      17.96505
                        -----------------------------------------
Total Dipole Moment    :     -0.13120      -2.78508       0.09579
                        -----------------------------------------
Magnitude (a.u.)       :      2.78981
Magnitude (Debye)      :      7.09114

Rotational constants in cm-1:     0.014436     0.012382     0.007563
Rotational constants in MHz :   432.785702   371.214592   226.743759

                             ****ORCA TERMINATED NORMALLY****
TOTAL RUN TIME: 0 days 0 hours 2 minutes 52 seconds 164 msec
