                         Program Version 5.0.0 -  RELEASE  -
|  1> !LC-PBE RIJCOSX def2-TZVPD def2/J TightSCF
|  2> *xyz -1 1
|  3> C          0.96805        1.63064       -3.71575
|  4> C         -0.50835        1.72268       -4.12430
|  5> S         -1.32861        0.14674       -4.43578
|  6> H         -0.59151        2.29496       -5.04722
|  7> H         -1.11411        2.23561       -3.37436
|  8> O         -2.57135        0.47573       -5.06834
|  9> O         -1.51496       -0.40051       -3.06342
| 10> O         -0.37793       -0.62756       -5.20114
| 11> H          1.51840        1.12197       -4.47946
| 12> H          1.05062        1.08971       -2.79625
| 13> H          1.36450        2.61606       -3.58668
| 14> *
| 15> %MaxCore 64000
| 16>
| 17> %pal nprocs 4
| 18> end
| 19>
| 20> %scf
| 21>   MaxIter 150
| 22> end
| 23>
| 24>
| 25>                          ****END OF INPUT****

CARTESIAN COORDINATES (ANGSTROEM)
---------------------------------
  C      0.968050    1.630640   -3.715750
  C     -0.508350    1.722680   -4.124300
  S     -1.328610    0.146740   -4.435780
  H     -0.591510    2.294960   -5.047220
  H     -1.114110    2.235610   -3.374360
  O     -2.571350    0.475730   -5.068340
  O     -1.514960   -0.400510   -3.063420
  O     -0.377930   -0.627560   -5.201140
  H      1.518400    1.121970   -4.479460
  H      1.050620    1.089710   -2.796250
  H      1.364500    2.616060   -3.586680

 Total Charge           Charge          ....   -1
 Multiplicity           Mult            ....    1
 Number of Electrons    NEL             ....   58
 Basis Dimension        Dim             ....  285

ORBITAL ENERGIES
----------------

  NO   OCC          E(Eh)            E(eV)
   0   2.0000     -88.271063     -2401.9777
   1   2.0000     -18.763284      -510.5749
   2   2.0000     -18.759593      -510.4745
   3   2.0000     -18.743328      -510.0319
   4   2.0000      -9.976508      -271.4746
   5   2.0000      -9.968089      -271.2455
   6   2.0000      -7.881961      -214.4791
   7   2.0000      -5.898975      -160.5193
   8   2.0000      -5.897329      -160.4745
   9   2.0000      -5.896986      -160.4652
  10   2.0000      -1.103070       -30.0161
  11   2.0000      -0.962747       -26.1977
  12   2.0000      -0.932300       -25.3692
  13   2.0000      -0.807450       -21.9718
  14   2.0000      -0.670915       -18.2565
  15   2.0000      -0.532803       -14.4983
  16   2.0000      -0.466698       -12.6995
  17   2.0000      -0.462028       -12.5724
  18   2.0000      -0.421906       -11.4806
  19   2.0000      -0.409980       -11.1561
  20   2.0000      -0.397202       -10.8084
  21   2.0000      -0.363211        -9.8835
  22   2.0000      -0.344681        -9.3792
  23   2.0000      -0.296897        -8.0790
  24   2.0000      -0.295187        -8.0324
  25   2.0000      -0.258082        -7.0228
  26   2.0000      -0.242896        -6.6095
  27   2.0000      -0.229731        -6.2513
  28   2.0000      -0.199699        -5.4341
  29   0.0000       0.171972         4.6796
  30   0.0000       0.181303         4.9335
  31   0.0000       0.182657         4.9704
  32   0.0000       0.189980         5.1696
  33   0.0000       0.217085         5.9072

MULLIKEN ATOMIC CHARGES
-----------------------
   0 C :   -1.152364
   1 C :   -0.649314
   2 S :    1.063168
   3 H :    0.373038
   4 H :    0.366871
   5 O :   -0.653056
   6 O :   -0.720785
   7 O :   -0.673708
   8 H :    0.350124
   9 H :    0.325114
  10 H :    0.370911
Sum of atomic charges:   -1.0000000

LOEWDIN ATOMIC CHARGES
----------------------
   0 C :   -0.165527
   1 C :   -0.343749
   2 S :    0.319161
   3 H :    0.088009
   4 H :    0.092999
   5 O :   -0.377369
   6 O :   -0.423219
   7 O :   -0.381854
   8 H :    0.064291
   9 H :    0.070168
  10 H :    0.057091

  Mayer bond orders larger than 0.100000
B(  0-C ,  1-C ) :   0.5975 B(  0-C ,  8-H ) :   0.9420 B(  0-C ,  9-H ) :   0.9635
B(  0-C , 10-H ) :   0.8998 B(  1-C ,  2-S ) :   0.9299 B(  1-C ,  3-H ) :   0.9009
B(  1-C ,  4-H ) :   0.9094 B(  1-C ,  5-O ) :   0.1121 B(  1-C ,  6-O ) :   0.1076
B(  2-S ,  5-O ) :   1.5337 B(  2-S ,  6-O ) :   1.4630 B(  2-S ,  7-O ) :   1.5112

FINAL SINGLE POINT ENERGY      -702.106855679206

DIPOLE MOMENT
-------------
                                X             Y             Z
Electronic contribution:     -5.54916      -5.22721      -1.93027
Nuclear contribution   :      6.64523       6.80157       2.07300
                        -----------------------------------------
Total Dipole Moment    :      1.09607       1.57437       0.14273
                        -----------------------------------------
Magnitude (a.u.)       :      1.92364
Magnitude (Debye)      :      4.88949

Rotational constants in cm-1:     0.163070     0.082807     0.081541
Rotational constants in MHz :  4888.719902  2482.497026  2444.541148

                             ****ORCA TERMINATED NORMALLY****
TOTAL RUN TIME: 0 days 0 hours 0 minutes 54 seconds 483 msec
