                         Program Version 5.0.0 -  RELEASE  -
|  1> !LC-PBE RIJCOSX def2-TZVPD def2/J TightSCF
|  2> *xyz 1 1
|  3> C          1.36401        0.46874       -2.81376
|  4> N          0.42884        0.32140       -1.65531
|  5> C          0.96805        1.63064       -3.71575
|  6> H          0.74858       -0.40054       -1.00134
|  7> H         -0.46105        0.02333       -2.07773
|  8> H          0.31026        1.20137       -1.13495
|  9> H          1.29485       -0.46874       -3.36468
| 10> H          2.37622        0.59740       -2.43149
| 11> H          1.65923        1.70213       -4.52942
| 12> H          0.98421        2.54058       -3.15304
| 13> H         -0.01744        1.46536       -4.09838
| 14> *
| 15> %MaxCore 64000
| 16>
| 17> %pal nprocs 4
| 18> end
| 19>
| 20> %scf
| 21>   MaxIter 150
| 22> end
| 23>
| 24>
| 25>                          ****END OF INPUT****

CARTESIAN COORDINATES (ANGSTROEM)
---------------------------------
  C      1.364010    0.468740   -2.813760
  N      0.428840    0.321400   -1.655310
  C      0.968050    1.630640   -3.715750
  H      0.748580   -0.400540   -1.001340
  H     -0.461050    0.023330   -2.077730
  H      0.310260    1.201370   -1.134950
  H      1.294850   -0.468740   -3.364680
  H      2.376220    0.597400   -2.431490
  H      1.659230    1.702130   -4.529420
  H      0.984210    2.540580   -3.153040
  H     -0.017440    1.465360   -4.098380

 Total Charge           Charge          ....    1
 Multiplicity           Mult            ....    1
 Number of Electrons    NEL             ....   26
 Basis Dimension        Dim             ....  183

ORBITAL ENERGIES
----------------

  NO   OCC          E(Eh)            E(eV)
   0   2.0000     -14.549526      -395.9127
   1   2.0000     -10.370697      -282.2010
   2   2.0000     -10.288021      -279.9513
   3   2.0000      -1.389441       -37.8086
   4   2.0000      -1.140016       -31.0214
   5   2.0000      -1.005554       -27.3625
   6   2.0000      -0.952646       -25.9228
   7   2.0000      -0.935103       -25.4455
   8   2.0000      -0.836081       -22.7509
   9   2.0000      -0.786153       -21.3923
  10   2.0000      -0.719144       -19.5689
  11   2.0000      -0.700598       -19.0642
  12   2.0000      -0.683153       -18.5895
  13   0.0000      -0.120843        -3.2883
  14   0.0000      -0.066791        -1.8175
  15   0.0000      -0.065079        -1.7709
  16   0.0000      -0.059580        -1.6212
  17   0.0000      -0.027669        -0.7529

MULLIKEN ATOMIC CHARGES
-----------------------
   0 C :   -0.446608
   1 N :   -0.433205
   2 C :   -1.293954
   3 H :    0.390583
   4 H :    0.407654
   5 H :    0.386012
   6 H :    0.374462
   7 H :    0.383679
   8 H :    0.371207
   9 H :    0.426729
  10 H :    0.433440
Sum of atomic charges:    1.0000000

LOEWDIN ATOMIC CHARGES
----------------------
   0 C :   -0.218940
   1 N :    0.174876
   2 C :   -0.080779
   3 H :    0.184886
   4 H :    0.186029
   5 H :    0.187662
   6 H :    0.142298
   7 H :    0.142322
   8 H :    0.100557
   9 H :    0.090589
  10 H :    0.090501

  Mayer bond orders larger than 0.100000
B(  0-C ,  1-N ) :   0.8421 B(  0-C ,  2-C ) :   0.6009 B(  0-C ,  6-H ) :   0.8975
B(  0-C ,  7-H ) :   0.8916 B(  1-N ,  3-H ) :   0.8493 B(  1-N ,  4-H ) :   0.8290
B(  1-N ,  5-H ) :   0.8460 B(  2-C ,  8-H ) :   0.9591 B(  2-C ,  9-H ) :   0.8518
B(  2-C , 10-H ) :   0.8460

FINAL SINGLE POINT ENERGY      -135.130843649551

DIPOLE MOMENT
-------------
                                X             Y             Z
Electronic contribution:     -0.35020      -0.95110       1.57749
Nuclear contribution   :     -0.20470       0.31427      -0.31587
                        -----------------------------------------
Total Dipole Moment    :     -0.55490      -0.63684       1.26163
                        -----------------------------------------
Magnitude (a.u.)       :      1.51828
Magnitude (Debye)      :      3.85916

Rotational constants in cm-1:     1.011480     0.279280     0.248378
Rotational constants in MHz : 30323.408050  8372.602834  7446.185305

                             ****ORCA TERMINATED NORMALLY****
TOTAL RUN TIME: 0 days 0 hours 0 minutes 18 seconds 542 msec
