                         Program Version 5.0.0 -  RELEASE  -
|  1> !LC-PBE RIJCOSX def2-TZVPD def2/J TightSCF xyzfile
|  2>
|  3> *xyzfile 0 1 B.xyz
|  4>
|  5> %MaxCore 64000
|  6>
|  7> %pal nprocs 4
|  8> end
|  9>
| 10> %scf
| 11>   MaxIter 150
| 12> end
| 13>
| 14>
| 15>                          ****END OF INPUT****

CARTESIAN COORDINATES (ANGSTROEM)
---------------------------------
  C      1.364014    0.468742   -2.813764
  N      0.428844    0.321402   -1.655312
  C      0.968045    1.630639   -3.715749
  C     -0.508347    1.722679   -4.124300
  S     -1.328608    0.146737   -4.435781
  H     -0.591511    2.294958   -5.047219
  H     -1.114114    2.235610   -3.374362
  H      0.748578   -0.400542   -1.001345
  H     -0.461053    0.023332   -2.077731
  H      0.310258    1.201375   -1.134948
  O     -2.571347    0.475733   -5.068341
  O     -1.514963   -0.400512   -3.063420
  H      1.294847   -0.468742   -3.364684
  H      2.376216    0.597400   -2.431495
  H      1.578688    1.520652   -4.612733
  H      1.266653    2.575988   -3.250448
  O     -0.377928   -0.627558   -5.201141

 Total Charge           Charge          ....    0
 Multiplicity           Mult            ....    1
 Number of Electrons    NEL             ....   74
 Basis Dimension        Dim             ....  395

ORBITAL ENERGIES
----------------

  NO   OCC          E(Eh)            E(eV)
   0   2.0000     -88.439090     -2406.5500
   1   2.0000     -18.935285      -515.2553
   2   2.0000     -18.918998      -514.8121
   3   2.0000     -18.916604      -514.7470
   4   2.0000     -14.350471      -390.4962
   5   2.0000     -10.209845      -277.8240
   6   2.0000     -10.160653      -276.4854
   7   2.0000     -10.140357      -275.9331
   8   2.0000      -8.050133      -219.0552
   9   2.0000      -6.067438      -165.1034
  10   2.0000      -6.065998      -165.0642
  11   2.0000      -6.064313      -165.0184
  12   2.0000      -1.272511       -34.6268
  13   2.0000      -1.207328       -32.8531
  14   2.0000      -1.120720       -30.4963
  15   2.0000      -1.118993       -30.4494
  16   2.0000      -1.005941       -27.3730
  17   2.0000      -0.911300       -24.7977
  18   2.0000      -0.817203       -22.2372
  19   2.0000      -0.779956       -21.2237
  20   2.0000      -0.762093       -20.7376
  21   2.0000      -0.698825       -19.0160
  22   2.0000      -0.671774       -18.2799
  23   2.0000      -0.634831       -17.2746
  24   2.0000      -0.618112       -16.8197
  25   2.0000      -0.608680       -16.5630
  26   2.0000      -0.576585       -15.6897
  27   2.0000      -0.567008       -15.4291
  28   2.0000      -0.537122       -14.6158
  29   2.0000      -0.528460       -14.3801
  30   2.0000      -0.508908       -13.8481
  31   2.0000      -0.467047       -12.7090
  32   2.0000      -0.458806       -12.4847
  33   2.0000      -0.422547       -11.4981
  34   2.0000      -0.413770       -11.2593
  35   2.0000      -0.397996       -10.8300
  36   2.0000      -0.371349       -10.1049
  37   0.0000       0.017493         0.4760
  38   0.0000       0.051061         1.3894
  39   0.0000       0.054426         1.4810
  40   0.0000       0.080881         2.2009
  41   0.0000       0.087564         2.3827

MULLIKEN ATOMIC CHARGES
-----------------------
   0 C :   -0.852905
   1 N :   -0.273596
   2 C :   -0.580389
   3 C :   -0.901674
   4 S :    1.167580
   5 H :    0.392656
   6 H :    0.429623
   7 H :    0.390974
   8 H :    0.308281
   9 H :    0.372704
  10 O :   -0.617753
  11 O :   -0.828002
  12 H :    0.479512
  13 H :    0.404014
  14 H :    0.370681
  15 H :    0.376672
  16 O :   -0.638379
Sum of atomic charges:   -0.0000000

LOEWDIN ATOMIC CHARGES
----------------------
   0 C :   -0.185542
   1 N :    0.149633
   2 C :   -0.223391
   3 C :   -0.257032
   4 S :    0.404694
   5 H :    0.112164
   6 H :    0.108386
   7 H :    0.174766
   8 H :    0.028964
   9 H :    0.178307
  10 O :   -0.311284
  11 O :   -0.368038
  12 H :    0.130577
  13 H :    0.132660
  14 H :    0.130840
  15 H :    0.122101
  16 O :   -0.327804

  Mayer bond orders larger than 0.100000
B(  0-C ,  1-N ) :   0.8328 B(  0-C ,  2-C ) :   0.6926 B(  0-C , 12-H ) :   0.8801
B(  0-C , 13-H ) :   0.8714 B(  1-N ,  7-H ) :   0.8404 B(  1-N ,  8-H ) :   0.8021
B(  1-N ,  9-H ) :   0.8346 B(  1-N , 11-O ) :  -0.1358 B(  2-C ,  3-C ) :   0.6896
B(  2-C , 14-H ) :   0.9135 B(  2-C , 15-H ) :   0.9124 B(  3-C ,  4-S ) :   0.9041
B(  3-C ,  5-H ) :   0.9423 B(  3-C ,  6-H ) :   0.8761 B(  3-C , 10-O ) :   0.1381
B(  4-S , 10-O ) :   1.5612 B(  4-S , 11-O ) :   1.2648 B(  4-S , 16-O ) :   1.5230
B(  8-H , 11-O ) :   0.1405

FINAL SINGLE POINT ENERGY      -797.028594211391

DIPOLE MOMENT
-------------
                                X             Y             Z
Electronic contribution:     -6.84830      -4.08688      -4.23565
Nuclear contribution   :      9.95459       5.57517       7.68169
                        -----------------------------------------
Total Dipole Moment    :      3.10629       1.48829       3.44604
                        -----------------------------------------
Magnitude (a.u.)       :      4.87229
Magnitude (Debye)      :     12.38439

Rotational constants in cm-1:     0.102119     0.045768     0.041299
Rotational constants in MHz :  3061.441288  1372.093000  1238.124534

                             ****ORCA TERMINATED NORMALLY****
TOTAL RUN TIME: 0 days 0 hours 1 minutes 39 seconds 256 msec
