                         Program Version 5.0.0 -  RELEASE  -
|  1> !LC-PBE RIJCOSX def2-TZVPD def2/J TightSCF
|  2> *xyz 0 1
|  3> C          0.96805        1.63064       -3.71575
|  4> C         -0.50835        1.72268       -4.12430
|  5> S         -1.32861        0.14674       -4.43578
|  6> H         -0.59151        2.29496       -5.04722
|  7> H         -1.11411        2.23561       -3.37436
|  8> F         -2.57135        0.47573       -5.06834
|  9> O         -1.51496       -0.40051       -3.06342
| 10> O         -0.37793       -0.62756       -5.20114
| 11> H          1.51840        1.12197       -4.47946
| 12> H          1.05062        1.08971       -2.79625
| 13> H          1.36450        2.61606       -3.58668
| 14> *
| 15> %MaxCore 64000
| 16>
| 17> %pal nprocs 4
| 18> end
| 19>
| 20> %scf
| 21>   MaxIter 150
| 22> end
| 23>
| 24>
| 25>                          ****END OF INPUT****

CARTESIAN COORDINATES (ANGSTROEM)
---------------------------------
  C      0.968050    1.630640   -3.715750
  C     -0.508350    1.722680   -4.124300
  S     -1.328610    0.146740   -4.435780
  H     -0.591510    2.294960   -5.047220
  H     -1.114110    2.235610   -3.374360
  F     -2.571350    0.475730   -5.068340
  O     -1.514960   -0.400510   -3.063420
  O     -0.377930   -0.627560   -5.201140
  H      1.518400    1.121970   -4.479460
  H      1.050620    1.089710   -2.796250
  H      1.364500    2.616060   -3.586680

 Total Charge           Charge          ....    0
 Multiplicity           Mult            ....    1
 Number of Electrons    NEL             ....   58
 Basis Dimension        Dim             ....  285

ORBITAL ENERGIES
----------------

  NO   OCC          E(Eh)            E(eV)
   0   2.0000     -88.536490     -2409.2004
   1   2.0000     -24.623939      -670.0514
   2   2.0000     -18.995569      -516.8957
   3   2.0000     -18.979247      -516.4516
   4   2.0000     -10.179344      -276.9940
   5   2.0000     -10.131242      -275.6851
   6   2.0000      -8.147853      -221.7143
   7   2.0000      -6.168101      -167.8426
   8   2.0000      -6.161334      -167.6584
   9   2.0000      -6.160676      -167.6405
  10   2.0000      -1.557821       -42.3905
  11   2.0000      -1.277182       -34.7539
  12   2.0000      -1.168314       -31.7914
  13   2.0000      -0.998029       -27.1577
  14   2.0000      -0.904434       -24.6109
  15   2.0000      -0.841522       -22.8990
  16   2.0000      -0.753279       -20.4978
  17   2.0000      -0.750591       -20.4246
  18   2.0000      -0.708650       -19.2833
  19   2.0000      -0.640303       -17.4235
  20   2.0000      -0.631633       -17.1876
  21   2.0000      -0.585469       -15.9314
  22   2.0000      -0.571322       -15.5465
  23   2.0000      -0.544816       -14.8252
  24   2.0000      -0.527525       -14.3547
  25   2.0000      -0.520144       -14.1538
  26   2.0000      -0.472550       -12.8588
  27   2.0000      -0.453169       -12.3314
  28   2.0000      -0.442998       -12.0546
  29   0.0000       0.044397         1.2081
  30   0.0000       0.059553         1.6205
  31   0.0000       0.063891         1.7386
  32   0.0000       0.069560         1.8928
  33   0.0000       0.097903         2.6641

MULLIKEN ATOMIC CHARGES
-----------------------
   0 C :   -1.205830
   1 C :   -0.653783
   2 S :    1.042780
   3 H :    0.433474
   4 H :    0.427909
   5 F :   -0.069033
   6 O :   -0.575281
   7 O :   -0.537903
   8 H :    0.390847
   9 H :    0.363970
  10 H :    0.382852
Sum of atomic charges:   -0.0000000

LOEWDIN ATOMIC CHARGES
----------------------
   0 C :   -0.121912
   1 C :   -0.300752
   2 S :    0.566308
   3 H :    0.104090
   4 H :    0.110003
   5 F :   -0.027306
   6 O :   -0.306818
   7 O :   -0.270308
   8 H :    0.079371
   9 H :    0.085332
  10 H :    0.081992

  Mayer bond orders larger than 0.100000
B(  0-C ,  1-C ) :   0.6718 B(  0-C ,  8-H ) :   0.8980 B(  0-C ,  9-H ) :   0.9234
B(  0-C , 10-H ) :   0.9000 B(  1-C ,  2-S ) :   0.9074 B(  1-C ,  3-H ) :   0.8185
B(  1-C ,  4-H ) :   0.8379 B(  2-S ,  5-F ) :   1.0455 B(  2-S ,  6-O ) :   1.6563
B(  2-S ,  7-O ) :   1.7071

FINAL SINGLE POINT ENERGY      -726.588001389739

DIPOLE MOMENT
-------------
                                X             Y             Z
Electronic contribution:     -8.33187      -5.08633      -3.25170
Nuclear contribution   :      8.31000       6.74109       2.87442
                        -----------------------------------------
Total Dipole Moment    :     -0.02187       1.65475      -0.37728
                        -----------------------------------------
Magnitude (a.u.)       :      1.69736
Magnitude (Debye)      :      4.31434

Rotational constants in cm-1:     0.158705     0.080192     0.078179
Rotational constants in MHz :  4757.865601  2404.095079  2343.752507

                             ****ORCA TERMINATED NORMALLY****
TOTAL RUN TIME: 0 days 0 hours 0 minutes 49 seconds 95 msec
