                         Program Version 5.0.0 -  RELEASE  -
|  1> !LC-PBE RIJCOSX def2-TZVPD def2/J TightSCF
|  2> *xyz 0 1
|  3> C          1.36401        0.46874       -2.81376
|  4> C          0.42884        0.32140       -1.65531
|  5> C          0.96805        1.63064       -3.71575
|  6> H          0.74858       -0.40054       -1.00134
|  7> H         -0.46105        0.02333       -2.07773
|  8> H          0.31026        1.20137       -1.13495
|  9> H          1.29485       -0.46874       -3.36468
| 10> H          2.37622        0.59740       -2.43149
| 11> H          1.65923        1.70213       -4.52942
| 12> H          0.98421        2.54058       -3.15304
| 13> H         -0.01744        1.46536       -4.09838
| 14> *
| 15> %MaxCore 64000
| 16>
| 17> %pal nprocs 4
| 18> end
| 19>
| 20> %scf
| 21>   MaxIter 150
| 22> end
| 23>
| 24>
| 25>                          ****END OF INPUT****

CARTESIAN COORDINATES (ANGSTROEM)
---------------------------------
  C      1.364010    0.468740   -2.813760
  C      0.428840    0.321400   -1.655310
  C      0.968050    1.630640   -3.715750
  H      0.748580   -0.400540   -1.001340
  H     -0.461050    0.023330   -2.077730
  H      0.310260    1.201370   -1.134950
  H      1.294850   -0.468740   -3.364680
  H      2.376220    0.597400   -2.431490
  H      1.659230    1.702130   -4.529420
  H      0.984210    2.540580   -3.153040
  H     -0.017440    1.465360   -4.098380

 Total Charge           Charge          ....    0
 Multiplicity           Mult            ....    1
 Number of Electrons    NEL             ....   26
 Basis Dimension        Dim             ....  183

ORBITAL ENERGIES
----------------

  NO   OCC          E(Eh)            E(eV)
   0   2.0000     -10.100726      -274.8547
   1   2.0000     -10.089604      -274.5521
   2   2.0000     -10.071779      -274.0670
   3   2.0000      -0.971466       -26.4349
   4   2.0000      -0.859397       -23.3854
   5   2.0000      -0.743482       -20.2312
   6   2.0000      -0.619068       -16.8457
   7   2.0000      -0.589540       -16.0422
   8   2.0000      -0.540444       -14.7062
   9   2.0000      -0.525896       -14.3104
  10   2.0000      -0.466222       -12.6865
  11   2.0000      -0.460586       -12.5332
  12   2.0000      -0.455276       -12.3887
  13   0.0000       0.074515         2.0276
  14   0.0000       0.092039         2.5045
  15   0.0000       0.094575         2.5735
  16   0.0000       0.124831         3.3968
  17   0.0000       0.145932         3.9710

MULLIKEN ATOMIC CHARGES
-----------------------
   0 C :   -0.358186
   1 C :   -1.296783
   2 C :   -1.180495
   3 H :    0.349306
   4 H :    0.386613
   5 H :    0.389142
   6 H :    0.306800
   7 H :    0.349373
   8 H :    0.323826
   9 H :    0.362547
  10 H :    0.367857
Sum of atomic charges:   -0.0000000

LOEWDIN ATOMIC CHARGES
----------------------
   0 C :   -0.338687
   1 C :   -0.147068
   2 C :   -0.141091
   3 H :    0.058107
   4 H :    0.064094
   5 H :    0.063783
   6 H :    0.111036
   7 H :    0.110128
   8 H :    0.069515
   9 H :    0.074811
  10 H :    0.075373

  Mayer bond orders larger than 0.100000
B(  0-C ,  1-C ) :   0.5560 B(  0-C ,  2-C ) :   0.5930 B(  0-C ,  6-H ) :   0.9472
B(  0-C ,  7-H ) :   0.8984 B(  1-C ,  3-H ) :   0.9824 B(  1-C ,  4-H ) :   0.9194
B(  1-C ,  5-H ) :   0.8855 B(  2-C ,  8-H ) :   0.9894 B(  2-C ,  9-H ) :   0.9251
B(  2-C , 10-H ) :   0.9152

FINAL SINGLE POINT ENERGY      -118.737594749817

DIPOLE MOMENT
-------------
                                X             Y             Z
Electronic contribution:      0.36544      -0.18464      -0.01929
Nuclear contribution   :     -0.35842       0.15752       0.02695
                        -----------------------------------------
Total Dipole Moment    :      0.00702      -0.02712       0.00767
                        -----------------------------------------
Magnitude (a.u.)       :      0.02904
Magnitude (Debye)      :      0.07382

Rotational constants in cm-1:     1.019891     0.293671     0.260247
Rotational constants in MHz : 30575.551403  8804.039097  7802.009261

                             ****ORCA TERMINATED NORMALLY****
TOTAL RUN TIME: 0 days 0 hours 0 minutes 17 seconds 816 msec
