                         Program Version 5.0.0 -  RELEASE  -
|  1> !LC-PBE RIJCOSX def2-TZVPD def2/J TightSCF
|  2> *xyz 0 1
|  3> C          0.96805        1.63064       -3.71575
|  4> C         -0.50835        1.72268       -4.12430
|  5> S         -1.32861        0.14674       -4.43578
|  6> H         -0.59151        2.29496       -5.04722
|  7> H         -1.11411        2.23561       -3.37436
|  8> O         -2.57135        0.47573       -5.06834
|  9> F         -1.51496       -0.40051       -3.06342
| 10> O         -0.37793       -0.62756       -5.20114
| 11> H          1.51840        1.12197       -4.47946
| 12> H          1.05062        1.08971       -2.79625
| 13> H          1.36450        2.61606       -3.58668
| 14> *
| 15> %MaxCore 64000
| 16>
| 17> %pal nprocs 4
| 18> end
| 19>
| 20> %scf
| 21>   MaxIter 150
| 22> end
| 23>
| 24>
| 25>                          ****END OF INPUT****

CARTESIAN COORDINATES (ANGSTROEM)
---------------------------------
  C      0.968050    1.630640   -3.715750
  C     -0.508350    1.722680   -4.124300
  S     -1.328610    0.146740   -4.435780
  H     -0.591510    2.294960   -5.047220
  H     -1.114110    2.235610   -3.374360
  O     -2.571350    0.475730   -5.068340
  F     -1.514960   -0.400510   -3.063420
  O     -0.377930   -0.627560   -5.201140
  H      1.518400    1.121970   -4.479460
  H      1.050620    1.089710   -2.796250
  H      1.364500    2.616060   -3.586680

 Total Charge           Charge          ....    0
 Multiplicity           Mult            ....    1
 Number of Electrons    NEL             ....   58
 Basis Dimension        Dim             ....  285

ORBITAL ENERGIES
----------------

  NO   OCC          E(Eh)            E(eV)
   0   2.0000     -88.533266     -2409.1126
   1   2.0000     -24.593714      -669.2290
   2   2.0000     -18.998844      -516.9848
   3   2.0000     -18.995106      -516.8831
   4   2.0000     -10.178333      -276.9665
   5   2.0000     -10.133107      -275.7358
   6   2.0000      -8.144617      -221.6263
   7   2.0000      -6.165153      -167.7623
   8   2.0000      -6.158211      -167.5734
   9   2.0000      -6.157263      -167.5476
  10   2.0000      -1.510899       -41.1136
  11   2.0000      -1.291593       -35.1460
  12   2.0000      -1.194075       -32.4924
  13   2.0000      -1.000121       -27.2147
  14   2.0000      -0.885354       -24.0917
  15   2.0000      -0.832953       -22.6658
  16   2.0000      -0.735034       -20.0013
  17   2.0000      -0.718677       -19.5562
  18   2.0000      -0.700334       -19.0571
  19   2.0000      -0.642668       -17.4879
  20   2.0000      -0.624359       -16.9897
  21   2.0000      -0.603647       -16.4261
  22   2.0000      -0.576510       -15.6876
  23   2.0000      -0.550079       -14.9684
  24   2.0000      -0.539721       -14.6865
  25   2.0000      -0.517312       -14.0768
  26   2.0000      -0.484052       -13.1717
  27   2.0000      -0.465880       -12.6772
  28   2.0000      -0.463274       -12.6063
  29   0.0000       0.049906         1.3580
  30   0.0000       0.059781         1.6267
  31   0.0000       0.065727         1.7885
  32   0.0000       0.067240         1.8297
  33   0.0000       0.097941         2.6651

MULLIKEN ATOMIC CHARGES
-----------------------
   0 C :   -1.181614
   1 C :   -0.651529
   2 S :    1.050858
   3 H :    0.412384
   4 H :    0.439769
   5 O :   -0.527058
   6 F :   -0.138328
   7 O :   -0.541706
   8 H :    0.388302
   9 H :    0.366819
  10 H :    0.382103
Sum of atomic charges:   -0.0000000

LOEWDIN ATOMIC CHARGES
----------------------
   0 C :   -0.132073
   1 C :   -0.291666
   2 S :    0.565115
   3 H :    0.115406
   4 H :    0.109629
   5 O :   -0.263512
   6 F :   -0.072879
   7 O :   -0.268580
   8 H :    0.078277
   9 H :    0.079813
  10 H :    0.080470

  Mayer bond orders larger than 0.100000
B(  0-C ,  1-C ) :   0.6110 B(  0-C ,  8-H ) :   0.9226 B(  0-C ,  9-H ) :   0.9023
B(  0-C , 10-H ) :   0.9126 B(  1-C ,  2-S ) :   0.9140 B(  1-C ,  3-H ) :   0.8583
B(  1-C ,  4-H ) :   0.8253 B(  2-S ,  5-O ) :   1.7233 B(  2-S ,  6-F ) :   0.9776
B(  2-S ,  7-O ) :   1.7060

FINAL SINGLE POINT ENERGY      -726.612936639986

DIPOLE MOMENT
-------------
                                X             Y             Z
Electronic contribution:     -6.52475      -6.59331       0.21123
Nuclear contribution   :      7.20921       7.65416       0.78523
                        -----------------------------------------
Total Dipole Moment    :      0.68446       1.06085       0.99646
                        -----------------------------------------
Magnitude (a.u.)       :      1.60836
Magnitude (Debye)      :      4.08813

Rotational constants in cm-1:     0.153780     0.081282     0.079816
Rotational constants in MHz :  4610.199589  2436.778679  2392.820729

                             ****ORCA TERMINATED NORMALLY****
TOTAL RUN TIME: 0 days 0 hours 0 minutes 46 seconds 382 msec
