                         Program Version 5.0.0 -  RELEASE  -
|  1> !LC-PBE RIJCOSX def2-TZVPD def2/J TightSCF
|  2> *xyz 0 1
|  3> C          0.96805        1.63064       -3.71575
|  4> C         -0.50835        1.72268       -4.12430
|  5> S         -1.32861        0.14674       -4.43578
|  6> H         -0.59151        2.29496       -5.04722
|  7> H         -1.11411        2.23561       -3.37436
|  8> O         -2.57135        0.47573       -5.06834
|  9> O         -1.51496       -0.40051       -3.06342
| 10> F         -0.37793       -0.62756       -5.20114
| 11> H          1.51840        1.12197       -4.47946
| 12> H          1.05062        1.08971       -2.79625
| 13> H          1.36450        2.61606       -3.58668
| 14> *
| 15> %MaxCore 64000
| 16>
| 17> %pal nprocs 4
| 18> end
| 19>
| 20> %scf
| 21>   MaxIter 150
| 22> end
| 23>
| 24>
| 25>                          ****END OF INPUT****

CARTESIAN COORDINATES (ANGSTROEM)
---------------------------------
  C      0.968050    1.630640   -3.715750
  C     -0.508350    1.722680   -4.124300
  S     -1.328610    0.146740   -4.435780
  H     -0.591510    2.294960   -5.047220
  H     -1.114110    2.235610   -3.374360
  O     -2.571350    0.475730   -5.068340
  O     -1.514960   -0.400510   -3.063420
  F     -0.377930   -0.627560   -5.201140
  H      1.518400    1.121970   -4.479460
  H      1.050620    1.089710   -2.796250
  H      1.364500    2.616060   -3.586680

 Total Charge           Charge          ....    0
 Multiplicity           Mult            ....    1
 Number of Electrons    NEL             ....   58
 Basis Dimension        Dim             ....  285

ORBITAL ENERGIES
----------------

  NO   OCC          E(Eh)            E(eV)
   0   2.0000     -88.535615     -2409.1766
   1   2.0000     -24.617244      -669.8693
   2   2.0000     -18.999398      -516.9999
   3   2.0000     -18.979183      -516.4498
   4   2.0000     -10.179131      -276.9882
   5   2.0000     -10.136892      -275.8388
   6   2.0000      -8.146986      -221.6908
   7   2.0000      -6.167437      -167.8245
   8   2.0000      -6.160368      -167.6321
   9   2.0000      -6.159770      -167.6159
  10   2.0000      -1.547027       -42.0967
  11   2.0000      -1.282806       -34.9069
  12   2.0000      -1.171217       -31.8704
  13   2.0000      -1.002351       -27.2754
  14   2.0000      -0.896441       -24.3934
  15   2.0000      -0.844543       -22.9812
  16   2.0000      -0.757381       -20.6094
  17   2.0000      -0.744593       -20.2614
  18   2.0000      -0.698735       -19.0135
  19   2.0000      -0.642041       -17.4708
  20   2.0000      -0.624338       -16.9891
  21   2.0000      -0.597273       -16.2526
  22   2.0000      -0.580374       -15.7928
  23   2.0000      -0.551316       -15.0021
  24   2.0000      -0.533902       -14.5282
  25   2.0000      -0.520581       -14.1657
  26   2.0000      -0.474208       -12.9038
  27   2.0000      -0.454316       -12.3626
  28   2.0000      -0.446218       -12.1422
  29   0.0000       0.047464         1.2916
  30   0.0000       0.058084         1.5805
  31   0.0000       0.065287         1.7765
  32   0.0000       0.068606         1.8669
  33   0.0000       0.096495         2.6257

MULLIKEN ATOMIC CHARGES
-----------------------
   0 C :   -1.216608
   1 C :   -0.607507
   2 S :    1.034526
   3 H :    0.429939
   4 H :    0.406263
   5 O :   -0.519308
   6 O :   -0.578282
   7 F :   -0.095863
   8 H :    0.400687
   9 H :    0.369290
  10 H :    0.376863
Sum of atomic charges:   -0.0000000

LOEWDIN ATOMIC CHARGES
----------------------
   0 C :   -0.132643
   1 C :   -0.291644
   2 S :    0.563905
   3 H :    0.106811
   4 H :    0.119935
   5 O :   -0.262625
   6 O :   -0.306017
   7 F :   -0.036071
   8 H :    0.074802
   9 H :    0.082465
  10 H :    0.081083

  Mayer bond orders larger than 0.100000
B(  0-C ,  1-C ) :   0.5883 B(  0-C ,  8-H ) :   0.8706 B(  0-C ,  9-H ) :   0.9437
B(  0-C , 10-H ) :   0.9197 B(  1-C ,  2-S ) :   0.9147 B(  1-C ,  3-H ) :   0.8501
B(  1-C ,  4-H ) :   0.8617 B(  2-S ,  5-O ) :   1.7304 B(  2-S ,  6-O ) :   1.6620
B(  2-S ,  7-F ) :   1.0324

FINAL SINGLE POINT ENERGY      -726.593122051785

DIPOLE MOMENT
-------------
                                X             Y             Z
Electronic contribution:     -4.57076      -6.95582      -3.46473
Nuclear contribution   :      6.02439       7.89075       3.01280
                        -----------------------------------------
Total Dipole Moment    :      1.45364       0.93493      -0.45193
                        -----------------------------------------
Magnitude (a.u.)       :      1.78645
Magnitude (Debye)      :      4.54079

Rotational constants in cm-1:     0.153652     0.082400     0.079295
Rotational constants in MHz :  4606.361242  2470.285703  2377.214112

                             ****ORCA TERMINATED NORMALLY****
TOTAL RUN TIME: 0 days 0 hours 0 minutes 53 seconds 78 msec
