                         Program Version 5.0.0 -  RELEASE  -
|  1> !LC-PBE RIJCOSX def2-TZVPD def2/J TightSCF xyzfile
|  2>
|  3> *xyzfile 0 1 D1.xyz
|  4>
|  5> %MaxCore 64000
|  6>
|  7> %pal nprocs 4
|  8> end
|  9>
| 10> %scf
| 11>   MaxIter 150
| 12> end
| 13>
| 14>
| 15>                          ****END OF INPUT****

CARTESIAN COORDINATES (ANGSTROEM)
---------------------------------
  C      1.364014    0.468742   -2.813764
  C      0.428844    0.321402   -1.655312
  C      0.968045    1.630639   -3.715749
  C     -0.508347    1.722679   -4.124300
  S     -1.328608    0.146737   -4.435781
  H     -0.591511    2.294958   -5.047219
  H     -1.114114    2.235610   -3.374362
  H      0.748578   -0.400542   -1.001345
  H     -0.461053    0.023332   -2.077731
  H      0.310258    1.201375   -1.134948
  F     -2.571347    0.475733   -5.068341
  O     -1.514963   -0.400512   -3.063420
  H      1.294847   -0.468742   -3.364684
  H      2.376216    0.597400   -2.431495
  H      1.578688    1.520652   -4.612733
  H      1.266653    2.575988   -3.250448
  O     -0.377928   -0.627558   -5.201141

 Total Charge           Charge          ....    0
 Multiplicity           Mult            ....    1
 Number of Electrons    NEL             ....   74
 Basis Dimension        Dim             ....  395

ORBITAL ENERGIES
----------------

  NO   OCC          E(Eh)            E(eV)
   0   2.0000     -88.543006     -2409.3777
   1   2.0000     -24.627805      -670.1566
   2   2.0000     -19.000826      -517.0388
   3   2.0000     -18.987183      -516.6675
   4   2.0000     -10.179720      -277.0043
   5   2.0000     -10.137374      -275.8520
   6   2.0000     -10.099973      -274.8342
   7   2.0000     -10.039121      -273.1784
   8   2.0000      -8.154546      -221.8965
   9   2.0000      -6.174775      -168.0242
  10   2.0000      -6.167817      -167.8348
  11   2.0000      -6.167601      -167.8290
  12   2.0000      -1.562077       -42.5063
  13   2.0000      -1.286744       -35.0141
  14   2.0000      -1.182493       -32.1773
  15   2.0000      -1.012985       -27.5647
  16   2.0000      -0.949396       -25.8344
  17   2.0000      -0.888622       -24.1806
  18   2.0000      -0.845920       -23.0186
  19   2.0000      -0.771695       -20.9989
  20   2.0000      -0.759166       -20.6580
  21   2.0000      -0.734892       -19.9974
  22   2.0000      -0.700840       -19.0708
  23   2.0000      -0.660062       -17.9612
  24   2.0000      -0.644697       -17.5431
  25   2.0000      -0.609559       -16.5869
  26   2.0000      -0.602050       -16.3826
  27   2.0000      -0.564615       -15.3640
  28   2.0000      -0.543789       -14.7972
  29   2.0000      -0.540414       -14.7054
  30   2.0000      -0.526402       -14.3241
  31   2.0000      -0.492366       -13.3980
  32   2.0000      -0.481416       -13.1000
  33   2.0000      -0.455975       -12.4077
  34   2.0000      -0.450923       -12.2702
  35   2.0000      -0.445367       -12.1191
  36   2.0000      -0.405347       -11.0300
  37   0.0000       0.040624         1.1054
  38   0.0000       0.057057         1.5526
  39   0.0000       0.060311         1.6412
  40   0.0000       0.073493         1.9998
  41   0.0000       0.092877         2.5273

MULLIKEN ATOMIC CHARGES
-----------------------
   0 C :   -0.697189
   1 C :   -1.156571
   2 C :   -0.575269
   3 C :   -0.848192
   4 S :    1.061196
   5 H :    0.436008
   6 H :    0.458927
   7 H :    0.434439
   8 H :    0.318591
   9 H :    0.355722
  10 F :   -0.053836
  11 O :   -0.625209
  12 H :    0.363952
  13 H :    0.350118
  14 H :    0.335140
  15 H :    0.395795
  16 O :   -0.553621
Sum of atomic charges:    0.0000000

LOEWDIN ATOMIC CHARGES
----------------------
   0 C :   -0.269720
   1 C :   -0.136984
   2 C :   -0.231955
   3 C :   -0.229532
   4 S :    0.615528
   5 H :    0.109842
   6 H :    0.119870
   7 H :    0.070347
   8 H :   -0.031479
   9 H :    0.073851
  10 F :   -0.019287
  11 O :   -0.300509
  12 H :    0.112042
  13 H :    0.119369
  14 H :    0.120702
  15 H :    0.130443
  16 O :   -0.252528

  Mayer bond orders larger than 0.100000
B(  0-C ,  1-C ) :   0.5059 B(  0-C ,  2-C ) :   0.7373 B(  0-C , 12-H ) :   0.9474
B(  0-C , 13-H ) :   0.8984 B(  1-C ,  7-H ) :   0.9259 B(  1-C ,  8-H ) :   1.0337
B(  1-C ,  9-H ) :   1.0039 B(  2-C ,  3-C ) :   0.7809 B(  2-C , 14-H ) :   0.9101
B(  2-C , 15-H ) :   0.8867 B(  3-C ,  4-S ) :   0.8992 B(  3-C ,  5-H ) :   0.8363
B(  3-C ,  6-H ) :   0.8125 B(  3-C , 11-O ) :   0.1161 B(  4-S , 10-F ) :   1.0420
B(  4-S , 11-O ) :   1.6231 B(  4-S , 16-O ) :   1.6969 B(  8-H , 11-O ) :  -0.2573

FINAL SINGLE POINT ENERGY      -804.921634278557

DIPOLE MOMENT
-------------
                                X             Y             Z
Electronic contribution:    -12.48944      -4.02816      -9.75201
Nuclear contribution   :     12.25227       5.48563       9.26621
                        -----------------------------------------
Total Dipole Moment    :     -0.23716       1.45747      -0.48580
                        -----------------------------------------
Magnitude (a.u.)       :      1.55449
Magnitude (Debye)      :      3.95121

Rotational constants in cm-1:     0.103176     0.044975     0.040960
Rotational constants in MHz :  3093.138469  1348.317425  1227.945122

                             ****ORCA TERMINATED NORMALLY****
TOTAL RUN TIME: 0 days 0 hours 1 minutes 37 seconds 237 msec
