                         Program Version 5.0.0 -  RELEASE  -
|  1> !LC-PBE RIJCOSX def2-TZVPD def2/J TightSCF xyzfile
|  2>
|  3> *xyzfile 0 1 D2.xyz
|  4>
|  5> %MaxCore 64000
|  6>
|  7> %pal nprocs 4
|  8> end
|  9>
| 10> %scf
| 11>   MaxIter 150
| 12> end
| 13>
| 14>
| 15>                          ****END OF INPUT****

CARTESIAN COORDINATES (ANGSTROEM)
---------------------------------
  C      1.364014    0.468742   -2.813764
  C      0.428844    0.321402   -1.655312
  C      0.968045    1.630639   -3.715749
  C     -0.508347    1.722679   -4.124300
  S     -1.328608    0.146737   -4.435781
  H     -0.591511    2.294958   -5.047219
  H     -1.114114    2.235610   -3.374362
  H      0.748578   -0.400542   -1.001345
  H     -0.461053    0.023332   -2.077731
  H      0.310258    1.201375   -1.134948
  O     -2.571347    0.475733   -5.068341
  F     -1.514963   -0.400512   -3.063420
  H      1.294847   -0.468742   -3.364684
  H      2.376216    0.597400   -2.431495
  H      1.578688    1.520652   -4.612733
  H      1.266653    2.575988   -3.250448
  O     -0.377928   -0.627558   -5.201141

 Total Charge           Charge          ....    0
 Multiplicity           Mult            ....    1
 Number of Electrons    NEL             ....   74
 Basis Dimension        Dim             ....  395

ORBITAL ENERGIES
----------------

  NO   OCC          E(Eh)            E(eV)
   0   2.0000     -88.536817     -2409.2093
   1   2.0000     -24.599969      -669.3992
   2   2.0000     -19.001634      -517.0607
   3   2.0000     -18.998095      -516.9645
   4   2.0000     -10.177436      -276.9421
   5   2.0000     -10.139273      -275.9036
   6   2.0000     -10.115412      -275.2544
   7   2.0000     -10.071822      -274.0682
   8   2.0000      -8.148426      -221.7300
   9   2.0000      -6.169121      -167.8703
  10   2.0000      -6.161855      -167.6726
  11   2.0000      -6.160974      -167.6486
  12   2.0000      -1.524665       -41.4883
  13   2.0000      -1.296156       -35.2702
  14   2.0000      -1.197439       -32.5840
  15   2.0000      -1.021767       -27.8037
  16   2.0000      -0.954748       -25.9800
  17   2.0000      -0.878877       -23.9155
  18   2.0000      -0.863672       -23.5017
  19   2.0000      -0.761898       -20.7323
  20   2.0000      -0.747099       -20.3296
  21   2.0000      -0.728478       -19.8229
  22   2.0000      -0.702036       -19.1034
  23   2.0000      -0.649912       -17.6850
  24   2.0000      -0.631207       -17.1760
  25   2.0000      -0.623943       -16.9783
  26   2.0000      -0.606505       -16.5038
  27   2.0000      -0.573268       -15.5994
  28   2.0000      -0.553658       -15.0658
  29   2.0000      -0.542147       -14.7526
  30   2.0000      -0.538230       -14.6460
  31   2.0000      -0.492608       -13.4045
  32   2.0000      -0.489542       -13.3211
  33   2.0000      -0.472197       -12.8491
  34   2.0000      -0.465593       -12.6694
  35   2.0000      -0.461400       -12.5553
  36   2.0000      -0.447810       -12.1855
  37   0.0000       0.053359         1.4520
  38   0.0000       0.057503         1.5647
  39   0.0000       0.064120         1.7448
  40   0.0000       0.070137         1.9085
  41   0.0000       0.093159         2.5350

MULLIKEN ATOMIC CHARGES
-----------------------
   0 C :   -0.712331
   1 C :   -1.225393
   2 C :   -0.520780
   3 C :   -0.819255
   4 S :    1.039275
   5 H :    0.393020
   6 H :    0.448619
   7 H :    0.440384
   8 H :    0.376621
   9 H :    0.372973
  10 O :   -0.551435
  11 F :   -0.170417
  12 H :    0.377142
  13 H :    0.351336
  14 H :    0.336920
  15 H :    0.403481
  16 O :   -0.540159
Sum of atomic charges:   -0.0000000

LOEWDIN ATOMIC CHARGES
----------------------
   0 C :   -0.272138
   1 C :   -0.123604
   2 C :   -0.238910
   3 C :   -0.225306
   4 S :    0.591411
   5 H :    0.120661
   6 H :    0.119134
   7 H :    0.072612
   8 H :   -0.000884
   9 H :    0.077922
  10 O :   -0.253652
  11 F :   -0.097644
  12 H :    0.110287
  13 H :    0.121865
  14 H :    0.121694
  15 H :    0.128294
  16 O :   -0.251742

  Mayer bond orders larger than 0.100000
B(  0-C ,  1-C ) :   0.4972 B(  0-C ,  2-C ) :   0.7118 B(  0-C , 12-H ) :   0.9602
B(  0-C , 13-H ) :   0.8987 B(  1-C ,  7-H ) :   0.9055 B(  1-C ,  8-H ) :   0.9898
B(  1-C ,  9-H ) :   0.9533 B(  1-C , 11-F ) :   0.1183 B(  2-C ,  3-C ) :   0.6838
B(  2-C , 14-H ) :   0.9236 B(  2-C , 15-H ) :   0.8957 B(  3-C ,  4-S ) :   0.9040
B(  3-C ,  5-H ) :   0.8893 B(  3-C ,  6-H ) :   0.8435 B(  4-S , 10-O ) :   1.6672
B(  4-S , 11-F ) :   1.0131 B(  4-S , 16-O ) :   1.6922 B(  8-H , 11-F ) :  -0.1977

FINAL SINGLE POINT ENERGY      -804.944183809641

DIPOLE MOMENT
-------------
                                X             Y             Z
Electronic contribution:    -10.47811      -5.52927      -6.12521
Nuclear contribution   :     11.08796       6.45140       7.05645
                        -----------------------------------------
Total Dipole Moment    :      0.60986       0.92212       0.93125
                        -----------------------------------------
Magnitude (a.u.)       :      1.44550
Magnitude (Debye)      :      3.67416

Rotational constants in cm-1:     0.100113     0.046890     0.041843
Rotational constants in MHz :  3001.313402  1405.711946  1254.411771

                             ****ORCA TERMINATED NORMALLY****
TOTAL RUN TIME: 0 days 0 hours 1 minutes 35 seconds 196 msec
