                         Program Version 5.0.0 -  RELEASE  -
|  1> !LC-PBE RIJCOSX def2-TZVPD def2/J TightSCF xyzfile
|  2>
|  3> *xyzfile 0 1 D3.xyz
|  4>
|  5> %MaxCore 64000
|  6>
|  7> %pal nprocs 4
|  8> end
|  9>
| 10> %scf
| 11>   MaxIter 150
| 12> end
| 13>
| 14>
| 15>                          ****END OF INPUT****

CARTESIAN COORDINATES (ANGSTROEM)
---------------------------------
  C      1.364014    0.468742   -2.813764
  C      0.428844    0.321402   -1.655312
  C      0.968045    1.630639   -3.715749
  C     -0.508347    1.722679   -4.124300
  S     -1.328608    0.146737   -4.435781
  H     -0.591511    2.294958   -5.047219
  H     -1.114114    2.235610   -3.374362
  H      0.748578   -0.400542   -1.001345
  H     -0.461053    0.023332   -2.077731
  H      0.310258    1.201375   -1.134948
  O     -2.571347    0.475733   -5.068341
  O     -1.514963   -0.400512   -3.063420
  H      1.294847   -0.468742   -3.364684
  H      2.376216    0.597400   -2.431495
  H      1.578688    1.520652   -4.612733
  H      1.266653    2.575988   -3.250448
  F     -0.377928   -0.627558   -5.201141

 Total Charge           Charge          ....    0
 Multiplicity           Mult            ....    1
 Number of Electrons    NEL             ....   74
 Basis Dimension        Dim             ....  395

ORBITAL ENERGIES
----------------

  NO   OCC          E(Eh)            E(eV)
   0   2.0000     -88.542530     -2409.3647
   1   2.0000     -24.621836      -669.9942
   2   2.0000     -19.004073      -517.1271
   3   2.0000     -18.985961      -516.6343
   4   2.0000     -10.179223      -276.9907
   5   2.0000     -10.141944      -275.9763
   6   2.0000     -10.112788      -275.1829
   7   2.0000     -10.043981      -273.3106
   8   2.0000      -8.154012      -221.8819
   9   2.0000      -6.174442      -168.0151
  10   2.0000      -6.167331      -167.8216
  11   2.0000      -6.166872      -167.8091
  12   2.0000      -1.552113       -42.2351
  13   2.0000      -1.290827       -35.1252
  14   2.0000      -1.186159       -32.2770
  15   2.0000      -1.019771       -27.7494
  16   2.0000      -0.948861       -25.8198
  17   2.0000      -0.887193       -24.1418
  18   2.0000      -0.848534       -23.0898
  19   2.0000      -0.776388       -21.1266
  20   2.0000      -0.752272       -20.4704
  21   2.0000      -0.742931       -20.2162
  22   2.0000      -0.697624       -18.9833
  23   2.0000      -0.653993       -17.7960
  24   2.0000      -0.645742       -17.5715
  25   2.0000      -0.618247       -16.8233
  26   2.0000      -0.603415       -16.4198
  27   2.0000      -0.571036       -15.5387
  28   2.0000      -0.554170       -15.0797
  29   2.0000      -0.534917       -14.5558
  30   2.0000      -0.532791       -14.4980
  31   2.0000      -0.506163       -13.7734
  32   2.0000      -0.479173       -13.0390
  33   2.0000      -0.469043       -12.7633
  34   2.0000      -0.461488       -12.5577
  35   2.0000      -0.451805       -12.2942
  36   2.0000      -0.401718       -10.9313
  37   0.0000       0.045873         1.2483
  38   0.0000       0.055610         1.5132
  39   0.0000       0.064938         1.7671
  40   0.0000       0.070644         1.9223
  41   0.0000       0.090808         2.4710

MULLIKEN ATOMIC CHARGES
-----------------------
   0 C :   -0.627661
   1 C :   -1.157819
   2 C :   -0.595996
   3 C :   -0.770434
   4 S :    1.067814
   5 H :    0.407909
   6 H :    0.429248
   7 H :    0.434678
   8 H :    0.331767
   9 H :    0.363657
  10 O :   -0.541927
  11 O :   -0.617217
  12 H :    0.308186
  13 H :    0.343832
  14 H :    0.338564
  15 H :    0.393102
  16 F :   -0.107703
Sum of atomic charges:    0.0000000

LOEWDIN ATOMIC CHARGES
----------------------
   0 C :   -0.274505
   1 C :   -0.138431
   2 C :   -0.242403
   3 C :   -0.218802
   4 S :    0.612581
   5 H :    0.112418
   6 H :    0.129855
   7 H :    0.070434
   8 H :   -0.033313
   9 H :    0.075531
  10 O :   -0.250755
  11 O :   -0.295308
  12 H :    0.109278
  13 H :    0.120127
  14 H :    0.116821
  15 H :    0.129650
  16 F :   -0.023179

  Mayer bond orders larger than 0.100000
B(  0-C ,  1-C ) :   0.5081 B(  0-C ,  2-C ) :   0.6633 B(  0-C , 12-H ) :   0.9928
B(  0-C , 13-H ) :   0.9042 B(  1-C ,  7-H ) :   0.9350 B(  1-C ,  8-H ) :   1.0611
B(  1-C ,  9-H ) :   0.9996 B(  1-C , 11-O ) :   0.1021 B(  2-C ,  3-C ) :   0.7137
B(  2-C , 14-H ) :   0.9427 B(  2-C , 15-H ) :   0.8860 B(  3-C ,  4-S ) :   0.8894
B(  3-C ,  5-H ) :   0.9076 B(  3-C ,  6-H ) :   0.8504 B(  3-C , 11-O ) :   0.1083
B(  4-S , 10-O ) :   1.7004 B(  4-S , 11-O ) :   1.6323 B(  4-S , 16-F ) :   1.0356
B(  8-H , 11-O ) :  -0.2910

FINAL SINGLE POINT ENERGY      -804.926035533790

DIPOLE MOMENT
-------------
                                X             Y             Z
Electronic contribution:     -8.61485      -5.93618      -9.92845
Nuclear contribution   :      9.83476       6.70164       9.41257
                        -----------------------------------------
Total Dipole Moment    :      1.21991       0.76546      -0.51588
                        -----------------------------------------
Magnitude (a.u.)       :      1.52979
Magnitude (Debye)      :      3.88841

Rotational constants in cm-1:     0.099832     0.045916     0.042219
Rotational constants in MHz :  2992.874960  1376.530174  1265.693813

                             ****ORCA TERMINATED NORMALLY****
TOTAL RUN TIME: 0 days 0 hours 1 minutes 43 seconds 317 msec
