                         Program Version 5.0.0 -  RELEASE  -
|  1> !B3LYP D3BJ RIJCOSX def2-SVPD def2/J TightSCF
|  2> *xyz -1 1
|  3> C         -0.25875        1.00432       -5.40983
|  4> C          0.39596       -0.37070       -5.33994
|  5> O         -0.32633       -1.39040       -5.49128
|  6> O          1.61941       -0.40073       -5.03683
|  7> H         -1.28979        0.89539       -5.67439
|  8> H          0.23798        1.59877       -6.14792
|  9> H         -0.18395        1.48386       -4.45623
| 10> *
| 11> %MaxCore 64000
| 12>
| 13> %pal nprocs 4
| 14> end
| 15>
| 16> %scf
| 17>   MaxIter 150
| 18> end
| 19>
| 20>
| 21>                          ****END OF INPUT****

CARTESIAN COORDINATES (ANGSTROEM)
---------------------------------
  C     -0.258750    1.004320   -5.409830
  C      0.395960   -0.370700   -5.339940
  O     -0.326330   -1.390400   -5.491280
  O      1.619410   -0.400730   -5.036830
  H     -1.289790    0.895390   -5.674390
  H      0.237980    1.598770   -6.147920
  H     -0.183950    1.483860   -4.456230

 Total Charge           Charge          ....   -1
 Multiplicity           Mult            ....    1
 Number of Electrons    NEL             ....   32
 Basis Dimension        Dim             ....  110

ORBITAL ENERGIES
----------------

  NO   OCC          E(Eh)            E(eV)
   0   2.0000     -18.875679      -513.6333
   1   2.0000     -18.872946      -513.5590
   2   2.0000     -10.068492      -273.9776
   3   2.0000      -9.997586      -272.0481
   4   2.0000      -0.806574       -21.9480
   5   2.0000      -0.713209       -19.4074
   6   2.0000      -0.538799       -14.6615
   7   2.0000      -0.301545        -8.2055
   8   2.0000      -0.260678        -7.0934
   9   2.0000      -0.246297        -6.7021
  10   2.0000      -0.223504        -6.0818
  11   2.0000      -0.183923        -5.0048
  12   2.0000      -0.164545        -4.4775
  13   2.0000      -0.047566        -1.2943
  14   2.0000      -0.043182        -1.1750
  15   2.0000      -0.025178        -0.6851
  16   0.0000       0.170217         4.6318
  17   0.0000       0.213934         5.8214
  18   0.0000       0.220842         6.0094
  19   0.0000       0.240257         6.5377
  20   0.0000       0.263420         7.1680

MULLIKEN ATOMIC CHARGES
-----------------------
   0 C :    0.695720
   1 C :    0.040385
   2 O :   -0.642856
   3 O :   -0.673712
   4 H :   -0.158338
   5 H :   -0.129499
   6 H :   -0.131700
Sum of atomic charges:   -1.0000000

LOEWDIN ATOMIC CHARGES
----------------------
   0 C :    0.150838
   1 C :   -0.335457
   2 O :   -0.340045
   3 O :   -0.346646
   4 H :   -0.048125
   5 H :   -0.041775
   6 H :   -0.038791

  Mayer bond orders larger than 0.100000
B(  0-C ,  1-C ) :   1.1939 B(  0-C ,  4-H ) :   0.8280 B(  0-C ,  5-H ) :   0.7727
B(  0-C ,  6-H ) :   0.7876 B(  1-C ,  2-O ) :   1.4868 B(  1-C ,  3-O ) :   1.4945
B(  1-C ,  4-H ) :   0.2777 B(  1-C ,  5-H ) :   0.2004 B(  1-C ,  6-H ) :   0.1856

Dispersion correction           -0.006230190
FINAL SINGLE POINT ENERGY      -228.262054837436

DIPOLE MOMENT
-------------
                                X             Y             Z
Electronic contribution:      1.52499      -3.23458       0.18557
Nuclear contribution   :     -2.15615       4.52621      -0.30445
                        -----------------------------------------
Total Dipole Moment    :     -0.63115       1.29163      -0.11887
                        -----------------------------------------
Magnitude (a.u.)       :      1.44249
Magnitude (Debye)      :      3.66653

Rotational constants in cm-1:     0.393591     0.332639     0.186460
Rotational constants in MHz : 11799.557437  9972.275109  5589.926304

                             ****ORCA TERMINATED NORMALLY****
TOTAL RUN TIME: 0 days 0 hours 0 minutes 8 seconds 269 msec
