                         Program Version 5.0.0 -  RELEASE  -
|  1> !B3LYP D3BJ RIJCOSX def2-SVPD def2/J TightSCF
|  2> *xyz 1 1
|  3> C          0.81607       -2.10149       -2.18655
|  4> N          1.10055       -2.46749       -3.59927
|  5> H          1.70061       -1.75723       -4.07838
|  6> H          0.29386       -2.35977       -4.25632
|  7> H          1.50132       -3.42848       -3.69491
|  8> H          0.40947       -1.11246       -2.14929
|  9> H          1.72290       -2.13590       -1.61965
| 10> H          0.11112       -2.79271       -1.77405
| 11> *
| 12> %MaxCore 64000
| 13>
| 14> %pal nprocs 4
| 15> end
| 16>
| 17> %scf
| 18>   MaxIter 150
| 19> end
| 20>
| 21>
| 22>                          ****END OF INPUT****

CARTESIAN COORDINATES (ANGSTROEM)
---------------------------------
  C      0.816070   -2.101490   -2.186550
  N      1.100550   -2.467490   -3.599270
  H      1.700610   -1.757230   -4.078380
  H      0.293860   -2.359770   -4.256320
  H      1.501320   -3.428480   -3.694910
  H      0.409470   -1.112460   -2.149290
  H      1.722900   -2.135900   -1.619650
  H      0.111120   -2.792710   -1.774050

 Total Charge           Charge          ....    1
 Multiplicity           Mult            ....    1
 Number of Electrons    NEL             ....   18
 Basis Dimension        Dim             ....   88

ORBITAL ENERGIES
----------------

  NO   OCC          E(Eh)            E(eV)
   0   2.0000     -14.682039      -399.5186
   1   2.0000     -10.443193      -284.1737
   2   2.0000      -1.211530       -32.9674
   3   2.0000      -0.936225       -25.4760
   4   2.0000      -0.816519       -22.2186
   5   2.0000      -0.781854       -21.2753
   6   2.0000      -0.719372       -19.5751
   7   2.0000      -0.629178       -17.1208
   8   2.0000      -0.623820       -16.9750
   9   0.0000      -0.211358        -5.7513
  10   0.0000      -0.146047        -3.9742
  11   0.0000      -0.141639        -3.8542
  12   0.0000      -0.134243        -3.6529
  13   0.0000      -0.086750        -2.3606

MULLIKEN ATOMIC CHARGES
-----------------------
   0 C :    1.183759
   1 N :   -0.848548
   2 H :    0.354806
   3 H :    0.339444
   4 H :    0.373796
   5 H :   -0.139784
   6 H :   -0.127524
   7 H :   -0.135950
Sum of atomic charges:    1.0000000

LOEWDIN ATOMIC CHARGES
----------------------
   0 C :    0.287875
   1 N :    0.292398
   2 H :    0.115271
   3 H :    0.115952
   4 H :    0.121791
   5 H :    0.022182
   6 H :    0.022771
   7 H :    0.021760

  Mayer bond orders larger than 0.100000
B(  0-C ,  1-N ) :   0.7483 B(  0-C ,  5-H ) :   0.8544 B(  0-C ,  6-H ) :   0.8499
B(  0-C ,  7-H ) :   0.8599 B(  1-N ,  2-H ) :   0.7851 B(  1-N ,  3-H ) :   0.8048
B(  1-N ,  4-H ) :   0.7391 B(  1-N ,  5-H ) :   0.1114 B(  1-N ,  6-H ) :   0.1125
B(  1-N ,  7-H ) :   0.1052

Dispersion correction           -0.005430364
FINAL SINGLE POINT ENERGY       -96.086536043878

DIPOLE MOMENT
-------------
                                X             Y             Z
Electronic contribution:      0.21263      -0.31133      -0.96607
Nuclear contribution   :     -0.05716       0.15480       0.08012
                        -----------------------------------------
Total Dipole Moment    :      0.15547      -0.15653      -0.88595
                        -----------------------------------------
Magnitude (a.u.)       :      0.91300
Magnitude (Debye)      :      2.32067

Rotational constants in cm-1:     2.875975     0.681325     0.670600
Rotational constants in MHz : 86219.567947 20425.600745 20104.086440

                             ****ORCA TERMINATED NORMALLY****
TOTAL RUN TIME: 0 days 0 hours 0 minutes 4 seconds 929 msec
