                         Program Version 5.0.0 -  RELEASE  -
|  1> !B3LYP D3BJ RIJCOSX def2-SVPD def2/J TightSCF xyzfile
|  2>
|  3> *xyzfile 0 1 B.xyz
|  4>
|  5> %MaxCore 64000
|  6>
|  7> %pal nprocs 4
|  8> end
|  9>
| 10> %scf
| 11>   MaxIter 150
| 12> end
| 13>
| 14>
| 15>                          ****END OF INPUT****

CARTESIAN COORDINATES (ANGSTROEM)
---------------------------------
  C      0.816067   -2.101491   -2.186546
  H      1.696232   -2.368691   -1.600457
  N      1.100552   -2.467492   -3.599269
  C      0.516243   -0.613634   -2.039373
  H     -0.020066   -2.712849   -1.840844
  C     -0.868621   -0.193925   -2.546303
  C     -0.984801    1.284739   -2.928686
  H     -0.764939    1.904116   -2.051568
  H     -2.032613    1.478953   -3.178952
  C     -0.106085    1.769914   -4.089836
  H     -0.347744    2.822196   -4.262942
  H      0.949683    1.745875   -3.808781
  C     -0.258747    1.004323   -5.409829
  C      0.395958   -0.370696   -5.339939
  H      0.239150    1.569393   -6.201253
  H     -1.309360    0.888694   -5.682455
  H      1.700606   -1.757225   -4.078378
  H      0.293855   -2.359766   -4.256324
  H      1.501324   -3.428479   -3.694915
  O     -0.326329   -1.390398   -5.491279
  O      1.619412   -0.400726   -5.036827
  H     -1.607271   -0.412651   -1.768955
  H     -1.157234   -0.796164   -3.409254
  H      1.299044   -0.056805   -2.558982
  H      0.612393   -0.365579   -0.979171

 Total Charge           Charge          ....    0
 Multiplicity           Mult            ....    1
 Number of Electrons    NEL             ....   80
 Basis Dimension        Dim             ....  326

ORBITAL ENERGIES
----------------

  NO   OCC          E(Eh)            E(eV)
   0   2.0000     -19.077697      -519.1305
   1   2.0000     -19.076471      -519.0972
   2   2.0000     -14.416052      -392.2807
   3   2.0000     -10.260757      -279.2094
   4   2.0000     -10.256617      -279.0967
   5   2.0000     -10.197589      -277.4905
   6   2.0000     -10.179394      -276.9954
   7   2.0000     -10.175121      -276.8791
   8   2.0000     -10.168413      -276.6966
   9   2.0000     -10.159364      -276.4503
  10   2.0000      -1.022019       -27.8106
  11   2.0000      -0.969872       -26.3916
  12   2.0000      -0.921856       -25.0850
  13   2.0000      -0.808431       -21.9985
  14   2.0000      -0.765984       -20.8435
  15   2.0000      -0.719668       -19.5832
  16   2.0000      -0.656739       -17.8708
  17   2.0000      -0.623900       -16.9772
  18   2.0000      -0.576762       -15.6945
  19   2.0000      -0.563497       -15.3335
  20   2.0000      -0.540652       -14.7119
  21   2.0000      -0.515779       -14.0351
  22   2.0000      -0.479898       -13.0587
  23   2.0000      -0.468614       -12.7516
  24   2.0000      -0.455990       -12.4081
  25   2.0000      -0.445509       -12.1229
  26   2.0000      -0.425607       -11.5813
  27   2.0000      -0.419244       -11.4082
  28   2.0000      -0.401139       -10.9156
  29   2.0000      -0.391761       -10.6604
  30   2.0000      -0.386070       -10.5055
  31   2.0000      -0.374763       -10.1978
  32   2.0000      -0.354017        -9.6333
  33   2.0000      -0.350474        -9.5369
  34   2.0000      -0.327011        -8.8984
  35   2.0000      -0.313398        -8.5280
  36   2.0000      -0.309706        -8.4275
  37   2.0000      -0.253927        -6.9097
  38   2.0000      -0.240512        -6.5447
  39   2.0000      -0.232009        -6.3133
  40   0.0000      -0.010866        -0.2957
  41   0.0000       0.021894         0.5958
  42   0.0000       0.031047         0.8448
  43   0.0000       0.037634         1.0241
  44   0.0000       0.040651         1.1062

MULLIKEN ATOMIC CHARGES
-----------------------
   0 C :    1.238085
   1 H :   -0.267466
   2 N :   -0.436164
   3 C :    0.251260
   4 H :   -0.269142
   5 C :    0.357612
   6 C :    0.518803
   7 H :   -0.163529
   8 H :   -0.018612
   9 C :    0.203453
  10 H :   -0.319515
  11 H :    0.014546
  12 C :    0.494473
  13 C :    0.270230
  14 H :   -0.082889
  15 H :   -0.138951
  16 H :    0.271713
  17 H :    0.216775
  18 H :    0.216499
  19 O :   -0.686521
  20 O :   -0.723117
  21 H :   -0.237209
  22 H :   -0.303884
  23 H :   -0.066516
  24 H :   -0.339935
Sum of atomic charges:    0.0000000

LOEWDIN ATOMIC CHARGES
----------------------
   0 C :    0.091805
   1 H :    0.027433
   2 N :    0.312229
   3 C :    0.005613
   4 H :    0.032531
   5 C :   -0.006980
   6 C :   -0.015016
   7 H :    0.017824
   8 H :    0.020516
   9 C :   -0.016728
  10 H :    0.014767
  11 H :    0.008160
  12 C :    0.052928
  13 C :   -0.203087
  14 H :    0.028294
  15 H :    0.022054
  16 H :   -0.024758
  17 H :   -0.022757
  18 H :    0.099613
  19 O :   -0.249941
  20 O :   -0.241357
  21 H :    0.020065
  22 H :   -0.005931
  23 H :    0.007859
  24 H :    0.024867

  Mayer bond orders larger than 0.100000
B(  0-C ,  1-H ) :   0.6586 B(  0-C ,  2-N ) :   0.7034 B(  0-C ,  3-C ) :   1.1255
B(  0-C ,  4-H ) :   0.7165 B(  1-H ,  2-N ) :   0.1152 B(  1-H ,  3-C ) :   0.2471
B(  1-H ,  4-H ) :  -0.1505 B(  2-N ,  4-H ) :   0.2382 B(  2-N , 13-C ) :   0.1167
B(  2-N , 16-H ) :   0.8077 B(  2-N , 17-H ) :   0.9087 B(  2-N , 18-H ) :   0.7937
B(  3-C ,  5-C ) :   1.1464 B(  3-C , 21-H ) :   0.2439 B(  3-C , 22-H ) :   0.1423
B(  3-C , 23-H ) :   0.8513 B(  3-C , 24-H ) :   0.7947 B(  5-C ,  6-C ) :   1.2136
B(  5-C ,  7-H ) :   0.1807 B(  5-C ,  8-H ) :   0.2471 B(  5-C ,  9-C ) :   0.1070
B(  5-C , 21-H ) :   0.6931 B(  5-C , 22-H ) :   0.7587 B(  5-C , 23-H ) :   0.1265
B(  5-C , 24-H ) :   0.1837 B(  6-C ,  7-H ) :   0.7558 B(  6-C ,  8-H ) :   0.6016
B(  6-C ,  9-C ) :   1.2135 B(  6-C , 10-H ) :   0.1639 B(  6-C , 11-H ) :   0.1124
B(  6-C , 21-H ) :   0.1283 B(  6-C , 22-H ) :   0.1075 B(  7-H ,  8-H ) :  -0.1028
B(  7-H ,  9-C ) :   0.1779 B(  8-H ,  9-C ) :   0.1762 B(  9-C , 10-H ) :   0.8084
B(  9-C , 11-H ) :   0.7848 B(  9-C , 12-C ) :   1.2201 B(  9-C , 14-H ) :   0.1940
B(  9-C , 15-H ) :   0.1349 B( 10-H , 11-H ) :  -0.1405 B( 10-H , 12-C ) :   0.1322
B( 11-H , 12-C ) :   0.1150 B( 12-C , 13-C ) :   1.1319 B( 12-C , 14-H ) :   0.6550
B( 12-C , 15-H ) :   0.7880 B( 13-C , 14-H ) :   0.1972 B( 13-C , 15-H ) :   0.2923
B( 13-C , 19-O ) :   1.4265 B( 13-C , 20-O ) :   1.3435 B( 16-H , 20-O ) :   0.2194
B( 17-H , 19-O ) :   0.2262 B( 19-O , 20-O ) :   0.1112

Dispersion correction           -0.043787278
FINAL SINGLE POINT ENERGY      -480.427551916064

DIPOLE MOMENT
-------------
                                X             Y             Z
Electronic contribution:      2.29043      -3.08695      -6.25200
Nuclear contribution   :     -2.02598       1.95876       8.24116
                        -----------------------------------------
Total Dipole Moment    :      0.26445      -1.12818       1.98916
                        -----------------------------------------
Magnitude (a.u.)       :      2.30206
Magnitude (Debye)      :      5.85137

Rotational constants in cm-1:     0.052900     0.041948     0.028766
Rotational constants in MHz :  1585.892512  1257.572595   862.390225

                             ****ORCA TERMINATED NORMALLY****
TOTAL RUN TIME: 0 days 0 hours 1 minutes 26 seconds 616 msec
