                         Program Version 5.0.0 -  RELEASE  -
|  1> !B3LYP D3BJ RIJCOSX def2-SVPD def2/J TightSCF
|  2> *xyz 0 1
|  3> C         -0.25875        1.00432       -5.40983
|  4> C          0.39596       -0.37070       -5.33994
|  5> F         -0.32633       -1.39040       -5.49128
|  6> O          1.61941       -0.40073       -5.03683
|  7> H         -1.28979        0.89539       -5.67439
|  8> H          0.23798        1.59877       -6.14792
|  9> H         -0.18395        1.48386       -4.45623
| 10> *
| 11> %MaxCore 64000
| 12>
| 13> %pal nprocs 4
| 14> end
| 15>
| 16> %scf
| 17>   MaxIter 150
| 18> end
| 19>
| 20>
| 21>                          ****END OF INPUT****

CARTESIAN COORDINATES (ANGSTROEM)
---------------------------------
  C     -0.258750    1.004320   -5.409830
  C      0.395960   -0.370700   -5.339940
  F     -0.326330   -1.390400   -5.491280
  O      1.619410   -0.400730   -5.036830
  H     -1.289790    0.895390   -5.674390
  H      0.237980    1.598770   -6.147920
  H     -0.183950    1.483860   -4.456230

 Total Charge           Charge          ....    0
 Multiplicity           Mult            ....    1
 Number of Electrons    NEL             ....   32
 Basis Dimension        Dim             ....  110

ORBITAL ENERGIES
----------------

  NO   OCC          E(Eh)            E(eV)
   0   2.0000     -24.772639      -674.0978
   1   2.0000     -19.151315      -521.1338
   2   2.0000     -10.373380      -282.2740
   3   2.0000     -10.214601      -277.9534
   4   2.0000      -1.309248       -35.6265
   5   2.0000      -1.026058       -27.9204
   6   2.0000      -0.770182       -20.9577
   7   2.0000      -0.662256       -18.0209
   8   2.0000      -0.553829       -15.0705
   9   2.0000      -0.549664       -14.9571
  10   2.0000      -0.506023       -13.7696
  11   2.0000      -0.450632       -12.2623
  12   2.0000      -0.437246       -11.8981
  13   2.0000      -0.408584       -11.1181
  14   2.0000      -0.357556        -9.7296
  15   2.0000      -0.299577        -8.1519
  16   0.0000      -0.041478        -1.1287
  17   0.0000       0.009395         0.2556
  18   0.0000       0.056186         1.5289
  19   0.0000       0.084025         2.2864
  20   0.0000       0.085757         2.3336

MULLIKEN ATOMIC CHARGES
-----------------------
   0 C :    0.628780
   1 C :    0.389681
   2 F :   -0.342206
   3 O :   -0.462454
   4 H :   -0.112636
   5 H :   -0.053552
   6 H :   -0.047613
Sum of atomic charges:    0.0000000

LOEWDIN ATOMIC CHARGES
----------------------
   0 C :    0.223382
   1 C :   -0.033161
   2 F :   -0.037775
   3 O :   -0.140885
   4 H :   -0.016460
   5 H :    0.001643
   6 H :    0.003256

  Mayer bond orders larger than 0.100000
B(  0-C ,  1-C ) :   1.2399 B(  0-C ,  4-H ) :   0.8478 B(  0-C ,  5-H ) :   0.7658
B(  0-C ,  6-H ) :   0.7815 B(  1-C ,  2-F ) :   0.8119 B(  1-C ,  3-O ) :   1.8178
B(  1-C ,  4-H ) :   0.1759 B(  1-C ,  5-H ) :   0.1789 B(  1-C ,  6-H ) :   0.1599

Dispersion correction           -0.005734156
FINAL SINGLE POINT ENERGY      -252.793367213138

DIPOLE MOMENT
-------------
                                X             Y             Z
Electronic contribution:      0.44018      -5.03636      -0.09648
Nuclear contribution   :     -1.44986       5.66477      -0.12483
                        -----------------------------------------
Total Dipole Moment    :     -1.00968       0.62841      -0.22131
                        -----------------------------------------
Magnitude (a.u.)       :      1.20968
Magnitude (Debye)      :      3.07476

Rotational constants in cm-1:     0.371735     0.317798     0.176902
Rotational constants in MHz : 11144.324945  9527.341239  5303.391856

                             ****ORCA TERMINATED NORMALLY****
TOTAL RUN TIME: 0 days 0 hours 0 minutes 7 seconds 747 msec
