                         Program Version 5.0.0 -  RELEASE  -
|  1> !B3LYP D3BJ RIJCOSX def2-SVPD def2/J TightSCF
|  2> *xyz 0 1
|  3> C          0.81607       -2.10149       -2.18655
|  4> C          1.10055       -2.46749       -3.59927
|  5> H          1.70061       -1.75723       -4.07838
|  6> H          0.29386       -2.35977       -4.25632
|  7> H          1.50132       -3.42848       -3.69491
|  8> H          0.40947       -1.11246       -2.14929
|  9> H          1.72290       -2.13590       -1.61965
| 10> H          0.11112       -2.79271       -1.77405
| 11> *
| 12> %MaxCore 64000
| 13>
| 14> %pal nprocs 4
| 15> end
| 16>
| 17> %scf
| 18>   MaxIter 150
| 19> end
| 20>
| 21>
| 22>                          ****END OF INPUT****

CARTESIAN COORDINATES (ANGSTROEM)
---------------------------------
  C      0.816070   -2.101490   -2.186550
  C      1.100550   -2.467490   -3.599270
  H      1.700610   -1.757230   -4.078380
  H      0.293860   -2.359770   -4.256320
  H      1.501320   -3.428480   -3.694910
  H      0.409470   -1.112460   -2.149290
  H      1.722900   -2.135900   -1.619650
  H      0.111120   -2.792710   -1.774050

 Total Charge           Charge          ....    0
 Multiplicity           Mult            ....    1
 Number of Electrons    NEL             ....   18
 Basis Dimension        Dim             ....   88

ORBITAL ENERGIES
----------------

  NO   OCC          E(Eh)            E(eV)
   0   2.0000     -10.163088      -276.5517
   1   2.0000     -10.153982      -276.3039
   2   2.0000      -0.759486       -20.6667
   3   2.0000      -0.617990       -16.8164
   4   2.0000      -0.453231       -12.3330
   5   2.0000      -0.434777       -11.8309
   6   2.0000      -0.375884       -10.2283
   7   2.0000      -0.352492        -9.5918
   8   2.0000      -0.331760        -9.0277
   9   0.0000       0.026374         0.7177
  10   0.0000       0.056828         1.5464
  11   0.0000       0.097667         2.6577
  12   0.0000       0.102605         2.7920
  13   0.0000       0.120509         3.2792

MULLIKEN ATOMIC CHARGES
-----------------------
   0 C :    0.529112
   1 C :    0.611487
   2 H :   -0.244753
   3 H :   -0.259623
   4 H :   -0.231854
   5 H :   -0.126508
   6 H :   -0.136231
   7 H :   -0.141630
Sum of atomic charges:    0.0000000

LOEWDIN ATOMIC CHARGES
----------------------
   0 C :    0.085981
   1 C :    0.074292
   2 H :   -0.035586
   3 H :   -0.035900
   4 H :   -0.027705
   5 H :   -0.019735
   6 H :   -0.019977
   7 H :   -0.021368

  Mayer bond orders larger than 0.100000
B(  0-C ,  1-C ) :   1.4242 B(  0-C ,  2-H ) :   0.1557 B(  0-C ,  3-H ) :   0.1414
B(  0-C ,  4-H ) :   0.1670 B(  0-C ,  5-H ) :   0.8255 B(  0-C ,  6-H ) :   0.7998
B(  0-C ,  7-H ) :   0.8165 B(  1-C ,  2-H ) :   0.7244 B(  1-C ,  3-H ) :   0.7270
B(  1-C ,  4-H ) :   0.7842 B(  1-C ,  5-H ) :   0.1804 B(  1-C ,  6-H ) :   0.1808
B(  1-C ,  7-H ) :   0.1734 B(  2-H ,  3-H ) :   0.2726

Dispersion correction           -0.005475263
FINAL SINGLE POINT ENERGY       -79.703926246026

DIPOLE MOMENT
-------------
                                X             Y             Z
Electronic contribution:      0.00502      -0.07157       0.12778
Nuclear contribution   :     -0.00793       0.09023      -0.16124
                        -----------------------------------------
Total Dipole Moment    :     -0.00291       0.01866      -0.03346
                        -----------------------------------------
Magnitude (a.u.)       :      0.03842
Magnitude (Debye)      :      0.09766

Rotational constants in cm-1:     2.876169     0.710562     0.698917
Rotational constants in MHz : 86225.370734 21302.115394 20952.991121

                             ****ORCA TERMINATED NORMALLY****
TOTAL RUN TIME: 0 days 0 hours 0 minutes 5 seconds 171 msec
