                         Program Version 5.0.0 -  RELEASE  -
|  1> !B3LYP D3BJ RIJCOSX def2-SVPD def2/J TightSCF
|  2> *xyz 0 1
|  3> C         -0.25875        1.00432       -5.40983
|  4> C          0.39596       -0.37070       -5.33994
|  5> O         -0.32633       -1.39040       -5.49128
|  6> F          1.61941       -0.40073       -5.03683
|  7> H         -1.28979        0.89539       -5.67439
|  8> H          0.23798        1.59877       -6.14792
|  9> H         -0.18395        1.48386       -4.45623
| 10> *
| 11> %MaxCore 64000
| 12>
| 13> %pal nprocs 4
| 14> end
| 15>
| 16> %scf
| 17>   MaxIter 150
| 18> end
| 19>
| 20>
| 21>                          ****END OF INPUT****

CARTESIAN COORDINATES (ANGSTROEM)
---------------------------------
  C     -0.258750    1.004320   -5.409830
  C      0.395960   -0.370700   -5.339940
  O     -0.326330   -1.390400   -5.491280
  F      1.619410   -0.400730   -5.036830
  H     -1.289790    0.895390   -5.674390
  H      0.237980    1.598770   -6.147920
  H     -0.183950    1.483860   -4.456230

 Total Charge           Charge          ....    0
 Multiplicity           Mult            ....    1
 Number of Electrons    NEL             ....   32
 Basis Dimension        Dim             ....  110

ORBITAL ENERGIES
----------------

  NO   OCC          E(Eh)            E(eV)
   0   2.0000     -24.770551      -674.0410
   1   2.0000     -19.153157      -521.1839
   2   2.0000     -10.373187      -282.2688
   3   2.0000     -10.214449      -277.9493
   4   2.0000      -1.306927       -35.5633
   5   2.0000      -1.027671       -27.9643
   6   2.0000      -0.771222       -20.9860
   7   2.0000      -0.660265       -17.9667
   8   2.0000      -0.553136       -15.0516
   9   2.0000      -0.548251       -14.9187
  10   2.0000      -0.505713       -13.7611
  11   2.0000      -0.449426       -12.2295
  12   2.0000      -0.437462       -11.9040
  13   2.0000      -0.408816       -11.1244
  14   2.0000      -0.361880        -9.8473
  15   2.0000      -0.300483        -8.1766
  16   0.0000      -0.038232        -1.0403
  17   0.0000       0.009772         0.2659
  18   0.0000       0.056191         1.5290
  19   0.0000       0.081647         2.2217
  20   0.0000       0.089553         2.4369

MULLIKEN ATOMIC CHARGES
-----------------------
   0 C :    0.640101
   1 C :    0.403422
   2 O :   -0.438549
   3 F :   -0.366707
   4 H :   -0.132083
   5 H :   -0.055315
   6 H :   -0.050870
Sum of atomic charges:    0.0000000

LOEWDIN ATOMIC CHARGES
----------------------
   0 C :    0.223436
   1 C :   -0.035846
   2 O :   -0.136157
   3 F :   -0.040962
   4 H :   -0.003003
   5 H :   -0.005441
   6 H :   -0.002027

  Mayer bond orders larger than 0.100000
B(  0-C ,  1-C ) :   1.2232 B(  0-C ,  4-H ) :   0.8462 B(  0-C ,  5-H ) :   0.7715
B(  0-C ,  6-H ) :   0.7814 B(  1-C ,  2-O ) :   1.8443 B(  1-C ,  3-F ) :   0.7675
B(  1-C ,  4-H ) :   0.2419 B(  1-C ,  5-H ) :   0.1550 B(  1-C ,  6-H ) :   0.1456

Dispersion correction           -0.005730617
FINAL SINGLE POINT ENERGY      -252.795904726464

DIPOLE MOMENT
-------------
                                X             Y             Z
Electronic contribution:      3.59630      -3.43004       0.64151
Nuclear contribution   :     -3.46039       4.64214      -0.59441
                        -----------------------------------------
Total Dipole Moment    :      0.13591       1.21211       0.04710
                        -----------------------------------------
Magnitude (a.u.)       :      1.22061
Magnitude (Debye)      :      3.10255

Rotational constants in cm-1:     0.366844     0.321935     0.177045
Rotational constants in MHz : 10997.709774  9651.373819  5307.687677

                             ****ORCA TERMINATED NORMALLY****
TOTAL RUN TIME: 0 days 0 hours 0 minutes 7 seconds 944 msec
