                         Program Version 5.0.0 -  RELEASE  -
|  1> !PBE0 D3BJ RIJCOSX def2-SVPD def2/J TightSCF
|  2> *xyz -1 1
|  3> C         -7.33044       -2.67899       -3.20681
|  4> S         -6.01966       -2.92697       -4.41913
|  5> O         -5.64583       -1.58838       -4.91931
|  6> O         -4.88196       -3.50370       -3.66724
|  7> O         -6.54927       -3.80515       -5.42507
|  8> C         -6.28692       -0.73588       -1.89353
|  9> C         -7.46900       -1.24615       -2.71383
| 10> H         -7.60191       -0.60135       -3.58533
| 11> H         -8.38979       -1.17344       -2.12692
| 12> H         -7.11825       -3.37982       -2.39805
| 13> H         -8.24184       -3.00474       -3.70651
| 14> H         -5.39124       -0.81034       -2.47415
| 15> H         -6.18709       -1.32597       -1.00655
| 16> H         -6.45393        0.28631       -1.62495
| 17> *
| 18> %MaxCore 64000
| 19>
| 20> %pal nprocs 8
| 21> end
| 22>
| 23> %scf
| 24>   MaxIter 150
| 25> end
| 26>
| 27>
| 28>                          ****END OF INPUT****

CARTESIAN COORDINATES (ANGSTROEM)
---------------------------------
  C     -7.330440   -2.678990   -3.206810
  S     -6.019660   -2.926970   -4.419130
  O     -5.645830   -1.588380   -4.919310
  O     -4.881960   -3.503700   -3.667240
  O     -6.549270   -3.805150   -5.425070
  C     -6.286920   -0.735880   -1.893530
  C     -7.469000   -1.246150   -2.713830
  H     -7.601910   -0.601350   -3.585330
  H     -8.389790   -1.173440   -2.126920
  H     -7.118250   -3.379820   -2.398050
  H     -8.241840   -3.004740   -3.706510
  H     -5.391240   -0.810340   -2.474150
  H     -6.187090   -1.325970   -1.006550
  H     -6.453930    0.286310   -1.624950

 Total Charge           Charge          ....   -1
 Multiplicity           Mult            ....    1
 Number of Electrons    NEL             ....   66
 Basis Dimension        Dim             ....  212

ORBITAL ENERGIES
----------------

  NO   OCC          E(Eh)            E(eV)
   0   2.0000     -89.039019     -2422.8749
   1   2.0000     -19.002559      -517.0859
   2   2.0000     -18.992833      -516.8213
   3   2.0000     -18.988486      -516.7030
   4   2.0000     -10.104351      -274.9534
   5   2.0000     -10.099428      -274.8194
   6   2.0000     -10.086236      -274.4604
   7   2.0000      -7.998453      -217.6490
   8   2.0000      -5.940693      -161.6545
   9   2.0000      -5.940584      -161.6515
  10   2.0000      -5.940084      -161.6379
  11   2.0000      -0.956635       -26.0314
  12   2.0000      -0.815824       -22.1997
  13   2.0000      -0.792737       -21.5715
  14   2.0000      -0.677843       -18.4450
  15   2.0000      -0.585664       -15.9367
  16   2.0000      -0.488034       -13.2801
  17   2.0000      -0.400805       -10.9065
  18   2.0000      -0.348271        -9.4769
  19   2.0000      -0.337626        -9.1873
  20   2.0000      -0.309211        -8.4141
  21   2.0000      -0.296706        -8.0738
  22   2.0000      -0.279848        -7.6150
  23   2.0000      -0.270302        -7.3553
  24   2.0000      -0.237532        -6.4636
  25   2.0000      -0.230445        -6.2707
  26   2.0000      -0.218619        -5.9489
  27   2.0000      -0.165886        -4.5140
  28   2.0000      -0.163578        -4.4512
  29   2.0000      -0.129274        -3.5177
  30   2.0000      -0.122128        -3.3233
  31   2.0000      -0.114106        -3.1050
  32   2.0000      -0.078553        -2.1375
  33   0.0000       0.142831         3.8866
  34   0.0000       0.166881         4.5411
  35   0.0000       0.172366         4.6903
  36   0.0000       0.182593         4.9686
  37   0.0000       0.200507         5.4561

MULLIKEN ATOMIC CHARGES
-----------------------
   0 C :   -0.107695
   1 S :    1.429870
   2 O :   -0.866155
   3 O :   -0.846540
   4 O :   -0.842750
   5 C :    0.589759
   6 C :   -0.335379
   7 H :    0.082666
   8 H :   -0.148306
   9 H :    0.049549
  10 H :    0.036704
  11 H :   -0.040110
  12 H :    0.019868
  13 H :   -0.021481
Sum of atomic charges:   -1.0000000

LOEWDIN ATOMIC CHARGES
----------------------
   0 C :   -0.087009
   1 S :    0.881344
   2 O :   -0.584317
   3 O :   -0.601947
   4 O :   -0.575872
   5 C :    0.119102
   6 C :   -0.107442
   7 H :    0.016038
   8 H :    0.007277
   9 H :    0.006471
  10 H :   -0.001603
  11 H :   -0.022638
  12 H :   -0.020573
  13 H :   -0.028832

  Mayer bond orders larger than 0.100000
B(  0-C ,  1-S ) :   0.8997 B(  0-C ,  4-O ) :   0.1032 B(  0-C ,  6-C ) :   1.2240
B(  0-C ,  7-H ) :   0.1327 B(  0-C ,  8-H ) :   0.1032 B(  0-C ,  9-H ) :   0.9441
B(  0-C , 10-H ) :   0.9491 B(  1-S ,  2-O ) :   1.2332 B(  1-S ,  3-O ) :   1.2355
B(  1-S ,  4-O ) :   1.2993 B(  5-C ,  6-C ) :   1.2743 B(  5-C , 11-H ) :   0.8598
B(  5-C , 12-H ) :   0.8009 B(  5-C , 13-H ) :   0.7979 B(  6-C ,  7-H ) :   0.8856
B(  6-C ,  8-H ) :   0.9771 B(  6-C ,  9-H ) :   0.1016 B(  6-C , 10-H ) :   0.1018
B(  6-C , 11-H ) :   0.1953 B(  6-C , 12-H ) :   0.1907 B(  6-C , 13-H ) :   0.1854

Dispersion correction           -0.011496215
FINAL SINGLE POINT ENERGY      -741.560646381299

DIPOLE MOMENT
-------------
                                X             Y             Z
Electronic contribution:      3.79299      -5.83822      -7.91719
Nuclear contribution   :     -5.28952       6.71955       9.52938
                        -----------------------------------------
Total Dipole Moment    :     -1.49653       0.88134       1.61218
                        -----------------------------------------
Magnitude (a.u.)       :      2.36970
Magnitude (Debye)      :      6.02330

Rotational constants in cm-1:     0.135789     0.055302     0.052251
Rotational constants in MHz :  4070.851802  1657.908940  1566.458563

                             ****ORCA TERMINATED NORMALLY****
TOTAL RUN TIME: 0 days 0 hours 0 minutes 14 seconds 152 msec
