                         Program Version 5.0.0 -  RELEASE  -
|  1> !PBE0 D3BJ RIJCOSX def2-SVPD def2/J TightSCF
|  2> *xyz 1 1
|  3> C         -2.16038       -1.36949       -3.46710
|  4> N         -3.03011       -1.91086       -4.54107
|  5> C         -2.04772        0.14658       -3.51177
|  6> H         -3.47744       -2.79151       -4.25710
|  7> H         -2.53801       -2.01786       -5.43808
|  8> H         -3.89159       -1.37604       -4.71437
|  9> H         -1.18444       -1.84400       -3.56639
| 10> H         -2.59819       -1.70838       -2.52848
| 11> C         -3.32876        0.87504       -3.10367
| 12> H         -1.74003        0.45234       -4.51713
| 13> H         -1.23261        0.43494       -2.84221
| 14> H         -4.12483        0.59148       -3.76000
| 15> H         -3.17368        1.93185       -3.16688
| 16> H         -3.58415        0.61151       -2.09857
| 17> *
| 18> %MaxCore 64000
| 19>
| 20> %pal nprocs 8
| 21> end
| 22>
| 23> %scf
| 24>   MaxIter 150
| 25> end
| 26>
| 27>
| 28>                          ****END OF INPUT****

CARTESIAN COORDINATES (ANGSTROEM)
---------------------------------
  C     -2.160380   -1.369490   -3.467100
  N     -3.030110   -1.910860   -4.541070
  C     -2.047720    0.146580   -3.511770
  H     -3.477440   -2.791510   -4.257100
  H     -2.538010   -2.017860   -5.438080
  H     -3.891590   -1.376040   -4.714370
  H     -1.184440   -1.844000   -3.566390
  H     -2.598190   -1.708380   -2.528480
  C     -3.328760    0.875040   -3.103670
  H     -1.740030    0.452340   -4.517130
  H     -1.232610    0.434940   -2.842210
  H     -4.124830    0.591480   -3.760000
  H     -3.173680    1.931850   -3.166880
  H     -3.584150    0.611510   -2.098570

 Total Charge           Charge          ....    1
 Multiplicity           Mult            ....    1
 Number of Electrons    NEL             ....   34
 Basis Dimension        Dim             ....  160

ORBITAL ENERGIES
----------------

  NO   OCC          E(Eh)            E(eV)
   0   2.0000     -14.727527      -400.7564
   1   2.0000     -10.480603      -285.1917
   2   2.0000     -10.411463      -283.3103
   3   2.0000     -10.377444      -282.3846
   4   2.0000      -1.230831       -33.4926
   5   2.0000      -0.992332       -27.0027
   6   2.0000      -0.901811       -24.5395
   7   2.0000      -0.824225       -22.4283
   8   2.0000      -0.801979       -21.8230
   9   2.0000      -0.778841       -21.1933
  10   2.0000      -0.708600       -19.2820
  11   2.0000      -0.645018       -17.5518
  12   2.0000      -0.621320       -16.9070
  13   2.0000      -0.598038       -16.2734
  14   2.0000      -0.538634       -14.6570
  15   2.0000      -0.532428       -14.4881
  16   2.0000      -0.524751       -14.2792
  17   0.0000      -0.182231        -4.9587
  18   0.0000      -0.127601        -3.4722
  19   0.0000      -0.124302        -3.3824
  20   0.0000      -0.106013        -2.8847
  21   0.0000      -0.082230        -2.2376

MULLIKEN ATOMIC CHARGES
-----------------------
   0 C :    0.597821
   1 N :   -0.962116
   2 C :   -0.453463
   3 H :    0.394244
   4 H :    0.446322
   5 H :    0.359068
   6 H :   -0.035042
   7 H :    0.042320
   8 C :    0.588173
   9 H :    0.026583
  10 H :    0.047200
  11 H :   -0.150037
  12 H :    0.030848
  13 H :    0.068079
Sum of atomic charges:    1.0000000

LOEWDIN ATOMIC CHARGES
----------------------
   0 C :    0.087985
   1 N :    0.325801
   2 C :   -0.050778
   3 H :    0.107414
   4 H :    0.114642
   5 H :    0.089793
   6 H :    0.055271
   7 H :    0.054962
   8 C :    0.146087
   9 H :    0.037242
  10 H :    0.048183
  11 H :   -0.025780
  12 H :    0.007907
  13 H :    0.001272

  Mayer bond orders larger than 0.100000
B(  0-C ,  1-N ) :   0.6264 B(  0-C ,  2-C ) :   1.1956 B(  0-C ,  6-H ) :   0.9009
B(  0-C ,  7-H ) :   0.8926 B(  1-N ,  3-H ) :   0.7101 B(  1-N ,  4-H ) :   0.6639
B(  1-N ,  5-H ) :   0.7495 B(  1-N ,  6-H ) :   0.1150 B(  2-C ,  8-C ) :   1.3016
B(  2-C ,  9-H ) :   0.9525 B(  2-C , 10-H ) :   0.9304 B(  2-C , 11-H ) :   0.1658
B(  2-C , 12-H ) :   0.1733 B(  2-C , 13-H ) :   0.1575 B(  8-C , 11-H ) :   0.8686
B(  8-C , 12-H ) :   0.8225 B(  8-C , 13-H ) :   0.8062 B( 11-H , 13-H ) :   0.1028

Dispersion correction           -0.007725527
FINAL SINGLE POINT ENERGY      -174.524625531393

DIPOLE MOMENT
-------------
                                X             Y             Z
Electronic contribution:      0.32483      -2.13019      -1.09091
Nuclear contribution   :     -0.76147       0.35838       0.01319
                        -----------------------------------------
Total Dipole Moment    :     -0.43664      -1.77181      -1.07772
                        -----------------------------------------
Magnitude (a.u.)       :      2.11930
Magnitude (Debye)      :      5.38684

Rotational constants in cm-1:     0.457188     0.153451     0.133348
Rotational constants in MHz : 13706.154863  4600.337483  3997.673747

                             ****ORCA TERMINATED NORMALLY****
TOTAL RUN TIME: 0 days 0 hours 0 minutes 7 seconds 510 msec
