                         Program Version 5.0.0 -  RELEASE  -
|  1> !PBE0 D3BJ RIJCOSX def2-SVPD def2/J TightSCF xyzfile
|  2>
|  3> *xyzfile 0 1 B.xyz
|  4>
|  5> %MaxCore 64000
|  6>
|  7> %pal nprocs 4
|  8> end
|  9>
| 10> %scf
| 11>   MaxIter 150
| 12> end
| 13>
| 14>
| 15>                          ****END OF INPUT****

CARTESIAN COORDINATES (ANGSTROEM)
---------------------------------
  C     -2.160376   -1.369486   -3.467104
  N     -3.030108   -1.910857   -4.541074
  C     -2.047717    0.146583   -3.511774
  C     -7.330440   -2.678991   -3.206811
  S     -6.019659   -2.926965   -4.419128
  H     -3.477443   -2.791513   -4.257096
  H     -2.538013   -2.017860   -5.438075
  H     -3.891589   -1.376039   -4.714365
  O     -5.645830   -1.588384   -4.919307
  O     -4.881961   -3.503697   -3.667235
  H     -1.184438   -1.843997   -3.566393
  H     -2.598195   -1.708376   -2.528477
  O     -6.549267   -3.805150   -5.425071
  C     -3.328755    0.875037   -3.103669
  H     -1.740034    0.452343   -4.517126
  H     -1.232611    0.434938   -2.842208
  C     -3.628487    0.771601   -1.609363
  H     -4.175106    0.490791   -3.682203
  H     -3.237812    1.928663   -3.381480
  C     -4.975718    1.361432   -1.190644
  H     -2.830700    1.276234   -1.054766
  H     -3.594312   -0.275838   -1.294603
  C     -6.184720    0.784347   -1.926464
  H     -4.956292    2.445725   -1.342200
  H     -5.097256    1.205252   -0.114136
  C     -6.286921   -0.735882   -1.893531
  H     -6.163994    1.100199   -2.974250
  H     -7.094530    1.223459   -1.504509
  C     -7.468999   -1.246153   -2.713833
  H     -6.360641   -1.090347   -0.859176
  H     -5.369848   -1.171853   -2.295982
  H     -7.601914   -0.601349   -3.585329
  H     -8.389791   -1.173436   -2.126922
  H     -7.118254   -3.379818   -2.398055
  H     -8.241838   -3.004745   -3.706513

 Total Charge           Charge          ....    0
 Multiplicity           Mult            ....    1
 Number of Electrons    NEL             ....  122
 Basis Dimension        Dim             ....  464

ORBITAL ENERGIES
----------------

  NO   OCC          E(Eh)            E(eV)
   0   2.0000     -89.206421     -2427.4301
   1   2.0000     -19.172164      -521.7011
   2   2.0000     -19.171701      -521.6885
   3   2.0000     -19.156350      -521.2708
   4   2.0000     -14.500430      -394.5768
   5   2.0000     -10.317159      -280.7442
   6   2.0000     -10.270445      -279.4730
   7   2.0000     -10.250737      -278.9367
   8   2.0000     -10.242494      -278.7124
   9   2.0000     -10.237100      -278.5656
  10   2.0000     -10.234462      -278.4939
  11   2.0000     -10.227208      -278.2965
  12   2.0000     -10.227129      -278.2943
  13   2.0000     -10.223746      -278.2023
  14   2.0000      -8.165405      -222.1920
  15   2.0000      -6.108479      -166.2202
  16   2.0000      -6.107584      -166.1958
  17   2.0000      -6.106144      -166.1566
  18   2.0000      -1.128911       -30.7192
  19   2.0000      -1.024380       -27.8748
  20   2.0000      -0.980683       -26.6857
  21   2.0000      -0.977132       -26.5891
  22   2.0000      -0.855807       -23.2877
  23   2.0000      -0.827074       -22.5058
  24   2.0000      -0.801191       -21.8015
  25   2.0000      -0.756529       -20.5862
  26   2.0000      -0.723570       -19.6893
  27   2.0000      -0.678860       -18.4727
  28   2.0000      -0.641029       -17.4433
  29   2.0000      -0.625801       -17.0289
  30   2.0000      -0.610795       -16.6206
  31   2.0000      -0.587007       -15.9733
  32   2.0000      -0.575870       -15.6702
  33   2.0000      -0.554552       -15.0901
  34   2.0000      -0.530996       -14.4491
  35   2.0000      -0.505058       -13.7433
  36   2.0000      -0.504646       -13.7321
  37   2.0000      -0.492234       -13.3944
  38   2.0000      -0.475032       -12.9263
  39   2.0000      -0.466000       -12.6805
  40   2.0000      -0.455917       -12.4061
  41   2.0000      -0.453133       -12.3304
  42   2.0000      -0.445376       -12.1193
  43   2.0000      -0.429799       -11.6954
  44   2.0000      -0.427858       -11.6426
  45   2.0000      -0.415427       -11.3043
  46   2.0000      -0.402728       -10.9588
  47   2.0000      -0.389511       -10.5991
  48   2.0000      -0.382989       -10.4217
  49   2.0000      -0.368342       -10.0231
  50   2.0000      -0.360008        -9.7963
  51   2.0000      -0.351649        -9.5688
  52   2.0000      -0.340022        -9.2525
  53   2.0000      -0.336081        -9.1452
  54   2.0000      -0.332427        -9.0458
  55   2.0000      -0.329456        -8.9650
  56   2.0000      -0.325325        -8.8525
  57   2.0000      -0.297062        -8.0835
  58   2.0000      -0.290154        -7.8955
  59   2.0000      -0.279916        -7.6169
  60   2.0000      -0.255832        -6.9616
  61   0.0000      -0.008108        -0.2206
  62   0.0000       0.020274         0.5517
  63   0.0000       0.026161         0.7119
  64   0.0000       0.032739         0.8909
  65   0.0000       0.042954         1.1688

MULLIKEN ATOMIC CHARGES
-----------------------
   0 C :    0.829136
   1 N :   -1.104743
   2 C :    0.274199
   3 C :    0.267774
   4 S :    1.444156
   5 H :    0.356378
   6 H :    0.503520
   7 H :    0.389961
   8 O :   -0.861806
   9 O :   -0.889275
  10 H :   -0.246762
  11 H :    0.028534
  12 O :   -0.883848
  13 C :    0.269510
  14 H :   -0.004284
  15 H :    0.037926
  16 C :   -0.293583
  17 H :   -0.416263
  18 H :   -0.028747
  19 C :    0.569396
  20 H :   -0.295109
  21 H :    0.188789
  22 C :   -0.220207
  23 H :    0.021159
  24 H :    0.066247
  25 C :    0.097767
  26 H :    0.234313
  27 H :   -0.324586
  28 C :    0.130095
  29 H :   -0.009985
  30 H :   -0.196989
  31 H :    0.164406
  32 H :   -0.172201
  33 H :    0.034896
  34 H :    0.040224
Sum of atomic charges:    0.0000000

LOEWDIN ATOMIC CHARGES
----------------------
   0 C :    0.099193
   1 N :    0.328674
   2 C :   -0.015000
   3 C :   -0.050328
   4 S :    0.970260
   5 H :   -0.041703
   6 H :    0.104266
   7 H :   -0.031524
   8 O :   -0.536864
   9 O :   -0.541196
  10 H :    0.038016
  11 H :    0.035483
  12 O :   -0.512330
  13 C :   -0.019108
  14 H :    0.029012
  15 H :    0.032878
  16 C :   -0.038269
  17 H :    0.003590
  18 H :    0.035152
  19 C :   -0.031523
  20 H :    0.026260
  21 H :    0.007621
  22 C :   -0.039278
  23 H :    0.024868
  24 H :    0.025993
  25 C :   -0.030425
  26 H :    0.021571
  27 H :    0.028633
  28 C :   -0.047620
  29 H :    0.037389
  30 H :   -0.005963
  31 H :    0.023149
  32 H :    0.030403
  33 H :    0.022116
  34 H :    0.016603

  Mayer bond orders larger than 0.100000
B(  0-C ,  1-N ) :   0.5678 B(  0-C ,  2-C ) :   1.2125 B(  0-C , 10-H ) :   0.8694
B(  0-C , 11-H ) :   0.7675 B(  0-C , 15-H ) :   0.1396 B(  1-N ,  5-H ) :   0.7056
B(  1-N ,  6-H ) :   0.5436 B(  1-N ,  7-H ) :   0.6728 B(  1-N , 11-H ) :   0.1882
B(  2-C , 10-H ) :   0.1149 B(  2-C , 13-C ) :   1.1968 B(  2-C , 14-H ) :   0.7622
B(  2-C , 15-H ) :   0.7974 B(  2-C , 17-H ) :   0.1033 B(  3-C ,  4-S ) :   0.9020
B(  3-C , 12-O ) :   0.1555 B(  3-C , 28-C ) :   1.2713 B(  3-C , 33-H ) :   0.9016
B(  3-C , 34-H ) :   0.7935 B(  4-S ,  8-O ) :   1.0630 B(  4-S ,  9-O ) :   1.0725
B(  4-S , 12-O ) :   1.2824 B(  5-H ,  9-O ) :   0.1535 B(  7-H ,  8-O ) :   0.1336
B( 10-H , 11-H ) :  -0.1101 B( 13-C , 14-H ) :   0.1485 B( 13-C , 15-H ) :   0.1082
B( 13-C , 16-C ) :   1.2019 B( 13-C , 17-H ) :   0.8097 B( 13-C , 18-H ) :   0.8155
B( 13-C , 20-H ) :   0.1783 B( 16-C , 17-H ) :   0.1755 B( 16-C , 18-H ) :   0.1692
B( 16-C , 19-C ) :   1.1979 B( 16-C , 20-H ) :   1.0653 B( 16-C , 21-H ) :   0.8393
B( 16-C , 23-H ) :   0.1461 B( 16-C , 24-H ) :   0.2259 B( 17-H , 26-H ) :   0.1058
B( 19-C , 22-C ) :   1.1554 B( 19-C , 23-H ) :   0.7192 B( 19-C , 24-H ) :   0.7116
B( 22-C , 23-H ) :   0.1992 B( 22-C , 24-H ) :   0.1161 B( 22-C , 25-C ) :   1.2717
B( 22-C , 26-H ) :   0.8028 B( 22-C , 27-H ) :   1.0639 B( 22-C , 28-C ) :   0.1008
B( 22-C , 29-H ) :   0.1102 B( 25-C , 27-H ) :   0.1889 B( 25-C , 28-C ) :   1.1531
B( 25-C , 29-H ) :   0.7603 B( 25-C , 30-H ) :   0.9509 B( 25-C , 32-H ) :   0.1835
B( 28-C , 29-H ) :   0.1192 B( 28-C , 31-H ) :   0.8433 B( 28-C , 32-H ) :   0.8735
B( 28-C , 34-H ) :   0.1952 B( 29-H , 30-H ) :   0.2407

Dispersion correction           -0.036611394
FINAL SINGLE POINT ENERGY     -1032.820862007589

DIPOLE MOMENT
-------------
                                X             Y             Z
Electronic contribution:     -5.98965     -15.18876     -11.39053
Nuclear contribution   :      8.59301      16.99497      12.41069
                        -----------------------------------------
Total Dipole Moment    :      2.60336       1.80622       1.02016
                        -----------------------------------------
Magnitude (a.u.)       :      3.32876
Magnitude (Debye)      :      8.46103

Rotational constants in cm-1:     0.025617     0.015295     0.010641
Rotational constants in MHz :   767.991150   458.522408   319.013093

                             ****ORCA TERMINATED NORMALLY****
TOTAL RUN TIME: 0 days 0 hours 2 minutes 59 seconds 747 msec
