                         Program Version 5.0.0 -  RELEASE  -
|  1> !PBE0 D3BJ RIJCOSX def2-SVPD def2/J TightSCF
|  2> *xyz 0 1
|  3> C         -7.33044       -2.67899       -3.20681
|  4> S         -6.01966       -2.92697       -4.41913
|  5> F         -5.64583       -1.58838       -4.91931
|  6> O         -4.88196       -3.50370       -3.66724
|  7> O         -6.54927       -3.80515       -5.42507
|  8> C         -6.28692       -0.73588       -1.89353
|  9> C         -7.46900       -1.24615       -2.71383
| 10> H         -7.60191       -0.60135       -3.58533
| 11> H         -8.38979       -1.17344       -2.12692
| 12> H         -7.11825       -3.37982       -2.39805
| 13> H         -8.24184       -3.00474       -3.70651
| 14> H         -5.39124       -0.81034       -2.47415
| 15> H         -6.18709       -1.32597       -1.00655
| 16> H         -6.45393        0.28631       -1.62495
| 17> *
| 18> %MaxCore 64000
| 19>
| 20> %pal nprocs 8
| 21> end
| 22>
| 23> %scf
| 24>   MaxIter 150
| 25> end
| 26>
| 27>
| 28>                          ****END OF INPUT****

CARTESIAN COORDINATES (ANGSTROEM)
---------------------------------
  C     -7.330440   -2.678990   -3.206810
  S     -6.019660   -2.926970   -4.419130
  F     -5.645830   -1.588380   -4.919310
  O     -4.881960   -3.503700   -3.667240
  O     -6.549270   -3.805150   -5.425070
  C     -6.286920   -0.735880   -1.893530
  C     -7.469000   -1.246150   -2.713830
  H     -7.601910   -0.601350   -3.585330
  H     -8.389790   -1.173440   -2.126920
  H     -7.118250   -3.379820   -2.398050
  H     -8.241840   -3.004740   -3.706510
  H     -5.391240   -0.810340   -2.474150
  H     -6.187090   -1.325970   -1.006550
  H     -6.453930    0.286310   -1.624950

 Total Charge           Charge          ....    0
 Multiplicity           Mult            ....    1
 Number of Electrons    NEL             ....   66
 Basis Dimension        Dim             ....  212

ORBITAL ENERGIES
----------------

  NO   OCC          E(Eh)            E(eV)
   0   2.0000     -89.294336     -2429.8224
   1   2.0000     -24.888361      -677.2467
   2   2.0000     -19.234853      -523.4069
   3   2.0000     -19.219652      -522.9933
   4   2.0000     -10.298120      -280.2261
   5   2.0000     -10.271191      -279.4933
   6   2.0000     -10.239432      -278.6291
   7   2.0000      -8.254612      -224.6194
   8   2.0000      -6.200800      -168.7323
   9   2.0000      -6.194624      -168.5643
  10   2.0000      -6.193294      -168.5281
  11   2.0000      -1.381482       -37.5920
  12   2.0000      -1.139302       -31.0020
  13   2.0000      -1.034636       -28.1539
  14   2.0000      -0.860847       -23.4248
  15   2.0000      -0.773687       -21.0531
  16   2.0000      -0.724465       -19.7137
  17   2.0000      -0.657228       -17.8841
  18   2.0000      -0.605310       -16.4713
  19   2.0000      -0.590163       -16.0591
  20   2.0000      -0.561876       -15.2894
  21   2.0000      -0.511965       -13.9313
  22   2.0000      -0.500020       -13.6062
  23   2.0000      -0.483435       -13.1549
  24   2.0000      -0.466218       -12.6864
  25   2.0000      -0.453236       -12.3332
  26   2.0000      -0.409722       -11.1491
  27   2.0000      -0.402826       -10.9614
  28   2.0000      -0.395638       -10.7659
  29   2.0000      -0.383657       -10.4398
  30   2.0000      -0.349228        -9.5030
  31   2.0000      -0.336420        -9.1544
  32   2.0000      -0.324917        -8.8414
  33   0.0000      -0.004254        -0.1158
  34   0.0000       0.031663         0.8616
  35   0.0000       0.038272         1.0414
  36   0.0000       0.039564         1.0766
  37   0.0000       0.043942         1.1957

MULLIKEN ATOMIC CHARGES
-----------------------
   0 C :   -0.082013
   1 S :    1.558779
   2 F :   -0.439479
   3 O :   -0.716693
   4 O :   -0.706862
   5 C :    0.616440
   6 C :   -0.322606
   7 H :    0.066264
   8 H :   -0.110925
   9 H :    0.087991
  10 H :    0.075458
  11 H :   -0.071867
  12 H :    0.040603
  13 H :    0.004910
Sum of atomic charges:   -0.0000000

LOEWDIN ATOMIC CHARGES
----------------------
   0 C :   -0.040223
   1 S :    1.135326
   2 F :   -0.274317
   3 O :   -0.488679
   4 O :   -0.462432
   5 C :    0.137337
   6 C :   -0.090699
   7 H :    0.025113
   8 H :    0.033111
   9 H :    0.035870
  10 H :    0.022935
  11 H :   -0.021633
  12 H :   -0.003630
  13 H :   -0.008079

  Mayer bond orders larger than 0.100000
B(  0-C ,  1-S ) :   0.9792 B(  0-C ,  6-C ) :   1.2164 B(  0-C ,  7-H ) :   0.1132
B(  0-C ,  9-H ) :   0.9325 B(  0-C , 10-H ) :   0.9401 B(  1-S ,  2-F ) :   0.6042
B(  1-S ,  3-O ) :   1.4572 B(  1-S ,  4-O ) :   1.5118 B(  5-C ,  6-C ) :   1.2934
B(  5-C , 11-H ) :   0.8610 B(  5-C , 12-H ) :   0.8032 B(  5-C , 13-H ) :   0.7980
B(  6-C ,  7-H ) :   0.8981 B(  6-C ,  8-H ) :   0.9708 B(  6-C ,  9-H ) :   0.1002
B(  6-C , 10-H ) :   0.1011 B(  6-C , 11-H ) :   0.1817 B(  6-C , 12-H ) :   0.1872
B(  6-C , 13-H ) :   0.1779

Dispersion correction           -0.011014896
FINAL SINGLE POINT ENERGY      -766.044199868868

DIPOLE MOMENT
-------------
                                X             Y             Z
Electronic contribution:      4.78256      -4.56474      -9.80639
Nuclear contribution   :     -5.93570       5.78812      10.65621
                        -----------------------------------------
Total Dipole Moment    :     -1.15313       1.22338       0.84981
                        -----------------------------------------
Magnitude (a.u.)       :      1.88376
Magnitude (Debye)      :      4.78814

Rotational constants in cm-1:     0.129417     0.054385     0.051980
Rotational constants in MHz :  3879.823072  1630.427453  1558.324762

                             ****ORCA TERMINATED NORMALLY****
TOTAL RUN TIME: 0 days 0 hours 0 minutes 13 seconds 585 msec
