                         Program Version 5.0.0 -  RELEASE  -
|  1> !PBE0 D3BJ RIJCOSX def2-SVPD def2/J TightSCF
|  2> *xyz 0 1
|  3> C         -2.16038       -1.36949       -3.46710
|  4> C         -3.03011       -1.91086       -4.54107
|  5> C         -2.04772        0.14658       -3.51177
|  6> H         -3.47744       -2.79151       -4.25710
|  7> H         -2.53801       -2.01786       -5.43808
|  8> H         -3.89159       -1.37604       -4.71437
|  9> H         -1.18444       -1.84400       -3.56639
| 10> H         -2.59819       -1.70838       -2.52848
| 11> C         -3.32876        0.87504       -3.10367
| 12> H         -1.74003        0.45234       -4.51713
| 13> H         -1.23261        0.43494       -2.84221
| 14> H         -4.12483        0.59148       -3.76000
| 15> H         -3.17368        1.93185       -3.16688
| 16> H         -3.58415        0.61151       -2.09857
| 17> *
| 18> %MaxCore 64000
| 19>
| 20> %pal nprocs 8
| 21> end
| 22>
| 23> %scf
| 24>   MaxIter 150
| 25> end
| 26>
| 27>
| 28>                          ****END OF INPUT****

CARTESIAN COORDINATES (ANGSTROEM)
---------------------------------
  C     -2.160380   -1.369490   -3.467100
  C     -3.030110   -1.910860   -4.541070
  C     -2.047720    0.146580   -3.511770
  H     -3.477440   -2.791510   -4.257100
  H     -2.538010   -2.017860   -5.438080
  H     -3.891590   -1.376040   -4.714370
  H     -1.184440   -1.844000   -3.566390
  H     -2.598190   -1.708380   -2.528480
  C     -3.328760    0.875040   -3.103670
  H     -1.740030    0.452340   -4.517130
  H     -1.232610    0.434940   -2.842210
  H     -4.124830    0.591480   -3.760000
  H     -3.173680    1.931850   -3.166880
  H     -3.584150    0.611510   -2.098570

 Total Charge           Charge          ....    0
 Multiplicity           Mult            ....    1
 Number of Electrons    NEL             ....   34
 Basis Dimension        Dim             ....  160

ORBITAL ENERGIES
----------------

  NO   OCC          E(Eh)            E(eV)
   0   2.0000     -10.222491      -278.1681
   1   2.0000     -10.218554      -278.0610
   2   2.0000     -10.211757      -277.8760
   3   2.0000     -10.192690      -277.3572
   4   2.0000      -0.819277       -22.2937
   5   2.0000      -0.745352       -20.2821
   6   2.0000      -0.659671       -17.9505
   7   2.0000      -0.582113       -15.8401
   8   2.0000      -0.480366       -13.0714
   9   2.0000      -0.473285       -12.8788
  10   2.0000      -0.441656       -12.0181
  11   2.0000      -0.401476       -10.9247
  12   2.0000      -0.390374       -10.6226
  13   2.0000      -0.376774       -10.2526
  14   2.0000      -0.334191        -9.0938
  15   2.0000      -0.333107        -9.0643
  16   2.0000      -0.330421        -8.9912
  17   0.0000       0.033550         0.9129
  18   0.0000       0.059169         1.6101
  19   0.0000       0.060310         1.6411
  20   0.0000       0.067838         1.8460
  21   0.0000       0.104642         2.8474

MULLIKEN ATOMIC CHARGES
-----------------------
   0 C :   -0.334799
   1 C :    0.909535
   2 C :   -0.384839
   3 H :   -0.101335
   4 H :   -0.057522
   5 H :   -0.435333
   6 H :   -0.078686
   7 H :    0.041751
   8 C :    0.573116
   9 H :   -0.032736
  10 H :   -0.022619
  11 H :   -0.155109
  12 H :    0.009937
  13 H :    0.068638
Sum of atomic charges:    0.0000000

LOEWDIN ATOMIC CHARGES
----------------------
   0 C :   -0.079872
   1 C :    0.115513
   2 C :   -0.086007
   3 H :   -0.031888
   4 H :   -0.023401
   5 H :   -0.044477
   6 H :    0.023972
   7 H :    0.024692
   8 C :    0.120389
   9 H :    0.025259
  10 H :    0.016914
  11 H :   -0.028939
  12 H :   -0.017790
  13 H :   -0.014366

  Mayer bond orders larger than 0.100000
B(  0-C ,  1-C ) :   1.2616 B(  0-C ,  2-C ) :   1.1829 B(  0-C ,  3-H ) :   0.1885
B(  0-C ,  4-H ) :   0.1890 B(  0-C ,  5-H ) :   0.2352 B(  0-C ,  6-H ) :   0.9547
B(  0-C ,  7-H ) :   0.8939 B(  0-C ,  9-H ) :   0.1333 B(  0-C , 10-H ) :   0.1022
B(  1-C ,  3-H ) :   0.6380 B(  1-C ,  4-H ) :   0.7477 B(  1-C ,  5-H ) :   0.6491
B(  1-C ,  7-H ) :   0.1025 B(  2-C ,  8-C ) :   1.2844 B(  2-C ,  9-H ) :   0.9518
B(  2-C , 10-H ) :   0.9426 B(  2-C , 11-H ) :   0.1872 B(  2-C , 12-H ) :   0.1760
B(  2-C , 13-H ) :   0.1871 B(  3-H ,  5-H ) :   0.2797 B(  4-H ,  5-H ) :   0.1068
B(  8-C , 11-H ) :   0.8881 B(  8-C , 12-H ) :   0.8011 B(  8-C , 13-H ) :   0.7877

Dispersion correction           -0.007758452
FINAL SINGLE POINT ENERGY      -158.134059539833

DIPOLE MOMENT
-------------
                                X             Y             Z
Electronic contribution:      0.86572       0.03243       0.25338
Nuclear contribution   :     -0.87438      -0.05339      -0.25605
                        -----------------------------------------
Total Dipole Moment    :     -0.00867      -0.02096      -0.00267
                        -----------------------------------------
Magnitude (a.u.)       :      0.02284
Magnitude (Debye)      :      0.05805

Rotational constants in cm-1:     0.464420     0.160323     0.139078
Rotational constants in MHz : 13922.972952  4806.377145  4169.443621

                             ****ORCA TERMINATED NORMALLY****
TOTAL RUN TIME: 0 days 0 hours 0 minutes 7 seconds 180 msec
