                         Program Version 5.0.0 -  RELEASE  -
|  1> !PBE0 D3BJ RIJCOSX def2-SVPD def2/J TightSCF
|  2> *xyz 0 1
|  3> C         -7.33044       -2.67899       -3.20681
|  4> S         -6.01966       -2.92697       -4.41913
|  5> O         -5.64583       -1.58838       -4.91931
|  6> F         -4.88196       -3.50370       -3.66724
|  7> O         -6.54927       -3.80515       -5.42507
|  8> C         -6.28692       -0.73588       -1.89353
|  9> C         -7.46900       -1.24615       -2.71383
| 10> H         -7.60191       -0.60135       -3.58533
| 11> H         -8.38979       -1.17344       -2.12692
| 12> H         -7.11825       -3.37982       -2.39805
| 13> H         -8.24184       -3.00474       -3.70651
| 14> H         -5.39124       -0.81034       -2.47415
| 15> H         -6.18709       -1.32597       -1.00655
| 16> H         -6.45393        0.28631       -1.62495
| 17> *
| 18> %MaxCore 64000
| 19>
| 20> %pal nprocs 8
| 21> end
| 22>
| 23> %scf
| 24>   MaxIter 150
| 25> end
| 26>
| 27>
| 28>                          ****END OF INPUT****

CARTESIAN COORDINATES (ANGSTROEM)
---------------------------------
  C     -7.330440   -2.678990   -3.206810
  S     -6.019660   -2.926970   -4.419130
  O     -5.645830   -1.588380   -4.919310
  F     -4.881960   -3.503700   -3.667240
  O     -6.549270   -3.805150   -5.425070
  C     -6.286920   -0.735880   -1.893530
  C     -7.469000   -1.246150   -2.713830
  H     -7.601910   -0.601350   -3.585330
  H     -8.389790   -1.173440   -2.126920
  H     -7.118250   -3.379820   -2.398050
  H     -8.241840   -3.004740   -3.706510
  H     -5.391240   -0.810340   -2.474150
  H     -6.187090   -1.325970   -1.006550
  H     -6.453930    0.286310   -1.624950

 Total Charge           Charge          ....    0
 Multiplicity           Mult            ....    1
 Number of Electrons    NEL             ....   66
 Basis Dimension        Dim             ....  212

ORBITAL ENERGIES
----------------

  NO   OCC          E(Eh)            E(eV)
   0   2.0000     -89.294868     -2429.8369
   1   2.0000     -24.885299      -677.1634
   2   2.0000     -19.235271      -523.4183
   3   2.0000     -19.223784      -523.1058
   4   2.0000     -10.298702      -280.2419
   5   2.0000     -10.262923      -279.2683
   6   2.0000     -10.233198      -278.4595
   7   2.0000      -8.255141      -224.6338
   8   2.0000      -6.201237      -168.7442
   9   2.0000      -6.195170      -168.5792
  10   2.0000      -6.193925      -168.5453
  11   2.0000      -1.377645       -37.4876
  12   2.0000      -1.140768       -31.0419
  13   2.0000      -1.038915       -28.2703
  14   2.0000      -0.855683       -23.2843
  15   2.0000      -0.772988       -21.0341
  16   2.0000      -0.721421       -19.6309
  17   2.0000      -0.652155       -17.7460
  18   2.0000      -0.591335       -16.0910
  19   2.0000      -0.585786       -15.9401
  20   2.0000      -0.572523       -15.5791
  21   2.0000      -0.514404       -13.9976
  22   2.0000      -0.503343       -13.6967
  23   2.0000      -0.472586       -12.8597
  24   2.0000      -0.464765       -12.6469
  25   2.0000      -0.452781       -12.3208
  26   2.0000      -0.409166       -11.1340
  27   2.0000      -0.398248       -10.8369
  28   2.0000      -0.385301       -10.4846
  29   2.0000      -0.378432       -10.2976
  30   2.0000      -0.347808        -9.4643
  31   2.0000      -0.344033        -9.3616
  32   2.0000      -0.328627        -8.9424
  33   0.0000       0.005345         0.1455
  34   0.0000       0.023051         0.6273
  35   0.0000       0.034721         0.9448
  36   0.0000       0.040933         1.1138
  37   0.0000       0.051335         1.3969

MULLIKEN ATOMIC CHARGES
-----------------------
   0 C :   -0.121418
   1 S :    1.575405
   2 O :   -0.741924
   3 F :   -0.424637
   4 O :   -0.708316
   5 C :    0.602435
   6 C :   -0.290668
   7 H :    0.097682
   8 H :   -0.117306
   9 H :    0.096420
  10 H :    0.070053
  11 H :   -0.075702
  12 H :    0.036952
  13 H :    0.001023
Sum of atomic charges:   -0.0000000

LOEWDIN ATOMIC CHARGES
----------------------
   0 C :   -0.045888
   1 S :    1.140231
   2 O :   -0.477112
   3 F :   -0.279016
   4 O :   -0.462688
   5 C :    0.135257
   6 C :   -0.083023
   7 H :    0.030107
   8 H :    0.033414
   9 H :    0.023387
  10 H :    0.027347
  11 H :   -0.024087
  12 H :   -0.010532
  13 H :   -0.007398

  Mayer bond orders larger than 0.100000
B(  0-C ,  1-S ) :   0.9683 B(  0-C ,  6-C ) :   1.2581 B(  0-C ,  7-H ) :   0.1279
B(  0-C ,  8-H ) :   0.1012 B(  0-C ,  9-H ) :   0.9207 B(  0-C , 10-H ) :   0.9436
B(  1-S ,  2-O ) :   1.4569 B(  1-S ,  3-F ) :   0.6003 B(  1-S ,  4-O ) :   1.5165
B(  5-C ,  6-C ) :   1.2898 B(  5-C , 11-H ) :   0.8658 B(  5-C , 12-H ) :   0.8049
B(  5-C , 13-H ) :   0.8007 B(  6-C ,  7-H ) :   0.8851 B(  6-C ,  8-H ) :   0.9605
B(  6-C ,  9-H ) :   0.1064 B(  6-C , 11-H ) :   0.1806 B(  6-C , 12-H ) :   0.1844
B(  6-C , 13-H ) :   0.1779

Dispersion correction           -0.011060050
FINAL SINGLE POINT ENERGY      -766.047920994033

DIPOLE MOMENT
-------------
                                X             Y             Z
Electronic contribution:      6.12917      -7.85596      -7.71478
Nuclear contribution   :     -6.75719       7.84793       9.30968
                        -----------------------------------------
Total Dipole Moment    :     -0.62802      -0.00803       1.59490
                        -----------------------------------------
Magnitude (a.u.)       :      1.71411
Magnitude (Debye)      :      4.35693

Rotational constants in cm-1:     0.129104     0.054499     0.051192
Rotational constants in MHz :  3870.429564  1633.827608  1534.709243

                             ****ORCA TERMINATED NORMALLY****
TOTAL RUN TIME: 0 days 0 hours 0 minutes 13 seconds 636 msec
