                         Program Version 5.0.0 -  RELEASE  -
|  1> !PBE0 D3BJ RIJCOSX def2-SVPD def2/J TightSCF
|  2> *xyz 0 1
|  3> C         -7.33044       -2.67899       -3.20681
|  4> S         -6.01966       -2.92697       -4.41913
|  5> O         -5.64583       -1.58838       -4.91931
|  6> O         -4.88196       -3.50370       -3.66724
|  7> F         -6.54927       -3.80515       -5.42507
|  8> C         -6.28692       -0.73588       -1.89353
|  9> C         -7.46900       -1.24615       -2.71383
| 10> H         -7.60191       -0.60135       -3.58533
| 11> H         -8.38979       -1.17344       -2.12692
| 12> H         -7.11825       -3.37982       -2.39805
| 13> H         -8.24184       -3.00474       -3.70651
| 14> H         -5.39124       -0.81034       -2.47415
| 15> H         -6.18709       -1.32597       -1.00655
| 16> H         -6.45393        0.28631       -1.62495
| 17> *
| 18> %MaxCore 64000
| 19>
| 20> %pal nprocs 8
| 21> end
| 22>
| 23> %scf
| 24>   MaxIter 150
| 25> end
| 26>
| 27>
| 28>                          ****END OF INPUT****

CARTESIAN COORDINATES (ANGSTROEM)
---------------------------------
  C     -7.330440   -2.678990   -3.206810
  S     -6.019660   -2.926970   -4.419130
  O     -5.645830   -1.588380   -4.919310
  O     -4.881960   -3.503700   -3.667240
  F     -6.549270   -3.805150   -5.425070
  C     -6.286920   -0.735880   -1.893530
  C     -7.469000   -1.246150   -2.713830
  H     -7.601910   -0.601350   -3.585330
  H     -8.389790   -1.173440   -2.126920
  H     -7.118250   -3.379820   -2.398050
  H     -8.241840   -3.004740   -3.706510
  H     -5.391240   -0.810340   -2.474150
  H     -6.187090   -1.325970   -1.006550
  H     -6.453930    0.286310   -1.624950

 Total Charge           Charge          ....    0
 Multiplicity           Mult            ....    1
 Number of Electrons    NEL             ....   66
 Basis Dimension        Dim             ....  212

ORBITAL ENERGIES
----------------

  NO   OCC          E(Eh)            E(eV)
   0   2.0000     -89.297137     -2429.8986
   1   2.0000     -24.907211      -677.7597
   2   2.0000     -19.224830      -523.1342
   3   2.0000     -19.221305      -523.0383
   4   2.0000     -10.299406      -280.2611
   5   2.0000     -10.262618      -279.2600
   6   2.0000     -10.225458      -278.2489
   7   2.0000      -8.257486      -224.6976
   8   2.0000      -6.203763      -168.8130
   9   2.0000      -6.197322      -168.6377
  10   2.0000      -6.196067      -168.6036
  11   2.0000      -1.415407       -38.5152
  12   2.0000      -1.125374       -30.6230
  13   2.0000      -1.021550       -27.7978
  14   2.0000      -0.854517       -23.2526
  15   2.0000      -0.779805       -21.2196
  16   2.0000      -0.730913       -19.8892
  17   2.0000      -0.655149       -17.8275
  18   2.0000      -0.613539       -16.6953
  19   2.0000      -0.604893       -16.4600
  20   2.0000      -0.574011       -15.6196
  21   2.0000      -0.508795       -13.8450
  22   2.0000      -0.503339       -13.6966
  23   2.0000      -0.476422       -12.9641
  24   2.0000      -0.460044       -12.5184
  25   2.0000      -0.439795       -11.9674
  26   2.0000      -0.401014       -10.9121
  27   2.0000      -0.389950       -10.6111
  28   2.0000      -0.385204       -10.4819
  29   2.0000      -0.369910       -10.0658
  30   2.0000      -0.342900        -9.3308
  31   2.0000      -0.335559        -9.1310
  32   2.0000      -0.315706        -8.5908
  33   0.0000       0.002814         0.0766
  34   0.0000       0.018944         0.5155
  35   0.0000       0.037569         1.0223
  36   0.0000       0.041050         1.1170
  37   0.0000       0.049118         1.3366

MULLIKEN ATOMIC CHARGES
-----------------------
   0 C :   -0.121093
   1 S :    1.605085
   2 O :   -0.735723
   3 O :   -0.709769
   4 F :   -0.442522
   5 C :    0.607231
   6 C :   -0.328844
   7 H :    0.094814
   8 H :   -0.116749
   9 H :    0.087840
  10 H :    0.081986
  11 H :   -0.059952
  12 H :    0.035031
  13 H :    0.002665
Sum of atomic charges:    0.0000000

LOEWDIN ATOMIC CHARGES
----------------------
   0 C :   -0.051570
   1 S :    1.145779
   2 O :   -0.478813
   3 O :   -0.487375
   4 F :   -0.259794
   5 C :    0.140745
   6 C :   -0.079571
   7 H :    0.027552
   8 H :    0.033527
   9 H :    0.028519
  10 H :    0.015311
  11 H :   -0.018293
  12 H :   -0.007572
  13 H :   -0.008445

  Mayer bond orders larger than 0.100000
B(  0-C ,  1-S ) :   0.9512 B(  0-C ,  6-C ) :   1.2679 B(  0-C ,  7-H ) :   0.1257
B(  0-C ,  9-H ) :   0.9499 B(  0-C , 10-H ) :   0.8900 B(  1-S ,  2-O ) :   1.4349
B(  1-S ,  3-O ) :   1.4486 B(  1-S ,  4-F ) :   0.6393 B(  5-C ,  6-C ) :   1.2941
B(  5-C , 11-H ) :   0.8658 B(  5-C , 12-H ) :   0.7988 B(  5-C , 13-H ) :   0.7969
B(  6-C ,  7-H ) :   0.8820 B(  6-C ,  8-H ) :   0.9663 B(  6-C ,  9-H ) :   0.1009
B(  6-C , 10-H ) :   0.1129 B(  6-C , 11-H ) :   0.1816 B(  6-C , 12-H ) :   0.1873
B(  6-C , 13-H ) :   0.1780

Dispersion correction           -0.011115548
FINAL SINGLE POINT ENERGY      -766.029203782582

DIPOLE MOMENT
-------------
                                X             Y             Z
Electronic contribution:      3.27413      -8.38093     -10.75663
Nuclear contribution   :     -4.96410       8.17213      11.20012
                        -----------------------------------------
Total Dipole Moment    :     -1.68997      -0.20881       0.44349
                        -----------------------------------------
Magnitude (a.u.)       :      1.75963
Magnitude (Debye)      :      4.47262

Rotational constants in cm-1:     0.133784     0.053405     0.050278
Rotational constants in MHz :  4010.731548  1601.045142  1507.298018

                             ****ORCA TERMINATED NORMALLY****
TOTAL RUN TIME: 0 days 0 hours 0 minutes 13 seconds 714 msec
