                         Program Version 5.0.0 -  RELEASE  -
|  1> !TPSS D3BJ RIJCOSX def2-SVP def2/J TightSCF
|  2> *xyz -1 1
|  3> C         -0.90349       -0.87394       -1.98739
|  4> C         -0.96015       -0.52236       -0.48987
|  5> H         -1.69039       -1.20813       -0.02168
|  6> H         -1.41449        0.48633       -0.40668
|  7> O          0.26170       -0.58031        0.13861
|  8> H         -1.88568       -0.80774       -2.40670
|  9> H         -0.53143       -1.87013       -2.10605
| 10> H         -0.25399       -0.18836       -2.49039
| 11> *
| 12>
| 13> %MaxCore 64000
| 14>
| 15> %pal nprocs 4
| 16> end
| 17>
| 18> %scf
| 19>   MaxIter 150
| 20> end
| 21>
| 22>
| 23>                          ****END OF INPUT****

CARTESIAN COORDINATES (ANGSTROEM)
---------------------------------
  C     -0.903490   -0.873940   -1.987390
  C     -0.960150   -0.522360   -0.489870
  H     -1.690390   -1.208130   -0.021680
  H     -1.414490    0.486330   -0.406680
  O      0.261700   -0.580310    0.138610
  H     -1.885680   -0.807740   -2.406700
  H     -0.531430   -1.870130   -2.106050
  H     -0.253990   -0.188360   -2.490390

 Total Charge           Charge          ....   -1
 Multiplicity           Mult            ....    1
 Number of Electrons    NEL             ....   26
 Basis Dimension        Dim             ....   67

ORBITAL ENERGIES
----------------

  NO   OCC          E(Eh)            E(eV)
   0   2.0000     -18.511318      -503.7186
   1   2.0000      -9.787946      -266.3436
   2   2.0000      -9.777938      -266.0712
   3   2.0000      -0.559762       -15.2319
   4   2.0000      -0.443690       -12.0734
   5   2.0000      -0.296502        -8.0682
   6   2.0000      -0.190735        -5.1902
   7   2.0000      -0.169719        -4.6183
   8   2.0000      -0.111870        -3.0441
   9   2.0000      -0.099661        -2.7119
  10   2.0000      -0.025026        -0.6810
  11   2.0000       0.116909         3.1813
  12   2.0000       0.121664         3.3107
  13   0.0000       0.243248         6.6191
  14   0.0000       0.285135         7.7589
  15   0.0000       0.296102         8.0574
  16   0.0000       0.305298         8.3076
  17   0.0000       0.345692         9.4068

MULLIKEN ATOMIC CHARGES
-----------------------
   0 C :    0.084856
   1 C :    0.233573
   2 H :   -0.171865
   3 H :   -0.173090
   4 O :   -0.689106
   5 H :   -0.136195
   6 H :   -0.074061
   7 H :   -0.074112
Sum of atomic charges:   -1.0000000

LOEWDIN ATOMIC CHARGES
----------------------
   0 C :   -0.100927
   1 C :    0.013644
   2 H :   -0.087174
   3 H :   -0.087992
   4 O :   -0.646035
   5 H :   -0.046748
   6 H :   -0.022363
   7 H :   -0.022404

  Mayer bond orders larger than 0.100000
B(  0-C ,  1-C ) :   0.9893 B(  0-C ,  4-O ) :  -0.1032 B(  0-C ,  5-H ) :   0.8981
B(  0-C ,  6-H ) :   0.9506 B(  0-C ,  7-H ) :   0.9506 B(  1-C ,  2-H ) :   0.8584
B(  1-C ,  3-H ) :   0.8565 B(  1-C ,  4-O ) :   1.5133 B(  4-O ,  5-H ) :   0.1005

Dispersion correction           -0.004550408
FINAL SINGLE POINT ENERGY      -154.303111078197

DIPOLE MOMENT
-------------
                                X             Y             Z
Electronic contribution:      2.31899       0.16236       2.40831
Nuclear contribution   :     -2.90669      -0.27617      -3.31210
                        -----------------------------------------
Total Dipole Moment    :     -0.58770      -0.11381      -0.90380
                        -----------------------------------------
Magnitude (a.u.)       :      1.08406
Magnitude (Debye)      :      2.75547

Rotational constants in cm-1:     1.291883     0.321656     0.284469
Rotational constants in MHz : 38729.676116  9643.011620  8528.167295

                             ****ORCA TERMINATED NORMALLY****
TOTAL RUN TIME: 0 days 0 hours 0 minutes 6 seconds 752 msec
