                         Program Version 5.0.0 -  RELEASE  -
|  1> !TPSS D3BJ RIJCOSX def2-SVP def2/J TightSCF
|  2> *xyz 1 1
|  3> C          4.36645       -0.13321       -1.41606
|  4> C          4.50829       -0.93187       -2.72425
|  5> C          3.05650       -0.32080       -0.70738
|  6> N          2.38983        0.71129       -0.24391
|  7> N          2.51600       -1.50772       -0.55023
|  8> H          2.96768       -2.32291       -0.95631
|  9> H          1.54987       -1.49063       -0.24988
| 10> H          2.74307        1.64947       -0.41280
| 11> H          1.44036        0.50278        0.03703
| 12> H          4.48784        0.93300       -1.61157
| 13> H          5.16967       -0.41443       -0.72982
| 14> H          5.46700       -0.73824       -3.15818
| 15> H          3.74074       -0.63528       -3.40821
| 16> H          4.41574       -1.97727       -2.51573
| 17> *
| 18>
| 19> %MaxCore 64000
| 20>
| 21> %pal nprocs 4
| 22> end
| 23>
| 24> %scf
| 25>   MaxIter 150
| 26> end
| 27>
| 28>
| 29>                          ****END OF INPUT****

CARTESIAN COORDINATES (ANGSTROEM)
---------------------------------
  C      4.366450   -0.133210   -1.416060
  C      4.508290   -0.931870   -2.724250
  C      3.056500   -0.320800   -0.707380
  N      2.389830    0.711290   -0.243910
  N      2.516000   -1.507720   -0.550230
  H      2.967680   -2.322910   -0.956310
  H      1.549870   -1.490630   -0.249880
  H      2.743070    1.649470   -0.412800
  H      1.440360    0.502780    0.037030
  H      4.487840    0.933000   -1.611570
  H      5.169670   -0.414430   -0.729820
  H      5.467000   -0.738240   -3.158180
  H      3.740740   -0.635280   -3.408210
  H      4.415740   -1.977270   -2.515730

 Total Charge           Charge          ....    1
 Multiplicity           Mult            ....    1
 Number of Electrons    NEL             ....   40
 Basis Dimension        Dim             ....  115

ORBITAL ENERGIES
----------------

  NO   OCC          E(Eh)            E(eV)
   0   2.0000     -14.363113      -390.8402
   1   2.0000     -14.362040      -390.8110
   2   2.0000     -10.309030      -280.5230
   3   2.0000     -10.200747      -277.5764
   4   2.0000     -10.162193      -276.5273
   5   2.0000      -1.137342       -30.9486
   6   2.0000      -1.037412       -28.2294
   7   2.0000      -0.906983       -24.6803
   8   2.0000      -0.803766       -21.8716
   9   2.0000      -0.767681       -20.8897
  10   2.0000      -0.722055       -19.6481
  11   2.0000      -0.708041       -19.2668
  12   2.0000      -0.661436       -17.9986
  13   2.0000      -0.616089       -16.7646
  14   2.0000      -0.586882       -15.9699
  15   2.0000      -0.560024       -15.2390
  16   2.0000      -0.515766       -14.0347
  17   2.0000      -0.503752       -13.7078
  18   2.0000      -0.490891       -13.3578
  19   2.0000      -0.454804       -12.3758
  20   0.0000      -0.235134        -6.3983
  21   0.0000      -0.164182        -4.4676
  22   0.0000      -0.119279        -3.2458
  23   0.0000      -0.115151        -3.1334
  24   0.0000      -0.078818        -2.1448

MULLIKEN ATOMIC CHARGES
-----------------------
   0 C :    0.022118
   1 C :   -0.005740
   2 C :   -0.101169
   3 N :    0.024808
   4 N :    0.021389
   5 H :    0.184775
   6 H :    0.168788
   7 H :    0.190524
   8 H :    0.166138
   9 H :    0.051418
  10 H :    0.103967
  11 H :    0.076514
  12 H :    0.057059
  13 H :    0.039410
Sum of atomic charges:    1.0000000

LOEWDIN ATOMIC CHARGES
----------------------
   0 C :   -0.025951
   1 C :   -0.013440
   2 C :    0.129060
   3 N :    0.111949
   4 N :    0.108644
   5 H :    0.119134
   6 H :    0.107934
   7 H :    0.123101
   8 H :    0.107106
   9 H :    0.049181
  10 H :    0.070357
  11 H :    0.052062
  12 H :    0.036129
  13 H :    0.024733

  Mayer bond orders larger than 0.100000
B(  0-C ,  1-C ) :   1.0823 B(  0-C ,  2-C ) :   1.0182 B(  0-C ,  9-H ) :   0.9184
B(  0-C , 10-H ) :   0.9082 B(  1-C , 11-H ) :   0.9553 B(  1-C , 12-H ) :   0.9744
B(  1-C , 13-H ) :   0.9665 B(  2-C ,  3-N ) :   1.5165 B(  2-C ,  4-N ) :   1.5053
B(  3-N ,  7-H ) :   0.9131 B(  3-N ,  8-H ) :   0.9255 B(  4-N ,  5-H ) :   0.9189
B(  4-N ,  6-H ) :   0.9248

Dispersion correction           -0.012436551
FINAL SINGLE POINT ENERGY      -228.906278718335

DIPOLE MOMENT
-------------
                                X             Y             Z
Electronic contribution:     -2.72497       0.61939       3.15398
Nuclear contribution   :      1.78847      -0.48174      -2.67127
                        -----------------------------------------
Total Dipole Moment    :     -0.93651       0.13765       0.48270
                        -----------------------------------------
Magnitude (a.u.)       :      1.06254
Magnitude (Debye)      :      2.70076

Rotational constants in cm-1:     0.286883     0.123210     0.094446
Rotational constants in MHz :  8600.540572  3693.747366  2831.415242

                             ****ORCA TERMINATED NORMALLY****
TOTAL RUN TIME: 0 days 0 hours 0 minutes 9 seconds 380 msec
