                         Program Version 5.0.0 -  RELEASE  -
|  1> !TPSS D3BJ RIJCOSX def2-SVP def2/J TightSCF
|  2> *xyz 0 1
|  3> C         -0.90349       -0.87394       -1.98739
|  4> C         -0.96015       -0.52236       -0.48987
|  5> H         -1.69039       -1.20813       -0.02168
|  6> H         -1.41449        0.48633       -0.40668
|  7> F          0.26170       -0.58031        0.13861
|  8> H         -1.88568       -0.80774       -2.40670
|  9> H         -0.53143       -1.87013       -2.10605
| 10> H         -0.25399       -0.18836       -2.49039
| 11> *
| 12>
| 13> %MaxCore 64000
| 14>
| 15> %pal nprocs 4
| 16> end
| 17>
| 18> %scf
| 19>   MaxIter 150
| 20> end
| 21>
| 22>
| 23>                          ****END OF INPUT****

CARTESIAN COORDINATES (ANGSTROEM)
---------------------------------
  C     -0.903490   -0.873940   -1.987390
  C     -0.960150   -0.522360   -0.489870
  H     -1.690390   -1.208130   -0.021680
  H     -1.414490    0.486330   -0.406680
  F      0.261700   -0.580310    0.138610
  H     -1.885680   -0.807740   -2.406700
  H     -0.531430   -1.870130   -2.106050
  H     -0.253990   -0.188360   -2.490390

 Total Charge           Charge          ....    0
 Multiplicity           Mult            ....    1
 Number of Electrons    NEL             ....   26
 Basis Dimension        Dim             ....   67

ORBITAL ENERGIES
----------------

  NO   OCC          E(Eh)            E(eV)
   0   2.0000     -24.390730      -663.7055
   1   2.0000     -10.071715      -274.0653
   2   2.0000      -9.996624      -272.0220
   3   2.0000      -1.086734       -29.5715
   4   2.0000      -0.697815       -18.9885
   5   2.0000      -0.569586       -15.4992
   6   2.0000      -0.446922       -12.1614
   7   2.0000      -0.439766       -11.9666
   8   2.0000      -0.396844       -10.7987
   9   2.0000      -0.358532        -9.7561
  10   2.0000      -0.353446        -9.6178
  11   2.0000      -0.280355        -7.6288
  12   2.0000      -0.278888        -7.5889
  13   0.0000       0.054054         1.4709
  14   0.0000       0.097131         2.6431
  15   0.0000       0.102423         2.7871
  16   0.0000       0.109750         2.9864
  17   0.0000       0.130266         3.5447

MULLIKEN ATOMIC CHARGES
-----------------------
   0 C :   -0.042339
   1 C :    0.214127
   2 H :    0.008660
   3 H :    0.009113
   4 F :   -0.259532
   5 H :    0.016449
   6 H :    0.026745
   7 H :    0.026777
Sum of atomic charges:    0.0000000

LOEWDIN ATOMIC CHARGES
----------------------
   0 C :   -0.061923
   1 C :    0.113992
   2 H :    0.005568
   3 H :    0.006035
   4 F :   -0.133173
   5 H :    0.026633
   6 H :    0.021439
   7 H :    0.021430

  Mayer bond orders larger than 0.100000
B(  0-C ,  1-C ) :   1.0940 B(  0-C ,  5-H ) :   0.9575 B(  0-C ,  6-H ) :   0.9705
B(  0-C ,  7-H ) :   0.9706 B(  1-C ,  2-H ) :   0.9545 B(  1-C ,  3-H ) :   0.9542
B(  1-C ,  4-F ) :   1.0084

Dispersion correction           -0.004197706
FINAL SINGLE POINT ENERGY      -178.945436235025

DIPOLE MOMENT
-------------
                                X             Y             Z
Electronic contribution:      3.29551       0.37588       4.03433
Nuclear contribution   :     -3.84149      -0.36812      -4.38946
                        -----------------------------------------
Total Dipole Moment    :     -0.54598       0.00776      -0.35514
                        -----------------------------------------
Magnitude (a.u.)       :      0.65136
Magnitude (Debye)      :      1.65563

Rotational constants in cm-1:     1.270659     0.299196     0.265842
Rotational constants in MHz : 38093.410361  8969.665806  7969.741481

                             ****ORCA TERMINATED NORMALLY****
TOTAL RUN TIME: 0 days 0 hours 0 minutes 6 seconds 339 msec
