                         Program Version 5.0.0 -  RELEASE  -
|  1> !TPSS D3BJ RIJCOSX def2-SVP def2/J TightSCF
|  2> *xyz 0 1
|  3> C          4.36645       -0.13321       -1.41606
|  4> C          4.50829       -0.93187       -2.72425
|  5> C          3.05650       -0.32080       -0.70738
|  6> C          2.38983        0.71129       -0.24391
|  7> N          2.51600       -1.50772       -0.55023
|  8> H          2.96768       -2.32291       -0.95631
|  9> H          1.54987       -1.49063       -0.24988
| 10> H          2.74307        1.64947       -0.41280
| 11> H          1.44036        0.50278        0.03703
| 12> H          4.48784        0.93300       -1.61157
| 13> H          5.16967       -0.41443       -0.72982
| 14> H          5.46700       -0.73824       -3.15818
| 15> H          3.74074       -0.63528       -3.40821
| 16> H          4.41574       -1.97727       -2.51573
| 17> *
| 18>
| 19> %MaxCore 64000
| 20>
| 21> %pal nprocs 4
| 22> end
| 23>
| 24> %scf
| 25>   MaxIter 150
| 26> end
| 27>
| 28>
| 29>                          ****END OF INPUT****

CARTESIAN COORDINATES (ANGSTROEM)
---------------------------------
  C      4.366450   -0.133210   -1.416060
  C      4.508290   -0.931870   -2.724250
  C      3.056500   -0.320800   -0.707380
  C      2.389830    0.711290   -0.243910
  N      2.516000   -1.507720   -0.550230
  H      2.967680   -2.322910   -0.956310
  H      1.549870   -1.490630   -0.249880
  H      2.743070    1.649470   -0.412800
  H      1.440360    0.502780    0.037030
  H      4.487840    0.933000   -1.611570
  H      5.169670   -0.414430   -0.729820
  H      5.467000   -0.738240   -3.158180
  H      3.740740   -0.635280   -3.408210
  H      4.415740   -1.977270   -2.515730

 Total Charge           Charge          ....    0
 Multiplicity           Mult            ....    1
 Number of Electrons    NEL             ....   40
 Basis Dimension        Dim             ....  115

ORBITAL ENERGIES
----------------

  NO   OCC          E(Eh)            E(eV)
   0   2.0000     -14.109244      -383.9320
   1   2.0000     -10.002985      -272.1951
   2   2.0000      -9.997875      -272.0560
   3   2.0000      -9.993775      -271.9444
   4   2.0000      -9.925862      -270.0964
   5   2.0000      -0.852845       -23.2071
   6   2.0000      -0.710099       -19.3228
   7   2.0000      -0.653776       -17.7901
   8   2.0000      -0.576639       -15.6911
   9   2.0000      -0.506242       -13.7756
  10   2.0000      -0.482938       -13.1414
  11   2.0000      -0.421341       -11.4653
  12   2.0000      -0.395294       -10.7565
  13   2.0000      -0.384332       -10.4582
  14   2.0000      -0.346460        -9.4277
  15   2.0000      -0.337431        -9.1820
  16   2.0000      -0.318088        -8.6556
  17   2.0000      -0.300214        -8.1692
  18   2.0000      -0.280997        -7.6463
  19   2.0000      -0.148042        -4.0284
  20   0.0000       0.033513         0.9119
  21   0.0000       0.037306         1.0152
  22   0.0000       0.081659         2.2221
  23   0.0000       0.085015         2.3134
  24   0.0000       0.108605         2.9553

MULLIKEN ATOMIC CHARGES
-----------------------
   0 C :    0.066590
   1 C :   -0.000135
   2 C :   -0.178130
   3 C :   -0.028540
   4 N :   -0.057460
   5 H :    0.105558
   6 H :    0.116446
   7 H :   -0.036728
   8 H :   -0.053685
   9 H :    0.005561
  10 H :    0.020308
  11 H :    0.015363
  12 H :    0.022271
  13 H :    0.002580
Sum of atomic charges:    0.0000000

LOEWDIN ATOMIC CHARGES
----------------------
   0 C :   -0.023328
   1 C :   -0.039249
   2 C :   -0.009812
   3 C :   -0.167227
   4 N :    0.001475
   5 H :    0.066991
   6 H :    0.077260
   7 H :   -0.003237
   8 H :   -0.011547
   9 H :    0.030018
  10 H :    0.025862
  11 H :    0.021877
  12 H :    0.021302
  13 H :    0.009617

  Mayer bond orders larger than 0.100000
B(  0-C ,  1-C ) :   1.0883 B(  0-C ,  2-C ) :   1.0296 B(  0-C ,  9-H ) :   0.9254
B(  0-C , 10-H ) :   0.9267 B(  1-C , 11-H ) :   0.9630 B(  1-C , 12-H ) :   0.9729
B(  1-C , 13-H ) :   0.9682 B(  2-C ,  3-C ) :   1.8383 B(  2-C ,  4-N ) :   1.2852
B(  3-C ,  7-H ) :   0.9396 B(  3-C ,  8-H ) :   0.9384 B(  4-N ,  5-H ) :   0.9471
B(  4-N ,  6-H ) :   0.9372

Dispersion correction           -0.012915332
FINAL SINGLE POINT ENERGY      -212.442395469834

DIPOLE MOMENT
-------------
                                X             Y             Z
Electronic contribution:     -1.51712      -0.51689       2.09384
Nuclear contribution   :      1.56827      -0.21459      -2.46657
                        -----------------------------------------
Total Dipole Moment    :      0.05115      -0.73148      -0.37273
                        -----------------------------------------
Magnitude (a.u.)       :      0.82256
Magnitude (Debye)      :      2.09079

Rotational constants in cm-1:     0.294070     0.127722     0.097792
Rotational constants in MHz :  8815.983970  3829.010547  2931.715816

                             ****ORCA TERMINATED NORMALLY****
TOTAL RUN TIME: 0 days 0 hours 0 minutes 9 seconds 716 msec
