                         Program Version 5.0.0 -  RELEASE  -
|  1> !TPSS D3BJ RIJCOSX def2-SVP def2/J TightSCF
|  2> *xyz 0 1
|  3> C          4.36645       -0.13321       -1.41606
|  4> C          4.50829       -0.93187       -2.72425
|  5> C          3.05650       -0.32080       -0.70738
|  6> N          2.38983        0.71129       -0.24391
|  7> C          2.51600       -1.50772       -0.55023
|  8> H          2.96768       -2.32291       -0.95631
|  9> H          1.54987       -1.49063       -0.24988
| 10> H          2.74307        1.64947       -0.41280
| 11> H          1.44036        0.50278        0.03703
| 12> H          4.48784        0.93300       -1.61157
| 13> H          5.16967       -0.41443       -0.72982
| 14> H          5.46700       -0.73824       -3.15818
| 15> H          3.74074       -0.63528       -3.40821
| 16> H          4.41574       -1.97727       -2.51573
| 17> *
| 18>
| 19> %MaxCore 64000
| 20>
| 21> %pal nprocs 4
| 22> end
| 23>
| 24> %scf
| 25>   MaxIter 150
| 26> end
| 27>
| 28>
| 29>                          ****END OF INPUT****

CARTESIAN COORDINATES (ANGSTROEM)
---------------------------------
  C      4.366450   -0.133210   -1.416060
  C      4.508290   -0.931870   -2.724250
  C      3.056500   -0.320800   -0.707380
  N      2.389830    0.711290   -0.243910
  C      2.516000   -1.507720   -0.550230
  H      2.967680   -2.322910   -0.956310
  H      1.549870   -1.490630   -0.249880
  H      2.743070    1.649470   -0.412800
  H      1.440360    0.502780    0.037030
  H      4.487840    0.933000   -1.611570
  H      5.169670   -0.414430   -0.729820
  H      5.467000   -0.738240   -3.158180
  H      3.740740   -0.635280   -3.408210
  H      4.415740   -1.977270   -2.515730

 Total Charge           Charge          ....    0
 Multiplicity           Mult            ....    1
 Number of Electrons    NEL             ....   40
 Basis Dimension        Dim             ....  115

ORBITAL ENERGIES
----------------

  NO   OCC          E(Eh)            E(eV)
   0   2.0000     -14.109467      -383.9381
   1   2.0000     -10.003194      -272.2007
   2   2.0000      -9.999256      -272.0936
   3   2.0000      -9.986815      -271.7550
   4   2.0000      -9.924071      -270.0477
   5   2.0000      -0.852789       -23.2056
   6   2.0000      -0.710771       -19.3411
   7   2.0000      -0.643116       -17.5001
   8   2.0000      -0.585502       -15.9323
   9   2.0000      -0.496939       -13.5224
  10   2.0000      -0.480640       -13.0789
  11   2.0000      -0.428167       -11.6510
  12   2.0000      -0.404266       -11.0006
  13   2.0000      -0.360700        -9.8151
  14   2.0000      -0.346114        -9.4183
  15   2.0000      -0.336407        -9.1541
  16   2.0000      -0.315976        -8.5982
  17   2.0000      -0.300509        -8.1773
  18   2.0000      -0.281742        -7.6666
  19   2.0000      -0.146204        -3.9784
  20   0.0000       0.033495         0.9115
  21   0.0000       0.041905         1.1403
  22   0.0000       0.079809         2.1717
  23   0.0000       0.084187         2.2908
  24   0.0000       0.112159         3.0520

MULLIKEN ATOMIC CHARGES
-----------------------
   0 C :    0.063874
   1 C :    0.011830
   2 C :   -0.178617
   3 N :   -0.059710
   4 C :   -0.032850
   5 H :   -0.037048
   6 H :   -0.050961
   7 H :    0.108058
   8 H :    0.113697
   9 H :   -0.018714
  10 H :    0.030538
  11 H :    0.006254
  12 H :    0.017200
  13 H :    0.026449
Sum of atomic charges:    0.0000000

LOEWDIN ATOMIC CHARGES
----------------------
   0 C :   -0.024681
   1 C :   -0.029888
   2 C :   -0.009659
   3 N :    0.004259
   4 C :   -0.171870
   5 H :   -0.004822
   6 H :   -0.010758
   7 H :    0.068196
   8 H :    0.076403
   9 H :    0.012405
  10 H :    0.033254
  11 H :    0.016698
  12 H :    0.019911
  13 H :    0.020553

  Mayer bond orders larger than 0.100000
B(  0-C ,  1-C ) :   1.1070 B(  0-C ,  2-C ) :   1.0042 B(  0-C ,  9-H ) :   0.9266
B(  0-C , 10-H ) :   0.9276 B(  1-C , 11-H ) :   0.9602 B(  1-C , 12-H ) :   0.9736
B(  1-C , 13-H ) :   0.9713 B(  2-C ,  3-N ) :   1.2872 B(  2-C ,  4-C ) :   1.8371
B(  3-N ,  7-H ) :   0.9417 B(  3-N ,  8-H ) :   0.9382 B(  4-C ,  5-H ) :   0.9492
B(  4-C ,  6-H ) :   0.9379

Dispersion correction           -0.012957825
FINAL SINGLE POINT ENERGY      -212.441043093386

DIPOLE MOMENT
-------------
                                X             Y             Z
Electronic contribution:     -1.63335       1.52110       2.39565
Nuclear contribution   :      1.59749      -0.72853      -2.53752
                        -----------------------------------------
Total Dipole Moment    :     -0.03586       0.79257      -0.14186
                        -----------------------------------------
Magnitude (a.u.)       :      0.80597
Magnitude (Debye)      :      2.04860

Rotational constants in cm-1:     0.304597     0.124127     0.096828
Rotational constants in MHz :  9131.600925  3721.227051  2902.830760

                             ****ORCA TERMINATED NORMALLY****
TOTAL RUN TIME: 0 days 0 hours 0 minutes 9 seconds 272 msec
