                         Program Version 5.0.0 -  RELEASE  -
|  1> !B3LYP D3BJ RIJCOSX def2-SVPD def2/J TightSCF
|  2> *xyz -1 1
|  3> C         -0.87096        0.24804       -2.66280
|  4> C         -0.47749        0.60819       -4.10105
|  5> H          0.20677        1.45830       -4.11875
|  6> H         -1.36844        0.92942       -4.64785
|  7> C          0.18467       -0.50664       -4.91676
|  8> O         -0.15869       -1.70109       -4.65798
|  9> O          1.05594       -0.17441       -5.74037
| 10> C          0.10016       -0.67355       -1.91581
| 11> H         -1.00105        1.18104       -2.10407
| 12> H         -1.84465       -0.24659       -2.66328
| 13> H          0.22336       -1.58297       -2.46597
| 14> H         -0.29270       -0.89423       -0.94532
| 15> H          1.04759       -0.18666       -1.81480
| 16> *
| 17>
| 18> %MaxCore 64000
| 19>
| 20> %pal nprocs 4
| 21> end
| 22>
| 23> %scf
| 24>   MaxIter 150
| 25> end
| 26>
| 27>
| 28>                          ****END OF INPUT****

CARTESIAN COORDINATES (ANGSTROEM)
---------------------------------
  C     -0.870960    0.248040   -2.662800
  C     -0.477490    0.608190   -4.101050
  H      0.206770    1.458300   -4.118750
  H     -1.368440    0.929420   -4.647850
  C      0.184670   -0.506640   -4.916760
  O     -0.158690   -1.701090   -4.657980
  O      1.055940   -0.174410   -5.740370
  C      0.100160   -0.673550   -1.915810
  H     -1.001050    1.181040   -2.104070
  H     -1.844650   -0.246590   -2.663280
  H      0.223360   -1.582970   -2.465970
  H     -0.292700   -0.894230   -0.945320
  H      1.047590   -0.186660   -1.814800

 Total Charge           Charge          ....   -1
 Multiplicity           Mult            ....    1
 Number of Electrons    NEL             ....   48
 Basis Dimension        Dim             ....  182

ORBITAL ENERGIES
----------------

  NO   OCC          E(Eh)            E(eV)
   0   2.0000     -18.883223      -513.8386
   1   2.0000     -18.879590      -513.7398
   2   2.0000     -10.073300      -274.1084
   3   2.0000     -10.033547      -273.0267
   4   2.0000     -10.017468      -272.5892
   5   2.0000     -10.011877      -272.4370
   6   2.0000      -0.816305       -22.2128
   7   2.0000      -0.723055       -19.6753
   8   2.0000      -0.624487       -16.9932
   9   2.0000      -0.533720       -14.5233
  10   2.0000      -0.439202       -11.9513
  11   2.0000      -0.318762        -8.6740
  12   2.0000      -0.302687        -8.2365
  13   2.0000      -0.289376        -7.8743
  14   2.0000      -0.255080        -6.9411
  15   2.0000      -0.230247        -6.2653
  16   2.0000      -0.214982        -5.8500
  17   2.0000      -0.204454        -5.5635
  18   2.0000      -0.192345        -5.2340
  19   2.0000      -0.178733        -4.8636
  20   2.0000      -0.163098        -4.4381
  21   2.0000      -0.054799        -1.4912
  22   2.0000      -0.048042        -1.3073
  23   2.0000      -0.034213        -0.9310
  24   0.0000       0.146479         3.9859
  25   0.0000       0.171337         4.6623
  26   0.0000       0.187950         5.1144
  27   0.0000       0.196581         5.3492
  28   0.0000       0.218285         5.9398

MULLIKEN ATOMIC CHARGES
-----------------------
   0 C :   -0.202736
   1 C :    0.291904
   2 H :   -0.042409
   3 H :   -0.127367
   4 C :    0.347144
   5 O :   -0.752902
   6 O :   -0.652657
   7 C :    0.927419
   8 H :   -0.239299
   9 H :   -0.107311
  10 H :   -0.167640
  11 H :   -0.146948
  12 H :   -0.127195
Sum of atomic charges:   -1.0000000

LOEWDIN ATOMIC CHARGES
----------------------
   0 C :   -0.078963
   1 C :    0.009903
   2 H :   -0.002293
   3 H :    0.006741
   4 C :   -0.293022
   5 O :   -0.319484
   6 O :   -0.315802
   7 C :    0.118080
   8 H :   -0.007527
   9 H :    0.004106
  10 H :   -0.050493
  11 H :   -0.042776
  12 H :   -0.028470

  Mayer bond orders larger than 0.100000
B(  0-C ,  1-C ) :   1.2008 B(  0-C ,  2-H ) :   0.1400 B(  0-C ,  3-H ) :   0.1471
B(  0-C ,  7-C ) :   1.3208 B(  0-C ,  8-H ) :   0.8837 B(  0-C ,  9-H ) :   0.8436
B(  0-C , 10-H ) :   0.2248 B(  0-C , 11-H ) :   0.2627 B(  0-C , 12-H ) :   0.2205
B(  1-C ,  2-H ) :   0.8168 B(  1-C ,  3-H ) :   0.7920 B(  1-C ,  4-C ) :   1.0481
B(  1-C ,  8-H ) :   0.1321 B(  1-C ,  9-H ) :   0.1290 B(  2-H ,  4-C ) :   0.2384
B(  3-H ,  4-C ) :   0.1082 B(  4-C ,  5-O ) :   1.4553 B(  4-C ,  6-O ) :   1.4249
B(  7-C ,  8-H ) :   0.1103 B(  7-C ,  9-H ) :   0.1071 B(  7-C , 10-H ) :   0.7992
B(  7-C , 11-H ) :   0.6546 B(  7-C , 12-H ) :   0.7146

Dispersion correction           -0.016443571
FINAL SINGLE POINT ENERGY      -306.787256402118

DIPOLE MOMENT
-------------
                                X             Y             Z
Electronic contribution:      1.81268      -2.00911      -6.72147
Nuclear contribution   :     -2.71698       3.10699       8.64748
                        -----------------------------------------
Total Dipole Moment    :     -0.90431       1.09788       1.92601
                        -----------------------------------------
Magnitude (a.u.)       :      2.39429
Magnitude (Debye)      :      6.08581

Rotational constants in cm-1:     0.212307     0.084237     0.072775
Rotational constants in MHz :  6364.813744  2525.362351  2181.751235

                             ****ORCA TERMINATED NORMALLY****
TOTAL RUN TIME: 0 days 0 hours 0 minutes 19 seconds 415 msec
