                         Program Version 5.0.0 -  RELEASE  -
|  1> !B3LYP D3BJ RIJCOSX def2-SVPD def2/J TightSCF
|  2> *xyz 1 1
|  3> C          2.48645       -2.67712       -2.56345
|  4> C          3.03764       -2.36672       -3.92351
|  5> N          2.28036       -2.45441       -4.96769
|  6> N          4.32174       -2.01793       -4.01664
|  7> H          4.87994       -1.91167       -3.17382
|  8> H          4.71015       -1.67088       -4.88356
|  9> H          1.27042       -2.41265       -4.86614
| 10> H          2.58183       -2.05528       -5.84688
| 11> C          2.49799       -1.46946       -1.61030
| 12> C          1.58284       -0.32199       -2.04262
| 13> H          2.19308       -1.83391       -0.62542
| 14> H          3.52336       -1.10398       -1.49039
| 15> H          1.47259       -3.05153       -2.69437
| 16> H          3.08320       -3.49064       -2.14147
| 17> H          1.88480        0.03130       -3.00642
| 18> H          1.65140        0.47571       -1.33278
| 19> H          0.57235       -0.67052       -2.09099
| 20> *
| 21>
| 22> %MaxCore 64000
| 23>
| 24> %pal nprocs 4
| 25> end
| 26>
| 27> %scf
| 28>   MaxIter 150
| 29> end
| 30>
| 31>
| 32>                          ****END OF INPUT****

CARTESIAN COORDINATES (ANGSTROEM)
---------------------------------
  C      2.486450   -2.677120   -2.563450
  C      3.037640   -2.366720   -3.923510
  N      2.280360   -2.454410   -4.967690
  N      4.321740   -2.017930   -4.016640
  H      4.879940   -1.911670   -3.173820
  H      4.710150   -1.670880   -4.883560
  H      1.270420   -2.412650   -4.866140
  H      2.581830   -2.055280   -5.846880
  C      2.497990   -1.469460   -1.610300
  C      1.582840   -0.321990   -2.042620
  H      2.193080   -1.833910   -0.625420
  H      3.523360   -1.103980   -1.490390
  H      1.472590   -3.051530   -2.694370
  H      3.083200   -3.490640   -2.141470
  H      1.884800    0.031300   -3.006420
  H      1.651400    0.475710   -1.332780
  H      0.572350   -0.670520   -2.090990

 Total Charge           Charge          ....    1
 Multiplicity           Mult            ....    1
 Number of Electrons    NEL             ....   48
 Basis Dimension        Dim             ....  208

ORBITAL ENERGIES
----------------

  NO   OCC          E(Eh)            E(eV)
   0   2.0000     -14.578226      -396.6937
   1   2.0000     -14.572765      -396.5451
   2   2.0000     -10.504603      -285.8448
   3   2.0000     -10.376974      -282.3718
   4   2.0000     -10.346915      -281.5539
   5   2.0000     -10.312691      -280.6226
   6   2.0000      -1.197283       -32.5797
   7   2.0000      -1.101082       -29.9620
   8   2.0000      -0.966848       -26.3093
   9   2.0000      -0.884265       -24.0621
  10   2.0000      -0.833656       -22.6849
  11   2.0000      -0.780437       -21.2368
  12   2.0000      -0.770975       -20.9793
  13   2.0000      -0.731772       -19.9125
  14   2.0000      -0.700542       -19.0627
  15   2.0000      -0.653110       -17.7720
  16   2.0000      -0.627337       -17.0707
  17   2.0000      -0.593479       -16.1494
  18   2.0000      -0.576016       -15.6742
  19   2.0000      -0.564100       -15.3499
  20   2.0000      -0.507472       -13.8090
  21   2.0000      -0.502916       -13.6850
  22   2.0000      -0.499329       -13.5874
  23   2.0000      -0.492336       -13.3971
  24   0.0000      -0.215910        -5.8752
  25   0.0000      -0.158951        -4.3253
  26   0.0000      -0.120925        -3.2905
  27   0.0000      -0.115738        -3.1494
  28   0.0000      -0.086487        -2.3534

MULLIKEN ATOMIC CHARGES
-----------------------
   0 C :    0.298173
   1 C :    0.543062
   2 N :    0.235123
   3 N :    0.174436
   4 H :   -0.000541
   5 H :   -0.175911
   6 H :   -0.009699
   7 H :   -0.134469
   8 C :   -0.174091
   9 C :    0.978184
  10 H :   -0.145536
  11 H :   -0.134467
  12 H :   -0.014679
  13 H :   -0.078533
  14 H :   -0.173903
  15 H :   -0.148610
  16 H :   -0.038538
Sum of atomic charges:    1.0000000

LOEWDIN ATOMIC CHARGES
----------------------
   0 C :    0.052479
   1 C :   -0.051260
   2 N :    0.290716
   3 N :    0.294619
   4 H :    0.046238
   5 H :    0.042949
   6 H :    0.057042
   7 H :    0.049051
   8 C :   -0.039757
   9 C :    0.153025
  10 H :    0.038320
  11 H :    0.017549
  12 H :    0.034263
  13 H :    0.050433
  14 H :   -0.025016
  15 H :   -0.002110
  16 H :   -0.008542

  Mayer bond orders larger than 0.100000
B(  0-C ,  1-C ) :   1.1420 B(  0-C ,  8-C ) :   1.1732 B(  0-C , 10-H ) :   0.1313
B(  0-C , 11-H ) :   0.1291 B(  0-C , 12-H ) :   0.7527 B(  0-C , 13-H ) :   0.7953
B(  1-C ,  2-N ) :   1.1131 B(  1-C ,  3-N ) :   1.1426 B(  1-C ,  5-H ) :  -0.1459
B(  1-C ,  7-H ) :  -0.1113 B(  1-C , 12-H ) :   0.2147 B(  1-C , 13-H ) :   0.1452
B(  2-N ,  3-N ) :   0.1607 B(  2-N ,  6-H ) :   1.0687 B(  2-N ,  7-H ) :   1.1834
B(  3-N ,  4-H ) :   1.1100 B(  3-N ,  5-H ) :   1.2854 B(  4-H ,  5-H ) :  -0.1843
B(  6-H ,  7-H ) :  -0.1336 B(  8-C ,  9-C ) :   1.3505 B(  8-C , 10-H ) :   0.9203
B(  8-C , 11-H ) :   0.8459 B(  8-C , 12-H ) :   0.1442 B(  8-C , 13-H ) :   0.1128
B(  8-C , 14-H ) :   0.2595 B(  8-C , 15-H ) :   0.2545 B(  8-C , 16-H ) :   0.2343
B(  9-C , 14-H ) :   0.7580 B(  9-C , 15-H ) :   0.7117 B(  9-C , 16-H ) :   0.7254

Dispersion correction           -0.022406582
FINAL SINGLE POINT ENERGY      -268.014787898828

DIPOLE MOMENT
-------------
                                X             Y             Z
Electronic contribution:      2.37615      -2.81166      -4.28132
Nuclear contribution   :     -1.82438       2.64851       2.98450
                        -----------------------------------------
Total Dipole Moment    :      0.55176      -0.16315      -1.29682
                        -----------------------------------------
Magnitude (a.u.)       :      1.41873
Magnitude (Debye)      :      3.60614

Rotational constants in cm-1:     0.176712     0.077069     0.069669
Rotational constants in MHz :  5297.698588  2310.466480  2088.633881

                             ****ORCA TERMINATED NORMALLY****
TOTAL RUN TIME: 0 days 0 hours 0 minutes 21 seconds 57 msec
