                         Program Version 5.0.0 -  RELEASE  -
|  1> !B3LYP D3BJ RIJCOSX def2-SVPD def2/J TightSCF
|  2> *xyz 0 1
|  3> C         -0.87096        0.24804       -2.66280
|  4> C         -0.47749        0.60819       -4.10105
|  5> H          0.20677        1.45830       -4.11875
|  6> H         -1.36844        0.92942       -4.64785
|  7> C          0.18467       -0.50664       -4.91676
|  8> F         -0.15869       -1.70109       -4.65798
|  9> O          1.05594       -0.17441       -5.74037
| 10> C          0.10016       -0.67355       -1.91581
| 11> H         -1.00105        1.18104       -2.10407
| 12> H         -1.84465       -0.24659       -2.66328
| 13> H          0.22336       -1.58297       -2.46597
| 14> H         -0.29270       -0.89423       -0.94532
| 15> H          1.04759       -0.18666       -1.81480
| 16> *
| 17>
| 18> %MaxCore 64000
| 19>
| 20> %pal nprocs 4
| 21> end
| 22>
| 23> %scf
| 24>   MaxIter 150
| 25> end
| 26>
| 27>
| 28>                          ****END OF INPUT****

CARTESIAN COORDINATES (ANGSTROEM)
---------------------------------
  C     -0.870960    0.248040   -2.662800
  C     -0.477490    0.608190   -4.101050
  H      0.206770    1.458300   -4.118750
  H     -1.368440    0.929420   -4.647850
  C      0.184670   -0.506640   -4.916760
  F     -0.158690   -1.701090   -4.657980
  O      1.055940   -0.174410   -5.740370
  C      0.100160   -0.673550   -1.915810
  H     -1.001050    1.181040   -2.104070
  H     -1.844650   -0.246590   -2.663280
  H      0.223360   -1.582970   -2.465970
  H     -0.292700   -0.894230   -0.945320
  H      1.047590   -0.186660   -1.814800

 Total Charge           Charge          ....    0
 Multiplicity           Mult            ....    1
 Number of Electrons    NEL             ....   48
 Basis Dimension        Dim             ....  182

ORBITAL ENERGIES
----------------

  NO   OCC          E(Eh)            E(eV)
   0   2.0000     -24.766039      -673.9182
   1   2.0000     -19.151640      -521.1426
   2   2.0000     -10.366556      -282.0883
   3   2.0000     -10.215451      -277.9766
   4   2.0000     -10.200903      -277.5807
   5   2.0000     -10.179224      -276.9908
   6   2.0000      -1.299366       -35.3575
   7   2.0000      -1.033782       -28.1306
   8   2.0000      -0.809391       -22.0246
   9   2.0000      -0.724839       -19.7239
  10   2.0000      -0.659065       -17.9341
  11   2.0000      -0.615666       -16.7531
  12   2.0000      -0.549630       -14.9562
  13   2.0000      -0.540360       -14.7040
  14   2.0000      -0.493101       -13.4180
  15   2.0000      -0.476968       -12.9790
  16   2.0000      -0.452235       -12.3059
  17   2.0000      -0.422433       -11.4950
  18   2.0000      -0.410468       -11.1694
  19   2.0000      -0.380834       -10.3630
  20   2.0000      -0.366849        -9.9825
  21   2.0000      -0.359625        -9.7859
  22   2.0000      -0.342768        -9.3272
  23   2.0000      -0.296875        -8.0784
  24   0.0000      -0.035096        -0.9550
  25   0.0000       0.008274         0.2251
  26   0.0000       0.041999         1.1429
  27   0.0000       0.044880         1.2213
  28   0.0000       0.055974         1.5231

MULLIKEN ATOMIC CHARGES
-----------------------
   0 C :   -0.152680
   1 C :    0.222011
   2 H :   -0.010029
   3 H :   -0.068305
   4 C :    0.692657
   5 F :   -0.435563
   6 O :   -0.450576
   7 C :    0.951584
   8 H :   -0.221345
   9 H :   -0.096230
  10 H :   -0.201579
  11 H :   -0.127575
  12 H :   -0.102371
Sum of atomic charges:   -0.0000000

LOEWDIN ATOMIC CHARGES
----------------------
   0 C :   -0.057992
   1 C :    0.057079
   2 H :    0.033058
   3 H :    0.037033
   4 C :   -0.008011
   5 F :   -0.043709
   6 O :   -0.124052
   7 C :    0.138958
   8 H :    0.019978
   9 H :    0.017708
  10 H :   -0.039446
  11 H :   -0.017018
  12 H :   -0.013586

  Mayer bond orders larger than 0.100000
B(  0-C ,  1-C ) :   1.2282 B(  0-C ,  2-H ) :   0.1320 B(  0-C ,  3-H ) :   0.1382
B(  0-C ,  7-C ) :   1.3384 B(  0-C ,  8-H ) :   0.8775 B(  0-C ,  9-H ) :   0.8450
B(  0-C , 10-H ) :   0.2089 B(  0-C , 11-H ) :   0.2509 B(  0-C , 12-H ) :   0.2154
B(  1-C ,  2-H ) :   0.8370 B(  1-C ,  3-H ) :   0.7973 B(  1-C ,  4-C ) :   1.0616
B(  1-C ,  8-H ) :   0.1336 B(  1-C ,  9-H ) :   0.1224 B(  2-H ,  4-C ) :   0.1780
B(  4-C ,  5-F ) :   0.6857 B(  4-C ,  6-O ) :   1.7861 B(  5-F ,  6-O ) :   0.1184
B(  7-C , 10-H ) :   0.7962 B(  7-C , 11-H ) :   0.6683 B(  7-C , 12-H ) :   0.7218

Dispersion correction           -0.015651503
FINAL SINGLE POINT ENERGY      -331.319810853431

DIPOLE MOMENT
-------------
                                X             Y             Z
Electronic contribution:      1.73488      -4.30672      -8.47319
Nuclear contribution   :     -2.55684       4.59749       9.38828
                        -----------------------------------------
Total Dipole Moment    :     -0.82196       0.29077       0.91509
                        -----------------------------------------
Magnitude (a.u.)       :      1.26395
Magnitude (Debye)      :      3.21270

Rotational constants in cm-1:     0.200184     0.083263     0.071070
Rotational constants in MHz :  6001.373539  2496.169674  2130.635527

                             ****ORCA TERMINATED NORMALLY****
TOTAL RUN TIME: 0 days 0 hours 0 minutes 17 seconds 349 msec
