                         Program Version 5.0.0 -  RELEASE  -
|  1> !B3LYP D3BJ RIJCOSX def2-SVPD def2/J TightSCF
|  2> *xyz 0 1
|  3> C          2.48645       -2.67712       -2.56345
|  4> C          3.03764       -2.36672       -3.92351
|  5> C          2.28036       -2.45441       -4.96769
|  6> N          4.32174       -2.01793       -4.01664
|  7> H          4.87994       -1.91167       -3.17382
|  8> H          4.71015       -1.67088       -4.88356
|  9> H          1.27042       -2.41265       -4.86614
| 10> H          2.58183       -2.05528       -5.84688
| 11> C          2.49799       -1.46946       -1.61030
| 12> C          1.58284       -0.32199       -2.04262
| 13> H          2.19308       -1.83391       -0.62542
| 14> H          3.52336       -1.10398       -1.49039
| 15> H          1.47259       -3.05153       -2.69437
| 16> H          3.08320       -3.49064       -2.14147
| 17> H          1.88480        0.03130       -3.00642
| 18> H          1.65140        0.47571       -1.33278
| 19> H          0.57235       -0.67052       -2.09099
| 20> *
| 21>
| 22> %MaxCore 64000
| 23>
| 24> %pal nprocs 4
| 25> end
| 26>
| 27> %scf
| 28>   MaxIter 150
| 29> end
| 30>
| 31>
| 32>                          ****END OF INPUT****

CARTESIAN COORDINATES (ANGSTROEM)
---------------------------------
  C      2.486450   -2.677120   -2.563450
  C      3.037640   -2.366720   -3.923510
  C      2.280360   -2.454410   -4.967690
  N      4.321740   -2.017930   -4.016640
  H      4.879940   -1.911670   -3.173820
  H      4.710150   -1.670880   -4.883560
  H      1.270420   -2.412650   -4.866140
  H      2.581830   -2.055280   -5.846880
  C      2.497990   -1.469460   -1.610300
  C      1.582840   -0.321990   -2.042620
  H      2.193080   -1.833910   -0.625420
  H      3.523360   -1.103980   -1.490390
  H      1.472590   -3.051530   -2.694370
  H      3.083200   -3.490640   -2.141470
  H      1.884800    0.031300   -3.006420
  H      1.651400    0.475710   -1.332780
  H      0.572350   -0.670520   -2.090990

 Total Charge           Charge          ....    0
 Multiplicity           Mult            ....    1
 Number of Electrons    NEL             ....   48
 Basis Dimension        Dim             ....  208

ORBITAL ENERGIES
----------------

  NO   OCC          E(Eh)            E(eV)
   0   2.0000     -14.332221      -389.9996
   1   2.0000     -10.202499      -277.6241
   2   2.0000     -10.182595      -277.0825
   3   2.0000     -10.180012      -277.0122
   4   2.0000     -10.164570      -276.5920
   5   2.0000     -10.115001      -275.2432
   6   2.0000      -0.917005       -24.9530
   7   2.0000      -0.785753       -21.3814
   8   2.0000      -0.732894       -19.9431
   9   2.0000      -0.679705       -18.4957
  10   2.0000      -0.595470       -16.2036
  11   2.0000      -0.563613       -15.3367
  12   2.0000      -0.525103       -14.2888
  13   2.0000      -0.471732       -12.8365
  14   2.0000      -0.451154       -12.2765
  15   2.0000      -0.448163       -12.1951
  16   2.0000      -0.398631       -10.8473
  17   2.0000      -0.390366       -10.6224
  18   2.0000      -0.370767       -10.0891
  19   2.0000      -0.365808        -9.9542
  20   2.0000      -0.338174        -9.2022
  21   2.0000      -0.324708        -8.8358
  22   2.0000      -0.321910        -8.7596
  23   2.0000      -0.198187        -5.3929
  24   0.0000       0.013356         0.3634
  25   0.0000       0.033130         0.9015
  26   0.0000       0.042392         1.1536
  27   0.0000       0.049589         1.3494
  28   0.0000       0.066461         1.8085

MULLIKEN ATOMIC CHARGES
-----------------------
   0 C :    0.362048
   1 C :   -0.157652
   2 C :    0.572327
   3 N :    0.296811
   4 H :   -0.168501
   5 H :   -0.235054
   6 H :   -0.108461
   7 H :   -0.532834
   8 C :   -0.168206
   9 C :    0.979619
  10 H :   -0.200512
  11 H :   -0.134602
  12 H :    0.043940
  13 H :   -0.158383
  14 H :   -0.160773
  15 H :   -0.164042
  16 H :   -0.065723
Sum of atomic charges:   -0.0000000

LOEWDIN ATOMIC CHARGES
----------------------
   0 C :    0.011556
   1 C :   -0.261058
   2 C :    0.169964
   3 N :    0.185571
   4 H :   -0.006802
   5 H :    0.002430
   6 H :   -0.078911
   7 H :   -0.086675
   8 C :   -0.063747
   9 C :    0.135493
  10 H :    0.013794
  11 H :    0.004127
  12 H :    0.019740
  13 H :    0.021062
  14 H :   -0.024022
  15 H :   -0.023916
  16 H :   -0.018606

  Mayer bond orders larger than 0.100000
B(  0-C ,  1-C ) :   1.1737 B(  0-C ,  2-C ) :   0.1129 B(  0-C ,  3-N ) :   0.1012
B(  0-C ,  8-C ) :   1.1315 B(  0-C , 10-H ) :   0.1814 B(  0-C , 11-H ) :   0.1618
B(  0-C , 12-H ) :   0.7523 B(  0-C , 13-H ) :   0.8375 B(  1-C ,  2-C ) :   1.9823
B(  1-C ,  3-N ) :   1.2213 B(  1-C ,  6-H ) :   0.1722 B(  1-C ,  7-H ) :   0.3119
B(  1-C ,  8-C ) :   0.1100 B(  1-C , 12-H ) :   0.1693 B(  1-C , 13-H ) :   0.1776
B(  2-C ,  3-N ) :   0.2907 B(  2-C ,  6-H ) :   0.8099 B(  2-C ,  7-H ) :   0.5148
B(  3-N ,  4-H ) :   1.1475 B(  3-N ,  5-H ) :   1.2005 B(  4-H ,  5-H ) :  -0.1571
B(  6-H ,  7-H ) :   0.1345 B(  8-C ,  9-C ) :   1.3198 B(  8-C , 10-H ) :   0.8804
B(  8-C , 11-H ) :   0.8308 B(  8-C , 12-H ) :   0.1529 B(  8-C , 14-H ) :   0.2687
B(  8-C , 15-H ) :   0.2594 B(  8-C , 16-H ) :   0.2391 B(  9-C , 14-H ) :   0.7750
B(  9-C , 15-H ) :   0.6934 B(  9-C , 16-H ) :   0.7286 B( 14-H , 16-H ) :   0.1014

Dispersion correction           -0.023215578
FINAL SINGLE POINT ENERGY      -251.556172370900

DIPOLE MOMENT
-------------
                                X             Y             Z
Electronic contribution:      2.46268      -2.10375      -2.13977
Nuclear contribution   :     -1.92525       2.50924       2.56958
                        -----------------------------------------
Total Dipole Moment    :      0.53743       0.40549       0.42981
                        -----------------------------------------
Magnitude (a.u.)       :      0.79874
Magnitude (Debye)      :      2.03025

Rotational constants in cm-1:     0.181985     0.078726     0.071856
Rotational constants in MHz :  5455.785660  2360.157292  2154.177820

                             ****ORCA TERMINATED NORMALLY****
TOTAL RUN TIME: 0 days 0 hours 0 minutes 22 seconds 625 msec
