                         Program Version 5.0.0 -  RELEASE  -
|  1> !B3LYP D3BJ RIJCOSX def2-SVPD def2/J TightSCF
|  2> *xyz 0 1
|  3> C         -0.87096        0.24804       -2.66280
|  4> C         -0.47749        0.60819       -4.10105
|  5> H          0.20677        1.45830       -4.11875
|  6> H         -1.36844        0.92942       -4.64785
|  7> C          0.18467       -0.50664       -4.91676
|  8> O         -0.15869       -1.70109       -4.65798
|  9> F          1.05594       -0.17441       -5.74037
| 10> C          0.10016       -0.67355       -1.91581
| 11> H         -1.00105        1.18104       -2.10407
| 12> H         -1.84465       -0.24659       -2.66328
| 13> H          0.22336       -1.58297       -2.46597
| 14> H         -0.29270       -0.89423       -0.94532
| 15> H          1.04759       -0.18666       -1.81480
| 16> *
| 17>
| 18> %MaxCore 64000
| 19>
| 20> %pal nprocs 4
| 21> end
| 22>
| 23> %scf
| 24>   MaxIter 150
| 25> end
| 26>
| 27>
| 28>                          ****END OF INPUT****

CARTESIAN COORDINATES (ANGSTROEM)
---------------------------------
  C     -0.870960    0.248040   -2.662800
  C     -0.477490    0.608190   -4.101050
  H      0.206770    1.458300   -4.118750
  H     -1.368440    0.929420   -4.647850
  C      0.184670   -0.506640   -4.916760
  O     -0.158690   -1.701090   -4.657980
  F      1.055940   -0.174410   -5.740370
  C      0.100160   -0.673550   -1.915810
  H     -1.001050    1.181040   -2.104070
  H     -1.844650   -0.246590   -2.663280
  H      0.223360   -1.582970   -2.465970
  H     -0.292700   -0.894230   -0.945320
  H      1.047590   -0.186660   -1.814800

 Total Charge           Charge          ....    0
 Multiplicity           Mult            ....    1
 Number of Electrons    NEL             ....   48
 Basis Dimension        Dim             ....  182

ORBITAL ENERGIES
----------------

  NO   OCC          E(Eh)            E(eV)
   0   2.0000     -24.775073      -674.1640
   1   2.0000     -19.148711      -521.0629
   2   2.0000     -10.369150      -282.1589
   3   2.0000     -10.217195      -278.0240
   4   2.0000     -10.195864      -277.4436
   5   2.0000     -10.166784      -276.6523
   6   2.0000      -1.317327       -35.8463
   7   2.0000      -1.020314       -27.7642
   8   2.0000      -0.803277       -21.8583
   9   2.0000      -0.724909       -19.7258
  10   2.0000      -0.665471       -18.1084
  11   2.0000      -0.609991       -16.5987
  12   2.0000      -0.558164       -15.1884
  13   2.0000      -0.535392       -14.5688
  14   2.0000      -0.508496       -13.8369
  15   2.0000      -0.471144       -12.8205
  16   2.0000      -0.453804       -12.3486
  17   2.0000      -0.417350       -11.3567
  18   2.0000      -0.400652       -10.9023
  19   2.0000      -0.366162        -9.9638
  20   2.0000      -0.360476        -9.8090
  21   2.0000      -0.346735        -9.4351
  22   2.0000      -0.342701        -9.3254
  23   2.0000      -0.293992        -7.9999
  24   0.0000      -0.038798        -1.0557
  25   0.0000       0.011390         0.3099
  26   0.0000       0.039737         1.0813
  27   0.0000       0.048041         1.3073
  28   0.0000       0.058228         1.5845

MULLIKEN ATOMIC CHARGES
-----------------------
   0 C :   -0.169300
   1 C :    0.201410
   2 H :    0.000569
   3 H :   -0.054812
   4 C :    0.688521
   5 O :   -0.542925
   6 F :   -0.348672
   7 C :    0.957343
   8 H :   -0.206768
   9 H :   -0.087036
  10 H :   -0.194529
  11 H :   -0.125580
  12 H :   -0.118219
Sum of atomic charges:   -0.0000000

LOEWDIN ATOMIC CHARGES
----------------------
   0 C :   -0.048634
   1 C :    0.049768
   2 H :    0.022288
   3 H :    0.037323
   4 C :   -0.000913
   5 O :   -0.137801
   6 F :   -0.023266
   7 C :    0.139482
   8 H :    0.019752
   9 H :    0.022460
  10 H :   -0.044341
  11 H :   -0.018201
  12 H :   -0.017918

  Mayer bond orders larger than 0.100000
B(  0-C ,  1-C ) :   1.2515 B(  0-C ,  2-H ) :   0.1353 B(  0-C ,  3-H ) :   0.1507
B(  0-C ,  7-C ) :   1.3479 B(  0-C ,  8-H ) :   0.8705 B(  0-C ,  9-H ) :   0.8376
B(  0-C , 10-H ) :   0.2101 B(  0-C , 11-H ) :   0.2486 B(  0-C , 12-H ) :   0.2100
B(  1-C ,  2-H ) :   0.8215 B(  1-C ,  3-H ) :   0.7772 B(  1-C ,  4-C ) :   1.1095
B(  1-C ,  8-H ) :   0.1277 B(  1-C ,  9-H ) :   0.1282 B(  2-H ,  4-C ) :   0.1400
B(  4-C ,  5-O ) :   1.7798 B(  4-C ,  6-F ) :   0.7288 B(  5-O ,  6-F ) :   0.1056
B(  7-C ,  8-H ) :   0.1031 B(  7-C ,  9-H ) :   0.1014 B(  7-C , 10-H ) :   0.7941
B(  7-C , 11-H ) :   0.6615 B(  7-C , 12-H ) :   0.7143

Dispersion correction           -0.015839529
FINAL SINGLE POINT ENERGY      -331.313319692570

DIPOLE MOMENT
-------------
                                X             Y             Z
Electronic contribution:      3.80187      -1.75579     -10.37164
Nuclear contribution   :     -3.92885       2.87300      10.61091
                        -----------------------------------------
Total Dipole Moment    :     -0.12699       1.11720       0.23928
                        -----------------------------------------
Magnitude (a.u.)       :      1.14957
Magnitude (Debye)      :      2.92198

Rotational constants in cm-1:     0.209332     0.079487     0.069375
Rotational constants in MHz :  6275.605762  2382.960864  2079.805430

                             ****ORCA TERMINATED NORMALLY****
TOTAL RUN TIME: 0 days 0 hours 0 minutes 17 seconds 347 msec
