                         Program Version 5.0.0 -  RELEASE  -
|  1> !B3LYP D3BJ RIJCOSX def2-SVPD def2/J TightSCF
|  2> *xyz 0 1
|  3> C          2.48645       -2.67712       -2.56345
|  4> C          3.03764       -2.36672       -3.92351
|  5> N          2.28036       -2.45441       -4.96769
|  6> C          4.32174       -2.01793       -4.01664
|  7> H          4.87994       -1.91167       -3.17382
|  8> H          4.71015       -1.67088       -4.88356
|  9> H          1.27042       -2.41265       -4.86614
| 10> H          2.58183       -2.05528       -5.84688
| 11> C          2.49799       -1.46946       -1.61030
| 12> C          1.58284       -0.32199       -2.04262
| 13> H          2.19308       -1.83391       -0.62542
| 14> H          3.52336       -1.10398       -1.49039
| 15> H          1.47259       -3.05153       -2.69437
| 16> H          3.08320       -3.49064       -2.14147
| 17> H          1.88480        0.03130       -3.00642
| 18> H          1.65140        0.47571       -1.33278
| 19> H          0.57235       -0.67052       -2.09099
| 20> *
| 21>
| 22> %MaxCore 64000
| 23>
| 24> %pal nprocs 4
| 25> end
| 26>
| 27> %scf
| 28>   MaxIter 150
| 29> end
| 30>
| 31>
| 32>                          ****END OF INPUT****

CARTESIAN COORDINATES (ANGSTROEM)
---------------------------------
  C      2.486450   -2.677120   -2.563450
  C      3.037640   -2.366720   -3.923510
  N      2.280360   -2.454410   -4.967690
  C      4.321740   -2.017930   -4.016640
  H      4.879940   -1.911670   -3.173820
  H      4.710150   -1.670880   -4.883560
  H      1.270420   -2.412650   -4.866140
  H      2.581830   -2.055280   -5.846880
  C      2.497990   -1.469460   -1.610300
  C      1.582840   -0.321990   -2.042620
  H      2.193080   -1.833910   -0.625420
  H      3.523360   -1.103980   -1.490390
  H      1.472590   -3.051530   -2.694370
  H      3.083200   -3.490640   -2.141470
  H      1.884800    0.031300   -3.006420
  H      1.651400    0.475710   -1.332780
  H      0.572350   -0.670520   -2.090990

 Total Charge           Charge          ....    0
 Multiplicity           Mult            ....    1
 Number of Electrons    NEL             ....   48
 Basis Dimension        Dim             ....  208

ORBITAL ENERGIES
----------------

  NO   OCC          E(Eh)            E(eV)
   0   2.0000     -14.336112      -390.1054
   1   2.0000     -10.202974      -277.6370
   2   2.0000     -10.180951      -277.0378
   3   2.0000     -10.178993      -276.9845
   4   2.0000     -10.165746      -276.6240
   5   2.0000     -10.115469      -275.2559
   6   2.0000      -0.932468       -25.3737
   7   2.0000      -0.786945       -21.4139
   8   2.0000      -0.723988       -19.7007
   9   2.0000      -0.675084       -18.3700
  10   2.0000      -0.605663       -16.4809
  11   2.0000      -0.562131       -15.2964
  12   2.0000      -0.519268       -14.1300
  13   2.0000      -0.485152       -13.2016
  14   2.0000      -0.451692       -12.2912
  15   2.0000      -0.433130       -11.7861
  16   2.0000      -0.402469       -10.9517
  17   2.0000      -0.393234       -10.7004
  18   2.0000      -0.370445       -10.0803
  19   2.0000      -0.360786        -9.8175
  20   2.0000      -0.338085        -9.1997
  21   2.0000      -0.329610        -8.9691
  22   2.0000      -0.327538        -8.9127
  23   2.0000      -0.188700        -5.1348
  24   0.0000       0.014861         0.4044
  25   0.0000       0.028997         0.7890
  26   0.0000       0.044624         1.2143
  27   0.0000       0.050544         1.3754
  28   0.0000       0.062855         1.7104

MULLIKEN ATOMIC CHARGES
-----------------------
   0 C :    0.607319
   1 C :   -0.132641
   2 N :    0.243126
   3 C :    0.568394
   4 H :   -0.205150
   5 H :   -0.588520
   6 H :   -0.098462
   7 H :   -0.167183
   8 C :   -0.267863
   9 C :    0.953888
  10 H :   -0.171449
  11 H :   -0.142244
  12 H :   -0.146028
  13 H :   -0.064942
  14 H :   -0.147426
  15 H :   -0.182214
  16 H :   -0.058606
Sum of atomic charges:   -0.0000000

LOEWDIN ATOMIC CHARGES
----------------------
   0 C :    0.012426
   1 C :   -0.263991
   2 N :    0.175099
   3 C :    0.186584
   4 H :   -0.087026
   5 H :   -0.094013
   6 H :    0.001618
   7 H :    0.008939
   8 C :   -0.059074
   9 C :    0.132243
  10 H :    0.013938
  11 H :    0.011572
  12 H :    0.008218
  13 H :    0.025975
  14 H :   -0.025871
  15 H :   -0.023050
  16 H :   -0.023586

  Mayer bond orders larger than 0.100000
B(  0-C ,  1-C ) :   1.0536 B(  0-C ,  2-N ) :   0.1192 B(  0-C ,  3-C ) :   0.1473
B(  0-C ,  8-C ) :   1.1599 B(  0-C , 10-H ) :   0.1184 B(  0-C , 11-H ) :   0.1512
B(  0-C , 12-H ) :   0.5714 B(  0-C , 13-H ) :   0.7495 B(  1-C ,  2-N ) :   1.0249
B(  1-C ,  3-C ) :   1.7077 B(  1-C ,  4-H ) :   0.1145 B(  1-C ,  5-H ) :   0.1673
B(  1-C , 12-H ) :   0.3002 B(  1-C , 13-H ) :   0.1630 B(  2-N ,  3-C ) :   0.3119
B(  2-N ,  6-H ) :   1.0039 B(  2-N ,  7-H ) :   1.1134 B(  3-C ,  4-H ) :   0.7644
B(  3-C ,  5-H ) :   0.6862 B(  6-H ,  7-H ) :  -0.1216 B(  8-C ,  9-C ) :   1.3211
B(  8-C , 10-H ) :   0.8997 B(  8-C , 11-H ) :   0.8898 B(  8-C , 12-H ) :   0.2137
B(  8-C , 13-H ) :   0.1313 B(  8-C , 14-H ) :   0.2671 B(  8-C , 15-H ) :   0.2596
B(  8-C , 16-H ) :   0.2504 B(  9-C , 14-H ) :   0.7726 B(  9-C , 15-H ) :   0.7080
B(  9-C , 16-H ) :   0.7337

Dispersion correction           -0.023244616
FINAL SINGLE POINT ENERGY      -251.556887762445

DIPOLE MOMENT
-------------
                                X             Y             Z
Electronic contribution:      0.70727      -2.41872      -2.95773
Nuclear contribution   :     -1.44240       2.61248       2.79453
                        -----------------------------------------
Total Dipole Moment    :     -0.73513       0.19375      -0.16320
                        -----------------------------------------
Magnitude (a.u.)       :      0.77756
Magnitude (Debye)      :      1.97639

Rotational constants in cm-1:     0.182540     0.078634     0.071436
Rotational constants in MHz :  5472.425685  2357.397154  2141.608207

                             ****ORCA TERMINATED NORMALLY****
TOTAL RUN TIME: 0 days 0 hours 0 minutes 24 seconds 523 msec
