                         Program Version 5.0.0 -  RELEASE  -
|  1> !B3LYP D3BJ RIJCOSX def2-SVPD def2/J TightSCF xyzfile
|  2>
|  3> *xyzfile 0 1 D3.xyz
|  4>
|  5> %MaxCore 64000
|  6>
|  7> %pal nprocs 4
|  8> end
|  9>
| 10> %scf
| 11>   MaxIter 150
| 12> end
| 13>
| 14>
| 15>                          ****END OF INPUT****

CARTESIAN COORDINATES (ANGSTROEM)
---------------------------------
  C      2.486452   -2.677121   -2.563447
  C     -0.870963    0.248043   -2.662804
  C     -0.477492    0.608191   -4.101052
  H      0.206773    1.458299   -4.118748
  H     -1.368442    0.929419   -4.647855
  C      0.184673   -0.506640   -4.916760
  C      3.037640   -2.366715   -3.923509
  C      2.280360   -2.454408   -4.967692
  N      4.321736   -2.017932   -4.016641
  H      4.879940   -1.911668   -3.173823
  H      4.710148   -1.670882   -4.883561
  H      1.270423   -2.412650   -4.866143
  H      2.581829   -2.055282   -5.846878
  O     -0.158685   -1.701088   -4.657981
  F      1.055938   -0.174410   -5.740373
  C      2.497991   -1.469464   -1.610303
  C      1.582841   -0.321986   -2.042619
  H      2.193083   -1.833912   -0.625420
  H      3.523356   -1.103982   -1.490392
  C      0.100160   -0.673551   -1.915815
  H      1.822311   -0.040361   -3.072834
  H      1.813180    0.557019   -1.433266
  H     -0.063284   -1.679120   -2.301112
  H     -0.168820   -0.691680   -0.853831
  H     -1.001048    1.181040   -2.104071
  H     -1.844645   -0.246592   -2.663281
  H      1.472592   -3.051527   -2.694366
  H      3.083201   -3.490638   -2.141472

 Total Charge           Charge          ....    0
 Multiplicity           Mult            ....    1
 Number of Electrons    NEL             ....   94
 Basis Dimension        Dim             ....  374

ORBITAL ENERGIES
----------------

  NO   OCC          E(Eh)            E(eV)
   0   2.0000     -24.773910      -674.1324
   1   2.0000     -19.146097      -520.9918
   2   2.0000     -14.319103      -389.6426
   3   2.0000     -10.369255      -282.1618
   4   2.0000     -10.215159      -277.9686
   5   2.0000     -10.194005      -277.3930
   6   2.0000     -10.185006      -277.1481
   7   2.0000     -10.179064      -276.9864
   8   2.0000     -10.178869      -276.9811
   9   2.0000     -10.176142      -276.9069
  10   2.0000     -10.170510      -276.7536
  11   2.0000     -10.085588      -274.4428
  12   2.0000      -1.316308       -35.8186
  13   2.0000      -1.026662       -27.9369
  14   2.0000      -0.903872       -24.5956
  15   2.0000      -0.814981       -22.1768
  16   2.0000      -0.783003       -21.3066
  17   2.0000      -0.735745       -20.0206
  18   2.0000      -0.713158       -19.4060
  19   2.0000      -0.675573       -18.3833
  20   2.0000      -0.651708       -17.7339
  21   2.0000      -0.610285       -16.6067
  22   2.0000      -0.573269       -15.5994
  23   2.0000      -0.563974       -15.3465
  24   2.0000      -0.550784       -14.9876
  25   2.0000      -0.530743       -14.4423
  26   2.0000      -0.518944       -14.1212
  27   2.0000      -0.506748       -13.7893
  28   2.0000      -0.477088       -12.9822
  29   2.0000      -0.470166       -12.7939
  30   2.0000      -0.454017       -12.3544
  31   2.0000      -0.440124       -11.9764
  32   2.0000      -0.432925       -11.7805
  33   2.0000      -0.405351       -11.0302
  34   2.0000      -0.398942       -10.8558
  35   2.0000      -0.396498       -10.7893
  36   2.0000      -0.379386       -10.3236
  37   2.0000      -0.367417        -9.9979
  38   2.0000      -0.358921        -9.7667
  39   2.0000      -0.355601        -9.6764
  40   2.0000      -0.337284        -9.1780
  41   2.0000      -0.330162        -8.9842
  42   2.0000      -0.319008        -8.6807
  43   2.0000      -0.312862        -8.5134
  44   2.0000      -0.310978        -8.4622
  45   2.0000      -0.269843        -7.3428
  46   2.0000      -0.181623        -4.9422
  47   0.0000      -0.039700        -1.0803
  48   0.0000       0.012350         0.3361
  49   0.0000       0.022807         0.6206
  50   0.0000       0.031574         0.8592
  51   0.0000       0.040634         1.1057

MULLIKEN ATOMIC CHARGES
-----------------------
   0 C :    0.445539
   1 C :    0.710153
   2 C :    0.404310
   3 H :    0.135502
   4 H :   -0.372674
   5 C :    0.499412
   6 C :   -0.257387
   7 C :    1.207620
   8 N :    0.316070
   9 H :   -0.145313
  10 H :   -0.232432
  11 H :   -0.488303
  12 H :   -0.504131
  13 O :   -0.706834
  14 F :   -0.404940
  15 C :    0.484533
  16 C :    0.332725
  17 H :   -0.185517
  18 H :   -0.176417
  19 C :    0.158354
  20 H :   -0.172573
  21 H :   -0.274282
  22 H :   -0.069812
  23 H :   -0.286787
  24 H :   -0.202430
  25 H :   -0.019829
  26 H :    0.061838
  27 H :   -0.256393
Sum of atomic charges:    0.0000000

LOEWDIN ATOMIC CHARGES
----------------------
   0 C :    0.031996
   1 C :   -0.000497
   2 C :    0.058129
   3 H :    0.024151
   4 H :    0.036100
   5 C :    0.020780
   6 C :   -0.241180
   7 C :    0.182190
   8 N :    0.179285
   9 H :   -0.012248
  10 H :   -0.001154
  11 H :   -0.169225
  12 H :   -0.074819
  13 O :   -0.130665
  14 F :   -0.010963
  15 C :   -0.013027
  16 C :   -0.010074
  17 H :    0.018849
  18 H :    0.006139
  19 C :   -0.016991
  20 H :    0.002726
  21 H :    0.021511
  22 H :   -0.007643
  23 H :    0.024994
  24 H :    0.021995
  25 H :    0.025006
  26 H :    0.012820
  27 H :    0.021812

  Mayer bond orders larger than 0.100000
B(  0-C ,  6-C ) :   1.2178 B(  0-C ,  7-C ) :   0.1636 B(  0-C ,  8-N ) :   0.1363
B(  0-C , 15-C ) :   1.0860 B(  0-C , 16-C ) :   0.1227 B(  0-C , 17-H ) :   0.2205
B(  0-C , 18-H ) :   0.2309 B(  0-C , 26-H ) :   0.7273 B(  0-C , 27-H ) :   0.7319
B(  1-C ,  2-C ) :   1.1710 B(  1-C ,  3-H ) :   0.1167 B(  1-C ,  4-H ) :   0.1515
B(  1-C , 19-C ) :   1.2761 B(  1-C , 24-H ) :   0.6718 B(  1-C , 25-H ) :   0.5959
B(  2-C ,  3-H ) :   0.7667 B(  2-C ,  4-H ) :   0.6144 B(  2-C ,  5-C ) :   1.2023
B(  2-C , 19-C ) :   0.1477 B(  2-C , 24-H ) :   0.1662 B(  3-H ,  4-H ) :  -0.1079
B(  3-H ,  5-C ) :   0.1784 B(  4-H ,  5-C ) :   0.3324 B(  5-C , 13-O ) :   1.6791
B(  5-C , 14-F ) :   0.6586 B(  6-C ,  7-C ) :   1.9256 B(  6-C ,  8-N ) :   1.1381
B(  6-C , 11-H ) :   0.2269 B(  6-C , 12-H ) :   0.5259 B(  6-C , 15-C ) :   0.1856
B(  6-C , 20-H ) :   0.1038 B(  6-C , 26-H ) :   0.1912 B(  6-C , 27-H ) :   0.2454
B(  7-C ,  8-N ) :   0.4384 B(  7-C , 11-H ) :   0.2949 B(  7-C , 26-H ) :  -0.1546
B(  8-N ,  9-H ) :   1.1459 B(  8-N , 10-H ) :   1.1754 B(  9-H , 10-H ) :  -0.1668
B( 11-H , 12-H ) :   0.2962 B( 11-H , 13-O ) :   0.1770 B( 13-O , 14-F ) :   0.1109
B( 15-C , 16-C ) :   1.1906 B( 15-C , 17-H ) :   0.7798 B( 15-C , 18-H ) :   0.6118
B( 15-C , 20-H ) :   0.1844 B( 15-C , 21-H ) :   0.1217 B( 15-C , 26-H ) :   0.1770
B( 15-C , 27-H ) :   0.1097 B( 16-C , 18-H ) :   0.2570 B( 16-C , 19-C ) :   1.1753
B( 16-C , 20-H ) :   0.7878 B( 16-C , 21-H ) :   0.7674 B( 16-C , 22-H ) :   0.1288
B( 16-C , 23-H ) :   0.2539 B( 16-C , 26-H ) :  -0.1076 B( 17-H , 18-H ) :  -0.1090
B( 19-C , 20-H ) :   0.1400 B( 19-C , 21-H ) :   0.1193 B( 19-C , 22-H ) :   0.8261
B( 19-C , 23-H ) :   0.7242 B( 19-C , 24-H ) :   0.2303 B( 19-C , 25-H ) :   0.2635
B( 22-H , 26-H ) :   0.1283 B( 24-H , 25-H ) :  -0.1350

Dispersion correction           -0.051411523
FINAL SINGLE POINT ENERGY      -581.656907499066

DIPOLE MOMENT
-------------
                                X             Y             Z
Electronic contribution:     -1.75366       0.90612     -12.09652
Nuclear contribution   :      1.88979       0.56282      12.66056
                        -----------------------------------------
Total Dipole Moment    :      0.13613       1.46894       0.56404
                        -----------------------------------------
Magnitude (a.u.)       :      1.57939
Magnitude (Debye)      :      4.01448

Rotational constants in cm-1:     0.040271     0.025954     0.018866
Rotational constants in MHz :  1207.302496   778.083475   565.600538

                             ****ORCA TERMINATED NORMALLY****
TOTAL RUN TIME: 0 days 0 hours 2 minutes 11 seconds 199 msec
