                         Program Version 5.0.0 -  RELEASE  -
|  1> !B3LYP D3BJ RIJCOSX def2-SVPD def2/J TightSCF xyzfile
|  2>
|  3> *xyzfile 0 1 D4.xyz
|  4>
|  5> %MaxCore 64000
|  6>
|  7> %pal nprocs 4
|  8> end
|  9>
| 10> %scf
| 11>   MaxIter 150
| 12> end
| 13>
| 14>
| 15>                          ****END OF INPUT****

CARTESIAN COORDINATES (ANGSTROEM)
---------------------------------
  C      2.486452   -2.677121   -2.563447
  C     -0.870963    0.248043   -2.662804
  C     -0.477492    0.608191   -4.101052
  H      0.206773    1.458299   -4.118748
  H     -1.368442    0.929419   -4.647855
  C      0.184673   -0.506640   -4.916760
  C      3.037640   -2.366715   -3.923509
  N      2.280360   -2.454408   -4.967692
  C      4.321736   -2.017932   -4.016641
  H      4.879940   -1.911668   -3.173823
  H      4.710148   -1.670882   -4.883561
  H      1.270423   -2.412650   -4.866143
  H      2.581829   -2.055282   -5.846878
  O     -0.158685   -1.701088   -4.657981
  F      1.055938   -0.174410   -5.740373
  C      2.497991   -1.469464   -1.610303
  C      1.582841   -0.321986   -2.042619
  H      2.193083   -1.833912   -0.625420
  H      3.523356   -1.103982   -1.490392
  C      0.100160   -0.673551   -1.915815
  H      1.822311   -0.040361   -3.072834
  H      1.813180    0.557019   -1.433266
  H     -0.063284   -1.679120   -2.301112
  H     -0.168820   -0.691680   -0.853831
  H     -1.001048    1.181040   -2.104071
  H     -1.844645   -0.246592   -2.663281
  H      1.472592   -3.051527   -2.694366
  H      3.083201   -3.490638   -2.141472

 Total Charge           Charge          ....    0
 Multiplicity           Mult            ....    1
 Number of Electrons    NEL             ....   94
 Basis Dimension        Dim             ....  374

ORBITAL ENERGIES
----------------

  NO   OCC          E(Eh)            E(eV)
   0   2.0000     -24.795944      -674.7319
   1   2.0000     -19.172627      -521.7137
   2   2.0000     -14.299261      -389.1027
   3   2.0000     -10.392667      -282.7988
   4   2.0000     -10.228218      -278.3240
   5   2.0000     -10.202423      -277.6220
   6   2.0000     -10.187794      -277.2240
   7   2.0000     -10.181756      -277.0597
   8   2.0000     -10.181553      -277.0541
   9   2.0000     -10.176003      -276.9031
  10   2.0000     -10.170716      -276.7593
  11   2.0000     -10.099839      -274.8306
  12   2.0000      -1.338248       -36.4156
  13   2.0000      -1.052581       -28.6422
  14   2.0000      -0.909501       -24.7488
  15   2.0000      -0.824176       -22.4270
  16   2.0000      -0.785873       -21.3847
  17   2.0000      -0.745993       -20.2995
  18   2.0000      -0.706213       -19.2170
  19   2.0000      -0.681641       -18.5484
  20   2.0000      -0.661272       -17.9941
  21   2.0000      -0.618983       -16.8434
  22   2.0000      -0.583584       -15.8801
  23   2.0000      -0.579322       -15.7642
  24   2.0000      -0.557757       -15.1773
  25   2.0000      -0.549101       -14.9418
  26   2.0000      -0.527225       -14.3465
  27   2.0000      -0.497266       -13.5313
  28   2.0000      -0.482320       -13.1246
  29   2.0000      -0.477978       -13.0064
  30   2.0000      -0.470363       -12.7992
  31   2.0000      -0.445262       -12.1162
  32   2.0000      -0.426869       -11.6157
  33   2.0000      -0.415402       -11.3037
  34   2.0000      -0.407870       -11.0987
  35   2.0000      -0.395414       -10.7598
  36   2.0000      -0.382424       -10.4063
  37   2.0000      -0.375403       -10.2152
  38   2.0000      -0.362381        -9.8609
  39   2.0000      -0.361683        -9.8419
  40   2.0000      -0.342660        -9.3243
  41   2.0000      -0.337024        -9.1709
  42   2.0000      -0.324955        -8.8425
  43   2.0000      -0.321933        -8.7602
  44   2.0000      -0.315917        -8.5965
  45   2.0000      -0.301829        -8.2132
  46   2.0000      -0.170672        -4.6442
  47   0.0000      -0.060994        -1.6597
  48   0.0000       0.005211         0.1418
  49   0.0000       0.026060         0.7091
  50   0.0000       0.032773         0.8918
  51   0.0000       0.035626         0.9694

MULLIKEN ATOMIC CHARGES
-----------------------
   0 C :    0.775607
   1 C :    0.703222
   2 C :    0.352151
   3 H :    0.172337
   4 H :   -0.354268
   5 C :    0.624999
   6 C :   -0.202485
   7 N :    0.452759
   8 C :    0.539595
   9 H :   -0.223257
  10 H :   -0.484139
  11 H :   -0.398365
  12 H :   -0.066438
  13 O :   -0.672996
  14 F :   -0.373709
  15 C :    0.391515
  16 C :    0.282560
  17 H :   -0.165161
  18 H :   -0.149067
  19 C :    0.188004
  20 H :   -0.177468
  21 H :   -0.311568
  22 H :   -0.047992
  23 H :   -0.302056
  24 H :   -0.198408
  25 H :   -0.023843
  26 H :   -0.189529
  27 H :   -0.142000
Sum of atomic charges:    0.0000000

LOEWDIN ATOMIC CHARGES
----------------------
   0 C :    0.032250
   1 C :    0.000802
   2 C :    0.061210
   3 H :    0.028212
   4 H :    0.038883
   5 C :    0.024889
   6 C :   -0.244028
   7 N :    0.196344
   8 C :    0.177567
   9 H :   -0.094387
  10 H :   -0.098577
  11 H :   -0.117984
  12 H :    0.009214
  13 O :   -0.121958
  14 F :   -0.008422
  15 C :   -0.007454
  16 C :   -0.009998
  17 H :    0.019313
  18 H :    0.013525
  19 C :   -0.018536
  20 H :    0.001042
  21 H :    0.023124
  22 H :   -0.010206
  23 H :    0.026366
  24 H :    0.024203
  25 H :    0.025496
  26 H :    0.001789
  27 H :    0.027324

  Mayer bond orders larger than 0.100000
B(  0-C ,  6-C ) :   0.9696 B(  0-C ,  7-N ) :   0.1255 B(  0-C , 10-H ) :   0.1214
B(  0-C , 15-C ) :   1.1419 B(  0-C , 16-C ) :   0.1352 B(  0-C , 17-H ) :   0.1595
B(  0-C , 18-H ) :   0.1799 B(  0-C , 26-H ) :   0.5347 B(  0-C , 27-H ) :   0.6505
B(  1-C ,  2-C ) :   1.1797 B(  1-C ,  3-H ) :   0.1115 B(  1-C ,  4-H ) :   0.1630
B(  1-C , 19-C ) :   1.2643 B(  1-C , 24-H ) :   0.6718 B(  1-C , 25-H ) :   0.6033
B(  2-C ,  3-H ) :   0.7504 B(  2-C ,  4-H ) :   0.6440 B(  2-C ,  5-C ) :   1.2234
B(  2-C , 19-C ) :   0.1450 B(  2-C , 24-H ) :   0.1711 B(  3-H ,  4-H ) :  -0.1114
B(  3-H ,  5-C ) :   0.1846 B(  4-H ,  5-C ) :   0.3116 B(  5-C , 13-O ) :   1.5984
B(  5-C , 14-F ) :   0.6654 B(  6-C ,  7-N ) :   1.1060 B(  6-C ,  8-C ) :   1.6845
B(  6-C ,  9-H ) :   0.1687 B(  6-C , 10-H ) :   0.2155 B(  6-C , 26-H ) :   0.2793
B(  6-C , 27-H ) :   0.1771 B(  7-N ,  8-C ) :   0.2967 B(  7-N , 11-H ) :   0.8403
B(  7-N , 12-H ) :   0.9725 B(  8-C ,  9-H ) :   0.7746 B(  8-C , 10-H ) :   0.5736
B( 11-H , 12-H ) :  -0.1422 B( 11-H , 13-O ) :   0.1838 B( 11-H , 26-H ) :   0.1002
B( 15-C , 16-C ) :   1.2087 B( 15-C , 17-H ) :   0.7891 B( 15-C , 18-H ) :   0.6668
B( 15-C , 20-H ) :   0.1919 B( 15-C , 21-H ) :   0.1135 B( 15-C , 26-H ) :   0.2269
B( 15-C , 27-H ) :   0.1641 B( 16-C , 17-H ) :   0.1488 B( 16-C , 18-H ) :   0.2603
B( 16-C , 19-C ) :   1.1694 B( 16-C , 20-H ) :   0.7802 B( 16-C , 21-H ) :   0.8152
B( 16-C , 22-H ) :   0.1178 B( 16-C , 23-H ) :   0.2541 B( 16-C , 26-H ) :  -0.1022
B( 17-H , 18-H ) :  -0.1550 B( 19-C , 20-H ) :   0.1363 B( 19-C , 21-H ) :   0.1170
B( 19-C , 22-H ) :   0.8397 B( 19-C , 23-H ) :   0.7322 B( 19-C , 24-H ) :   0.2262
B( 19-C , 25-H ) :   0.2616 B( 22-H , 26-H ) :   0.1212 B( 24-H , 25-H ) :  -0.1331

Dispersion correction           -0.051192329
FINAL SINGLE POINT ENERGY      -581.675778061717

DIPOLE MOMENT
-------------
                                X             Y             Z
Electronic contribution:     -3.43925       0.79322     -12.73282
Nuclear contribution   :      2.21030       0.63135      12.80988
                        -----------------------------------------
Total Dipole Moment    :     -1.22895       1.42457       0.07706
                        -----------------------------------------
Magnitude (a.u.)       :      1.88299
Magnitude (Debye)      :      4.78619

Rotational constants in cm-1:     0.039980     0.026547     0.019089
Rotational constants in MHz :  1198.568620   795.867393   572.288555

                             ****ORCA TERMINATED NORMALLY****
TOTAL RUN TIME: 0 days 0 hours 2 minutes 9 seconds 747 msec
