                         Program Version 5.0.0 -  RELEASE  -
|  1> !PBE0 D3BJ RIJCOSX def2-TZVP def2/J TightSCF
|  2> *xyz -1 1
|  3> C          0.61188        1.65763       -4.50029
|  4> C          1.69499        1.54179       -5.57045
|  5> H          2.69733        1.73466       -5.18400
|  6> H          1.50666        2.27224       -6.35808
|  7> S          1.78029       -0.03313       -6.42874
|  8> O          2.56929        0.21366       -7.60736
|  9> O          0.41688       -0.46297       -6.61859
| 10> O          2.50513       -0.93326       -5.48257
| 11> H         -0.34424        1.45871       -4.93752
| 12> H          0.61845        2.64655       -4.09174
| 13> H          0.80247        0.94882       -3.72173
| 14> *
| 15> %MaxCore 64000
| 16>
| 17> %pal nprocs 4
| 18> end
| 19>
| 20> %scf
| 21>   MaxIter 150
| 22> end
| 23>
| 24>
| 25>                          ****END OF INPUT****

CARTESIAN COORDINATES (ANGSTROEM)
---------------------------------
  C      0.611880    1.657630   -4.500290
  C      1.694990    1.541790   -5.570450
  H      2.697330    1.734660   -5.184000
  H      1.506660    2.272240   -6.358080
  S      1.780290   -0.033130   -6.428740
  O      2.569290    0.213660   -7.607360
  O      0.416880   -0.462970   -6.618590
  O      2.505130   -0.933260   -5.482570
  H     -0.344240    1.458710   -4.937520
  H      0.618450    2.646550   -4.091740
  H      0.802470    0.948820   -3.721730

 Total Charge           Charge          ....   -1
 Multiplicity           Mult            ....    1
 Number of Electrons    NEL             ....   58
 Basis Dimension        Dim             ....  222

ORBITAL ENERGIES
----------------

  NO   OCC          E(Eh)            E(eV)
   0   2.0000     -88.992301     -2421.6036
   1   2.0000     -18.979014      -516.4452
   2   2.0000     -18.978143      -516.4215
   3   2.0000     -18.958541      -515.8881
   4   2.0000     -10.077866      -274.2327
   5   2.0000     -10.072138      -274.0768
   6   2.0000      -7.937953      -216.0027
   7   2.0000      -5.875277      -159.8744
   8   2.0000      -5.874059      -159.8413
   9   2.0000      -5.873767      -159.8333
  10   2.0000      -0.944557       -25.7027
  11   2.0000      -0.818506       -22.2727
  12   2.0000      -0.784133       -21.3373
  13   2.0000      -0.651302       -17.7228
  14   2.0000      -0.522888       -14.2285
  15   2.0000      -0.392816       -10.6891
  16   2.0000      -0.328084        -8.9276
  17   2.0000      -0.323917        -8.8142
  18   2.0000      -0.284889        -7.7522
  19   2.0000      -0.269063        -7.3216
  20   2.0000      -0.263747        -7.1769
  21   2.0000      -0.237713        -6.4685
  22   2.0000      -0.222121        -6.0442
  23   2.0000      -0.158273        -4.3068
  24   2.0000      -0.157810        -4.2942
  25   2.0000      -0.125031        -3.4023
  26   2.0000      -0.116117        -3.1597
  27   2.0000      -0.100031        -2.7220
  28   2.0000      -0.067927        -1.8484
  29   0.0000       0.183021         4.9802
  30   0.0000       0.227043         6.1782
  31   0.0000       0.241750         6.5784
  32   0.0000       0.246755         6.7145
  33   0.0000       0.272032         7.4024

MULLIKEN ATOMIC CHARGES
-----------------------
   0 C :   -0.339988
   1 C :   -0.245412
   2 H :    0.088793
   3 H :    0.079068
   4 S :    0.801761
   5 O :   -0.539756
   6 O :   -0.544584
   7 O :   -0.600997
   8 H :    0.119810
   9 H :    0.072184
  10 H :    0.109120
Sum of atomic charges:   -1.0000000

LOEWDIN ATOMIC CHARGES
----------------------
   0 C :   -0.346104
   1 C :   -0.435354
   2 H :    0.120298
   3 H :    0.117958
   4 S :    0.397244
   5 O :   -0.370565
   6 O :   -0.370005
   7 O :   -0.444249
   8 H :    0.115750
   9 H :    0.100300
  10 H :    0.114728

  Mayer bond orders larger than 0.100000
B(  0-C ,  1-C ) :   0.9853 B(  0-C ,  8-H ) :   0.9697 B(  0-C ,  9-H ) :   0.9622
B(  0-C , 10-H ) :   0.9719 B(  1-C ,  2-H ) :   0.9584 B(  1-C ,  3-H ) :   0.9497
B(  1-C ,  4-S ) :   0.8763 B(  4-S ,  5-O ) :   1.8316 B(  4-S ,  6-O ) :   1.7832
B(  4-S ,  7-O ) :   1.7512

Dispersion correction           -0.008245618
FINAL SINGLE POINT ENERGY      -702.840219408534

DIPOLE MOMENT
-------------
                                X             Y             Z
Electronic contribution:      2.25003      -5.68360      -5.03629
Nuclear contribution   :     -2.69163       7.29476       5.86550
                        -----------------------------------------
Total Dipole Moment    :     -0.44160       1.61116       0.82921
                        -----------------------------------------
Magnitude (a.u.)       :      1.86506
Magnitude (Debye)      :      4.74061

Rotational constants in cm-1:     0.163060     0.082831     0.081111
Rotational constants in MHz :  4888.419330  2483.225008  2431.646841

                             ****ORCA TERMINATED NORMALLY****
TOTAL RUN TIME: 0 days 0 hours 0 minutes 18 seconds 29 msec
