                         Program Version 5.0.0 -  RELEASE  -
|  1> !PBE0 D3BJ RIJCOSX def2-TZVP def2/J TightSCF
|  2> *xyz 1 1
|  3> C          1.96337       -1.74915       -1.89689
|  4> N          2.73849       -2.01517       -3.09711
|  5> C          4.04974       -2.15472       -3.15204
|  6> N          4.65821       -1.98629       -4.31866
|  7> N          4.76423       -2.45444       -2.05049
|  8> H          4.28736       -2.77626       -1.21750
|  9> H          5.75082       -2.65835       -2.12599
| 10> H          2.34518       -1.69027       -3.97145
| 11> H          4.10900       -1.59268       -5.07176
| 12> H          5.64910       -2.15646       -4.42724
| 13> C          2.08852       -0.30091       -1.41520
| 14> H          2.23127       -2.45162       -1.10264
| 15> H          0.93025       -1.97780       -2.15544
| 16> H          1.82118        0.36368       -2.21003
| 17> H          3.09792       -0.11068       -1.11551
| 18> H          1.43391       -0.14382       -0.58352
| 19> *
| 20> %MaxCore 64000
| 21>
| 22> %pal nprocs 4
| 23> end
| 24>
| 25> %scf
| 26>   MaxIter 150
| 27> end
| 28>
| 29>
| 30>                          ****END OF INPUT****

CARTESIAN COORDINATES (ANGSTROEM)
---------------------------------
  C      1.963370   -1.749150   -1.896890
  N      2.738490   -2.015170   -3.097110
  C      4.049740   -2.154720   -3.152040
  N      4.658210   -1.986290   -4.318660
  N      4.764230   -2.454440   -2.050490
  H      4.287360   -2.776260   -1.217500
  H      5.750820   -2.658350   -2.125990
  H      2.345180   -1.690270   -3.971450
  H      4.109000   -1.592680   -5.071760
  H      5.649100   -2.156460   -4.427240
  C      2.088520   -0.300910   -1.415200
  H      2.231270   -2.451620   -1.102640
  H      0.930250   -1.977800   -2.155440
  H      1.821180    0.363680   -2.210030
  H      3.097920   -0.110680   -1.115510
  H      1.433910   -0.143820   -0.583520

 Total Charge           Charge          ....    1
 Multiplicity           Mult            ....    1
 Number of Electrons    NEL             ....   48
 Basis Dimension        Dim             ....  246

ORBITAL ENERGIES
----------------

  NO   OCC          E(Eh)            E(eV)
   0   2.0000     -14.607656      -397.4945
   1   2.0000     -14.607339      -397.4859
   2   2.0000     -14.605008      -397.4225
   3   2.0000     -10.553832      -287.1844
   4   2.0000     -10.428188      -283.7654
   5   2.0000     -10.354308      -281.7550
   6   2.0000      -1.245012       -33.8785
   7   2.0000      -1.131728       -30.7959
   8   2.0000      -1.118524       -30.4366
   9   2.0000      -0.952879       -25.9291
  10   2.0000      -0.861814       -23.4512
  11   2.0000      -0.823193       -22.4002
  12   2.0000      -0.799825       -21.7643
  13   2.0000      -0.761811       -20.7299
  14   2.0000      -0.708586       -19.2816
  15   2.0000      -0.701073       -19.0772
  16   2.0000      -0.671106       -18.2617
  17   2.0000      -0.641364       -17.4524
  18   2.0000      -0.613825       -16.7030
  19   2.0000      -0.576910       -15.6985
  20   2.0000      -0.543933       -14.8012
  21   2.0000      -0.523762       -14.2523
  22   2.0000      -0.490149       -13.3376
  23   2.0000      -0.462002       -12.5717
  24   0.0000      -0.159316        -4.3352
  25   0.0000      -0.146300        -3.9810
  26   0.0000      -0.112610        -3.0643
  27   0.0000      -0.101897        -2.7728
  28   0.0000      -0.077888        -2.1195

MULLIKEN ATOMIC CHARGES
-----------------------
   0 C :   -0.186639
   1 N :   -0.231500
   2 C :    0.411271
   3 N :   -0.395358
   4 N :   -0.409171
   5 H :    0.288319
   6 H :    0.283481
   7 H :    0.247278
   8 H :    0.282472
   9 H :    0.292221
  10 C :   -0.331944
  11 H :    0.136014
  12 H :    0.173666
  13 H :    0.135305
  14 H :    0.136930
  15 H :    0.167654
Sum of atomic charges:    1.0000000

LOEWDIN ATOMIC CHARGES
----------------------
   0 C :   -0.287209
   1 N :    0.171024
   2 C :   -0.412303
   3 N :    0.070565
   4 N :    0.060743
   5 H :    0.196336
   6 H :    0.196080
   7 H :    0.211159
   8 H :    0.199205
   9 H :    0.199591
  10 C :   -0.285703
  11 H :    0.140085
  12 H :    0.153033
  13 H :    0.126182
  14 H :    0.123623
  15 H :    0.137589

  Mayer bond orders larger than 0.100000
B(  0-C ,  1-N ) :   0.9072 B(  0-C , 10-C ) :   1.0024 B(  0-C , 11-H ) :   0.9611
B(  0-C , 12-H ) :   0.9485 B(  1-N ,  2-C ) :   1.3988 B(  1-N ,  7-H ) :   0.8986
B(  2-C ,  3-N ) :   1.3650 B(  2-C ,  4-N ) :   1.3514 B(  3-N ,  8-H ) :   0.8918
B(  3-N ,  9-H ) :   0.8872 B(  4-N ,  5-H ) :   0.8834 B(  4-N ,  6-H ) :   0.8928
B( 10-C , 13-H ) :   0.9628 B( 10-C , 14-H ) :   0.9605 B( 10-C , 15-H ) :   0.9598

Dispersion correction           -0.010477708
FINAL SINGLE POINT ENERGY      -284.181375134746

DIPOLE MOMENT
-------------
                                X             Y             Z
Electronic contribution:      3.03040      -2.71172      -3.10648
Nuclear contribution   :     -2.17768       2.37118       2.44574
                        -----------------------------------------
Total Dipole Moment    :      0.85272      -0.34054      -0.66074
                        -----------------------------------------
Magnitude (a.u.)       :      1.13122
Magnitude (Debye)      :      2.87534

Rotational constants in cm-1:     0.215650     0.075183     0.066454
Rotational constants in MHz :  6465.033740  2253.919004  1992.232519

                             ****ORCA TERMINATED NORMALLY****
TOTAL RUN TIME: 0 days 0 hours 0 minutes 27 seconds 98 msec
