                         Program Version 5.0.0 -  RELEASE  -
|  1> !PBE0 D3BJ RIJCOSX def2-TZVP def2/J TightSCF xyzfile
|  2>
|  3> *xyzfile 0 1 B.xyz
|  4>
|  5> %MaxCore 64000
|  6>
|  7> %pal nprocs 18
|  8> end
|  9>
| 10> %scf
| 11>   MaxIter 150
| 12> end
| 13>
| 14>
| 15>                          ****END OF INPUT****

CARTESIAN COORDINATES (ANGSTROEM)
---------------------------------
  C      1.963365   -1.749150   -1.896887
  N      2.738490   -2.015170   -3.097113
  C      0.611877    1.657634   -4.500288
  C      1.694991    1.541794   -5.570447
  H      2.697326    1.734659   -5.183996
  H      1.506656    2.272239   -6.358076
  S      1.780287   -0.033128   -6.428739
  C      4.049736   -2.154717   -3.152044
  N      4.658206   -1.986293   -4.318655
  N      4.764231   -2.454435   -2.050491
  H      4.287363   -2.776259   -1.217496
  H      5.750825   -2.658351   -2.125988
  H      2.345176   -1.690274   -3.971447
  H      4.109004   -1.592677   -5.071760
  H      5.649095   -2.156462   -4.427237
  O      2.569287    0.213657   -7.607360
  O      0.416880   -0.462969   -6.618595
  C      2.088520   -0.300912   -1.415204
  H      2.231272   -2.451616   -1.102643
  H      0.930249   -1.977801   -2.155438
  C      0.680356    0.655418   -3.348038
  H     -0.356865    1.549231   -4.991128
  H      0.650228    2.675438   -4.096000
  C      1.968993    0.733582   -2.535654
  H      3.051356   -0.168602   -0.911868
  H      1.316501   -0.136231   -0.657252
  O      2.505129   -0.933263   -5.482570
  H      2.824195    0.624726   -3.208464
  H      2.058919    1.730331   -2.093112
  H      0.542252   -0.344731   -3.766662
  H     -0.174219    0.829692   -2.685182

 Total Charge           Charge          ....    0
 Multiplicity           Mult            ....    1
 Number of Electrons    NEL             ....  120
 Basis Dimension        Dim             ....  542

ORBITAL ENERGIES
----------------

  NO   OCC          E(Eh)            E(eV)
   0   2.0000     -89.144325     -2425.7404
   1   2.0000     -19.143237      -520.9140
   2   2.0000     -19.121206      -520.3145
   3   2.0000     -19.119720      -520.2740
   4   2.0000     -14.469656      -393.7394
   5   2.0000     -14.441006      -392.9597
   6   2.0000     -14.438510      -392.8918
   7   2.0000     -10.401364      -283.0355
   8   2.0000     -10.293217      -280.0927
   9   2.0000     -10.243539      -278.7409
  10   2.0000     -10.223870      -278.2057
  11   2.0000     -10.211804      -277.8773
  12   2.0000     -10.207954      -277.7725
  13   2.0000     -10.207631      -277.7638
  14   2.0000      -8.090261      -220.1472
  15   2.0000      -6.027856      -164.0263
  16   2.0000      -6.026647      -163.9934
  17   2.0000      -6.025419      -163.9600
  18   2.0000      -1.098585       -29.8940
  19   2.0000      -1.091239       -29.6941
  20   2.0000      -0.982928       -26.7468
  21   2.0000      -0.968736       -26.3607
  22   2.0000      -0.959700       -26.1148
  23   2.0000      -0.958592       -26.0846
  24   2.0000      -0.845027       -22.9944
  25   2.0000      -0.804662       -21.8960
  26   2.0000      -0.755832       -20.5672
  27   2.0000      -0.716210       -19.4891
  28   2.0000      -0.688472       -18.7343
  29   2.0000      -0.652027       -17.7426
  30   2.0000      -0.645771       -17.5723
  31   2.0000      -0.611794       -16.6478
  32   2.0000      -0.589943       -16.0532
  33   2.0000      -0.570106       -15.5134
  34   2.0000      -0.556388       -15.1401
  35   2.0000      -0.534901       -14.5554
  36   2.0000      -0.518855       -14.1188
  37   2.0000      -0.495715       -13.4891
  38   2.0000      -0.490005       -13.3337
  39   2.0000      -0.482613       -13.1326
  40   2.0000      -0.467156       -12.7120
  41   2.0000      -0.451829       -12.2949
  42   2.0000      -0.439112       -11.9488
  43   2.0000      -0.429928       -11.6989
  44   2.0000      -0.414169       -11.2701
  45   2.0000      -0.406475       -11.0607
  46   2.0000      -0.389635       -10.6025
  47   2.0000      -0.381392       -10.3782
  48   2.0000      -0.375171       -10.2089
  49   2.0000      -0.348631        -9.4867
  50   2.0000      -0.344677        -9.3791
  51   2.0000      -0.339993        -9.2517
  52   2.0000      -0.324408        -8.8276
  53   2.0000      -0.317237        -8.6324
  54   2.0000      -0.308743        -8.4013
  55   2.0000      -0.307497        -8.3674
  56   2.0000      -0.274338        -7.4651
  57   2.0000      -0.264063        -7.1855
  58   2.0000      -0.255865        -6.9624
  59   2.0000      -0.230081        -6.2608
  60   0.0000      -0.018872        -0.5135
  61   0.0000      -0.011332        -0.3084
  62   0.0000       0.014130         0.3845
  63   0.0000       0.046134         1.2554
  64   0.0000       0.053037         1.4432

MULLIKEN ATOMIC CHARGES
-----------------------
   0 C :   -0.262936
   1 N :   -0.192071
   2 C :   -0.143278
   3 C :   -0.303915
   4 H :    0.112064
   5 H :    0.139071
   6 S :    0.840153
   7 C :    0.363070
   8 N :   -0.394554
   9 N :   -0.442683
  10 H :    0.268540
  11 H :    0.258617
  12 H :    0.294366
  13 H :    0.313426
  14 H :    0.246357
  15 O :   -0.500351
  16 O :   -0.491714
  17 C :   -0.121241
  18 H :    0.120403
  19 H :    0.172092
  20 C :   -0.257106
  21 H :    0.126886
  22 H :    0.090182
  23 C :   -0.255987
  24 H :    0.105948
  25 H :    0.112422
  26 O :   -0.659974
  27 H :    0.121707
  28 H :    0.110246
  29 H :    0.133203
  30 H :    0.097053
Sum of atomic charges:    0.0000000

LOEWDIN ATOMIC CHARGES
----------------------
   0 C :   -0.281282
   1 N :    0.178835
   2 C :   -0.290715
   3 C :   -0.393261
   4 H :    0.126242
   5 H :    0.139341
   6 S :    0.441912
   7 C :   -0.424433
   8 N :    0.061807
   9 N :    0.024081
  10 H :    0.184125
  11 H :    0.181910
  12 H :    0.184668
  13 H :    0.178963
  14 H :    0.179108
  15 O :   -0.327390
  16 O :   -0.325075
  17 C :   -0.271831
  18 H :    0.128184
  19 H :    0.149321
  20 C :   -0.276247
  21 H :    0.147780
  22 H :    0.136895
  23 C :   -0.273747
  24 H :    0.135822
  25 H :    0.143834
  26 O :   -0.416301
  27 H :    0.140414
  28 H :    0.140535
  29 H :    0.139593
  30 H :    0.136911

  Mayer bond orders larger than 0.100000
B(  0-C ,  1-N ) :   0.9392 B(  0-C , 17-C ) :   0.9617 B(  0-C , 18-H ) :   0.9731
B(  0-C , 19-H ) :   0.9595 B(  1-N ,  7-C ) :   1.4447 B(  1-N , 12-H ) :   0.8023
B(  2-C ,  3-C ) :   0.9873 B(  2-C , 20-C ) :   1.0196 B(  2-C , 21-H ) :   0.9462
B(  2-C , 22-H ) :   0.9460 B(  3-C ,  4-H ) :   0.9567 B(  3-C ,  5-H ) :   0.9481
B(  3-C ,  6-S ) :   0.8978 B(  6-S , 15-O ) :   1.9009 B(  6-S , 16-O ) :   1.8453
B(  6-S , 26-O ) :   1.4123 B(  7-C ,  8-N ) :   1.4167 B(  7-C ,  9-N ) :   1.2744
B(  8-N , 13-H ) :   0.8005 B(  8-N , 14-H ) :   0.9087 B(  9-N , 10-H ) :   0.8933
B(  9-N , 11-H ) :   0.9065 B( 12-H , 26-O ) :   0.1262 B( 13-H , 26-O ) :   0.1161
B( 17-C , 23-C ) :   1.0009 B( 17-C , 24-H ) :   0.9583 B( 17-C , 25-H ) :   0.9569
B( 20-C , 23-C ) :   1.0020 B( 20-C , 29-H ) :   0.9447 B( 20-C , 30-H ) :   0.9550
B( 23-C , 27-H ) :   0.9598 B( 23-C , 28-H ) :   0.9561

Dispersion correction           -0.032960852
FINAL SINGLE POINT ENERGY     -1064.554902281225

DIPOLE MOMENT
-------------
                                X             Y             Z
Electronic contribution:      2.29916      -5.01164     -14.25594
Nuclear contribution   :      0.44641       3.59123      19.13564
                        -----------------------------------------
Total Dipole Moment    :      2.74558      -1.42040       4.87970
                        -----------------------------------------
Magnitude (a.u.)       :      5.77644
Magnitude (Debye)      :     14.68253

Rotational constants in cm-1:     0.029186     0.014646     0.011115
Rotational constants in MHz :   874.975540   439.070287   333.231642

                             ****ORCA TERMINATED NORMALLY****
TOTAL RUN TIME: 0 days 0 hours 1 minutes 9 seconds 915 msec
