                         Program Version 5.0.0 -  RELEASE  -
|  1> !PBE0 D3BJ RIJCOSX def2-TZVP def2/J TightSCF
|  2> *xyz 0 1
|  3> C          0.61188        1.65763       -4.50029
|  4> C          1.69499        1.54179       -5.57045
|  5> H          2.69733        1.73466       -5.18400
|  6> H          1.50666        2.27224       -6.35808
|  7> S          1.78029       -0.03313       -6.42874
|  8> F          2.56929        0.21366       -7.60736
|  9> O          0.41688       -0.46297       -6.61859
| 10> O          2.50513       -0.93326       -5.48257
| 11> H         -0.34424        1.45871       -4.93752
| 12> H          0.61845        2.64655       -4.09174
| 13> H          0.80247        0.94882       -3.72173
| 14> *
| 15> %MaxCore 64000
| 16>
| 17> %pal nprocs 4
| 18> end
| 19>
| 20> %scf
| 21>   MaxIter 150
| 22> end
| 23>
| 24>
| 25>                          ****END OF INPUT****

CARTESIAN COORDINATES (ANGSTROEM)
---------------------------------
  C      0.611880    1.657630   -4.500290
  C      1.694990    1.541790   -5.570450
  H      2.697330    1.734660   -5.184000
  H      1.506660    2.272240   -6.358080
  S      1.780290   -0.033130   -6.428740
  F      2.569290    0.213660   -7.607360
  O      0.416880   -0.462970   -6.618590
  O      2.505130   -0.933260   -5.482570
  H     -0.344240    1.458710   -4.937520
  H      0.618450    2.646550   -4.091740
  H      0.802470    0.948820   -3.721730

 Total Charge           Charge          ....    0
 Multiplicity           Mult            ....    1
 Number of Electrons    NEL             ....   58
 Basis Dimension        Dim             ....  222

ORBITAL ENERGIES
----------------

  NO   OCC          E(Eh)            E(eV)
   0   2.0000     -89.260604     -2428.9045
   1   2.0000     -24.893902      -677.3975
   2   2.0000     -19.219360      -522.9854
   3   2.0000     -19.199629      -522.4485
   4   2.0000     -10.283349      -279.8242
   5   2.0000     -10.237985      -278.5897
   6   2.0000      -8.206814      -223.3188
   7   2.0000      -6.147052      -167.2698
   8   2.0000      -6.140988      -167.1048
   9   2.0000      -6.140529      -167.0923
  10   2.0000      -1.418796       -38.6074
  11   2.0000      -1.130197       -30.7542
  12   2.0000      -1.025478       -27.9047
  13   2.0000      -0.845185       -22.9987
  14   2.0000      -0.759505       -20.6672
  15   2.0000      -0.695638       -18.9293
  16   2.0000      -0.606724       -16.5098
  17   2.0000      -0.605482       -16.4760
  18   2.0000      -0.572830       -15.5875
  19   2.0000      -0.508598       -13.8396
  20   2.0000      -0.496860       -13.5203
  21   2.0000      -0.456166       -12.4129
  22   2.0000      -0.444616       -12.0986
  23   2.0000      -0.421533       -11.4705
  24   2.0000      -0.401573       -10.9274
  25   2.0000      -0.396393       -10.7864
  26   2.0000      -0.348114        -9.4727
  27   2.0000      -0.329107        -8.9555
  28   2.0000      -0.314533        -8.5589
  29   0.0000       0.029090         0.7916
  30   0.0000       0.038213         1.0398
  31   0.0000       0.071308         1.9404
  32   0.0000       0.074480         2.0267
  33   0.0000       0.084478         2.2988

MULLIKEN ATOMIC CHARGES
-----------------------
   0 C :   -0.360050
   1 C :   -0.249636
   2 H :    0.152566
   3 H :    0.132098
   4 S :    0.830915
   5 F :   -0.086515
   6 O :   -0.399043
   7 O :   -0.452314
   8 H :    0.149615
   9 H :    0.134551
  10 H :    0.147815
Sum of atomic charges:    0.0000000

LOEWDIN ATOMIC CHARGES
----------------------
   0 C :   -0.304223
   1 C :   -0.401846
   2 H :    0.141555
   3 H :    0.135578
   4 S :    0.522294
   5 F :    0.103205
   6 O :   -0.255654
   7 O :   -0.324661
   8 H :    0.128183
   9 H :    0.126568
  10 H :    0.129001

  Mayer bond orders larger than 0.100000
B(  0-C ,  1-C ) :   1.0073 B(  0-C ,  8-H ) :   0.9631 B(  0-C ,  9-H ) :   0.9549
B(  0-C , 10-H ) :   0.9658 B(  1-C ,  2-H ) :   0.9337 B(  1-C ,  3-H ) :   0.9307
B(  1-C ,  4-S ) :   0.9181 B(  4-S ,  5-F ) :   1.1547 B(  4-S ,  6-O ) :   1.9334
B(  4-S ,  7-O ) :   1.8895

Dispersion correction           -0.007882782
FINAL SINGLE POINT ENERGY      -727.347845475795

DIPOLE MOMENT
-------------
                                X             Y             Z
Electronic contribution:      3.87151      -5.66194      -7.55608
Nuclear contribution   :     -3.66946       7.33549       7.42434
                        -----------------------------------------
Total Dipole Moment    :      0.20205       1.67355      -0.13173
                        -----------------------------------------
Magnitude (a.u.)       :      1.69084
Magnitude (Debye)      :      4.29777

Rotational constants in cm-1:     0.158379     0.080294     0.077843
Rotational constants in MHz :  4748.076444  2407.152850  2333.668303

                             ****ORCA TERMINATED NORMALLY****
TOTAL RUN TIME: 0 days 0 hours 0 minutes 21 seconds 582 msec
