                         Program Version 5.0.0 -  RELEASE  -
|  1> !PBE0 D3BJ RIJCOSX def2-TZVP def2/J TightSCF
|  2> *xyz 0 1
|  3> C          1.96337       -1.74915       -1.89689
|  4> C          2.73849       -2.01517       -3.09711
|  5> C          4.04974       -2.15472       -3.15204
|  6> N          4.65821       -1.98629       -4.31866
|  7> N          4.76423       -2.45444       -2.05049
|  8> H          4.28736       -2.77626       -1.21750
|  9> H          5.75082       -2.65835       -2.12599
| 10> H          2.34518       -1.69027       -3.97145
| 11> H          4.10900       -1.59268       -5.07176
| 12> H          5.64910       -2.15646       -4.42724
| 13> C          2.08852       -0.30091       -1.41520
| 14> H          2.23127       -2.45162       -1.10264
| 15> H          0.93025       -1.97780       -2.15544
| 16> H          1.82118        0.36368       -2.21003
| 17> H          3.09792       -0.11068       -1.11551
| 18> H          1.43391       -0.14382       -0.58352
| 19> *
| 20> %MaxCore 64000
| 21>
| 22> %pal nprocs 4
| 23> end
| 24>
| 25> %scf
| 26>   MaxIter 150
| 27> end
| 28>
| 29>
| 30>                          ****END OF INPUT****

CARTESIAN COORDINATES (ANGSTROEM)
---------------------------------
  C      1.963370   -1.749150   -1.896890
  C      2.738490   -2.015170   -3.097110
  C      4.049740   -2.154720   -3.152040
  N      4.658210   -1.986290   -4.318660
  N      4.764230   -2.454440   -2.050490
  H      4.287360   -2.776260   -1.217500
  H      5.750820   -2.658350   -2.125990
  H      2.345180   -1.690270   -3.971450
  H      4.109000   -1.592680   -5.071760
  H      5.649100   -2.156460   -4.427240
  C      2.088520   -0.300910   -1.415200
  H      2.231270   -2.451620   -1.102640
  H      0.930250   -1.977800   -2.155440
  H      1.821180    0.363680   -2.210030
  H      3.097920   -0.110680   -1.115510
  H      1.433910   -0.143820   -0.583520

 Total Charge           Charge          ....    0
 Multiplicity           Mult            ....    1
 Number of Electrons    NEL             ....   48
 Basis Dimension        Dim             ....  246

ORBITAL ENERGIES
----------------

  NO   OCC          E(Eh)            E(eV)
   0   2.0000     -14.382178      -391.3589
   1   2.0000     -14.379545      -391.2873
   2   2.0000     -10.260635      -279.2061
   3   2.0000     -10.192616      -277.3552
   4   2.0000     -10.179811      -277.0067
   5   2.0000     -10.136412      -275.8258
   6   2.0000      -0.985240       -26.8097
   7   2.0000      -0.894737       -24.3470
   8   2.0000      -0.794127       -21.6093
   9   2.0000      -0.712984       -19.4013
  10   2.0000      -0.633985       -17.2516
  11   2.0000      -0.594450       -16.1758
  12   2.0000      -0.556256       -15.1365
  13   2.0000      -0.523867       -14.2551
  14   2.0000      -0.485713       -13.2169
  15   2.0000      -0.450060       -12.2467
  16   2.0000      -0.430762       -11.7216
  17   2.0000      -0.396520       -10.7899
  18   2.0000      -0.390851       -10.6356
  19   2.0000      -0.365350        -9.9417
  20   2.0000      -0.336928        -9.1683
  21   2.0000      -0.326521        -8.8851
  22   2.0000      -0.276082        -7.5126
  23   2.0000      -0.166461        -4.5296
  24   0.0000       0.028555         0.7770
  25   0.0000       0.060040         1.6338
  26   0.0000       0.069160         1.8819
  27   0.0000       0.087446         2.3795
  28   0.0000       0.095422         2.5966

MULLIKEN ATOMIC CHARGES
-----------------------
   0 C :   -0.187796
   1 C :   -0.322237
   2 C :    0.305456
   3 N :   -0.468786
   4 N :   -0.484499
   5 H :    0.246257
   6 H :    0.221018
   7 H :    0.058892
   8 H :    0.245199
   9 H :    0.223046
  10 C :   -0.313654
  11 H :    0.063425
  12 H :    0.098348
  13 H :    0.101083
  14 H :    0.110887
  15 H :    0.103363
Sum of atomic charges:   -0.0000000

LOEWDIN ATOMIC CHARGES
----------------------
   0 C :   -0.314112
   1 C :   -0.292228
   2 C :   -0.463273
   3 N :   -0.010751
   4 N :   -0.018613
   5 H :    0.175390
   6 H :    0.160867
   7 H :    0.121501
   8 H :    0.180549
   9 H :    0.161916
  10 C :   -0.305340
  11 H :    0.126281
  12 H :    0.140129
  13 H :    0.114338
  14 H :    0.114729
  15 H :    0.108619

  Mayer bond orders larger than 0.100000
B(  0-C ,  1-C ) :   1.0731 B(  0-C , 10-C ) :   0.9653 B(  0-C , 11-H ) :   0.9631
B(  0-C , 12-H ) :   0.9740 B(  1-C ,  2-C ) :   1.7021 B(  1-C ,  7-H ) :   0.9998
B(  2-C ,  3-N ) :   1.1791 B(  2-C ,  4-N ) :   1.1623 B(  3-N ,  8-H ) :   0.9113
B(  3-N ,  9-H ) :   0.9180 B(  4-N ,  5-H ) :   0.9116 B(  4-N ,  6-H ) :   0.9188
B( 10-C , 13-H ) :   0.9755 B( 10-C , 14-H ) :   0.9760 B( 10-C , 15-H ) :   0.9691

Dispersion correction           -0.010898923
FINAL SINGLE POINT ENERGY      -267.703461711228

DIPOLE MOMENT
-------------
                                X             Y             Z
Electronic contribution:      3.39300      -2.45082      -2.54722
Nuclear contribution   :     -2.31778       2.31977       2.35294
                        -----------------------------------------
Total Dipole Moment    :      1.07523      -0.13105      -0.19428
                        -----------------------------------------
Magnitude (a.u.)       :      1.10047
Magnitude (Debye)      :      2.79716

Rotational constants in cm-1:     0.219415     0.075373     0.066689
Rotational constants in MHz :  6577.897266  2259.621393  1999.290981

                             ****ORCA TERMINATED NORMALLY****
TOTAL RUN TIME: 0 days 0 hours 0 minutes 25 seconds 190 msec
