                         Program Version 5.0.0 -  RELEASE  -
|  1> !PBE0 D3BJ RIJCOSX def2-TZVP def2/J TightSCF
|  2> *xyz 0 1
|  3> C          0.61188        1.65763       -4.50029
|  4> C          1.69499        1.54179       -5.57045
|  5> H          2.69733        1.73466       -5.18400
|  6> H          1.50666        2.27224       -6.35808
|  7> S          1.78029       -0.03313       -6.42874
|  8> O          2.56929        0.21366       -7.60736
|  9> F          0.41688       -0.46297       -6.61859
| 10> O          2.50513       -0.93326       -5.48257
| 11> H         -0.34424        1.45871       -4.93752
| 12> H          0.61845        2.64655       -4.09174
| 13> H          0.80247        0.94882       -3.72173
| 14> *
| 15> %MaxCore 64000
| 16>
| 17> %pal nprocs 4
| 18> end
| 19>
| 20> %scf
| 21>   MaxIter 150
| 22> end
| 23>
| 24>
| 25>                          ****END OF INPUT****

CARTESIAN COORDINATES (ANGSTROEM)
---------------------------------
  C      0.611880    1.657630   -4.500290
  C      1.694990    1.541790   -5.570450
  H      2.697330    1.734660   -5.184000
  H      1.506660    2.272240   -6.358080
  S      1.780290   -0.033130   -6.428740
  O      2.569290    0.213660   -7.607360
  F      0.416880   -0.462970   -6.618590
  O      2.505130   -0.933260   -5.482570
  H     -0.344240    1.458710   -4.937520
  H      0.618450    2.646550   -4.091740
  H      0.802470    0.948820   -3.721730

 Total Charge           Charge          ....    0
 Multiplicity           Mult            ....    1
 Number of Electrons    NEL             ....   58
 Basis Dimension        Dim             ....  222

ORBITAL ENERGIES
----------------

  NO   OCC          E(Eh)            E(eV)
   0   2.0000     -89.260375     -2428.8983
   1   2.0000     -24.893397      -677.3838
   2   2.0000     -19.219056      -522.9771
   3   2.0000     -19.199882      -522.4553
   4   2.0000     -10.283191      -279.8199
   5   2.0000     -10.243418      -278.7376
   6   2.0000      -8.206608      -223.3132
   7   2.0000      -6.147020      -167.2689
   8   2.0000      -6.140629      -167.0950
   9   2.0000      -6.140307      -167.0863
  10   2.0000      -1.417277       -38.5661
  11   2.0000      -1.131274       -30.7835
  12   2.0000      -1.025340       -27.9009
  13   2.0000      -0.849111       -23.1055
  14   2.0000      -0.755703       -20.5637
  15   2.0000      -0.700542       -19.0627
  16   2.0000      -0.616189       -16.7674
  17   2.0000      -0.605099       -16.4656
  18   2.0000      -0.563739       -15.3401
  19   2.0000      -0.509895       -13.8749
  20   2.0000      -0.491796       -13.3825
  21   2.0000      -0.465162       -12.6577
  22   2.0000      -0.451513       -12.2863
  23   2.0000      -0.425314       -11.5734
  24   2.0000      -0.408769       -11.1232
  25   2.0000      -0.394221       -10.7273
  26   2.0000      -0.347279        -9.4499
  27   2.0000      -0.329179        -8.9574
  28   2.0000      -0.314749        -8.5648
  29   0.0000       0.016155         0.4396
  30   0.0000       0.049903         1.3579
  31   0.0000       0.068425         1.8619
  32   0.0000       0.078394         2.1332
  33   0.0000       0.080562         2.1922

MULLIKEN ATOMIC CHARGES
-----------------------
   0 C :   -0.369230
   1 C :   -0.252908
   2 H :    0.167507
   3 H :    0.146423
   4 S :    0.829190
   5 O :   -0.391710
   6 F :   -0.092003
   7 O :   -0.452952
   8 H :    0.128596
   9 H :    0.137472
  10 H :    0.149615
Sum of atomic charges:   -0.0000000

LOEWDIN ATOMIC CHARGES
----------------------
   0 C :   -0.319121
   1 C :   -0.394819
   2 H :    0.152215
   3 H :    0.140618
   4 S :    0.523261
   5 O :   -0.254192
   6 F :    0.102152
   7 O :   -0.324222
   8 H :    0.119992
   9 H :    0.127093
  10 H :    0.127022

  Mayer bond orders larger than 0.100000
B(  0-C ,  1-C ) :   0.9937 B(  0-C ,  8-H ) :   0.9671 B(  0-C ,  9-H ) :   0.9580
B(  0-C , 10-H ) :   0.9642 B(  1-C ,  2-H ) :   0.9368 B(  1-C ,  3-H ) :   0.9356
B(  1-C ,  4-S ) :   0.9133 B(  4-S ,  5-O ) :   1.9638 B(  4-S ,  6-F ) :   1.1402
B(  4-S ,  7-O ) :   1.8864

Dispersion correction           -0.007835120
FINAL SINGLE POINT ENERGY      -727.347721295395

DIPOLE MOMENT
-------------
                                X             Y             Z
Electronic contribution:      0.24896      -6.78777      -5.86679
Nuclear contribution   :     -1.42658       8.04056       6.39401
                        -----------------------------------------
Total Dipole Moment    :     -1.17763       1.25279       0.52723
                        -----------------------------------------
Magnitude (a.u.)       :      1.79840
Magnitude (Debye)      :      4.57118

Rotational constants in cm-1:     0.153659     0.082363     0.078978
Rotational constants in MHz :  4606.587369  2469.179541  2367.702074

                             ****ORCA TERMINATED NORMALLY****
TOTAL RUN TIME: 0 days 0 hours 0 minutes 19 seconds 579 msec
