                         Program Version 5.0.0 -  RELEASE  -
|  1> !PBE0 D3BJ RIJCOSX def2-TZVP def2/J TightSCF
|  2> *xyz 0 1
|  3> C          1.96337       -1.74915       -1.89689
|  4> N          2.73849       -2.01517       -3.09711
|  5> C          4.04974       -2.15472       -3.15204
|  6> C          4.65821       -1.98629       -4.31866
|  7> N          4.76423       -2.45444       -2.05049
|  8> H          4.28736       -2.77626       -1.21750
|  9> H          5.75082       -2.65835       -2.12599
| 10> H          2.34518       -1.69027       -3.97145
| 11> H          4.10900       -1.59268       -5.07176
| 12> H          5.64910       -2.15646       -4.42724
| 13> C          2.08852       -0.30091       -1.41520
| 14> H          2.23127       -2.45162       -1.10264
| 15> H          0.93025       -1.97780       -2.15544
| 16> H          1.82118        0.36368       -2.21003
| 17> H          3.09792       -0.11068       -1.11551
| 18> H          1.43391       -0.14382       -0.58352
| 19> *
| 20> %MaxCore 64000
| 21>
| 22> %pal nprocs 4
| 23> end
| 24>
| 25> %scf
| 26>   MaxIter 150
| 27> end
| 28>
| 29>
| 30>                          ****END OF INPUT****

CARTESIAN COORDINATES (ANGSTROEM)
---------------------------------
  C      1.963370   -1.749150   -1.896890
  N      2.738490   -2.015170   -3.097110
  C      4.049740   -2.154720   -3.152040
  C      4.658210   -1.986290   -4.318660
  N      4.764230   -2.454440   -2.050490
  H      4.287360   -2.776260   -1.217500
  H      5.750820   -2.658350   -2.125990
  H      2.345180   -1.690270   -3.971450
  H      4.109000   -1.592680   -5.071760
  H      5.649100   -2.156460   -4.427240
  C      2.088520   -0.300910   -1.415200
  H      2.231270   -2.451620   -1.102640
  H      0.930250   -1.977800   -2.155440
  H      1.821180    0.363680   -2.210030
  H      3.097920   -0.110680   -1.115510
  H      1.433910   -0.143820   -0.583520

 Total Charge           Charge          ....    0
 Multiplicity           Mult            ....    1
 Number of Electrons    NEL             ....   48
 Basis Dimension        Dim             ....  246

ORBITAL ENERGIES
----------------

  NO   OCC          E(Eh)            E(eV)
   0   2.0000     -14.382174      -391.3589
   1   2.0000     -14.381002      -391.3270
   2   2.0000     -10.262416      -279.2545
   3   2.0000     -10.259945      -279.1873
   4   2.0000     -10.206373      -277.7295
   5   2.0000     -10.129260      -275.6312
   6   2.0000      -0.994564       -27.0635
   7   2.0000      -0.907772       -24.7017
   8   2.0000      -0.792694       -21.5703
   9   2.0000      -0.722039       -19.6477
  10   2.0000      -0.648291       -17.6409
  11   2.0000      -0.615033       -16.7359
  12   2.0000      -0.550143       -14.9702
  13   2.0000      -0.510281       -13.8854
  14   2.0000      -0.492495       -13.4015
  15   2.0000      -0.450091       -12.2476
  16   2.0000      -0.445905       -12.1337
  17   2.0000      -0.413639       -11.2557
  18   2.0000      -0.394727       -10.7411
  19   2.0000      -0.385853       -10.4996
  20   2.0000      -0.370714       -10.0876
  21   2.0000      -0.367439        -9.9985
  22   2.0000      -0.264739        -7.2039
  23   2.0000      -0.171690        -4.6719
  24   0.0000       0.030308         0.8247
  25   0.0000       0.057880         1.5750
  26   0.0000       0.069491         1.8910
  27   0.0000       0.081088         2.2065
  28   0.0000       0.095183         2.5901

MULLIKEN ATOMIC CHARGES
-----------------------
   0 C :   -0.165284
   1 N :   -0.278156
   2 C :    0.337214
   3 C :   -0.530537
   4 N :   -0.487167
   5 H :    0.224956
   6 H :    0.244071
   7 H :    0.217443
   8 H :    0.086397
   9 H :    0.093449
  10 C :   -0.310262
  11 H :    0.097862
  12 H :    0.122037
  13 H :    0.107902
  14 H :    0.127730
  15 H :    0.112345
Sum of atomic charges:    0.0000000

LOEWDIN ATOMIC CHARGES
----------------------
   0 C :   -0.320695
   1 N :    0.120118
   2 C :   -0.470949
   3 C :   -0.342473
   4 N :   -0.016777
   5 H :    0.160880
   6 H :    0.176149
   7 H :    0.197304
   8 H :    0.097836
   9 H :    0.095803
  10 C :   -0.308831
  11 H :    0.125778
  12 H :    0.132923
  13 H :    0.116830
  14 H :    0.119928
  15 H :    0.116176

  Mayer bond orders larger than 0.100000
B(  0-C ,  1-N ) :   0.9876 B(  0-C , 10-C ) :   0.9806 B(  0-C , 11-H ) :   0.9706
B(  0-C , 12-H ) :   0.9698 B(  1-N ,  2-C ) :   1.2333 B(  1-N ,  7-H ) :   0.9174
B(  2-C ,  3-C ) :   1.6541 B(  2-C ,  4-N ) :   1.1480 B(  3-C ,  8-H ) :   0.9967
B(  3-C ,  9-H ) :   0.9943 B(  4-N ,  5-H ) :   0.9129 B(  4-N ,  6-H ) :   0.9165
B( 10-C , 13-H ) :   0.9693 B( 10-C , 14-H ) :   0.9696 B( 10-C , 15-H ) :   0.9633

Dispersion correction           -0.010812887
FINAL SINGLE POINT ENERGY      -267.698829887485

DIPOLE MOMENT
-------------
                                X             Y             Z
Electronic contribution:      1.41438      -2.35399      -1.19196
Nuclear contribution   :     -1.91052       2.32590       2.09379
                        -----------------------------------------
Total Dipole Moment    :     -0.49614      -0.02809       0.90183
                        -----------------------------------------
Magnitude (a.u.)       :      1.02968
Magnitude (Debye)      :      2.61724

Rotational constants in cm-1:     0.219448     0.077923     0.068804
Rotational constants in MHz :  6578.886179  2336.083179  2062.700476

                             ****ORCA TERMINATED NORMALLY****
TOTAL RUN TIME: 0 days 0 hours 0 minutes 27 seconds 103 msec
