                         Program Version 5.0.0 -  RELEASE  -
|  1> !PBE0 D3BJ RIJCOSX def2-TZVP def2/J TightSCF
|  2> *xyz 0 1
|  3> C          0.61188        1.65763       -4.50029
|  4> C          1.69499        1.54179       -5.57045
|  5> H          2.69733        1.73466       -5.18400
|  6> H          1.50666        2.27224       -6.35808
|  7> S          1.78029       -0.03313       -6.42874
|  8> O          2.56929        0.21366       -7.60736
|  9> O          0.41688       -0.46297       -6.61859
| 10> F          2.50513       -0.93326       -5.48257
| 11> H         -0.34424        1.45871       -4.93752
| 12> H          0.61845        2.64655       -4.09174
| 13> H          0.80247        0.94882       -3.72173
| 14> *
| 15> %MaxCore 64000
| 16>
| 17> %pal nprocs 4
| 18> end
| 19>
| 20> %scf
| 21>   MaxIter 150
| 22> end
| 23>
| 24>
| 25>                          ****END OF INPUT****

CARTESIAN COORDINATES (ANGSTROEM)
---------------------------------
  C      0.611880    1.657630   -4.500290
  C      1.694990    1.541790   -5.570450
  H      2.697330    1.734660   -5.184000
  H      1.506660    2.272240   -6.358080
  S      1.780290   -0.033130   -6.428740
  O      2.569290    0.213660   -7.607360
  O      0.416880   -0.462970   -6.618590
  F      2.505130   -0.933260   -5.482570
  H     -0.344240    1.458710   -4.937520
  H      0.618450    2.646550   -4.091740
  H      0.802470    0.948820   -3.721730

 Total Charge           Charge          ....    0
 Multiplicity           Mult            ....    1
 Number of Electrons    NEL             ....   58
 Basis Dimension        Dim             ....  222

ORBITAL ENERGIES
----------------

  NO   OCC          E(Eh)            E(eV)
   0   2.0000     -89.257898     -2428.8309
   1   2.0000     -24.865491      -676.6244
   2   2.0000     -19.219417      -522.9869
   3   2.0000     -19.218618      -522.9652
   4   2.0000     -10.282207      -279.7931
   5   2.0000     -10.238433      -278.6019
   6   2.0000      -8.204151      -223.2463
   7   2.0000      -6.144564      -167.2021
   8   2.0000      -6.138479      -167.0365
   9   2.0000      -6.137730      -167.0161
  10   2.0000      -1.373390       -37.3718
  11   2.0000      -1.143497       -31.1161
  12   2.0000      -1.053781       -28.6748
  13   2.0000      -0.845595       -23.0098
  14   2.0000      -0.740462       -20.1490
  15   2.0000      -0.687846       -18.7173
  16   2.0000      -0.589936       -16.0530
  17   2.0000      -0.574263       -15.6265
  18   2.0000      -0.564732       -15.3671
  19   2.0000      -0.508045       -13.8246
  20   2.0000      -0.493116       -13.4184
  21   2.0000      -0.472898       -12.8682
  22   2.0000      -0.447209       -12.1692
  23   2.0000      -0.418450       -11.3866
  24   2.0000      -0.416161       -11.3243
  25   2.0000      -0.395030       -10.7493
  26   2.0000      -0.355372        -9.6702
  27   2.0000      -0.346730        -9.4350
  28   2.0000      -0.336234        -9.1494
  29   0.0000       0.023419         0.6373
  30   0.0000       0.050372         1.3707
  31   0.0000       0.067020         1.8237
  32   0.0000       0.080406         2.1879
  33   0.0000       0.089375         2.4320

MULLIKEN ATOMIC CHARGES
-----------------------
   0 C :   -0.354930
   1 C :   -0.267116
   2 H :    0.146007
   3 H :    0.161054
   4 S :    0.840308
   5 O :   -0.404489
   6 O :   -0.410112
   7 F :   -0.128621
   8 H :    0.155584
   9 H :    0.134032
  10 H :    0.128283
Sum of atomic charges:    0.0000000

LOEWDIN ATOMIC CHARGES
----------------------
   0 C :   -0.315841
   1 C :   -0.398224
   2 H :    0.138584
   3 H :    0.151289
   4 S :    0.531238
   5 O :   -0.259904
   6 O :   -0.259365
   7 F :    0.036279
   8 H :    0.128267
   9 H :    0.125507
  10 H :    0.122169

  Mayer bond orders larger than 0.100000
B(  0-C ,  1-C ) :   0.9946 B(  0-C ,  8-H ) :   0.9624 B(  0-C ,  9-H ) :   0.9567
B(  0-C , 10-H ) :   0.9677 B(  1-C ,  2-H ) :   0.9403 B(  1-C ,  3-H ) :   0.9360
B(  1-C ,  4-S ) :   0.9125 B(  4-S ,  5-O ) :   1.9597 B(  4-S ,  6-O ) :   1.9295
B(  4-S ,  7-F ) :   1.0989

Dispersion correction           -0.007854096
FINAL SINGLE POINT ENERGY      -727.371416951649

DIPOLE MOMENT
-------------
                                X             Y             Z
Electronic contribution:      3.78409      -7.61783      -3.93940
Nuclear contribution   :     -3.60260       8.53062       5.21025
                        -----------------------------------------
Total Dipole Moment    :      0.18148       0.91278       1.27084
                        -----------------------------------------
Magnitude (a.u.)       :      1.57517
Magnitude (Debye)      :      4.00376

Rotational constants in cm-1:     0.154011     0.080858     0.079602
Rotational constants in MHz :  4617.134198  2424.070332  2386.404775

                             ****ORCA TERMINATED NORMALLY****
TOTAL RUN TIME: 0 days 0 hours 0 minutes 19 seconds 685 msec
