                         Program Version 5.0.0 -  RELEASE  -
|  1> !PBE0 D3BJ RIJCOSX def2-TZVP def2/J TightSCF
|  2> *xyz 0 1
|  3> C          1.96337       -1.74915       -1.89689
|  4> N          2.73849       -2.01517       -3.09711
|  5> C          4.04974       -2.15472       -3.15204
|  6> N          4.65821       -1.98629       -4.31866
|  7> C          4.76423       -2.45444       -2.05049
|  8> H          4.28736       -2.77626       -1.21750
|  9> H          5.75082       -2.65835       -2.12599
| 10> H          2.34518       -1.69027       -3.97145
| 11> H          4.10900       -1.59268       -5.07176
| 12> H          5.64910       -2.15646       -4.42724
| 13> C          2.08852       -0.30091       -1.41520
| 14> H          2.23127       -2.45162       -1.10264
| 15> H          0.93025       -1.97780       -2.15544
| 16> H          1.82118        0.36368       -2.21003
| 17> H          3.09792       -0.11068       -1.11551
| 18> H          1.43391       -0.14382       -0.58352
| 19> *
| 20> %MaxCore 64000
| 21>
| 22> %pal nprocs 4
| 23> end
| 24>
| 25> %scf
| 26>   MaxIter 150
| 27> end
| 28>
| 29>
| 30>                          ****END OF INPUT****

CARTESIAN COORDINATES (ANGSTROEM)
---------------------------------
  C      1.963370   -1.749150   -1.896890
  N      2.738490   -2.015170   -3.097110
  C      4.049740   -2.154720   -3.152040
  N      4.658210   -1.986290   -4.318660
  C      4.764230   -2.454440   -2.050490
  H      4.287360   -2.776260   -1.217500
  H      5.750820   -2.658350   -2.125990
  H      2.345180   -1.690270   -3.971450
  H      4.109000   -1.592680   -5.071760
  H      5.649100   -2.156460   -4.427240
  C      2.088520   -0.300910   -1.415200
  H      2.231270   -2.451620   -1.102640
  H      0.930250   -1.977800   -2.155440
  H      1.821180    0.363680   -2.210030
  H      3.097920   -0.110680   -1.115510
  H      1.433910   -0.143820   -0.583520

 Total Charge           Charge          ....    0
 Multiplicity           Mult            ....    1
 Number of Electrons    NEL             ....   48
 Basis Dimension        Dim             ....  246

ORBITAL ENERGIES
----------------

  NO   OCC          E(Eh)            E(eV)
   0   2.0000     -14.386061      -391.4646
   1   2.0000     -14.382886      -391.3782
   2   2.0000     -10.263878      -279.2943
   3   2.0000     -10.253343      -279.0076
   4   2.0000     -10.199514      -277.5429
   5   2.0000     -10.128571      -275.6124
   6   2.0000      -1.000416       -27.2227
   7   2.0000      -0.911838       -24.8124
   8   2.0000      -0.775582       -21.1047
   9   2.0000      -0.726659       -19.7734
  10   2.0000      -0.661214       -17.9926
  11   2.0000      -0.578550       -15.7431
  12   2.0000      -0.561393       -15.2763
  13   2.0000      -0.539249       -14.6737
  14   2.0000      -0.480689       -13.0802
  15   2.0000      -0.451914       -12.2972
  16   2.0000      -0.430193       -11.7062
  17   2.0000      -0.409614       -11.1462
  18   2.0000      -0.391865       -10.6632
  19   2.0000      -0.378902       -10.3104
  20   2.0000      -0.373681       -10.1684
  21   2.0000      -0.357177        -9.7193
  22   2.0000      -0.262213        -7.1352
  23   2.0000      -0.172356        -4.6900
  24   0.0000       0.027661         0.7527
  25   0.0000       0.059225         1.6116
  26   0.0000       0.074422         2.0251
  27   0.0000       0.081870         2.2278
  28   0.0000       0.100228         2.7273

MULLIKEN ATOMIC CHARGES
-----------------------
   0 C :   -0.124007
   1 N :   -0.286518
   2 C :    0.309122
   3 N :   -0.467920
   4 C :   -0.525557
   5 H :    0.097367
   6 H :    0.087334
   7 H :    0.186084
   8 H :    0.214618
   9 H :    0.251504
  10 C :   -0.332021
  11 H :    0.118224
  12 H :    0.114418
  13 H :    0.093936
  14 H :    0.148961
  15 H :    0.114455
Sum of atomic charges:   -0.0000000

LOEWDIN ATOMIC CHARGES
----------------------
   0 C :   -0.302467
   1 N :    0.118258
   2 C :   -0.478394
   3 N :   -0.007094
   4 C :   -0.353633
   5 H :    0.097542
   6 H :    0.093683
   7 H :    0.178432
   8 H :    0.161827
   9 H :    0.179416
  10 C :   -0.308316
  11 H :    0.136612
  12 H :    0.130401
  13 H :    0.112219
  14 H :    0.124523
  15 H :    0.116992

  Mayer bond orders larger than 0.100000
B(  0-C ,  1-N ) :   0.9707 B(  0-C , 10-C ) :   0.9976 B(  0-C , 11-H ) :   0.9578
B(  0-C , 12-H ) :   0.9677 B(  1-N ,  2-C ) :   1.2123 B(  1-N ,  7-H ) :   0.9231
B(  2-C ,  3-N ) :   1.1635 B(  2-C ,  4-C ) :   1.6763 B(  3-N ,  8-H ) :   0.9183
B(  3-N ,  9-H ) :   0.9119 B(  4-C ,  5-H ) :   0.9947 B(  4-C ,  6-H ) :   0.9874
B( 10-C , 13-H ) :   0.9705 B( 10-C , 14-H ) :   0.9678 B( 10-C , 15-H ) :   0.9656

Dispersion correction           -0.010869444
FINAL SINGLE POINT ENERGY      -267.697733689712

DIPOLE MOMENT
-------------
                                X             Y             Z
Electronic contribution:      1.32995      -1.81486      -3.49663
Nuclear contribution   :     -1.88803       2.22658       2.57497
                        -----------------------------------------
Total Dipole Moment    :     -0.55808       0.41172      -0.92166
                        -----------------------------------------
Magnitude (a.u.)       :      1.15344
Magnitude (Debye)      :      2.93181

Rotational constants in cm-1:     0.226509     0.075782     0.067928
Rotational constants in MHz :  6790.555051  2271.890226  2036.439218

                             ****ORCA TERMINATED NORMALLY****
TOTAL RUN TIME: 0 days 0 hours 0 minutes 27 seconds 90 msec
