                         Program Version 5.0.0 -  RELEASE  -
|  1> !PBE0 D3BJ RIJCOSX def2-TZVP def2/J TightSCF xyzfile
|  2>
|  3> *xyzfile 0 1 D4.xyz
|  4>
|  5> %MaxCore 64000
|  6>
|  7> %pal nprocs 18
|  8> end
|  9>
| 10> %scf
| 11>   MaxIter 150
| 12> end
| 13>
| 14>
| 15>                          ****END OF INPUT****

CARTESIAN COORDINATES (ANGSTROEM)
---------------------------------
  C      1.963365   -1.749150   -1.896887
  C      2.738490   -2.015170   -3.097113
  C      0.611877    1.657634   -4.500288
  C      1.694991    1.541794   -5.570447
  H      2.697326    1.734659   -5.183996
  H      1.506656    2.272239   -6.358076
  S      1.780287   -0.033128   -6.428739
  C      4.049736   -2.154717   -3.152044
  N      4.658206   -1.986293   -4.318655
  N      4.764231   -2.454435   -2.050491
  H      4.287363   -2.776259   -1.217496
  H      5.750825   -2.658351   -2.125988
  H      2.345176   -1.690274   -3.971447
  H      4.109004   -1.592677   -5.071760
  H      5.649095   -2.156462   -4.427237
  O      2.569287    0.213657   -7.607360
  F      0.416880   -0.462969   -6.618595
  C      2.088520   -0.300912   -1.415204
  H      2.231272   -2.451616   -1.102643
  H      0.930249   -1.977801   -2.155438
  C      0.680356    0.655418   -3.348038
  H     -0.356865    1.549231   -4.991128
  H      0.650228    2.675438   -4.096000
  C      1.968993    0.733582   -2.535654
  H      3.051356   -0.168602   -0.911868
  H      1.316501   -0.136231   -0.657252
  O      2.505129   -0.933263   -5.482570
  H      2.824195    0.624726   -3.208464
  H      2.058919    1.730331   -2.093112
  H      0.542252   -0.344731   -3.766662
  H     -0.174219    0.829692   -2.685182

 Total Charge           Charge          ....    0
 Multiplicity           Mult            ....    1
 Number of Electrons    NEL             ....  120
 Basis Dimension        Dim             ....  542

ORBITAL ENERGIES
----------------

  NO   OCC          E(Eh)            E(eV)
   0   2.0000     -89.270977     -2429.1868
   1   2.0000     -24.901534      -677.6052
   2   2.0000     -19.227828      -523.2158
   3   2.0000     -19.213974      -522.8388
   4   2.0000     -14.364696      -390.8832
   5   2.0000     -14.348613      -390.4456
   6   2.0000     -10.283652      -279.8324
   7   2.0000     -10.249239      -278.8960
   8   2.0000     -10.238780      -278.6114
   9   2.0000     -10.221216      -278.1334
  10   2.0000     -10.205711      -277.7115
  11   2.0000     -10.194033      -277.3937
  12   2.0000     -10.181816      -277.0613
  13   2.0000     -10.105426      -274.9826
  14   2.0000      -8.217479      -223.6090
  15   2.0000      -6.157753      -167.5610
  16   2.0000      -6.151615      -167.3940
  17   2.0000      -6.151129      -167.3807
  18   2.0000      -1.425211       -38.7820
  19   2.0000      -1.143487       -31.1159
  20   2.0000      -1.043711       -28.4008
  21   2.0000      -0.962949       -26.2032
  22   2.0000      -0.872905       -23.7530
  23   2.0000      -0.863395       -23.4942
  24   2.0000      -0.814902       -22.1746
  25   2.0000      -0.775065       -21.0906
  26   2.0000      -0.747339       -20.3361
  27   2.0000      -0.714918       -19.4539
  28   2.0000      -0.672799       -18.3078
  29   2.0000      -0.639161       -17.3924
  30   2.0000      -0.619397       -16.8547
  31   2.0000      -0.615864       -16.7585
  32   2.0000      -0.600347       -16.3363
  33   2.0000      -0.569422       -15.4948
  34   2.0000      -0.560888       -15.2625
  35   2.0000      -0.536870       -14.6090
  36   2.0000      -0.511153       -13.9092
  37   2.0000      -0.508095       -13.8260
  38   2.0000      -0.492464       -13.4006
  39   2.0000      -0.486483       -13.2379
  40   2.0000      -0.480388       -13.0720
  41   2.0000      -0.457871       -12.4593
  42   2.0000      -0.449325       -12.2268
  43   2.0000      -0.443633       -12.0719
  44   2.0000      -0.430827       -11.7234
  45   2.0000      -0.408040       -11.1033
  46   2.0000      -0.398114       -10.8332
  47   2.0000      -0.391665       -10.6578
  48   2.0000      -0.383658       -10.4399
  49   2.0000      -0.375681       -10.2228
  50   2.0000      -0.363849        -9.9008
  51   2.0000      -0.351157        -9.5555
  52   2.0000      -0.347512        -9.4563
  53   2.0000      -0.340549        -9.2668
  54   2.0000      -0.329058        -8.9541
  55   2.0000      -0.323929        -8.8145
  56   2.0000      -0.310634        -8.4528
  57   2.0000      -0.290130        -7.8948
  58   2.0000      -0.254164        -6.9161
  59   2.0000      -0.145452        -3.9580
  60   0.0000       0.012263         0.3337
  61   0.0000       0.040498         1.1020
  62   0.0000       0.044841         1.2202
  63   0.0000       0.059105         1.6083
  64   0.0000       0.062213         1.6929

MULLIKEN ATOMIC CHARGES
-----------------------
   0 C :   -0.278550
   1 C :   -0.288352
   2 C :   -0.190817
   3 C :   -0.292100
   4 H :    0.176772
   5 H :    0.165611
   6 S :    0.841398
   7 C :    0.210525
   8 N :   -0.461196
   9 N :   -0.480491
  10 H :    0.240143
  11 H :    0.215634
  12 H :    0.140758
  13 H :    0.258327
  14 H :    0.208799
  15 O :   -0.395967
  16 F :   -0.083943
  17 C :   -0.116115
  18 H :    0.081225
  19 H :    0.101656
  20 C :   -0.284097
  21 H :    0.128375
  22 H :    0.118301
  23 C :   -0.178413
  24 H :    0.091193
  25 H :    0.075959
  26 O :   -0.459222
  27 H :    0.124267
  28 H :    0.095495
  29 H :    0.127296
  30 H :    0.107528
Sum of atomic charges:    0.0000000

LOEWDIN ATOMIC CHARGES
----------------------
   0 C :   -0.300080
   1 C :   -0.294996
   2 C :   -0.292590
   3 C :   -0.365533
   4 H :    0.154293
   5 H :    0.145433
   6 S :    0.549547
   7 C :   -0.469183
   8 N :   -0.013980
   9 N :   -0.025281
  10 H :    0.172251
  11 H :    0.157452
  12 H :    0.117062
  13 H :    0.167204
  14 H :    0.155625
  15 O :   -0.250714
  16 F :    0.111114
  17 C :   -0.264196
  18 H :    0.127972
  19 H :    0.139324
  20 C :   -0.272076
  21 H :    0.140278
  22 H :    0.148579
  23 C :   -0.271836
  24 H :    0.136443
  25 H :    0.128250
  26 O :   -0.288723
  27 H :    0.142643
  28 H :    0.133757
  29 H :    0.140573
  30 H :    0.141388

  Mayer bond orders larger than 0.100000
B(  0-C ,  1-C ) :   1.0315 B(  0-C , 17-C ) :   0.9688 B(  0-C , 18-H ) :   0.9692
B(  0-C , 19-H ) :   0.9801 B(  1-C ,  7-C ) :   1.6995 B(  1-C , 12-H ) :   0.9976
B(  2-C ,  3-C ) :   0.9888 B(  2-C , 20-C ) :   0.9854 B(  2-C , 21-H ) :   0.9662
B(  2-C , 22-H ) :   0.9388 B(  3-C ,  4-H ) :   0.9361 B(  3-C ,  5-H ) :   0.9380
B(  3-C ,  6-S ) :   0.9194 B(  6-S , 15-O ) :   1.9756 B(  6-S , 16-F ) :   1.1549
B(  6-S , 26-O ) :   1.7478 B(  7-C ,  8-N ) :   1.2337 B(  7-C ,  9-N ) :   1.1725
B(  8-N , 13-H ) :   0.8703 B(  8-N , 14-H ) :   0.9229 B(  9-N , 10-H ) :   0.9116
B(  9-N , 11-H ) :   0.9202 B( 17-C , 23-C ) :   1.0206 B( 17-C , 24-H ) :   0.9500
B( 17-C , 25-H ) :   0.9591 B( 20-C , 23-C ) :   0.9709 B( 20-C , 29-H ) :   0.9754
B( 20-C , 30-H ) :   0.9550 B( 23-C , 27-H ) :   0.9591 B( 23-C , 28-H ) :   0.9529

Dispersion correction           -0.033091169
FINAL SINGLE POINT ENERGY     -1072.409867613402

DIPOLE MOMENT
-------------
                                X             Y             Z
Electronic contribution:     -2.89101      -2.20847     -21.78921
Nuclear contribution   :      2.64598       3.36033      21.85869
                        -----------------------------------------
Total Dipole Moment    :     -0.24503       1.15186       0.06948
                        -----------------------------------------
Magnitude (a.u.)       :      1.17969
Magnitude (Debye)      :      2.99852

Rotational constants in cm-1:     0.028973     0.014435     0.011026
Rotational constants in MHz :   868.588266   432.748309   330.548534

                             ****ORCA TERMINATED NORMALLY****
TOTAL RUN TIME: 0 days 0 hours 0 minutes 58 seconds 746 msec
