                         Program Version 5.0.0 -  RELEASE  -
|  1> !PBE0 D3BJ RIJCOSX def2-TZVP def2/J TightSCF xyzfile
|  2>
|  3> *xyzfile 0 1 D5.xyz
|  4>
|  5> %MaxCore 64000
|  6>
|  7> %pal nprocs 18
|  8> end
|  9>
| 10> %scf
| 11>   MaxIter 150
| 12> end
| 13>
| 14>
| 15>                          ****END OF INPUT****

CARTESIAN COORDINATES (ANGSTROEM)
---------------------------------
  C      1.963365   -1.749150   -1.896887
  N      2.738490   -2.015170   -3.097113
  C      0.611877    1.657634   -4.500288
  C      1.694991    1.541794   -5.570447
  H      2.697326    1.734659   -5.183996
  H      1.506656    2.272239   -6.358076
  S      1.780287   -0.033128   -6.428739
  C      4.049736   -2.154717   -3.152044
  C      4.658206   -1.986293   -4.318655
  N      4.764231   -2.454435   -2.050491
  H      4.287363   -2.776259   -1.217496
  H      5.750825   -2.658351   -2.125988
  H      2.345176   -1.690274   -3.971447
  H      4.109004   -1.592677   -5.071760
  H      5.649095   -2.156462   -4.427237
  O      2.569287    0.213657   -7.607360
  F      0.416880   -0.462969   -6.618595
  C      2.088520   -0.300912   -1.415204
  H      2.231272   -2.451616   -1.102643
  H      0.930249   -1.977801   -2.155438
  C      0.680356    0.655418   -3.348038
  H     -0.356865    1.549231   -4.991128
  H      0.650228    2.675438   -4.096000
  C      1.968993    0.733582   -2.535654
  H      3.051356   -0.168602   -0.911868
  H      1.316501   -0.136231   -0.657252
  O      2.505129   -0.933263   -5.482570
  H      2.824195    0.624726   -3.208464
  H      2.058919    1.730331   -2.093112
  H      0.542252   -0.344731   -3.766662
  H     -0.174219    0.829692   -2.685182

 Total Charge           Charge          ....    0
 Multiplicity           Mult            ....    1
 Number of Electrons    NEL             ....  120
 Basis Dimension        Dim             ....  542

ORBITAL ENERGIES
----------------

  NO   OCC          E(Eh)            E(eV)
   0   2.0000     -89.272330     -2429.2236
   1   2.0000     -24.903115      -677.6482
   2   2.0000     -19.229428      -523.2593
   3   2.0000     -19.216911      -522.9187
   4   2.0000     -14.362077      -390.8120
   5   2.0000     -14.350524      -390.4976
   6   2.0000     -10.286809      -279.9183
   7   2.0000     -10.257325      -279.1160
   8   2.0000     -10.245540      -278.7953
   9   2.0000     -10.238491      -278.6035
  10   2.0000     -10.235645      -278.5261
  11   2.0000     -10.221903      -278.1521
  12   2.0000     -10.215777      -277.9854
  13   2.0000     -10.099084      -274.8101
  14   2.0000      -8.218846      -223.6462
  15   2.0000      -6.159240      -167.6014
  16   2.0000      -6.152966      -167.4307
  17   2.0000      -6.152420      -167.4158
  18   2.0000      -1.427129       -38.8342
  19   2.0000      -1.144627       -31.1469
  20   2.0000      -1.045580       -28.4517
  21   2.0000      -0.972072       -26.4514
  22   2.0000      -0.889308       -24.1993
  23   2.0000      -0.870410       -23.6851
  24   2.0000      -0.817979       -22.2583
  25   2.0000      -0.780833       -21.2475
  26   2.0000      -0.746259       -20.3067
  27   2.0000      -0.720773       -19.6132
  28   2.0000      -0.680880       -18.5277
  29   2.0000      -0.647527       -17.6201
  30   2.0000      -0.622503       -16.9392
  31   2.0000      -0.621044       -16.8995
  32   2.0000      -0.607038       -16.5183
  33   2.0000      -0.587409       -15.9842
  34   2.0000      -0.566120       -15.4049
  35   2.0000      -0.531889       -14.4734
  36   2.0000      -0.516075       -14.0431
  37   2.0000      -0.509815       -13.8728
  38   2.0000      -0.493826       -13.4377
  39   2.0000      -0.488107       -13.2821
  40   2.0000      -0.483475       -13.1560
  41   2.0000      -0.473353       -12.8806
  42   2.0000      -0.457499       -12.4492
  43   2.0000      -0.443914       -12.0795
  44   2.0000      -0.437491       -11.9047
  45   2.0000      -0.411969       -11.2102
  46   2.0000      -0.408599       -11.1185
  47   2.0000      -0.399525       -10.8716
  48   2.0000      -0.390162       -10.6168
  49   2.0000      -0.375792       -10.2258
  50   2.0000      -0.372669       -10.1408
  51   2.0000      -0.363232        -9.8840
  52   2.0000      -0.351672        -9.5695
  53   2.0000      -0.344805        -9.3826
  54   2.0000      -0.341673        -9.2974
  55   2.0000      -0.337471        -9.1830
  56   2.0000      -0.331626        -9.0240
  57   2.0000      -0.322205        -8.7676
  58   2.0000      -0.243391        -6.6230
  59   2.0000      -0.148351        -4.0368
  60   0.0000       0.010385         0.2826
  61   0.0000       0.034671         0.9435
  62   0.0000       0.042976         1.1694
  63   0.0000       0.052322         1.4238
  64   0.0000       0.058093         1.5808

MULLIKEN ATOMIC CHARGES
-----------------------
   0 C :   -0.258186
   1 N :   -0.230535
   2 C :   -0.191197
   3 C :   -0.296915
   4 H :    0.183903
   5 H :    0.167169
   6 S :    0.842285
   7 C :    0.286779
   8 C :   -0.556819
   9 N :   -0.495594
  10 H :    0.218968
  11 H :    0.238974
  12 H :    0.233495
  13 H :    0.153139
  14 H :    0.081164
  15 O :   -0.385588
  16 F :   -0.087472
  17 C :   -0.088258
  18 H :    0.112878
  19 H :    0.131301
  20 C :   -0.277422
  21 H :    0.131246
  22 H :    0.122209
  23 C :   -0.259365
  24 H :    0.106842
  25 H :    0.085692
  26 O :   -0.452801
  27 H :    0.149053
  28 H :    0.105435
  29 H :    0.117293
  30 H :    0.112326
Sum of atomic charges:   -0.0000000

LOEWDIN ATOMIC CHARGES
----------------------
   0 C :   -0.307210
   1 N :    0.123257
   2 C :   -0.291221
   3 C :   -0.365222
   4 H :    0.156190
   5 H :    0.146191
   6 S :    0.548489
   7 C :   -0.476803
   8 C :   -0.349514
   9 N :   -0.024650
  10 H :    0.156991
  11 H :    0.172717
  12 H :    0.172978
  13 H :    0.099845
  14 H :    0.090779
  15 O :   -0.240693
  16 F :    0.107412
  17 C :   -0.273605
  18 H :    0.127228
  19 H :    0.132444
  20 C :   -0.276496
  21 H :    0.141347
  22 H :    0.149689
  23 C :   -0.272971
  24 H :    0.140089
  25 H :    0.134106
  26 O :   -0.282704
  27 H :    0.146818
  28 H :    0.138185
  29 H :    0.134356
  30 H :    0.141978

  Mayer bond orders larger than 0.100000
B(  0-C ,  1-N ) :   1.0072 B(  0-C , 17-C ) :   0.9403 B(  0-C , 18-H ) :   0.9748
B(  0-C , 19-H ) :   0.9811 B(  1-N ,  7-C ) :   1.2459 B(  1-N , 12-H ) :   0.8836
B(  2-C ,  3-C ) :   0.9870 B(  2-C , 20-C ) :   0.9885 B(  2-C , 21-H ) :   0.9658
B(  2-C , 22-H ) :   0.9401 B(  3-C ,  4-H ) :   0.9358 B(  3-C ,  5-H ) :   0.9389
B(  3-C ,  6-S ) :   0.9178 B(  6-S , 15-O ) :   1.9876 B(  6-S , 16-F ) :   1.1479
B(  6-S , 26-O ) :   1.7412 B(  7-C ,  8-C ) :   1.6604 B(  7-C ,  9-N ) :   1.1311
B(  8-C , 13-H ) :   0.9699 B(  8-C , 14-H ) :   0.9939 B(  9-N , 10-H ) :   0.9131
B(  9-N , 11-H ) :   0.9197 B( 17-C , 23-C ) :   1.0083 B( 17-C , 24-H ) :   0.9454
B( 17-C , 25-H ) :   0.9538 B( 20-C , 23-C ) :   0.9799 B( 20-C , 29-H ) :   0.9730
B( 20-C , 30-H ) :   0.9544 B( 23-C , 27-H ) :   0.9543 B( 23-C , 28-H ) :   0.9516

Dispersion correction           -0.032931596
FINAL SINGLE POINT ENERGY     -1072.406117227614

DIPOLE MOMENT
-------------
                                X             Y             Z
Electronic contribution:     -4.58917      -2.02095     -20.72699
Nuclear contribution   :      2.89225       3.36404      21.70199
                        -----------------------------------------
Total Dipole Moment    :     -1.69692       1.34309       0.97500
                        -----------------------------------------
Magnitude (a.u.)       :      2.37361
Magnitude (Debye)      :      6.03324

Rotational constants in cm-1:     0.029431     0.014408     0.011084
Rotational constants in MHz :   882.306106   431.946714   332.288152

                             ****ORCA TERMINATED NORMALLY****
TOTAL RUN TIME: 0 days 0 hours 1 minutes 4 seconds 582 msec
