                         Program Version 5.0.0 -  RELEASE  -
|  1> !PBE0 D3BJ RIJCOSX def2-TZVP def2/J TightSCF xyzfile
|  2>
|  3> *xyzfile 0 1 D6.xyz
|  4>
|  5> %MaxCore 64000
|  6>
|  7> %pal nprocs 18
|  8> end
|  9>
| 10> %scf
| 11>   MaxIter 150
| 12> end
| 13>
| 14>
| 15>                          ****END OF INPUT****

CARTESIAN COORDINATES (ANGSTROEM)
---------------------------------
  C      1.963365   -1.749150   -1.896887
  N      2.738490   -2.015170   -3.097113
  C      0.611877    1.657634   -4.500288
  C      1.694991    1.541794   -5.570447
  H      2.697326    1.734659   -5.183996
  H      1.506656    2.272239   -6.358076
  S      1.780287   -0.033128   -6.428739
  C      4.049736   -2.154717   -3.152044
  N      4.658206   -1.986293   -4.318655
  C      4.764231   -2.454435   -2.050491
  H      4.287363   -2.776259   -1.217496
  H      5.750825   -2.658351   -2.125988
  H      2.345176   -1.690274   -3.971447
  H      4.109004   -1.592677   -5.071760
  H      5.649095   -2.156462   -4.427237
  O      2.569287    0.213657   -7.607360
  F      0.416880   -0.462969   -6.618595
  C      2.088520   -0.300912   -1.415204
  H      2.231272   -2.451616   -1.102643
  H      0.930249   -1.977801   -2.155438
  C      0.680356    0.655418   -3.348038
  H     -0.356865    1.549231   -4.991128
  H      0.650228    2.675438   -4.096000
  C      1.968993    0.733582   -2.535654
  H      3.051356   -0.168602   -0.911868
  H      1.316501   -0.136231   -0.657252
  O      2.505129   -0.933263   -5.482570
  H      2.824195    0.624726   -3.208464
  H      2.058919    1.730331   -2.093112
  H      0.542252   -0.344731   -3.766662
  H     -0.174219    0.829692   -2.685182

 Total Charge           Charge          ....    0
 Multiplicity           Mult            ....    1
 Number of Electrons    NEL             ....  120
 Basis Dimension        Dim             ....  542

ORBITAL ENERGIES
----------------

  NO   OCC          E(Eh)            E(eV)
   0   2.0000     -89.290157     -2429.7087
   1   2.0000     -24.917988      -678.0529
   2   2.0000     -19.245055      -523.6846
   3   2.0000     -19.237795      -523.4870
   4   2.0000     -14.352240      -390.5443
   5   2.0000     -14.348327      -390.4378
   6   2.0000     -10.298387      -280.2334
   7   2.0000     -10.263793      -279.2920
   8   2.0000     -10.240437      -278.6565
   9   2.0000     -10.239099      -278.6201
  10   2.0000     -10.238956      -278.6162
  11   2.0000     -10.222880      -278.1787
  12   2.0000     -10.210402      -277.8392
  13   2.0000     -10.107703      -275.0446
  14   2.0000      -8.236512      -224.1269
  15   2.0000      -6.176799      -168.0793
  16   2.0000      -6.170831      -167.9168
  17   2.0000      -6.170032      -167.8951
  18   2.0000      -1.441720       -39.2312
  19   2.0000      -1.162113       -31.6227
  20   2.0000      -1.064857       -28.9762
  21   2.0000      -0.973233       -26.4830
  22   2.0000      -0.888092       -24.1662
  23   2.0000      -0.877495       -23.8778
  24   2.0000      -0.821059       -22.3422
  25   2.0000      -0.781639       -21.2695
  26   2.0000      -0.750493       -20.4219
  27   2.0000      -0.711725       -19.3670
  28   2.0000      -0.699482       -19.0339
  29   2.0000      -0.659504       -17.9460
  30   2.0000      -0.634726       -17.2718
  31   2.0000      -0.632230       -17.2039
  32   2.0000      -0.605738       -16.4830
  33   2.0000      -0.591191       -16.0871
  34   2.0000      -0.553108       -15.0508
  35   2.0000      -0.539234       -14.6733
  36   2.0000      -0.525555       -14.3011
  37   2.0000      -0.522875       -14.2282
  38   2.0000      -0.512255       -13.9392
  39   2.0000      -0.499839       -13.6013
  40   2.0000      -0.481167       -13.0932
  41   2.0000      -0.471652       -12.8343
  42   2.0000      -0.455363       -12.3911
  43   2.0000      -0.446425       -12.1478
  44   2.0000      -0.439647       -11.9634
  45   2.0000      -0.424008       -11.5379
  46   2.0000      -0.407727       -11.0948
  47   2.0000      -0.404634       -11.0106
  48   2.0000      -0.387869       -10.5545
  49   2.0000      -0.381201       -10.3730
  50   2.0000      -0.373743       -10.1701
  51   2.0000      -0.372159       -10.1270
  52   2.0000      -0.360636        -9.8134
  53   2.0000      -0.353677        -9.6240
  54   2.0000      -0.346807        -9.4371
  55   2.0000      -0.342505        -9.3200
  56   2.0000      -0.340658        -9.2698
  57   2.0000      -0.328493        -8.9388
  58   2.0000      -0.235530        -6.4091
  59   2.0000      -0.150657        -4.0996
  60   0.0000      -0.002143        -0.0583
  61   0.0000       0.027599         0.7510
  62   0.0000       0.041836         1.1384
  63   0.0000       0.048922         1.3312
  64   0.0000       0.050092         1.3631

MULLIKEN ATOMIC CHARGES
-----------------------
   0 C :   -0.208769
   1 N :   -0.247883
   2 C :   -0.191727
   3 C :   -0.298557
   4 H :    0.184926
   5 H :    0.172506
   6 S :    0.859056
   7 C :    0.284140
   8 N :   -0.473766
   9 C :   -0.552953
  10 H :    0.090295
  11 H :    0.081395
  12 H :    0.223738
  13 H :    0.248615
  14 H :    0.234543
  15 O :   -0.383924
  16 F :   -0.081047
  17 C :   -0.107926
  18 H :    0.128672
  19 H :    0.124569
  20 C :   -0.278040
  21 H :    0.133449
  22 H :    0.125553
  23 C :   -0.259452
  24 H :    0.124274
  25 H :    0.090286
  26 O :   -0.490758
  27 H :    0.129408
  28 H :    0.106408
  29 H :    0.116505
  30 H :    0.116465
Sum of atomic charges:   -0.0000000

LOEWDIN ATOMIC CHARGES
----------------------
   0 C :   -0.287904
   1 N :    0.122434
   2 C :   -0.290756
   3 C :   -0.363305
   4 H :    0.156280
   5 H :    0.148004
   6 S :    0.556555
   7 C :   -0.478116
   8 N :   -0.010798
   9 C :   -0.372233
  10 H :    0.094194
  11 H :    0.090749
  12 H :    0.160837
  13 H :    0.154439
  14 H :    0.171828
  15 O :   -0.239061
  16 F :    0.113866
  17 C :   -0.270081
  18 H :    0.137973
  19 H :    0.129707
  20 C :   -0.276500
  21 H :    0.141709
  22 H :    0.151127
  23 C :   -0.273957
  24 H :    0.146499
  25 H :    0.135277
  26 O :   -0.306554
  27 H :    0.142065
  28 H :    0.138357
  29 H :    0.133781
  30 H :    0.143585

  Mayer bond orders larger than 0.100000
B(  0-C ,  1-N ) :   0.9959 B(  0-C , 17-C ) :   0.9700 B(  0-C , 18-H ) :   0.9600
B(  0-C , 19-H ) :   0.9792 B(  1-N ,  7-C ) :   1.2222 B(  1-N , 12-H ) :   0.8888
B(  2-C ,  3-C ) :   0.9842 B(  2-C , 20-C ) :   0.9854 B(  2-C , 21-H ) :   0.9660
B(  2-C , 22-H ) :   0.9384 B(  3-C ,  4-H ) :   0.9339 B(  3-C ,  5-H ) :   0.9378
B(  3-C ,  6-S ) :   0.9210 B(  6-S , 15-O ) :   1.9889 B(  6-S , 16-F ) :   1.1606
B(  6-S , 26-O ) :   1.7049 B(  7-C ,  8-N ) :   1.1865 B(  7-C ,  9-C ) :   1.6540
B(  8-N , 13-H ) :   0.8786 B(  8-N , 14-H ) :   0.9194 B(  9-C , 10-H ) :   0.9879
B(  9-C , 11-H ) :   0.9885 B( 17-C , 23-C ) :   1.0139 B( 17-C , 24-H ) :   0.9404
B( 17-C , 25-H ) :   0.9604 B( 20-C , 23-C ) :   0.9746 B( 20-C , 29-H ) :   0.9760
B( 20-C , 30-H ) :   0.9553 B( 23-C , 27-H ) :   0.9578 B( 23-C , 28-H ) :   0.9509

Dispersion correction           -0.032872227
FINAL SINGLE POINT ENERGY     -1072.417767509569

DIPOLE MOMENT
-------------
                                X             Y             Z
Electronic contribution:     -4.83750      -1.40664     -22.81447
Nuclear contribution   :      2.90585       3.30398      21.99296
                        -----------------------------------------
Total Dipole Moment    :     -1.93165       1.89735      -0.82152
                        -----------------------------------------
Magnitude (a.u.)       :      2.82950
Magnitude (Debye)      :      7.19203

Rotational constants in cm-1:     0.029065     0.014689     0.011200
Rotational constants in MHz :   871.338526   440.374927   335.770911

                             ****ORCA TERMINATED NORMALLY****
TOTAL RUN TIME: 0 days 0 hours 1 minutes 3 seconds 72 msec
