                         Program Version 5.0.0 -  RELEASE  -
|  1> !PBE0 D3BJ RIJCOSX def2-TZVP def2/J TightSCF xyzfile
|  2>
|  3> *xyzfile 0 1 D7.xyz
|  4>
|  5> %MaxCore 64000
|  6>
|  7> %pal nprocs 18
|  8> end
|  9>
| 10> %scf
| 11>   MaxIter 150
| 12> end
| 13>
| 14>
| 15>                          ****END OF INPUT****

CARTESIAN COORDINATES (ANGSTROEM)
---------------------------------
  C      1.963365   -1.749150   -1.896887
  C      2.738490   -2.015170   -3.097113
  C      0.611877    1.657634   -4.500288
  C      1.694991    1.541794   -5.570447
  H      2.697326    1.734659   -5.183996
  H      1.506656    2.272239   -6.358076
  S      1.780287   -0.033128   -6.428739
  C      4.049736   -2.154717   -3.152044
  N      4.658206   -1.986293   -4.318655
  N      4.764231   -2.454435   -2.050491
  H      4.287363   -2.776259   -1.217496
  H      5.750825   -2.658351   -2.125988
  H      2.345176   -1.690274   -3.971447
  H      4.109004   -1.592677   -5.071760
  H      5.649095   -2.156462   -4.427237
  O      2.569287    0.213657   -7.607360
  O      0.416880   -0.462969   -6.618595
  C      2.088520   -0.300912   -1.415204
  H      2.231272   -2.451616   -1.102643
  H      0.930249   -1.977801   -2.155438
  C      0.680356    0.655418   -3.348038
  H     -0.356865    1.549231   -4.991128
  H      0.650228    2.675438   -4.096000
  C      1.968993    0.733582   -2.535654
  H      3.051356   -0.168602   -0.911868
  H      1.316501   -0.136231   -0.657252
  F      2.505129   -0.933263   -5.482570
  H      2.824195    0.624726   -3.208464
  H      2.058919    1.730331   -2.093112
  H      0.542252   -0.344731   -3.766662
  H     -0.174219    0.829692   -2.685182

 Total Charge           Charge          ....    0
 Multiplicity           Mult            ....    1
 Number of Electrons    NEL             ....  120
 Basis Dimension        Dim             ....  542

ORBITAL ENERGIES
----------------

  NO   OCC          E(Eh)            E(eV)
   0   2.0000     -89.260105     -2428.8909
   1   2.0000     -24.876202      -676.9159
   2   2.0000     -19.221954      -523.0560
   3   2.0000     -19.221621      -523.0469
   4   2.0000     -14.384120      -391.4118
   5   2.0000     -14.379032      -391.2734
   6   2.0000     -10.278085      -279.6809
   7   2.0000     -10.263068      -279.2723
   8   2.0000     -10.242171      -278.7036
   9   2.0000     -10.222528      -278.1691
  10   2.0000     -10.214011      -277.9374
  11   2.0000     -10.204588      -277.6810
  12   2.0000     -10.196693      -277.4661
  13   2.0000     -10.134136      -275.7639
  14   2.0000      -8.206824      -223.3190
  15   2.0000      -6.147428      -167.2800
  16   2.0000      -6.140910      -167.1027
  17   2.0000      -6.140268      -167.0852
  18   2.0000      -1.388945       -37.7951
  19   2.0000      -1.147561       -31.2267
  20   2.0000      -1.056528       -28.7496
  21   2.0000      -0.987584       -26.8735
  22   2.0000      -0.897451       -24.4209
  23   2.0000      -0.859387       -23.3851
  24   2.0000      -0.822606       -22.3843
  25   2.0000      -0.776939       -21.1416
  26   2.0000      -0.753754       -20.5107
  27   2.0000      -0.716289       -19.4912
  28   2.0000      -0.685319       -18.6485
  29   2.0000      -0.644137       -17.5279
  30   2.0000      -0.606902       -16.5146
  31   2.0000      -0.596961       -16.2441
  32   2.0000      -0.592436       -16.1210
  33   2.0000      -0.582033       -15.8379
  34   2.0000      -0.561353       -15.2752
  35   2.0000      -0.556739       -15.1496
  36   2.0000      -0.521700       -14.1962
  37   2.0000      -0.507122       -13.7995
  38   2.0000      -0.501675       -13.6513
  39   2.0000      -0.485193       -13.2028
  40   2.0000      -0.481948       -13.1145
  41   2.0000      -0.471382       -12.8270
  42   2.0000      -0.458187       -12.4679
  43   2.0000      -0.444509       -12.0957
  44   2.0000      -0.433462       -11.7951
  45   2.0000      -0.410224       -11.1628
  46   2.0000      -0.409639       -11.1468
  47   2.0000      -0.404603       -11.0098
  48   2.0000      -0.396154       -10.7799
  49   2.0000      -0.378367       -10.2959
  50   2.0000      -0.368092       -10.0163
  51   2.0000      -0.355532        -9.6745
  52   2.0000      -0.352845        -9.6014
  53   2.0000      -0.344316        -9.3693
  54   2.0000      -0.339130        -9.2282
  55   2.0000      -0.332908        -9.0589
  56   2.0000      -0.322971        -8.7885
  57   2.0000      -0.318296        -8.6613
  58   2.0000      -0.277794        -7.5592
  59   2.0000      -0.169385        -4.6092
  60   0.0000       0.021236         0.5779
  61   0.0000       0.033165         0.9025
  62   0.0000       0.042792         1.1644
  63   0.0000       0.052718         1.4345
  64   0.0000       0.061813         1.6820

MULLIKEN ATOMIC CHARGES
-----------------------
   0 C :   -0.282909
   1 C :   -0.314240
   2 C :   -0.134414
   3 C :   -0.322289
   4 H :    0.161654
   5 H :    0.175620
   6 S :    0.829893
   7 C :    0.247772
   8 N :   -0.468082
   9 N :   -0.474490
  10 H :    0.245818
  11 H :    0.221255
  12 H :    0.117552
  13 H :    0.242518
  14 H :    0.222944
  15 O :   -0.413017
  16 O :   -0.397528
  17 C :   -0.114358
  18 H :    0.088700
  19 H :    0.115731
  20 C :   -0.325676
  21 H :    0.138988
  22 H :    0.112188
  23 C :   -0.186480
  24 H :    0.093228
  25 H :    0.085300
  26 F :   -0.131278
  27 H :    0.107922
  28 H :    0.101537
  29 H :    0.146027
  30 H :    0.110111
Sum of atomic charges:    0.0000000

LOEWDIN ATOMIC CHARGES
----------------------
   0 C :   -0.294263
   1 C :   -0.296068
   2 C :   -0.286764
   3 C :   -0.370896
   4 H :    0.140900
   5 H :    0.154421
   6 S :    0.545139
   7 C :   -0.466535
   8 N :   -0.013991
   9 N :   -0.017296
  10 H :    0.175395
  11 H :    0.160727
  12 H :    0.115148
  13 H :    0.165862
  14 H :    0.162015
  15 O :   -0.259682
  16 O :   -0.249629
  17 C :   -0.263064
  18 H :    0.130734
  19 H :    0.143794
  20 C :   -0.272734
  21 H :    0.148458
  22 H :    0.146509
  23 C :   -0.274334
  24 H :    0.136493
  25 H :    0.131554
  26 F :    0.051242
  27 H :    0.136105
  28 H :    0.136061
  29 H :    0.141578
  30 H :    0.143120

  Mayer bond orders larger than 0.100000
B(  0-C ,  1-C ) :   1.0292 B(  0-C , 17-C ) :   0.9730 B(  0-C , 18-H ) :   0.9686
B(  0-C , 19-H ) :   0.9752 B(  1-C ,  7-C ) :   1.6913 B(  1-C , 12-H ) :   1.0123
B(  2-C ,  3-C ) :   0.9791 B(  2-C , 20-C ) :   0.9963 B(  2-C , 21-H ) :   0.9532
B(  2-C , 22-H ) :   0.9383 B(  3-C ,  4-H ) :   0.9407 B(  3-C ,  5-H ) :   0.9359
B(  3-C ,  6-S ) :   0.9126 B(  6-S , 15-O ) :   1.9631 B(  6-S , 16-O ) :   1.9355
B(  6-S , 26-F ) :   1.0382 B(  7-C ,  8-N ) :   1.2139 B(  7-C ,  9-N ) :   1.1928
B(  8-N , 13-H ) :   0.8971 B(  8-N , 14-H ) :   0.9177 B(  9-N , 10-H ) :   0.9088
B(  9-N , 11-H ) :   0.9180 B( 17-C , 23-C ) :   1.0180 B( 17-C , 24-H ) :   0.9517
B( 17-C , 25-H ) :   0.9604 B( 20-C , 23-C ) :   0.9699 B( 20-C , 29-H ) :   0.9749
B( 20-C , 30-H ) :   0.9546 B( 23-C , 27-H ) :   0.9607 B( 23-C , 28-H ) :   0.9548

Dispersion correction           -0.032799931
FINAL SINGLE POINT ENERGY     -1072.427183925114

DIPOLE MOMENT
-------------
                                X             Y             Z
Electronic contribution:      0.88164      -3.17139     -19.44276
Nuclear contribution   :      0.26049       3.89757      20.56096
                        -----------------------------------------
Total Dipole Moment    :      1.14213       0.72618       1.11821
                        -----------------------------------------
Magnitude (a.u.)       :      1.75562
Magnitude (Debye)      :      4.46243

Rotational constants in cm-1:     0.029090     0.014735     0.011139
Rotational constants in MHz :   872.086433   441.731892   333.928051

                             ****ORCA TERMINATED NORMALLY****
TOTAL RUN TIME: 0 days 0 hours 1 minutes 4 seconds 328 msec
