                         Program Version 5.0.0 -  RELEASE  -
|  1> !wB97X-D3 RIJCOSX def2-TZVPD def2/J TightSCF
|  2> *xyz -1 1
|  3> C         -7.33044       -2.67899       -3.20681
|  4> S         -6.01966       -2.92697       -4.41913
|  5> O         -5.64583       -1.58838       -4.91931
|  6> O         -4.88196       -3.50370       -3.66724
|  7> O         -6.54927       -3.80515       -5.42507
|  8> C         -7.46900       -1.24615       -2.71383
|  9> H         -7.11825       -3.37982       -2.39805
| 10> H         -8.24184       -3.00474       -3.70651
| 11> H         -7.67580       -0.60214       -3.54292
| 12> H         -6.55749       -0.94096       -2.24382
| 13> H         -8.27114       -1.18777       -2.00810
| 14> *
| 15> %MaxCore 64000
| 16>
| 17> %pal nprocs 4
| 18> end
| 19>
| 20> %scf
| 21>   MaxIter 150
| 22> end
| 23>
| 24>
| 25>                          ****END OF INPUT****

CARTESIAN COORDINATES (ANGSTROEM)
---------------------------------
  C     -7.330440   -2.678990   -3.206810
  S     -6.019660   -2.926970   -4.419130
  O     -5.645830   -1.588380   -4.919310
  O     -4.881960   -3.503700   -3.667240
  O     -6.549270   -3.805150   -5.425070
  C     -7.469000   -1.246150   -2.713830
  H     -7.118250   -3.379820   -2.398050
  H     -8.241840   -3.004740   -3.706510
  H     -7.675800   -0.602140   -3.542920
  H     -6.557490   -0.940960   -2.243820
  H     -8.271140   -1.187770   -2.008100

 Total Charge           Charge          ....   -1
 Multiplicity           Mult            ....    1
 Number of Electrons    NEL             ....   58
 Basis Dimension        Dim             ....  285

ORBITAL ENERGIES
----------------

  NO   OCC          E(Eh)            E(eV)
   0   2.0000     -88.934872     -2420.0409
   1   2.0000     -19.012875      -517.3666
   2   2.0000     -19.001961      -517.0697
   3   2.0000     -18.998646      -516.9794
   4   2.0000     -10.139326      -275.9051
   5   2.0000     -10.130363      -275.6612
   6   2.0000      -7.997783      -217.6307
   7   2.0000      -5.951964      -161.9612
   8   2.0000      -5.950812      -161.9298
   9   2.0000      -5.950517      -161.9218
  10   2.0000      -1.035842       -28.1867
  11   2.0000      -0.902885       -24.5688
  12   2.0000      -0.880570       -23.9615
  13   2.0000      -0.752158       -20.4673
  14   2.0000      -0.620910       -16.8958
  15   2.0000      -0.489148       -13.3104
  16   2.0000      -0.423179       -11.5153
  17   2.0000      -0.416633       -11.3372
  18   2.0000      -0.375327       -10.2132
  19   2.0000      -0.357169        -9.7191
  20   2.0000      -0.354015        -9.6332
  21   2.0000      -0.324504        -8.8302
  22   2.0000      -0.315800        -8.5934
  23   2.0000      -0.245851        -6.6899
  24   2.0000      -0.244672        -6.6579
  25   2.0000      -0.207592        -5.6489
  26   2.0000      -0.200420        -5.4537
  27   2.0000      -0.192775        -5.2457
  28   2.0000      -0.155466        -4.2304
  29   0.0000       0.174103         4.7376
  30   0.0000       0.184873         5.0306
  31   0.0000       0.187148         5.0926
  32   0.0000       0.194373         5.2892
  33   0.0000       0.221297         6.0218

MULLIKEN ATOMIC CHARGES
-----------------------
   0 C :   -0.431098
   1 S :    1.175388
   2 O :   -0.725225
   3 O :   -0.731336
   4 O :   -0.698733
   5 C :   -1.033279
   6 H :    0.286214
   7 H :    0.272670
   8 H :    0.282958
   9 H :    0.281110
  10 H :    0.321331
Sum of atomic charges:   -1.0000000

LOEWDIN ATOMIC CHARGES
----------------------
   0 C :   -0.320243
   1 S :    0.370428
   2 O :   -0.413621
   3 O :   -0.426673
   4 O :   -0.391183
   5 C :   -0.153519
   6 H :    0.081748
   7 H :    0.077402
   8 H :    0.058971
   9 H :    0.065915
  10 H :    0.050775

  Mayer bond orders larger than 0.100000
B(  0-C ,  1-S ) :   0.8715 B(  0-C ,  3-O ) :   0.1356 B(  0-C ,  4-O ) :   0.1329
B(  0-C ,  5-C ) :   0.6490 B(  0-C ,  6-H ) :   0.9622 B(  0-C ,  7-H ) :   0.9693
B(  1-S ,  2-O ) :   1.5000 B(  1-S ,  3-O ) :   1.5000 B(  1-S ,  4-O ) :   1.5262
B(  5-C ,  8-H ) :   0.9946 B(  5-C ,  9-H ) :   0.9848 B(  5-C , 10-H ) :   0.9183

Dispersion correction           -0.002806043
FINAL SINGLE POINT ENERGY      -703.219400883845

DIPOLE MOMENT
-------------
                                X             Y             Z
Electronic contribution:      4.65904      -3.50550      -5.08245
Nuclear contribution   :     -6.18165       4.01759       6.33106
                        -----------------------------------------
Total Dipole Moment    :     -1.52261       0.51210       1.24861
                        -----------------------------------------
Magnitude (a.u.)       :      2.03460
Magnitude (Debye)      :      5.17155

Rotational constants in cm-1:     0.161711     0.082788     0.081165
Rotational constants in MHz :  4847.971521  2481.906910  2433.276832

                             ****ORCA TERMINATED NORMALLY****
TOTAL RUN TIME: 0 days 0 hours 1 minutes 1 seconds 236 msec
