                         Program Version 5.0.0 -  RELEASE  -
|  1> !wB97X-D3 RIJCOSX def2-TZVPD def2/J TightSCF
|  2> *xyz 1 1
|  3> C         -2.16038       -1.36949       -3.46710
|  4> N         -3.03011       -1.91086       -4.54107
|  5> C         -2.04772        0.14658       -3.51177
|  6> H         -3.47744       -2.79151       -4.25710
|  7> H         -2.53801       -2.01786       -5.43808
|  8> H         -3.89159       -1.37604       -4.71437
|  9> H         -1.18444       -1.84400       -3.56639
| 10> H         -2.59819       -1.70838       -2.52848
| 11> H         -1.61525        0.44478       -4.44395
| 12> H         -1.42718        0.48198       -2.70720
| 13> H         -3.02145        0.57958       -3.41560
| 14> *
| 15> %MaxCore 64000
| 16>
| 17> %pal nprocs 4
| 18> end
| 19>
| 20> %scf
| 21>   MaxIter 150
| 22> end
| 23>
| 24>
| 25>                          ****END OF INPUT****

CARTESIAN COORDINATES (ANGSTROEM)
---------------------------------
  C     -2.160380   -1.369490   -3.467100
  N     -3.030110   -1.910860   -4.541070
  C     -2.047720    0.146580   -3.511770
  H     -3.477440   -2.791510   -4.257100
  H     -2.538010   -2.017860   -5.438080
  H     -3.891590   -1.376040   -4.714370
  H     -1.184440   -1.844000   -3.566390
  H     -2.598190   -1.708380   -2.528480
  H     -1.615250    0.444780   -4.443950
  H     -1.427180    0.481980   -2.707200
  H     -3.021450    0.579580   -3.415600

 Total Charge           Charge          ....    1
 Multiplicity           Mult            ....    1
 Number of Electrons    NEL             ....   26
 Basis Dimension        Dim             ....  183

ORBITAL ENERGIES
----------------

  NO   OCC          E(Eh)            E(eV)
   0   2.0000     -14.757949      -401.5842
   1   2.0000     -10.529056      -286.5102
   2   2.0000     -10.446427      -284.2617
   3   2.0000      -1.334295       -36.3080
   4   2.0000      -1.083017       -29.4704
   5   2.0000      -0.957560       -26.0565
   6   2.0000      -0.911982       -24.8163
   7   2.0000      -0.871761       -23.7218
   8   2.0000      -0.800205       -21.7747
   9   2.0000      -0.742756       -20.2114
  10   2.0000      -0.678167       -18.4539
  11   2.0000      -0.663025       -18.0418
  12   2.0000      -0.644984       -17.5509
  13   0.0000      -0.122652        -3.3375
  14   0.0000      -0.067803        -1.8450
  15   0.0000      -0.064440        -1.7535
  16   0.0000      -0.057543        -1.5658
  17   0.0000      -0.029001        -0.7892

MULLIKEN ATOMIC CHARGES
-----------------------
   0 C :   -0.349314
   1 N :   -0.338801
   2 C :   -1.134630
   3 H :    0.370019
   4 H :    0.379919
   5 H :    0.360870
   6 H :    0.318948
   7 H :    0.326499
   8 H :    0.362384
   9 H :    0.333158
  10 H :    0.370947
Sum of atomic charges:    1.0000000

LOEWDIN ATOMIC CHARGES
----------------------
   0 C :   -0.198687
   1 N :    0.175222
   2 C :   -0.057718
   3 H :    0.181581
   4 H :    0.187087
   5 H :    0.181357
   6 H :    0.137237
   7 H :    0.134783
   8 H :    0.083689
   9 H :    0.092803
  10 H :    0.082644

  Mayer bond orders larger than 0.100000
B(  0-C ,  1-N ) :   0.9589 B(  0-C ,  2-C ) :   0.7148 B(  0-C ,  6-H ) :   0.9266
B(  0-C ,  7-H ) :   0.8829 B(  1-N ,  3-H ) :   0.8531 B(  1-N ,  4-H ) :   0.8414
B(  1-N ,  5-H ) :   0.8565 B(  2-C ,  8-H ) :   0.9357 B(  2-C ,  9-H ) :   0.9614
B(  2-C , 10-H ) :   0.8984

Dispersion correction           -0.001538115
FINAL SINGLE POINT ENERGY      -135.548151441263

DIPOLE MOMENT
-------------
                                X             Y             Z
Electronic contribution:     -0.64936      -1.49020      -0.77544
Nuclear contribution   :     -0.15215       0.37393      -0.04773
                        -----------------------------------------
Total Dipole Moment    :     -0.80150      -1.11627      -0.82317
                        -----------------------------------------
Magnitude (a.u.)       :      1.60190
Magnitude (Debye)      :      4.07170

Rotational constants in cm-1:     1.020762     0.277172     0.247319
Rotational constants in MHz : 30601.664035  8309.399682  7414.438136

                             ****ORCA TERMINATED NORMALLY****
TOTAL RUN TIME: 0 days 0 hours 0 minutes 25 seconds 366 msec
