                         Program Version 5.0.0 -  RELEASE  -
|  1> !wB97X-D3 RIJCOSX def2-TZVPD def2/J TightSCF
|  2> *xyz 0 1
|  3> C         -7.33044       -2.67899       -3.20681
|  4> S         -6.01966       -2.92697       -4.41913
|  5> F         -5.64583       -1.58838       -4.91931
|  6> O         -4.88196       -3.50370       -3.66724
|  7> O         -6.54927       -3.80515       -5.42507
|  8> C         -7.46900       -1.24615       -2.71383
|  9> H         -7.11825       -3.37982       -2.39805
| 10> H         -8.24184       -3.00474       -3.70651
| 11> H         -7.67580       -0.60214       -3.54292
| 12> H         -6.55749       -0.94096       -2.24382
| 13> H         -8.27114       -1.18777       -2.00810
| 14> *
| 15> %MaxCore 64000
| 16>
| 17> %pal nprocs 4
| 18> end
| 19>
| 20> %scf
| 21>   MaxIter 150
| 22> end
| 23>
| 24>
| 25>                          ****END OF INPUT****

CARTESIAN COORDINATES (ANGSTROEM)
---------------------------------
  C     -7.330440   -2.678990   -3.206810
  S     -6.019660   -2.926970   -4.419130
  F     -5.645830   -1.588380   -4.919310
  O     -4.881960   -3.503700   -3.667240
  O     -6.549270   -3.805150   -5.425070
  C     -7.469000   -1.246150   -2.713830
  H     -7.118250   -3.379820   -2.398050
  H     -8.241840   -3.004740   -3.706510
  H     -7.675800   -0.602140   -3.542920
  H     -6.557490   -0.940960   -2.243820
  H     -8.271140   -1.187770   -2.008100

 Total Charge           Charge          ....    0
 Multiplicity           Mult            ....    1
 Number of Electrons    NEL             ....   58
 Basis Dimension        Dim             ....  285

ORBITAL ENERGIES
----------------

  NO   OCC          E(Eh)            E(eV)
   0   2.0000     -89.195319     -2427.1280
   1   2.0000     -24.891928      -677.3438
   2   2.0000     -19.247576      -523.7532
   3   2.0000     -19.232866      -523.3529
   4   2.0000     -10.340675      -281.3841
   5   2.0000     -10.301540      -280.3192
   6   2.0000      -8.258796      -224.7333
   7   2.0000      -6.216324      -169.1548
   8   2.0000      -6.209740      -168.9756
   9   2.0000      -6.209377      -168.9657
  10   2.0000      -1.473651       -40.1001
  11   2.0000      -1.224478       -33.3198
  12   2.0000      -1.123961       -30.5845
  13   2.0000      -0.947364       -25.7791
  14   2.0000      -0.836446       -22.7608
  15   2.0000      -0.787669       -21.4336
  16   2.0000      -0.692991       -18.8572
  17   2.0000      -0.673723       -18.3329
  18   2.0000      -0.648190       -17.6381
  19   2.0000      -0.602807       -16.4032
  20   2.0000      -0.575488       -15.6598
  21   2.0000      -0.550792       -14.9878
  22   2.0000      -0.543579       -14.7915
  23   2.0000      -0.513623       -13.9764
  24   2.0000      -0.496015       -13.4973
  25   2.0000      -0.484381       -13.1807
  26   2.0000      -0.431569       -11.7436
  27   2.0000      -0.418568       -11.3898
  28   2.0000      -0.406646       -11.0654
  29   0.0000       0.049977         1.3600
  30   0.0000       0.062924         1.7123
  31   0.0000       0.069744         1.8978
  32   0.0000       0.072519         1.9733
  33   0.0000       0.100209         2.7268

MULLIKEN ATOMIC CHARGES
-----------------------
   0 C :   -0.356630
   1 S :    1.209235
   2 F :   -0.169442
   3 O :   -0.610991
   4 O :   -0.581972
   5 C :   -1.153000
   6 H :    0.333375
   7 H :    0.323990
   8 H :    0.344990
   9 H :    0.337207
  10 H :    0.323237
Sum of atomic charges:    0.0000000

LOEWDIN ATOMIC CHARGES
----------------------
   0 C :   -0.268216
   1 S :    0.618290
   2 F :   -0.079753
   3 O :   -0.309441
   4 O :   -0.275511
   5 C :   -0.118067
   6 H :    0.108279
   7 H :    0.099920
   8 H :    0.070897
   9 H :    0.077339
  10 H :    0.076264

  Mayer bond orders larger than 0.100000
B(  0-C ,  1-S ) :   0.8400 B(  0-C ,  3-O ) :   0.1055 B(  0-C ,  4-O ) :   0.1108
B(  0-C ,  5-C ) :   0.6604 B(  0-C ,  6-H ) :   0.9179 B(  0-C ,  7-H ) :   0.9310
B(  1-S ,  2-F ) :   0.9787 B(  1-S ,  3-O ) :   1.6479 B(  1-S ,  4-O ) :   1.6799
B(  5-C ,  8-H ) :   0.9292 B(  5-C ,  9-H ) :   0.9473 B(  5-C , 10-H ) :   0.9402

Dispersion correction           -0.002799584
FINAL SINGLE POINT ENERGY      -727.749404379432

DIPOLE MOMENT
-------------
                                X             Y             Z
Electronic contribution:      5.63938      -1.70272      -6.37933
Nuclear contribution   :     -6.81251       2.87933       7.15058
                        -----------------------------------------
Total Dipole Moment    :     -1.17313       1.17661       0.77125
                        -----------------------------------------
Magnitude (a.u.)       :      1.83179
Magnitude (Debye)      :      4.65605

Rotational constants in cm-1:     0.152543     0.082494     0.078987
Rotational constants in MHz :  4573.135887  2473.116216  2367.980829

                             ****ORCA TERMINATED NORMALLY****
TOTAL RUN TIME: 0 days 0 hours 1 minutes 4 seconds 107 msec
