                         Program Version 5.0.0 -  RELEASE  -
|  1> !wB97X-D3 RIJCOSX def2-TZVPD def2/J TightSCF
|  2> *xyz 0 1
|  3> C         -2.16038       -1.36949       -3.46710
|  4> C         -3.03011       -1.91086       -4.54107
|  5> C         -2.04772        0.14658       -3.51177
|  6> H         -3.47744       -2.79151       -4.25710
|  7> H         -2.53801       -2.01786       -5.43808
|  8> H         -3.89159       -1.37604       -4.71437
|  9> H         -1.18444       -1.84400       -3.56639
| 10> H         -2.59819       -1.70838       -2.52848
| 11> H         -1.61525        0.44478       -4.44395
| 12> H         -1.42718        0.48198       -2.70720
| 13> H         -3.02145        0.57958       -3.41560
| 14> *
| 15> %MaxCore 64000
| 16>
| 17> %pal nprocs 4
| 18> end
| 19>
| 20> %scf
| 21>   MaxIter 150
| 22> end
| 23>
| 24>
| 25>                          ****END OF INPUT****

CARTESIAN COORDINATES (ANGSTROEM)
---------------------------------
  C     -2.160380   -1.369490   -3.467100
  C     -3.030110   -1.910860   -4.541070
  C     -2.047720    0.146580   -3.511770
  H     -3.477440   -2.791510   -4.257100
  H     -2.538010   -2.017860   -5.438080
  H     -3.891590   -1.376040   -4.714370
  H     -1.184440   -1.844000   -3.566390
  H     -2.598190   -1.708380   -2.528480
  H     -1.615250    0.444780   -4.443950
  H     -1.427180    0.481980   -2.707200
  H     -3.021450    0.579580   -3.415600

 Total Charge           Charge          ....    0
 Multiplicity           Mult            ....    1
 Number of Electrons    NEL             ....   26
 Basis Dimension        Dim             ....  183

ORBITAL ENERGIES
----------------

  NO   OCC          E(Eh)            E(eV)
   0   2.0000     -10.260370      -279.1989
   1   2.0000     -10.249984      -278.9162
   2   2.0000     -10.230708      -278.3917
   3   2.0000      -0.907712       -24.7001
   4   2.0000      -0.805512       -21.9191
   5   2.0000      -0.698226       -18.9997
   6   2.0000      -0.571673       -15.5560
   7   2.0000      -0.540029       -14.6949
   8   2.0000      -0.499318       -13.5871
   9   2.0000      -0.490763       -13.3543
  10   2.0000      -0.433298       -11.7906
  11   2.0000      -0.420967       -11.4551
  12   2.0000      -0.419949       -11.4274
  13   0.0000       0.077338         2.1045
  14   0.0000       0.096214         2.6181
  15   0.0000       0.099016         2.6944
  16   0.0000       0.128084         3.4854
  17   0.0000       0.151416         4.1202

MULLIKEN ATOMIC CHARGES
-----------------------
   0 C :    0.025527
   1 C :   -1.418440
   2 C :   -1.138835
   3 H :    0.370821
   4 H :    0.361146
   5 H :    0.381626
   6 H :    0.237269
   7 H :    0.252437
   8 H :    0.312542
   9 H :    0.303922
  10 H :    0.311986
Sum of atomic charges:   -0.0000000

LOEWDIN ATOMIC CHARGES
----------------------
   0 C :   -0.315169
   1 C :   -0.135140
   2 C :   -0.117215
   3 H :    0.051739
   4 H :    0.058215
   5 H :    0.054496
   6 H :    0.104228
   7 H :    0.102666
   8 H :    0.068102
   9 H :    0.061202
  10 H :    0.066875

  Mayer bond orders larger than 0.100000
B(  0-C ,  1-C ) :   0.6128 B(  0-C ,  2-C ) :   0.6194 B(  0-C ,  6-H ) :   0.9749
B(  0-C ,  7-H ) :   0.9709 B(  1-C ,  2-C ) :   0.1968 B(  1-C ,  3-H ) :   0.9223
B(  1-C ,  4-H ) :   0.9201 B(  1-C ,  5-H ) :   0.9172 B(  2-C ,  8-H ) :   0.9643
B(  2-C ,  9-H ) :   0.9726 B(  2-C , 10-H ) :   0.9692

Dispersion correction           -0.001485600
FINAL SINGLE POINT ENERGY      -119.136261848378

DIPOLE MOMENT
-------------
                                X             Y             Z
Electronic contribution:      0.31678      -0.13020       0.27451
Nuclear contribution   :     -0.34625       0.09603      -0.26933
                        -----------------------------------------
Total Dipole Moment    :     -0.02947      -0.03417       0.00517
                        -----------------------------------------
Magnitude (a.u.)       :      0.04542
Magnitude (Debye)      :      0.11544

Rotational constants in cm-1:     1.028617     0.291238     0.258956
Rotational constants in MHz : 30837.159054  8731.095379  7763.318586

                             ****ORCA TERMINATED NORMALLY****
TOTAL RUN TIME: 0 days 0 hours 0 minutes 24 seconds 575 msec
