                         Program Version 5.0.0 -  RELEASE  -
|  1> !wB97X-D3 RIJCOSX def2-TZVPD def2/J TightSCF
|  2> *xyz 0 1
|  3> C         -7.33044       -2.67899       -3.20681
|  4> S         -6.01966       -2.92697       -4.41913
|  5> O         -5.64583       -1.58838       -4.91931
|  6> F         -4.88196       -3.50370       -3.66724
|  7> O         -6.54927       -3.80515       -5.42507
|  8> C         -7.46900       -1.24615       -2.71383
|  9> H         -7.11825       -3.37982       -2.39805
| 10> H         -8.24184       -3.00474       -3.70651
| 11> H         -7.67580       -0.60214       -3.54292
| 12> H         -6.55749       -0.94096       -2.24382
| 13> H         -8.27114       -1.18777       -2.00810
| 14> *
| 15> %MaxCore 64000
| 16>
| 17> %pal nprocs 4
| 18> end
| 19>
| 20> %scf
| 21>   MaxIter 150
| 22> end
| 23>
| 24>
| 25>                          ****END OF INPUT****

CARTESIAN COORDINATES (ANGSTROEM)
---------------------------------
  C     -7.330440   -2.678990   -3.206810
  S     -6.019660   -2.926970   -4.419130
  O     -5.645830   -1.588380   -4.919310
  F     -4.881960   -3.503700   -3.667240
  O     -6.549270   -3.805150   -5.425070
  C     -7.469000   -1.246150   -2.713830
  H     -7.118250   -3.379820   -2.398050
  H     -8.241840   -3.004740   -3.706510
  H     -7.675800   -0.602140   -3.542920
  H     -6.557490   -0.940960   -2.243820
  H     -8.271140   -1.187770   -2.008100

 Total Charge           Charge          ....    0
 Multiplicity           Mult            ....    1
 Number of Electrons    NEL             ....   58
 Basis Dimension        Dim             ....  285

ORBITAL ENERGIES
----------------

  NO   OCC          E(Eh)            E(eV)
   0   2.0000     -89.195394     -2427.1301
   1   2.0000     -24.889091      -677.2666
   2   2.0000     -19.247589      -523.7535
   3   2.0000     -19.236036      -523.4391
   4   2.0000     -10.340962      -281.3919
   5   2.0000     -10.292604      -280.0760
   6   2.0000      -8.258858      -224.7350
   7   2.0000      -6.216310      -169.1544
   8   2.0000      -6.210001      -168.9827
   9   2.0000      -6.209331      -168.9645
  10   2.0000      -1.470052       -40.0022
  11   2.0000      -1.225494       -33.3474
  12   2.0000      -1.127298       -30.6753
  13   2.0000      -0.942857       -25.6564
  14   2.0000      -0.837619       -22.7928
  15   2.0000      -0.780402       -21.2358
  16   2.0000      -0.683407       -18.5964
  17   2.0000      -0.669858       -18.2278
  18   2.0000      -0.656678       -17.8691
  19   2.0000      -0.596936       -16.2435
  20   2.0000      -0.583928       -15.8895
  21   2.0000      -0.555100       -15.1050
  22   2.0000      -0.527955       -14.3664
  23   2.0000      -0.501596       -13.6491
  24   2.0000      -0.496801       -13.5186
  25   2.0000      -0.481620       -13.1055
  26   2.0000      -0.430975       -11.7274
  27   2.0000      -0.424669       -11.5558
  28   2.0000      -0.409535       -11.1440
  29   0.0000       0.051454         1.4001
  30   0.0000       0.063532         1.7288
  31   0.0000       0.067979         1.8498
  32   0.0000       0.072415         1.9705
  33   0.0000       0.097615         2.6562

MULLIKEN ATOMIC CHARGES
-----------------------
   0 C :   -0.442182
   1 S :    1.204130
   2 O :   -0.605924
   3 F :   -0.162735
   4 O :   -0.586346
   5 C :   -1.083268
   6 H :    0.372986
   7 H :    0.326266
   8 H :    0.321544
   9 H :    0.320931
  10 H :    0.334597
Sum of atomic charges:    0.0000000

LOEWDIN ATOMIC CHARGES
----------------------
   0 C :   -0.271622
   1 S :    0.621478
   2 O :   -0.300431
   3 F :   -0.085199
   4 O :   -0.276041
   5 C :   -0.116605
   6 H :    0.098833
   7 H :    0.103384
   8 H :    0.074699
   9 H :    0.076253
  10 H :    0.075252

  Mayer bond orders larger than 0.100000
B(  0-C ,  1-S ) :   0.8543 B(  0-C ,  4-O ) :   0.1194 B(  0-C ,  5-C ) :   0.7035
B(  0-C ,  6-H ) :   0.8573 B(  0-C ,  7-H ) :   0.9309 B(  1-S ,  2-O ) :   1.6427
B(  1-S ,  3-F ) :   0.9753 B(  1-S ,  4-O ) :   1.6742 B(  5-C ,  8-H ) :   0.9754
B(  5-C ,  9-H ) :   0.9422 B(  5-C , 10-H ) :   0.9260

Dispersion correction           -0.002786952
FINAL SINGLE POINT ENERGY      -727.752492460506

DIPOLE MOMENT
-------------
                                X             Y             Z
Electronic contribution:      6.98480      -4.97935      -4.26150
Nuclear contribution   :     -7.60849       4.87515       5.84588
                        -----------------------------------------
Total Dipole Moment    :     -0.62369      -0.10420       1.58438
                        -----------------------------------------
Magnitude (a.u.)       :      1.70590
Magnitude (Debye)      :      4.33606

Rotational constants in cm-1:     0.153704     0.080342     0.079431
Rotational constants in MHz :  4607.928650  2408.599360  2381.267225

                             ****ORCA TERMINATED NORMALLY****
TOTAL RUN TIME: 0 days 0 hours 1 minutes 3 seconds 411 msec
