                         Program Version 5.0.0 -  RELEASE  -
|  1> !wB97X-D3 RIJCOSX def2-TZVPD def2/J TightSCF
|  2> *xyz 0 1
|  3> C         -7.33044       -2.67899       -3.20681
|  4> S         -6.01966       -2.92697       -4.41913
|  5> O         -5.64583       -1.58838       -4.91931
|  6> O         -4.88196       -3.50370       -3.66724
|  7> F         -6.54927       -3.80515       -5.42507
|  8> C         -7.46900       -1.24615       -2.71383
|  9> H         -7.11825       -3.37982       -2.39805
| 10> H         -8.24184       -3.00474       -3.70651
| 11> H         -7.67580       -0.60214       -3.54292
| 12> H         -6.55749       -0.94096       -2.24382
| 13> H         -8.27114       -1.18777       -2.00810
| 14> *
| 15> %MaxCore 64000
| 16>
| 17> %pal nprocs 4
| 18> end
| 19>
| 20> %scf
| 21>   MaxIter 150
| 22> end
| 23>
| 24>
| 25>                          ****END OF INPUT****

CARTESIAN COORDINATES (ANGSTROEM)
---------------------------------
  C     -7.330440   -2.678990   -3.206810
  S     -6.019660   -2.926970   -4.419130
  O     -5.645830   -1.588380   -4.919310
  O     -4.881960   -3.503700   -3.667240
  F     -6.549270   -3.805150   -5.425070
  C     -7.469000   -1.246150   -2.713830
  H     -7.118250   -3.379820   -2.398050
  H     -8.241840   -3.004740   -3.706510
  H     -7.675800   -0.602140   -3.542920
  H     -6.557490   -0.940960   -2.243820
  H     -8.271140   -1.187770   -2.008100

 Total Charge           Charge          ....    0
 Multiplicity           Mult            ....    1
 Number of Electrons    NEL             ....   58
 Basis Dimension        Dim             ....  285

ORBITAL ENERGIES
----------------

  NO   OCC          E(Eh)            E(eV)
   0   2.0000     -89.197833     -2427.1964
   1   2.0000     -24.911811      -677.8849
   2   2.0000     -19.236511      -523.4521
   3   2.0000     -19.233556      -523.3717
   4   2.0000     -10.341715      -281.4124
   5   2.0000     -10.292778      -280.0807
   6   2.0000      -8.261282      -224.8009
   7   2.0000      -6.218615      -169.2171
   8   2.0000      -6.212276      -169.0446
   9   2.0000      -6.211881      -169.0339
  10   2.0000      -1.507160       -41.0119
  11   2.0000      -1.209536       -32.9132
  12   2.0000      -1.110478       -30.2176
  13   2.0000      -0.943123       -25.6637
  14   2.0000      -0.851655       -23.1747
  15   2.0000      -0.788375       -21.4528
  16   2.0000      -0.698964       -19.0198
  17   2.0000      -0.696356       -18.9488
  18   2.0000      -0.661882       -18.0107
  19   2.0000      -0.598640       -16.2898
  20   2.0000      -0.583074       -15.8663
  21   2.0000      -0.543745       -14.7960
  22   2.0000      -0.524719       -14.2783
  23   2.0000      -0.504348       -13.7240
  24   2.0000      -0.487121       -13.2552
  25   2.0000      -0.478113       -13.0101
  26   2.0000      -0.423099       -11.5131
  27   2.0000      -0.416646       -11.3375
  28   2.0000      -0.395885       -10.7726
  29   0.0000       0.048272         1.3135
  30   0.0000       0.061722         1.6795
  31   0.0000       0.067615         1.8399
  32   0.0000       0.073681         2.0050
  33   0.0000       0.097306         2.6478

MULLIKEN ATOMIC CHARGES
-----------------------
   0 C :   -0.440912
   1 S :    1.190084
   2 O :   -0.601890
   3 O :   -0.602455
   4 F :   -0.122914
   5 C :   -1.097508
   6 H :    0.339682
   7 H :    0.354552
   8 H :    0.320198
   9 H :    0.326034
  10 H :    0.335130
Sum of atomic charges:    0.0000000

LOEWDIN ATOMIC CHARGES
----------------------
   0 C :   -0.276505
   1 S :    0.620601
   2 O :   -0.301224
   3 O :   -0.308168
   4 F :   -0.050724
   5 C :   -0.111433
   6 H :    0.102702
   7 H :    0.094128
   8 H :    0.073088
   9 H :    0.081194
  10 H :    0.076341

  Mayer bond orders larger than 0.100000
B(  0-C ,  1-S ) :   0.8574 B(  0-C ,  3-O ) :   0.1115 B(  0-C ,  5-C ) :   0.7314
B(  0-C ,  6-H ) :   0.9280 B(  0-C ,  7-H ) :   0.8642 B(  1-S ,  2-O ) :   1.6518
B(  1-S ,  3-O ) :   1.6516 B(  1-S ,  4-F ) :   1.0166 B(  5-C ,  8-H ) :   0.9577
B(  5-C ,  9-H ) :   0.9558 B(  5-C , 10-H ) :   0.9157

Dispersion correction           -0.002809093
FINAL SINGLE POINT ENERGY      -727.734035437507

DIPOLE MOMENT
-------------
                                X             Y             Z
Electronic contribution:      4.13284      -5.47489      -7.26920
Nuclear contribution   :     -5.87110       5.18927       7.67759
                        -----------------------------------------
Total Dipole Moment    :     -1.73826      -0.28561       0.40840
                        -----------------------------------------
Magnitude (a.u.)       :      1.80829
Magnitude (Debye)      :      4.59630

Rotational constants in cm-1:     0.155988     0.080452     0.078187
Rotational constants in MHz :  4676.405251  2411.902056  2343.983816

                             ****ORCA TERMINATED NORMALLY****
TOTAL RUN TIME: 0 days 0 hours 1 minutes 6 seconds 59 msec
