                         Program Version 5.0.0 -  RELEASE  -
|  1> !TPSS D3BJ RIJCOSX def2-SVPD def2/J TightSCF
|  2> *xyz -1 1
|  3> C          0.13297        2.38587       -4.02462
|  4> C         -1.36646        2.47911       -4.31393
|  5> C         -2.35773        2.30686       -3.13675
|  6> H         -1.63680        1.72709       -5.06399
|  7> H         -1.58235        3.44561       -4.76869
|  8> O         -3.44376        2.84652       -3.25274
|  9> O         -1.97092        1.58304       -2.15123
| 10> H          0.68084        2.52514       -4.93310
| 11> H          0.35823        1.42282       -3.61633
| 12> H          0.40851        3.14443       -3.32208
| 13> *
| 14> %MaxCore 64000
| 15>
| 16> %pal nprocs 4
| 17> end
| 18>
| 19> %scf
| 20>   MaxIter 150
| 21> end
| 22>
| 23>
| 24>                          ****END OF INPUT****

CARTESIAN COORDINATES (ANGSTROEM)
---------------------------------
  C      0.132970    2.385870   -4.024620
  C     -1.366460    2.479110   -4.313930
  C     -2.357730    2.306860   -3.136750
  H     -1.636800    1.727090   -5.063990
  H     -1.582350    3.445610   -4.768690
  O     -3.443760    2.846520   -3.252740
  O     -1.970920    1.583040   -2.151230
  H      0.680840    2.525140   -4.933100
  H      0.358230    1.422820   -3.616330
  H      0.408510    3.144430   -3.322080

 Total Charge           Charge          ....   -1
 Multiplicity           Mult            ....    1
 Number of Electrons    NEL             ....   40
 Basis Dimension        Dim             ....  146

ORBITAL ENERGIES
----------------

  NO   OCC          E(Eh)            E(eV)
   0   2.0000     -18.643642      -507.3193
   1   2.0000     -18.634515      -507.0709
   2   2.0000      -9.876839      -268.7625
   3   2.0000      -9.836941      -267.6768
   4   2.0000      -9.825687      -267.3705
   5   2.0000      -0.747268       -20.3342
   6   2.0000      -0.650944       -17.7131
   7   2.0000      -0.539181       -14.6719
   8   2.0000      -0.416244       -11.3266
   9   2.0000      -0.266636        -7.2555
  10   2.0000      -0.251519        -6.8442
  11   2.0000      -0.213973        -5.8225
  12   2.0000      -0.183864        -5.0032
  13   2.0000      -0.175368        -4.7720
  14   2.0000      -0.164430        -4.4744
  15   2.0000      -0.135839        -3.6964
  16   2.0000      -0.123704        -3.3661
  17   2.0000      -0.014111        -0.3840
  18   2.0000      -0.001157        -0.0315
  19   2.0000       0.013986         0.3806
  20   0.0000       0.145458         3.9581
  21   0.0000       0.181626         4.9423
  22   0.0000       0.194199         5.2844
  23   0.0000       0.199585         5.4310
  24   0.0000       0.226240         6.1563

MULLIKEN ATOMIC CHARGES
-----------------------
   0 C :    0.579650
   1 C :   -0.455739
   2 C :    0.453798
   3 H :   -0.003759
   4 H :   -0.010574
   5 O :   -0.646408
   6 O :   -0.764490
   7 H :   -0.066199
   8 H :   -0.032972
   9 H :   -0.053308
Sum of atomic charges:   -1.0000000

LOEWDIN ATOMIC CHARGES
----------------------
   0 C :    0.097353
   1 C :   -0.033386
   2 C :   -0.303183
   3 H :    0.003815
   4 H :   -0.010505
   5 O :   -0.301035
   6 O :   -0.336840
   7 H :   -0.050568
   8 H :   -0.034982
   9 H :   -0.030669

  Mayer bond orders larger than 0.100000
B(  0-C ,  1-C ) :   1.2764 B(  0-C ,  7-H ) :   0.7897 B(  0-C ,  8-H ) :   0.8369
B(  0-C ,  9-H ) :   0.8493 B(  1-C ,  2-C ) :   1.0566 B(  1-C ,  3-H ) :   0.9297
B(  1-C ,  4-H ) :   0.9506 B(  1-C ,  7-H ) :   0.2252 B(  1-C ,  8-H ) :   0.2120
B(  1-C ,  9-H ) :   0.1875 B(  2-C ,  4-H ) :   0.1603 B(  2-C ,  5-O ) :   1.4931
B(  2-C ,  6-O ) :   1.4125

Dispersion correction           -0.007963612
FINAL SINGLE POINT ENERGY      -267.702102292838

DIPOLE MOMENT
-------------
                                X             Y             Z
Electronic contribution:     -5.30234      -0.37784       3.24338
Nuclear contribution   :      6.75610       0.63068      -4.53972
                        -----------------------------------------
Total Dipole Moment    :      1.45376       0.25284      -1.29635
                        -----------------------------------------
Magnitude (a.u.)       :      1.96414
Magnitude (Debye)      :      4.99245

Rotational constants in cm-1:     0.335096     0.130241     0.099025
Rotational constants in MHz : 10045.924902  3904.536250  2968.708333

                             ****ORCA TERMINATED NORMALLY****
TOTAL RUN TIME: 0 days 0 hours 0 minutes 11 seconds 638 msec
