                         Program Version 5.0.0 -  RELEASE  -
|  1> !TPSS D3BJ RIJCOSX def2-SVPD def2/J TightSCF
|  2> *xyz 1 1
|  3> C          0.64866        1.00359       -3.64560
|  4> N          0.28128        0.67645       -2.24018
|  5> C          0.13297        2.38587       -4.02462
|  6> H          0.39079       -0.31925       -2.02649
|  7> H         -0.69269        0.99010       -2.13812
|  8> H          0.85421        1.21221       -1.57528
|  9> H          0.19099        0.23965       -4.27575
| 10> H          1.73157        0.93173       -3.75075
| 11> H          0.40589        2.60338       -5.03610
| 12> H          0.56342        3.11797       -3.37374
| 13> H         -0.93265        2.40724       -3.93025
| 14> *
| 15> %MaxCore 64000
| 16>
| 17> %pal nprocs 4
| 18> end
| 19>
| 20> %scf
| 21>   MaxIter 150
| 22> end
| 23>
| 24>
| 25>                          ****END OF INPUT****

CARTESIAN COORDINATES (ANGSTROEM)
---------------------------------
  C      0.648660    1.003590   -3.645600
  N      0.281280    0.676450   -2.240180
  C      0.132970    2.385870   -4.024620
  H      0.390790   -0.319250   -2.026490
  H     -0.692690    0.990100   -2.138120
  H      0.854210    1.212210   -1.575280
  H      0.190990    0.239650   -4.275750
  H      1.731570    0.931730   -3.750750
  H      0.405890    2.603380   -5.036100
  H      0.563420    3.117970   -3.373740
  H     -0.932650    2.407240   -3.930250

 Total Charge           Charge          ....    1
 Multiplicity           Mult            ....    1
 Number of Electrons    NEL             ....   26
 Basis Dimension        Dim             ....  124

ORBITAL ENERGIES
----------------

  NO   OCC          E(Eh)            E(eV)
   0   2.0000     -14.453385      -393.2966
   1   2.0000     -10.255995      -279.0798
   2   2.0000     -10.182360      -277.0761
   3   2.0000      -1.148336       -31.2478
   4   2.0000      -0.906683       -24.6721
   5   2.0000      -0.793923       -21.6037
   6   2.0000      -0.757218       -20.6049
   7   2.0000      -0.749816       -20.4035
   8   2.0000      -0.654855       -17.8195
   9   2.0000      -0.604450       -16.4479
  10   2.0000      -0.548486       -14.9251
  11   2.0000      -0.535626       -14.5751
  12   2.0000      -0.519934       -14.1481
  13   0.0000      -0.207070        -5.6347
  14   0.0000      -0.149792        -4.0760
  15   0.0000      -0.147268        -4.0074
  16   0.0000      -0.135493        -3.6870
  17   0.0000      -0.102692        -2.7944

MULLIKEN ATOMIC CHARGES
-----------------------
   0 C :    0.188487
   1 N :   -0.818482
   2 C :    0.522383
   3 H :    0.350011
   4 H :    0.456646
   5 H :    0.395906
   6 H :   -0.041212
   7 H :   -0.073187
   8 H :   -0.016263
   9 H :    0.035995
  10 H :   -0.000285
Sum of atomic charges:    1.0000000

LOEWDIN ATOMIC CHARGES
----------------------
   0 C :    0.060766
   1 N :    0.333729
   2 C :    0.183636
   3 H :    0.105573
   4 H :    0.098442
   5 H :    0.107852
   6 H :    0.050478
   7 H :    0.049884
   8 H :    0.013513
   9 H :   -0.000818
  10 H :   -0.003055

  Mayer bond orders larger than 0.100000
B(  0-C ,  1-N ) :   0.7818 B(  0-C ,  2-C ) :   1.3118 B(  0-C ,  6-H ) :   0.9351
B(  0-C ,  7-H ) :   0.9529 B(  0-C ,  8-H ) :   0.1762 B(  0-C ,  9-H ) :   0.1278
B(  0-C , 10-H ) :   0.1396 B(  1-N ,  3-H ) :   0.7656 B(  1-N ,  4-H ) :   0.6227
B(  1-N ,  5-H ) :   0.7352 B(  2-C ,  8-H ) :   0.8483 B(  2-C ,  9-H ) :   0.8384
B(  2-C , 10-H ) :   0.8570

Dispersion correction           -0.007483701
FINAL SINGLE POINT ENERGY      -135.472509008217

DIPOLE MOMENT
-------------
                                X             Y             Z
Electronic contribution:      0.17140      -1.29686       1.31174
Nuclear contribution   :     -0.22655       0.48066      -0.09136
                        -----------------------------------------
Total Dipole Moment    :     -0.05515      -0.81620       1.22038
                        -----------------------------------------
Magnitude (a.u.)       :      1.46920
Magnitude (Debye)      :      3.73441

Rotational constants in cm-1:     0.998155     0.284845     0.251232
Rotational constants in MHz : 29923.943568  8539.431565  7531.732866

                             ****ORCA TERMINATED NORMALLY****
TOTAL RUN TIME: 0 days 0 hours 0 minutes 8 seconds 745 msec
