                         Program Version 5.0.0 -  RELEASE  -
|  1> !TPSS D3BJ RIJCOSX def2-SVPD def2/J TightSCF xyzfile
|  2>
|  3> *xyzfile 0 1 B.xyz
|  4>
|  5> %MaxCore 64000
|  6>
|  7> %pal nprocs 4
|  8> end
|  9>
| 10> %scf
| 11>   MaxIter 150
| 12> end
| 13>
| 14>
| 15>                          ****END OF INPUT****

CARTESIAN COORDINATES (ANGSTROEM)
---------------------------------
  C      0.648656    1.003595   -3.645601
  N      0.281280    0.676454   -2.240179
  C      0.132968    2.385869   -4.024618
  C     -1.366462    2.479106   -4.313932
  C     -2.357732    2.306858   -3.136753
  H     -1.636802    1.727095   -5.063993
  H     -1.582347    3.445605   -4.768687
  H      0.390790   -0.319253   -2.026495
  H     -0.692686    0.990104   -2.138123
  H      0.854206    1.212214   -1.575279
  O     -3.443763    2.846518   -3.252744
  O     -1.970922    1.583042   -2.151229
  H      0.190993    0.239655   -4.275752
  H      1.731572    0.931729   -3.750751
  H      0.414839    3.102847   -3.245165
  H      0.683167    2.687560   -4.919721

 Total Charge           Charge          ....    0
 Multiplicity           Mult            ....    1
 Number of Electrons    NEL             ....   56
 Basis Dimension        Dim             ....  218

ORBITAL ENERGIES
----------------

  NO   OCC          E(Eh)            E(eV)
   0   2.0000     -18.829321      -512.3719
   1   2.0000     -18.808957      -511.8177
   2   2.0000     -14.227606      -387.1529
   3   2.0000     -10.089739      -274.5558
   4   2.0000     -10.055125      -273.6139
   5   2.0000     -10.030456      -272.9426
   6   2.0000      -9.992009      -271.8964
   7   2.0000      -0.949947       -25.8494
   8   2.0000      -0.922642       -25.1064
   9   2.0000      -0.842633       -22.9292
  10   2.0000      -0.749720       -20.4009
  11   2.0000      -0.659109       -17.9353
  12   2.0000      -0.586108       -15.9488
  13   2.0000      -0.557912       -15.1816
  14   2.0000      -0.549757       -14.9597
  15   2.0000      -0.481808       -13.1107
  16   2.0000      -0.438697       -11.9376
  17   2.0000      -0.434986       -11.8366
  18   2.0000      -0.398777       -10.8513
  19   2.0000      -0.379585       -10.3290
  20   2.0000      -0.349774        -9.5178
  21   2.0000      -0.345207        -9.3936
  22   2.0000      -0.337736        -9.1903
  23   2.0000      -0.314747        -8.5647
  24   2.0000      -0.298104        -8.1118
  25   2.0000      -0.198385        -5.3983
  26   2.0000      -0.192329        -5.2335
  27   2.0000      -0.161284        -4.3888
  28   0.0000      -0.043825        -1.1925
  29   0.0000      -0.002712        -0.0738
  30   0.0000       0.001117         0.0304
  31   0.0000       0.025649         0.6980
  32   0.0000       0.036291         0.9875

MULLIKEN ATOMIC CHARGES
-----------------------
   0 C :    0.644312
   1 N :   -0.376691
   2 C :    0.026505
   3 C :   -0.020446
   4 C :    0.488795
   5 H :    0.129609
   6 H :    0.030275
   7 H :    0.283604
   8 H :   -0.117495
   9 H :    0.411580
  10 O :   -0.582446
  11 O :   -0.669557
  12 H :    0.001910
  13 H :   -0.189636
  14 H :   -0.038606
  15 H :   -0.021713
Sum of atomic charges:    0.0000000

LOEWDIN ATOMIC CHARGES
----------------------
   0 C :    0.091838
   1 N :    0.318386
   2 C :   -0.011085
   3 C :    0.047658
   4 C :   -0.202065
   5 H :    0.026729
   6 H :    0.018956
   7 H :    0.083027
   8 H :   -0.154175
   9 H :    0.089507
  10 O :   -0.200910
  11 O :   -0.221163
  12 H :    0.039373
  13 H :    0.024037
  14 H :    0.028744
  15 H :    0.021143

  Mayer bond orders larger than 0.100000
B(  0-C ,  1-N ) :   0.8187 B(  0-C ,  2-C ) :   1.1672 B(  0-C , 12-H ) :   0.8654
B(  0-C , 13-H ) :   0.8666 B(  1-N ,  7-H ) :   0.8359 B(  1-N ,  8-H ) :   1.1745
B(  1-N ,  9-H ) :   0.7618 B(  1-N , 13-H ) :   0.1528 B(  2-C ,  3-C ) :   1.1936
B(  2-C ,  5-H ) :   0.1087 B(  2-C ,  6-H ) :   0.1256 B(  2-C , 13-H ) :   0.1225
B(  2-C , 14-H ) :   0.9166 B(  2-C , 15-H ) :   0.8478 B(  3-C ,  4-C ) :   1.0385
B(  3-C ,  5-H ) :   0.8088 B(  3-C ,  6-H ) :   0.9191 B(  3-C , 10-O ) :   0.1020
B(  3-C , 14-H ) :   0.1037 B(  3-C , 15-H ) :   0.1061 B(  4-C ,  6-H ) :   0.1330
B(  4-C , 10-O ) :   1.5164 B(  4-C , 11-O ) :   1.2303 B(  8-H , 11-O ) :   0.3403
B( 10-O , 11-O ) :   0.1426

Dispersion correction           -0.016934180
FINAL SINGLE POINT ENERGY      -362.865426603512

DIPOLE MOMENT
-------------
                                X             Y             Z
Electronic contribution:     -5.88488       0.95119       2.55935
Nuclear contribution   :      9.92875      -2.62114      -2.63866
                        -----------------------------------------
Total Dipole Moment    :      4.04387      -1.66995      -0.07930
                        -----------------------------------------
Magnitude (a.u.)       :      4.37583
Magnitude (Debye)      :     11.12248

Rotational constants in cm-1:     0.159108     0.062474     0.047603
Rotational constants in MHz :  4769.938632  1872.932224  1427.103830

                             ****ORCA TERMINATED NORMALLY****
TOTAL RUN TIME: 0 days 0 hours 0 minutes 21 seconds 314 msec
