                         Program Version 5.0.0 -  RELEASE  -
|  1> !TPSS D3BJ RIJCOSX def2-SVPD def2/J TightSCF
|  2> *xyz 0 1
|  3> C          0.13297        2.38587       -4.02462
|  4> C         -1.36646        2.47911       -4.31393
|  5> C         -2.35773        2.30686       -3.13675
|  6> H         -1.63680        1.72709       -5.06399
|  7> H         -1.58235        3.44561       -4.76869
|  8> F         -3.44376        2.84652       -3.25274
|  9> O         -1.97092        1.58304       -2.15123
| 10> H          0.68084        2.52514       -4.93310
| 11> H          0.35823        1.42282       -3.61633
| 12> H          0.40851        3.14443       -3.32208
| 13> *
| 14> %MaxCore 64000
| 15>
| 16> %pal nprocs 4
| 17> end
| 18>
| 19> %scf
| 20>   MaxIter 150
| 21> end
| 22>
| 23>
| 24>                          ****END OF INPUT****

CARTESIAN COORDINATES (ANGSTROEM)
---------------------------------
  C      0.132970    2.385870   -4.024620
  C     -1.366460    2.479110   -4.313930
  C     -2.357730    2.306860   -3.136750
  H     -1.636800    1.727090   -5.063990
  H     -1.582350    3.445610   -4.768690
  F     -3.443760    2.846520   -3.252740
  O     -1.970920    1.583040   -2.151230
  H      0.680840    2.525140   -4.933100
  H      0.358230    1.422820   -3.616330
  H      0.408510    3.144430   -3.322080

 Total Charge           Charge          ....    0
 Multiplicity           Mult            ....    1
 Number of Electrons    NEL             ....   40
 Basis Dimension        Dim             ....  146

ORBITAL ENERGIES
----------------

  NO   OCC          E(Eh)            E(eV)
   0   2.0000     -24.511066      -666.9800
   1   2.0000     -18.903113      -514.3799
   2   2.0000     -10.174851      -276.8718
   3   2.0000     -10.034931      -273.0644
   4   2.0000     -10.004762      -272.2434
   5   2.0000      -1.254513       -34.1370
   6   2.0000      -0.938825       -25.5467
   7   2.0000      -0.733787       -19.9674
   8   2.0000      -0.638856       -17.3841
   9   2.0000      -0.590598       -16.0710
  10   2.0000      -0.512010       -13.9325
  11   2.0000      -0.493652       -13.4330
  12   2.0000      -0.455957       -12.4072
  13   2.0000      -0.426175       -11.5968
  14   2.0000      -0.387442       -10.5428
  15   2.0000      -0.353898        -9.6301
  16   2.0000      -0.338300        -9.2056
  17   2.0000      -0.332707        -9.0534
  18   2.0000      -0.307566        -8.3693
  19   2.0000      -0.243702        -6.6315
  20   0.0000      -0.064492        -1.7549
  21   0.0000       0.002812         0.0765
  22   0.0000       0.032382         0.8811
  23   0.0000       0.048678         1.3246
  24   0.0000       0.060645         1.6502

MULLIKEN ATOMIC CHARGES
-----------------------
   0 C :    0.591915
   1 C :   -0.508320
   2 C :    0.788770
   3 H :    0.066862
   4 H :    0.035458
   5 F :   -0.331855
   6 O :   -0.558006
   7 H :   -0.036321
   8 H :   -0.018949
   9 H :   -0.029555
Sum of atomic charges:    0.0000000

LOEWDIN ATOMIC CHARGES
----------------------
   0 C :    0.146589
   1 C :    0.007515
   2 C :   -0.013830
   3 H :    0.035121
   4 H :    0.015524
   5 F :   -0.003348
   6 O :   -0.144217
   7 H :   -0.017044
   8 H :   -0.014334
   9 H :   -0.011976

  Mayer bond orders larger than 0.100000
B(  0-C ,  1-C ) :   1.3597 B(  0-C ,  7-H ) :   0.7875 B(  0-C ,  8-H ) :   0.8285
B(  0-C ,  9-H ) :   0.8453 B(  1-C ,  2-C ) :   1.0848 B(  1-C ,  3-H ) :   0.8940
B(  1-C ,  4-H ) :   0.9208 B(  1-C ,  5-F ) :   0.1069 B(  1-C ,  7-H ) :   0.2087
B(  1-C ,  8-H ) :   0.1968 B(  1-C ,  9-H ) :   0.1814 B(  2-C ,  4-H ) :   0.1029
B(  2-C ,  5-F ) :   0.7661 B(  2-C ,  6-O ) :   1.7337

Dispersion correction           -0.007564272
FINAL SINGLE POINT ENERGY      -292.227367977441

DIPOLE MOMENT
-------------
                                X             Y             Z
Electronic contribution:     -8.38457       0.46359       3.60283
Nuclear contribution   :      8.54799       0.05434      -4.66633
                        -----------------------------------------
Total Dipole Moment    :      0.16342       0.51793      -1.06350
                        -----------------------------------------
Magnitude (a.u.)       :      1.19414
Magnitude (Debye)      :      3.03528

Rotational constants in cm-1:     0.325803     0.123345     0.094275
Rotational constants in MHz :  9767.324172  3697.779805  2826.305733

                             ****ORCA TERMINATED NORMALLY****
TOTAL RUN TIME: 0 days 0 hours 0 minutes 10 seconds 928 msec
