                         Program Version 5.0.0 -  RELEASE  -
|  1> !TPSS D3BJ RIJCOSX def2-SVPD def2/J TightSCF
|  2> *xyz 0 1
|  3> C          0.64866        1.00359       -3.64560
|  4> C          0.28128        0.67645       -2.24018
|  5> C          0.13297        2.38587       -4.02462
|  6> H          0.39079       -0.31925       -2.02649
|  7> H         -0.69269        0.99010       -2.13812
|  8> H          0.85421        1.21221       -1.57528
|  9> H          0.19099        0.23965       -4.27575
| 10> H          1.73157        0.93173       -3.75075
| 11> H          0.40589        2.60338       -5.03610
| 12> H          0.56342        3.11797       -3.37374
| 13> H         -0.93265        2.40724       -3.93025
| 14> *
| 15> %MaxCore 64000
| 16>
| 17> %pal nprocs 4
| 18> end
| 19>
| 20> %scf
| 21>   MaxIter 150
| 22> end
| 23>
| 24>
| 25>                          ****END OF INPUT****

CARTESIAN COORDINATES (ANGSTROEM)
---------------------------------
  C      0.648660    1.003590   -3.645600
  C      0.281280    0.676450   -2.240180
  C      0.132970    2.385870   -4.024620
  H      0.390790   -0.319250   -2.026490
  H     -0.692690    0.990100   -2.138120
  H      0.854210    1.212210   -1.575280
  H      0.190990    0.239650   -4.275750
  H      1.731570    0.931730   -3.750750
  H      0.405890    2.603380   -5.036100
  H      0.563420    3.117970   -3.373740
  H     -0.932650    2.407240   -3.930250

 Total Charge           Charge          ....    0
 Multiplicity           Mult            ....    1
 Number of Electrons    NEL             ....   26
 Basis Dimension        Dim             ....  124

ORBITAL ENERGIES
----------------

  NO   OCC          E(Eh)            E(eV)
   0   2.0000      -9.987615      -271.7768
   1   2.0000      -9.982174      -271.6288
   2   2.0000      -9.964060      -271.1359
   3   2.0000      -0.728985       -19.8367
   4   2.0000      -0.630723       -17.1629
   5   2.0000      -0.533511       -14.5176
   6   2.0000      -0.426359       -11.6018
   7   2.0000      -0.408371       -11.1123
   8   2.0000      -0.363807        -9.8997
   9   2.0000      -0.349381        -9.5071
  10   2.0000      -0.301698        -8.2096
  11   2.0000      -0.298135        -8.1127
  12   2.0000      -0.293329        -7.9819
  13   0.0000       0.017612         0.4792
  14   0.0000       0.046839         1.2745
  15   0.0000       0.052864         1.4385
  16   0.0000       0.072172         1.9639
  17   0.0000       0.092644         2.5210

MULLIKEN ATOMIC CHARGES
-----------------------
   0 C :   -0.623108
   1 C :    0.891166
   2 C :    0.533267
   3 H :   -0.221358
   4 H :   -0.152318
   5 H :   -0.143010
   6 H :   -0.052147
   7 H :   -0.103330
   8 H :   -0.092704
   9 H :   -0.020993
  10 H :   -0.015464
Sum of atomic charges:   -0.0000000

LOEWDIN ATOMIC CHARGES
----------------------
   0 C :   -0.112175
   1 C :    0.124611
   2 C :    0.124489
   3 H :   -0.036459
   4 H :   -0.037328
   5 H :   -0.031857
   6 H :    0.017237
   7 H :    0.015810
   8 H :   -0.025679
   9 H :   -0.017920
  10 H :   -0.020728

  Mayer bond orders larger than 0.100000
B(  0-C ,  1-C ) :   1.2624 B(  0-C ,  2-C ) :   1.2596 B(  0-C ,  3-H ) :   0.1947
B(  0-C ,  4-H ) :   0.2413 B(  0-C ,  5-H ) :   0.2206 B(  0-C ,  6-H ) :   0.9447
B(  0-C ,  7-H ) :   0.9879 B(  0-C ,  8-H ) :   0.1739 B(  0-C ,  9-H ) :   0.1668
B(  0-C , 10-H ) :   0.1524 B(  1-C ,  3-H ) :   0.7623 B(  1-C ,  4-H ) :   0.7557
B(  1-C ,  5-H ) :   0.7290 B(  2-C ,  8-H ) :   0.8611 B(  2-C ,  9-H ) :   0.8461
B(  2-C , 10-H ) :   0.8548 B(  4-H ,  5-H ) :   0.1152

Dispersion correction           -0.007507658
FINAL SINGLE POINT ENERGY      -119.072911235321

DIPOLE MOMENT
-------------
                                X             Y             Z
Electronic contribution:      0.25952      -0.28118      -0.24383
Nuclear contribution   :     -0.24754       0.26111       0.24628
                        -----------------------------------------
Total Dipole Moment    :      0.01198      -0.02007       0.00245
                        -----------------------------------------
Magnitude (a.u.)       :      0.02350
Magnitude (Debye)      :      0.05973

Rotational constants in cm-1:     1.006509     0.299509     0.263145
Rotational constants in MHz : 30174.379724  8979.049324  7888.875355

                             ****ORCA TERMINATED NORMALLY****
TOTAL RUN TIME: 0 days 0 hours 0 minutes 9 seconds 366 msec
