                         Program Version 5.0.0 -  RELEASE  -
|  1> !TPSS D3BJ RIJCOSX def2-SVPD def2/J TightSCF
|  2> *xyz 0 1
|  3> C          0.13297        2.38587       -4.02462
|  4> C         -1.36646        2.47911       -4.31393
|  5> C         -2.35773        2.30686       -3.13675
|  6> H         -1.63680        1.72709       -5.06399
|  7> H         -1.58235        3.44561       -4.76869
|  8> O         -3.44376        2.84652       -3.25274
|  9> F         -1.97092        1.58304       -2.15123
| 10> H          0.68084        2.52514       -4.93310
| 11> H          0.35823        1.42282       -3.61633
| 12> H          0.40851        3.14443       -3.32208
| 13> *
| 14> %MaxCore 64000
| 15>
| 16> %pal nprocs 4
| 17> end
| 18>
| 19> %scf
| 20>   MaxIter 150
| 21> end
| 22>
| 23>
| 24>                          ****END OF INPUT****

CARTESIAN COORDINATES (ANGSTROEM)
---------------------------------
  C      0.132970    2.385870   -4.024620
  C     -1.366460    2.479110   -4.313930
  C     -2.357730    2.306860   -3.136750
  H     -1.636800    1.727090   -5.063990
  H     -1.582350    3.445610   -4.768690
  O     -3.443760    2.846520   -3.252740
  F     -1.970920    1.583040   -2.151230
  H      0.680840    2.525140   -4.933100
  H      0.358230    1.422820   -3.616330
  H      0.408510    3.144430   -3.322080

 Total Charge           Charge          ....    0
 Multiplicity           Mult            ....    1
 Number of Electrons    NEL             ....   40
 Basis Dimension        Dim             ....  146

ORBITAL ENERGIES
----------------

  NO   OCC          E(Eh)            E(eV)
   0   2.0000     -24.488288      -666.3602
   1   2.0000     -18.911938      -514.6200
   2   2.0000     -10.169831      -276.7352
   3   2.0000     -10.033559      -273.0270
   4   2.0000     -10.009333      -272.3678
   5   2.0000      -1.207245       -32.8508
   6   2.0000      -0.977534       -26.6000
   7   2.0000      -0.736133       -20.0312
   8   2.0000      -0.622916       -16.9504
   9   2.0000      -0.581539       -15.8245
  10   2.0000      -0.488730       -13.2990
  11   2.0000      -0.482990       -13.1428
  12   2.0000      -0.444333       -12.0909
  13   2.0000      -0.424896       -11.5620
  14   2.0000      -0.391254       -10.6466
  15   2.0000      -0.363129        -9.8812
  16   2.0000      -0.351624        -9.5682
  17   2.0000      -0.337839        -9.1931
  18   2.0000      -0.320464        -8.7203
  19   2.0000      -0.255734        -6.9589
  20   0.0000      -0.059460        -1.6180
  21   0.0000      -0.000592        -0.0161
  22   0.0000       0.037794         1.0284
  23   0.0000       0.045001         1.2245
  24   0.0000       0.061438         1.6718

MULLIKEN ATOMIC CHARGES
-----------------------
   0 C :    0.611675
   1 C :   -0.510077
   2 C :    0.784482
   3 H :    0.067305
   4 H :    0.028502
   5 O :   -0.470609
   6 F :   -0.417097
   7 H :   -0.037552
   8 H :   -0.027570
   9 H :   -0.029059
Sum of atomic charges:    0.0000000

LOEWDIN ATOMIC CHARGES
----------------------
   0 C :    0.135329
   1 C :    0.018516
   2 C :   -0.009417
   3 H :    0.036447
   4 H :    0.026620
   5 O :   -0.110721
   6 F :   -0.044297
   7 H :   -0.017515
   8 H :   -0.019598
   9 H :   -0.015363

  Mayer bond orders larger than 0.100000
B(  0-C ,  1-C ) :   1.3267 B(  0-C ,  7-H ) :   0.7846 B(  0-C ,  8-H ) :   0.8324
B(  0-C ,  9-H ) :   0.8468 B(  1-C ,  2-C ) :   1.0507 B(  1-C ,  3-H ) :   0.8951
B(  1-C ,  4-H ) :   0.9533 B(  1-C ,  7-H ) :   0.2195 B(  1-C ,  8-H ) :   0.1833
B(  1-C ,  9-H ) :   0.1724 B(  2-C ,  4-H ) :   0.1151 B(  2-C ,  5-O ) :   1.7819
B(  2-C ,  6-F ) :   0.6987 B(  5-O ,  6-F ) :   0.1054

Dispersion correction           -0.007502915
FINAL SINGLE POINT ENERGY      -292.244107228634

DIPOLE MOMENT
-------------
                                X             Y             Z
Electronic contribution:     -5.92635      -1.62423       5.40759
Nuclear contribution   :      6.94213       1.43193      -5.86732
                        -----------------------------------------
Total Dipole Moment    :      1.01578      -0.19230      -0.45973
                        -----------------------------------------
Magnitude (a.u.)       :      1.13143
Magnitude (Debye)      :      2.87588

Rotational constants in cm-1:     0.306336     0.129048     0.095707
Rotational constants in MHz :  9183.725605  3868.769583  2869.236577

                             ****ORCA TERMINATED NORMALLY****
TOTAL RUN TIME: 0 days 0 hours 0 minutes 11 seconds 380 msec
