                         Program Version 5.0.0 -  RELEASE  -
|  1> !TPSS D3BJ RIJCOSX def2-SVPD def2/J TightSCF xyzfile
|  2>
|  3> *xyzfile 0 1 D2.xyz
|  4>
|  5> %MaxCore 64000
|  6>
|  7> %pal nprocs 4
|  8> end
|  9>
| 10> %scf
| 11>   MaxIter 150
| 12> end
| 13>
| 14>
| 15>                          ****END OF INPUT****

CARTESIAN COORDINATES (ANGSTROEM)
---------------------------------
  C      0.648656    1.003595   -3.645601
  C      0.281280    0.676454   -2.240179
  C      0.132968    2.385869   -4.024618
  C     -1.366462    2.479106   -4.313932
  C     -2.357732    2.306858   -3.136753
  H     -1.636802    1.727095   -5.063993
  H     -1.582347    3.445605   -4.768687
  H      0.390790   -0.319253   -2.026495
  H     -0.692686    0.990104   -2.138123
  H      0.854206    1.212214   -1.575279
  O     -3.443763    2.846518   -3.252744
  F     -1.970922    1.583042   -2.151229
  H      0.190993    0.239655   -4.275752
  H      1.731572    0.931729   -3.750751
  H      0.414839    3.102847   -3.245165
  H      0.683167    2.687560   -4.919721

 Total Charge           Charge          ....    0
 Multiplicity           Mult            ....    1
 Number of Electrons    NEL             ....   56
 Basis Dimension        Dim             ....  218

ORBITAL ENERGIES
----------------

  NO   OCC          E(Eh)            E(eV)
   0   2.0000     -24.499031      -666.6525
   1   2.0000     -18.919376      -514.8224
   2   2.0000     -10.177378      -276.9405
   3   2.0000     -10.036186      -273.0985
   4   2.0000     -10.013140      -272.4714
   5   2.0000      -9.994870      -271.9742
   6   2.0000      -9.944848      -270.6131
   7   2.0000      -1.228272       -33.4230
   8   2.0000      -0.985022       -26.8038
   9   2.0000      -0.759115       -20.6566
  10   2.0000      -0.701988       -19.1021
  11   2.0000      -0.621491       -16.9116
  12   2.0000      -0.618249       -16.8234
  13   2.0000      -0.533611       -14.5203
  14   2.0000      -0.508268       -13.8307
  15   2.0000      -0.497757       -13.5447
  16   2.0000      -0.457772       -12.4566
  17   2.0000      -0.426980       -11.6187
  18   2.0000      -0.409666       -11.1476
  19   2.0000      -0.408096       -11.1049
  20   2.0000      -0.380963       -10.3665
  21   2.0000      -0.353354        -9.6152
  22   2.0000      -0.344711        -9.3801
  23   2.0000      -0.330164        -8.9842
  24   2.0000      -0.301709        -8.2099
  25   2.0000      -0.296743        -8.0748
  26   2.0000      -0.285834        -7.7779
  27   2.0000      -0.253109        -6.8874
  28   0.0000      -0.067303        -1.8314
  29   0.0000       0.002578         0.0701
  30   0.0000       0.027770         0.7557
  31   0.0000       0.034159         0.9295
  32   0.0000       0.035848         0.9755

MULLIKEN ATOMIC CHARGES
-----------------------
   0 C :   -0.277379
   1 C :    2.076634
   2 C :    0.087845
   3 C :   -0.079001
   4 C :    0.746405
   5 H :    0.200607
   6 H :    0.038877
   7 H :   -0.055084
   8 H :   -1.453518
   9 H :    0.004600
  10 O :   -0.469606
  11 F :   -0.565078
  12 H :    0.012961
  13 H :   -0.184644
  14 H :   -0.003245
  15 H :   -0.080375
Sum of atomic charges:    0.0000000

LOEWDIN ATOMIC CHARGES
----------------------
   0 C :   -0.050160
   1 C :    0.152705
   2 C :   -0.024908
   3 C :    0.076208
   4 C :    0.030242
   5 H :    0.041508
   6 H :    0.029577
   7 H :   -0.028432
   8 H :   -0.149971
   9 H :   -0.022665
  10 O :   -0.095575
  11 F :   -0.041319
  12 H :    0.020680
  13 H :    0.016276
  14 H :    0.028854
  15 H :    0.016981

  Mayer bond orders larger than 0.100000
B(  0-C ,  1-C ) :   0.9360 B(  0-C ,  2-C ) :   1.1748 B(  0-C ,  7-H ) :   0.2061
B(  0-C ,  8-H ) :   0.5863 B(  0-C ,  9-H ) :   0.2451 B(  0-C , 12-H ) :   0.8676
B(  0-C , 13-H ) :   0.9588 B(  0-C , 14-H ) :   0.1056 B(  0-C , 15-H ) :   0.1042
B(  1-C ,  7-H ) :   0.5328 B(  1-C ,  8-H ) :  -1.4237 B(  1-C ,  9-H ) :   0.3264
B(  1-C , 11-F ) :  -0.2093 B(  1-C , 12-H ) :   0.1143 B(  2-C ,  3-C ) :   1.2096
B(  2-C ,  5-H ) :   0.1213 B(  2-C ,  6-H ) :   0.1342 B(  2-C , 13-H ) :   0.1108
B(  2-C , 14-H ) :   0.8793 B(  2-C , 15-H ) :   0.8793 B(  3-C ,  4-C ) :   1.0689
B(  3-C ,  5-H ) :   0.7740 B(  3-C ,  6-H ) :   0.9024 B(  3-C , 14-H ) :   0.1133
B(  3-C , 15-H ) :   0.1043 B(  4-C ,  6-H ) :   0.1220 B(  4-C , 10-O ) :   1.7517
B(  4-C , 11-F ) :   0.6324 B(  7-H ,  8-H ) :   0.2109 B(  7-H ,  9-H ) :  -0.1059
B(  8-H ,  9-H ) :   0.4696 B(  8-H , 11-F ) :   0.3112 B(  8-H , 13-H ) :   0.1221
B( 10-O , 11-F ) :   0.1301

Dispersion correction           -0.016298124
FINAL SINGLE POINT ENERGY      -370.782311340707

DIPOLE MOMENT
-------------
                                X             Y             Z
Electronic contribution:    -10.30549       2.33831       3.31935
Nuclear contribution   :     11.08738      -2.45618      -3.73478
                        -----------------------------------------
Total Dipole Moment    :      0.78189      -0.11788      -0.41544
                        -----------------------------------------
Magnitude (a.u.)       :      0.89322
Magnitude (Debye)      :      2.27038

Rotational constants in cm-1:     0.156244     0.063730     0.048063
Rotational constants in MHz :  4684.071402  1910.571278  1440.877811

                             ****ORCA TERMINATED NORMALLY****
TOTAL RUN TIME: 0 days 0 hours 0 minutes 18 seconds 573 msec
