                         Program Version 5.0.0 -  RELEASE  -
|  1> !LC-BLYP RIJCOSX def2-SVPD def2/J TightSCF
|  2> *xyz -1 1
|  3> C         -0.60249       -0.63071        0.49224
|  4> O         -1.71206       -1.37684        0.20253
|  5> H          0.27695       -1.19720        0.26733
|  6> H         -0.60598       -0.37494        1.53122
|  7> H         -0.61066        0.26355       -0.09525
|  8> *
|  9> %MaxCore 64000
| 10>
| 11> %pal nprocs 4
| 12> end
| 13> %scf
| 14>   MaxIter 150
| 15> end
| 16>
| 17>                          ****END OF INPUT****

CARTESIAN COORDINATES (ANGSTROEM)
---------------------------------
  C     -0.602490   -0.630710    0.492240
  O     -1.712060   -1.376840    0.202530
  H      0.276950   -1.197200    0.267330
  H     -0.605980   -0.374940    1.531220
  H     -0.610660    0.263550   -0.095250

 Total Charge           Charge          ....   -1
 Multiplicity           Mult            ....    1
 Number of Electrons    NEL             ....   18
 Basis Dimension        Dim             ....   67

ORBITAL ENERGIES
----------------

  NO   OCC          E(Eh)            E(eV)
   0   2.0000     -18.602405      -506.1972
   1   2.0000      -9.872397      -268.6416
   2   2.0000      -0.746595       -20.3159
   3   2.0000      -0.496760       -13.5175
   4   2.0000      -0.302344        -8.2272
   5   2.0000      -0.302340        -8.2271
   6   2.0000      -0.199613        -5.4317
   7   2.0000      -0.046969        -1.2781
   8   2.0000      -0.046968        -1.2781
   9   0.0000       0.247647         6.7388
  10   0.0000       0.324264         8.8237
  11   0.0000       0.324267         8.8237
  12   0.0000       0.333008         9.0616
  13   0.0000       0.368078        10.0159

MULLIKEN ATOMIC CHARGES
-----------------------
   0 C :    0.920779
   1 O :   -0.965990
   2 H :   -0.318228
   3 H :   -0.318259
   4 H :   -0.318302
Sum of atomic charges:   -1.0000000

LOEWDIN ATOMIC CHARGES
----------------------
   0 C :   -0.139853
   1 O :   -0.643496
   2 H :   -0.072214
   3 H :   -0.072218
   4 H :   -0.072219

  Mayer bond orders larger than 0.100000
B(  0-C ,  1-O ) :   1.2775 B(  0-C ,  2-H ) :   0.8732 B(  0-C ,  3-H ) :   0.8732
B(  0-C ,  4-H ) :   0.8731

FINAL SINGLE POINT ENERGY      -114.757857533749

DIPOLE MOMENT
-------------
                                X             Y             Z
Electronic contribution:     -1.42423      -0.95767      -0.37187
Nuclear contribution   :      2.33640       1.57111       0.61004
                        -----------------------------------------
Total Dipole Moment    :      0.91217       0.61344       0.23817
                        -----------------------------------------
Magnitude (a.u.)       :      1.12476
Magnitude (Debye)      :      2.85891

Rotational constants in cm-1:     5.477665     0.940945     0.940944
Rotational constants in MHz : 164216.266994 28208.811441 28208.799857

                             ****ORCA TERMINATED NORMALLY****
TOTAL RUN TIME: 0 days 0 hours 0 minutes 3 seconds 761 msec
