                         Program Version 5.0.0 -  RELEASE  -
|  1> !LC-BLYP RIJCOSX def2-SVPD def2/J TightSCF
|  2> *xyz 1 1
|  3> C         -2.12050        0.88520        1.78951
|  4> N         -3.17690       -0.15948        1.61070
|  5> H         -4.06474        0.23127        1.28675
|  6> H         -3.34407       -0.67151        2.48493
|  7> H         -2.71686       -0.78189        0.93588
|  8> H         -1.96853        1.40078        0.86432
|  9> H         -1.20609        0.41954        2.09270
| 10> H         -2.43151        1.58226        2.53937
| 11> *
| 12> %MaxCore 64000
| 13>
| 14> %pal nprocs 4
| 15> end
| 16>
| 17> %scf
| 18>   MaxIter 150
| 19> end
| 20>
| 21>
| 22>                          ****END OF INPUT****

CARTESIAN COORDINATES (ANGSTROEM)
---------------------------------
  C     -2.120500    0.885200    1.789510
  N     -3.176900   -0.159480    1.610700
  H     -4.064740    0.231270    1.286750
  H     -3.344070   -0.671510    2.484930
  H     -2.716860   -0.781890    0.935880
  H     -1.968530    1.400780    0.864320
  H     -1.206090    0.419540    2.092700
  H     -2.431510    1.582260    2.539370

 Total Charge           Charge          ....    1
 Multiplicity           Mult            ....    1
 Number of Electrons    NEL             ....   18
 Basis Dimension        Dim             ....   88

ORBITAL ENERGIES
----------------

  NO   OCC          E(Eh)            E(eV)
   0   2.0000     -14.534929      -395.5155
   1   2.0000     -10.344107      -281.4775
   2   2.0000      -1.319531       -35.9063
   3   2.0000      -1.039245       -28.2793
   4   2.0000      -0.924865       -25.1669
   5   2.0000      -0.912896       -24.8412
   6   2.0000      -0.812368       -22.1056
   7   2.0000      -0.729822       -19.8595
   8   2.0000      -0.726468       -19.7682
   9   0.0000      -0.142952        -3.8899
  10   0.0000      -0.076799        -2.0898
  11   0.0000      -0.067691        -1.8420
  12   0.0000      -0.066229        -1.8022
  13   0.0000      -0.027340        -0.7440

MULLIKEN ATOMIC CHARGES
-----------------------
   0 C :    1.094499
   1 N :   -0.623777
   2 H :    0.300998
   3 H :    0.318184
   4 H :    0.360328
   5 H :   -0.139478
   6 H :   -0.130791
   7 H :   -0.179962
Sum of atomic charges:    1.0000000

LOEWDIN ATOMIC CHARGES
----------------------
   0 C :    0.262852
   1 N :    0.321563
   2 H :    0.111063
   3 H :    0.111990
   4 H :    0.106346
   5 H :    0.029844
   6 H :    0.030109
   7 H :    0.026233

  Mayer bond orders larger than 0.100000
B(  0-C ,  1-N ) :   0.9075 B(  0-C ,  5-H ) :   0.8514 B(  0-C ,  6-H ) :   0.8438
B(  0-C ,  7-H ) :   0.8834 B(  1-N ,  2-H ) :   0.8554 B(  1-N ,  3-H ) :   0.8379
B(  1-N ,  4-H ) :   0.7820 B(  1-N ,  5-H ) :   0.1031 B(  1-N ,  6-H ) :   0.1050

FINAL SINGLE POINT ENERGY       -95.867859765153

DIPOLE MOMENT
-------------
                                X             Y             Z
Electronic contribution:     -0.84069      -0.77077      -0.12998
Nuclear contribution   :      0.30442       0.18283       0.03339
                        -----------------------------------------
Total Dipole Moment    :     -0.53627      -0.58794      -0.09659
                        -----------------------------------------
Magnitude (a.u.)       :      0.80162
Magnitude (Debye)      :      2.03755

Rotational constants in cm-1:     2.844840     0.686092     0.683099
Rotational constants in MHz : 85286.171795 20568.516729 20478.789944

                             ****ORCA TERMINATED NORMALLY****
TOTAL RUN TIME: 0 days 0 hours 0 minutes 4 seconds 687 msec
