                         Program Version 5.0.0 -  RELEASE  -
|  1> !LC-BLYP RIJCOSX def2-SVPD def2/J TightSCF xyzfile
|  2>
|  3> *xyzfile 0 1 B.xyz
|  4>
|  5> %MaxCore 64000
|  6>
|  7> %pal nprocs 4
|  8> end
|  9>
| 10> %scf
| 11>   MaxIter 150
| 12> end
| 13>
| 14>
| 15>                          ****END OF INPUT****

CARTESIAN COORDINATES (ANGSTROEM)
---------------------------------
  C     -2.120502    0.885196    1.789506
  C     -0.778939    0.171966    1.804965
  H     -2.324193    1.472649    2.686078
  H     -2.187698    1.541272    0.919482
  N     -3.176900   -0.159484    1.610700
  H      0.015695    0.910767    1.939153
  H     -0.743553   -0.506827    2.665420
  C     -0.602493   -0.630712    0.492240
  H      0.313894   -1.240346    0.603498
  H     -0.363829    0.113322   -0.301169
  O     -1.712061   -1.376836    0.202535
  H     -4.064736    0.231272    1.286754
  H     -3.344073   -0.671511    2.484928
  H     -2.716861   -0.781886    0.935880

 Total Charge           Charge          ....    0
 Multiplicity           Mult            ....    1
 Number of Electrons    NEL             ....   42
 Basis Dimension        Dim             ....  175

ORBITAL ENERGIES
----------------

  NO   OCC          E(Eh)            E(eV)
   0   2.0000     -18.828787      -512.3573
   1   2.0000     -14.267276      -388.2323
   2   2.0000     -10.150466      -276.2082
   3   2.0000     -10.084530      -274.4140
   4   2.0000     -10.080758      -274.3114
   5   2.0000      -1.087212       -29.5845
   6   2.0000      -0.982173       -26.7263
   7   2.0000      -0.875184       -23.8150
   8   2.0000      -0.759469       -20.6662
   9   2.0000      -0.700763       -19.0687
  10   2.0000      -0.679966       -18.5028
  11   2.0000      -0.648261       -17.6401
  12   2.0000      -0.593095       -16.1389
  13   2.0000      -0.542296       -14.7566
  14   2.0000      -0.508724       -13.8431
  15   2.0000      -0.504885       -13.7386
  16   2.0000      -0.463544       -12.6137
  17   2.0000      -0.441709       -12.0195
  18   2.0000      -0.417484       -11.3603
  19   2.0000      -0.282304        -7.6819
  20   2.0000      -0.274877        -7.4798
  21   0.0000       0.043842         1.1930
  22   0.0000       0.081743         2.2243
  23   0.0000       0.086282         2.3478
  24   0.0000       0.107553         2.9267
  25   0.0000       0.133873         3.6429

MULLIKEN ATOMIC CHARGES
-----------------------
   0 C :    0.698375
   1 C :    0.229857
   2 H :   -0.357258
   3 H :   -0.087044
   4 N :   -0.239266
   5 H :   -0.209931
   6 H :   -0.059571
   7 C :    0.600501
   8 H :   -0.235692
   9 H :   -0.078725
  10 O :   -0.637988
  11 H :    0.212276
  12 H :    0.345693
  13 H :   -0.181226
Sum of atomic charges:   -0.0000000

LOEWDIN ATOMIC CHARGES
----------------------
   0 C :    0.058643
   1 C :   -0.032407
   2 H :    0.028089
   3 H :    0.047095
   4 N :    0.306557
   5 H :    0.028307
   6 H :    0.029519
   7 C :   -0.096129
   8 H :    0.015313
   9 H :    0.016066
  10 O :   -0.377823
  11 H :    0.082079
  12 H :    0.088891
  13 H :   -0.194199

  Mayer bond orders larger than 0.100000
B(  0-C ,  1-C ) :   1.1632 B(  0-C ,  2-H ) :   0.8626 B(  0-C ,  3-H ) :   0.8119
B(  0-C ,  4-N ) :   0.9068 B(  0-C ,  5-H ) :   0.1131 B(  1-C ,  5-H ) :   0.8880
B(  1-C ,  6-H ) :   0.8439 B(  1-C ,  7-C ) :   1.1310 B(  1-C ,  8-H ) :   0.1497
B(  1-C ,  9-H ) :   0.1233 B(  2-H ,  4-N ) :   0.1425 B(  4-N , 11-H ) :   0.9007
B(  4-N , 12-H ) :   0.8111 B(  4-N , 13-H ) :   1.0247 B(  5-H ,  7-C ) :   0.1214
B(  7-C ,  8-H ) :   0.8860 B(  7-C ,  9-H ) :   0.8863 B(  7-C , 10-O ) :   1.1446
B( 10-O , 13-H ) :   0.5964

FINAL SINGLE POINT ENERGY      -248.870533506757

DIPOLE MOMENT
-------------
                                X             Y             Z
Electronic contribution:     -1.47769      -1.38129      -0.74976
Nuclear contribution   :      0.08650       3.01678       2.47433
                        -----------------------------------------
Total Dipole Moment    :     -1.39118       1.63549       1.72457
                        -----------------------------------------
Magnitude (a.u.)       :      2.75397
Magnitude (Debye)      :      7.00003

Rotational constants in cm-1:     0.238796     0.156489     0.106146
Rotational constants in MHz :  7158.916762  4691.413084  3182.185740

                             ****ORCA TERMINATED NORMALLY****
TOTAL RUN TIME: 0 days 0 hours 0 minutes 26 seconds 86 msec
