                         Program Version 5.0.0 -  RELEASE  -
|  1> !LC-BLYP RIJCOSX def2-SVPD def2/J TightSCF
|  2> *xyz 0 1
|  3> C         -0.60249       -0.63071        0.49224
|  4> F         -1.71206       -1.37684        0.20253
|  5> H          0.27695       -1.19720        0.26733
|  6> H         -0.60598       -0.37494        1.53122
|  7> H         -0.61066        0.26355       -0.09525
|  8> *
|  9> %MaxCore 64000
| 10>
| 11> %pal nprocs 4
| 12> end
| 13> %scf
| 14>   MaxIter 150
| 15> end
| 16>
| 17>                          ****END OF INPUT****

CARTESIAN COORDINATES (ANGSTROEM)
---------------------------------
  C     -0.602490   -0.630710    0.492240
  F     -1.712060   -1.376840    0.202530
  H      0.276950   -1.197200    0.267330
  H     -0.605980   -0.374940    1.531220
  H     -0.610660    0.263550   -0.095250

 Total Charge           Charge          ....    0
 Multiplicity           Mult            ....    1
 Number of Electrons    NEL             ....   18
 Basis Dimension        Dim             ....   67

ORBITAL ENERGIES
----------------

  NO   OCC          E(Eh)            E(eV)
   0   2.0000     -24.460382      -665.6008
   1   2.0000     -10.156628      -276.3759
   2   2.0000      -1.264551       -34.4102
   3   2.0000      -0.809255       -22.0209
   4   2.0000      -0.602857       -16.4046
   5   2.0000      -0.597745       -16.2655
   6   2.0000      -0.597742       -16.2654
   7   2.0000      -0.450775       -12.2662
   8   2.0000      -0.450773       -12.2662
   9   0.0000       0.075279         2.0484
  10   0.0000       0.124674         3.3925
  11   0.0000       0.157006         4.2724
  12   0.0000       0.157007         4.2724
  13   0.0000       0.195820         5.3285

MULLIKEN ATOMIC CHARGES
-----------------------
   0 C :    1.024909
   1 F :   -0.429671
   2 H :   -0.198465
   3 H :   -0.198363
   4 H :   -0.198410
Sum of atomic charges:    0.0000000

LOEWDIN ATOMIC CHARGES
----------------------
   0 C :    0.236839
   1 F :   -0.233716
   2 H :   -0.001040
   3 H :   -0.001043
   4 H :   -0.001041

  Mayer bond orders larger than 0.100000
B(  0-C ,  1-F ) :   0.9340 B(  0-C ,  2-H ) :   0.9019 B(  0-C ,  3-H ) :   0.9018
B(  0-C ,  4-H ) :   0.9019

FINAL SINGLE POINT ENERGY      -139.368173454522

DIPOLE MOMENT
-------------
                                X             Y             Z
Electronic contribution:     -2.35674      -1.58476      -0.61540
Nuclear contribution   :      2.96306       1.99251       0.77366
                        -----------------------------------------
Total Dipole Moment    :      0.60632       0.40775       0.15826
                        -----------------------------------------
Magnitude (a.u.)       :      0.74761
Magnitude (Debye)      :      1.90028

Rotational constants in cm-1:     5.477665     0.875886     0.875886
Rotational constants in MHz : 164216.266994 26258.396768 26258.386731

                             ****ORCA TERMINATED NORMALLY****
TOTAL RUN TIME: 0 days 0 hours 0 minutes 3 seconds 360 msec
