                         Program Version 5.0.0 -  RELEASE  -
|  1> !LC-BLYP RIJCOSX def2-SVPD def2/J TightSCF
|  2> *xyz 0 1
|  3> C         -2.12050        0.88520        1.78951
|  4> C         -3.17690       -0.15948        1.61070
|  5> H         -4.06474        0.23127        1.28675
|  6> H         -3.34407       -0.67151        2.48493
|  7> H         -2.71686       -0.78189        0.93588
|  8> H         -1.96853        1.40078        0.86432
|  9> H         -1.20609        0.41954        2.09270
| 10> H         -2.43151        1.58226        2.53937
| 11> *
| 12> %MaxCore 64000
| 13>
| 14> %pal nprocs 4
| 15> end
| 16>
| 17> %scf
| 18>   MaxIter 150
| 19> end
| 20>
| 21>
| 22>                          ****END OF INPUT****

CARTESIAN COORDINATES (ANGSTROEM)
---------------------------------
  C     -2.120500    0.885200    1.789510
  C     -3.176900   -0.159480    1.610700
  H     -4.064740    0.231270    1.286750
  H     -3.344070   -0.671510    2.484930
  H     -2.716860   -0.781890    0.935880
  H     -1.968530    1.400780    0.864320
  H     -1.206090    0.419540    2.092700
  H     -2.431510    1.582260    2.539370

 Total Charge           Charge          ....    0
 Multiplicity           Mult            ....    1
 Number of Electrons    NEL             ....   18
 Basis Dimension        Dim             ....   88

ORBITAL ENERGIES
----------------

  NO   OCC          E(Eh)            E(eV)
   0   2.0000     -10.062712      -273.8203
   1   2.0000     -10.050208      -273.4801
   2   2.0000      -0.873938       -23.7811
   3   2.0000      -0.720840       -19.6151
   4   2.0000      -0.561875       -15.2894
   5   2.0000      -0.553188       -15.0530
   6   2.0000      -0.468466       -12.7476
   7   2.0000      -0.446437       -12.1482
   8   2.0000      -0.438200       -11.9240
   9   0.0000       0.079277         2.1572
  10   0.0000       0.110108         2.9962
  11   0.0000       0.160564         4.3692
  12   0.0000       0.162508         4.4221
  13   0.0000       0.180092         4.9005

MULLIKEN ATOMIC CHARGES
-----------------------
   0 C :    0.438812
   1 C :    0.855730
   2 H :   -0.310533
   3 H :   -0.264620
   4 H :   -0.226411
   5 H :   -0.157944
   6 H :   -0.150040
   7 H :   -0.184994
Sum of atomic charges:   -0.0000000

LOEWDIN ATOMIC CHARGES
----------------------
   0 C :    0.061421
   1 C :    0.076752
   2 H :   -0.031460
   3 H :   -0.030930
   4 H :   -0.033098
   5 H :   -0.012795
   6 H :   -0.012086
   7 H :   -0.017803

  Mayer bond orders larger than 0.100000
B(  0-C ,  1-C ) :   1.4035 B(  0-C ,  2-H ) :   0.1793 B(  0-C ,  3-H ) :   0.1823
B(  0-C ,  4-H ) :   0.2577 B(  0-C ,  5-H ) :   0.8104 B(  0-C ,  6-H ) :   0.8036
B(  0-C ,  7-H ) :   0.8591 B(  1-C ,  2-H ) :   0.7160 B(  1-C ,  3-H ) :   0.7081
B(  1-C ,  4-H ) :   0.7036 B(  1-C ,  5-H ) :   0.1712 B(  1-C ,  6-H ) :   0.1771
B(  1-C ,  7-H ) :   0.1553

FINAL SINGLE POINT ENERGY       -79.483317709706

DIPOLE MOMENT
-------------
                                X             Y             Z
Electronic contribution:     -0.12037      -0.01624      -0.00160
Nuclear contribution   :      0.12022       0.00247       0.00249
                        -----------------------------------------
Total Dipole Moment    :     -0.00016      -0.01377       0.00089
                        -----------------------------------------
Magnitude (a.u.)       :      0.01380
Magnitude (Debye)      :      0.03507

Rotational constants in cm-1:     2.844858     0.716988     0.713720
Rotational constants in MHz : 85286.697487 21494.771942 21396.773512

                             ****ORCA TERMINATED NORMALLY****
TOTAL RUN TIME: 0 days 0 hours 0 minutes 4 seconds 572 msec
