                         Program Version 5.0.0 -  RELEASE  -
|  1> !LC-BLYP RIJCOSX def2-SVPD def2/J TightSCF
|  2> *xyz -1 1
|  3> C          1.72854        1.42432       -5.63944
|  4> S          2.25263       -0.18811       -6.27184
|  5> O          3.56261       -0.44446       -5.63155
|  6> O          2.34494       -0.03374       -7.69650
|  7> O          1.26606       -1.15918       -5.80536
|  8> H          0.77944        1.68154       -6.06127
|  9> H          2.45151        2.16548       -5.90944
| 10> H          1.64478        1.37937       -4.57367
| 11> *
| 12>
| 13> %MaxCore 64000
| 14>
| 15> %pal nprocs 8
| 16> end
| 17>
| 18> %scf
| 19>   MaxIter 150
| 20> end
| 21>
| 22>
| 23>                          ****END OF INPUT****

CARTESIAN COORDINATES (ANGSTROEM)
---------------------------------
  C      1.728540    1.424320   -5.639440
  S      2.252630   -0.188110   -6.271840
  O      3.562610   -0.444460   -5.631550
  O      2.344940   -0.033740   -7.696500
  O      1.266060   -1.159180   -5.805360
  H      0.779440    1.681540   -6.061270
  H      2.451510    2.165480   -5.909440
  H      1.644780    1.379370   -4.573670

 Total Charge           Charge          ....   -1
 Multiplicity           Mult            ....    1
 Number of Electrons    NEL             ....   50
 Basis Dimension        Dim             ....  140

ORBITAL ENERGIES
----------------

  NO   OCC          E(Eh)            E(eV)
   0   2.0000     -88.311700     -2403.0835
   1   2.0000     -18.741278      -509.9761
   2   2.0000     -18.734893      -509.8024
   3   2.0000     -18.726824      -509.5828
   4   2.0000      -9.942461      -270.5481
   5   2.0000      -7.860252      -213.8883
   6   2.0000      -5.894523      -160.3981
   7   2.0000      -5.894415      -160.3952
   8   2.0000      -5.894263      -160.3910
   9   2.0000      -1.030871       -28.0514
  10   2.0000      -0.884920       -24.0799
  11   2.0000      -0.862170       -23.4608
  12   2.0000      -0.692216       -18.8362
  13   2.0000      -0.494627       -13.4595
  14   2.0000      -0.411093       -11.1864
  15   2.0000      -0.397365       -10.8128
  16   2.0000      -0.395956       -10.7745
  17   2.0000      -0.352794        -9.6000
  18   2.0000      -0.351288        -9.5590
  19   2.0000      -0.256176        -6.9709
  20   2.0000      -0.254846        -6.9347
  21   2.0000      -0.216399        -5.8885
  22   2.0000      -0.211575        -5.7573
  23   2.0000      -0.202252        -5.5036
  24   2.0000      -0.163049        -4.4368
  25   0.0000       0.195842         5.3291
  26   0.0000       0.221899         6.0382
  27   0.0000       0.222150         6.0450
  28   0.0000       0.227014         6.1774
  29   0.0000       0.256937         6.9916

MULLIKEN ATOMIC CHARGES
-----------------------
   0 C :    0.733963
   1 S :    0.863731
   2 O :   -0.727702
   3 O :   -0.674057
   4 O :   -0.701376
   5 H :   -0.168230
   6 H :   -0.160292
   7 H :   -0.166038
Sum of atomic charges:   -1.0000000

LOEWDIN ATOMIC CHARGES
----------------------
   0 C :    0.048249
   1 S :    0.778808
   2 O :   -0.587487
   3 O :   -0.563521
   4 O :   -0.574592
   5 H :   -0.034959
   6 H :   -0.033300
   7 H :   -0.033199

  Mayer bond orders larger than 0.100000
B(  0-C ,  1-S ) :   0.9344 B(  0-C ,  5-H ) :   0.8722 B(  0-C ,  6-H ) :   0.8732
B(  0-C ,  7-H ) :   0.8750 B(  1-S ,  2-O ) :   1.3627 B(  1-S ,  3-O ) :   1.4072
B(  1-S ,  4-O ) :   1.3833 B(  1-S ,  5-H ) :   0.1279 B(  1-S ,  6-H ) :   0.1326
B(  1-S ,  7-H ) :   0.1388

FINAL SINGLE POINT ENERGY      -662.777211571425

DIPOLE MOMENT
-------------
                                X             Y             Z
Electronic contribution:      1.15995      -3.74860      -1.58325
Nuclear contribution   :     -1.71379       5.17769       1.98321
                        -----------------------------------------
Total Dipole Moment    :     -0.55384       1.42909       0.39996
                        -----------------------------------------
Magnitude (a.u.)       :      1.58398
Magnitude (Debye)      :      4.02616

Rotational constants in cm-1:     0.172739     0.155771     0.153412
Rotational constants in MHz :  5178.588083  4669.889924  4599.189984

                             ****ORCA TERMINATED NORMALLY****
TOTAL RUN TIME: 0 days 0 hours 0 minutes 7 seconds 283 msec
