                         Program Version 5.0.0 -  RELEASE  -
|  1> !LC-BLYP RIJCOSX def2-SVPD def2/J TightSCF
|  2> *xyz 1 1
|  3> C          2.91632       -1.24259       -1.54313
|  4> C          3.46659       -1.59097       -2.88908
|  5> N          4.65227       -1.14316       -3.25969
|  6> N          2.75226       -2.29204       -3.72803
|  7> H          1.77836       -2.48960       -3.51274
|  8> H          2.94861       -2.20854       -4.71681
|  9> H          5.14672       -0.51251       -2.63385
| 10> H          4.78303       -1.00720       -4.25350
| 11> H          1.95294       -1.69278       -1.42424
| 12> H          2.82618       -0.17973       -1.45886
| 13> H          3.57606       -1.60596       -0.78312
| 14> *
| 15>
| 16> %MaxCore 64000
| 17>
| 18> %pal nprocs 8
| 19> end
| 20>
| 21> %scf
| 22>   MaxIter 150
| 23> end
| 24>
| 25>
| 26>                          ****END OF INPUT****

CARTESIAN COORDINATES (ANGSTROEM)
---------------------------------
  C      2.916320   -1.242590   -1.543130
  C      3.466590   -1.590970   -2.889080
  N      4.652270   -1.143160   -3.259690
  N      2.752260   -2.292040   -3.728030
  H      1.778360   -2.489600   -3.512740
  H      2.948610   -2.208540   -4.716810
  H      5.146720   -0.512510   -2.633850
  H      4.783030   -1.007200   -4.253500
  H      1.952940   -1.692780   -1.424240
  H      2.826180   -0.179730   -1.458860
  H      3.576060   -1.605960   -0.783120

 Total Charge           Charge          ....    1
 Multiplicity           Mult            ....    1
 Number of Electrons    NEL             ....   32
 Basis Dimension        Dim             ....  136

ORBITAL ENERGIES
----------------

  NO   OCC          E(Eh)            E(eV)
   0   2.0000     -14.444638      -393.0586
   1   2.0000     -14.439374      -392.9154
   2   2.0000     -10.424185      -283.6565
   3   2.0000     -10.287549      -279.9384
   4   2.0000      -1.313118       -35.7318
   5   2.0000      -1.211765       -32.9738
   6   2.0000      -1.063414       -28.9370
   7   2.0000      -0.950040       -25.8519
   8   2.0000      -0.883737       -24.0477
   9   2.0000      -0.877761       -23.8851
  10   2.0000      -0.806719       -21.9519
  11   2.0000      -0.779722       -21.2173
  12   2.0000      -0.723842       -19.6967
  13   2.0000      -0.707132       -19.2420
  14   2.0000      -0.680088       -18.5061
  15   2.0000      -0.605582       -16.4787
  16   0.0000      -0.148880        -4.0512
  17   0.0000      -0.105437        -2.8691
  18   0.0000      -0.061280        -1.6675
  19   0.0000      -0.057312        -1.5596
  20   0.0000      -0.034655        -0.9430

MULLIKEN ATOMIC CHARGES
-----------------------
   0 C :    0.808828
   1 C :   -0.079717
   2 N :    0.258469
   3 N :    0.246061
   4 H :    0.028698
   5 H :   -0.085619
   6 H :    0.029967
   7 H :   -0.080511
   8 H :   -0.038590
   9 H :   -0.058091
  10 H :   -0.029494
Sum of atomic charges:    1.0000000

LOEWDIN ATOMIC CHARGES
----------------------
   0 C :    0.223866
   1 C :   -0.093776
   2 N :    0.288754
   3 N :    0.292784
   4 H :    0.059109
   5 H :    0.052070
   6 H :    0.060369
   7 H :    0.047106
   8 H :    0.011861
   9 H :    0.029273
  10 H :    0.028585

  Mayer bond orders larger than 0.100000
B(  0-C ,  1-C ) :   1.3736 B(  0-C ,  8-H ) :   0.7217 B(  0-C ,  9-H ) :   0.7743
B(  0-C , 10-H ) :   0.6285 B(  1-C ,  2-N ) :   1.2410 B(  1-C ,  3-N ) :   1.2316
B(  1-C ,  5-H ) :  -0.1265 B(  1-C ,  8-H ) :   0.3002 B(  1-C ,  9-H ) :   0.1625
B(  1-C , 10-H ) :   0.2787 B(  2-N ,  3-N ) :   0.1665 B(  2-N ,  6-H ) :   1.0229
B(  2-N ,  7-H ) :   1.1592 B(  3-N ,  4-H ) :   1.0393 B(  3-N ,  5-H ) :   1.1914
B(  4-H ,  5-H ) :  -0.1376 B(  6-H ,  7-H ) :  -0.1250 B(  8-H ,  9-H ) :   0.1015
B(  8-H , 10-H ) :   0.1132

FINAL SINGLE POINT ENERGY      -189.089270660588

DIPOLE MOMENT
-------------
                                X             Y             Z
Electronic contribution:      0.89709      -0.72915      -1.81105
Nuclear contribution   :     -1.03256       1.11747       1.26949
                        -----------------------------------------
Total Dipole Moment    :     -0.13547       0.38833      -0.54156
                        -----------------------------------------
Magnitude (a.u.)       :      0.68003
Magnitude (Debye)      :      1.72849

Rotational constants in cm-1:     0.336859     0.298586     0.163958
Rotational constants in MHz : 10098.776812  8951.369850  4915.333652

                             ****ORCA TERMINATED NORMALLY****
TOTAL RUN TIME: 0 days 0 hours 0 minutes 7 seconds 123 msec
