                         Program Version 5.0.0 -  RELEASE  -
|  1> !LC-BLYP RIJCOSX def2-SVPD def2/J TightSCF
|  2> *xyz 0 1
|  3> C          1.72854        1.42432       -5.63944
|  4> S          2.25263       -0.18811       -6.27184
|  5> F          3.56261       -0.44446       -5.63155
|  6> O          2.34494       -0.03374       -7.69650
|  7> O          1.26606       -1.15918       -5.80536
|  8> H          0.77944        1.68154       -6.06127
|  9> H          2.45151        2.16548       -5.90944
| 10> H          1.64478        1.37937       -4.57367
| 11> *
| 12>
| 13> %MaxCore 64000
| 14>
| 15> %pal nprocs 8
| 16> end
| 17>
| 18> %scf
| 19>   MaxIter 150
| 20> end
| 21>
| 22>
| 23>                          ****END OF INPUT****

CARTESIAN COORDINATES (ANGSTROEM)
---------------------------------
  C      1.728540    1.424320   -5.639440
  S      2.252630   -0.188110   -6.271840
  F      3.562610   -0.444460   -5.631550
  O      2.344940   -0.033740   -7.696500
  O      1.266060   -1.159180   -5.805360
  H      0.779440    1.681540   -6.061270
  H      2.451510    2.165480   -5.909440
  H      1.644780    1.379370   -4.573670

 Total Charge           Charge          ....    0
 Multiplicity           Mult            ....    1
 Number of Electrons    NEL             ....   50
 Basis Dimension        Dim             ....  140

ORBITAL ENERGIES
----------------

  NO   OCC          E(Eh)            E(eV)
   0   2.0000     -88.573564     -2410.2092
   1   2.0000     -24.581387      -668.8936
   2   2.0000     -18.978817      -516.4399
   3   2.0000     -18.972290      -516.2623
   4   2.0000     -10.150740      -276.2157
   5   2.0000      -8.122711      -221.0302
   6   2.0000      -6.161384      -167.6598
   7   2.0000      -6.154720      -167.4784
   8   2.0000      -6.153779      -167.4528
   9   2.0000      -1.434844       -39.0441
  10   2.0000      -1.217565       -33.1316
  11   2.0000      -1.117909       -30.4198
  12   2.0000      -0.912033       -24.8177
  13   2.0000      -0.812601       -22.1120
  14   2.0000      -0.704326       -19.1657
  15   2.0000      -0.677203       -18.4276
  16   2.0000      -0.660485       -17.9727
  17   2.0000      -0.588053       -16.0017
  18   2.0000      -0.586510       -15.9597
  19   2.0000      -0.572907       -15.5896
  20   2.0000      -0.548581       -14.9276
  21   2.0000      -0.500649       -13.6233
  22   2.0000      -0.448098       -12.1934
  23   2.0000      -0.441892       -12.0245
  24   2.0000      -0.423131       -11.5140
  25   0.0000       0.042523         1.1571
  26   0.0000       0.077810         2.1173
  27   0.0000       0.083635         2.2758
  28   0.0000       0.084436         2.2976
  29   0.0000       0.098242         2.6733

MULLIKEN ATOMIC CHARGES
-----------------------
   0 C :    0.701024
   1 S :    1.041621
   2 F :   -0.334060
   3 O :   -0.538630
   4 O :   -0.564100
   5 H :   -0.106912
   6 H :   -0.096044
   7 H :   -0.102900
Sum of atomic charges:    0.0000000

LOEWDIN ATOMIC CHARGES
----------------------
   0 C :    0.117135
   1 S :    1.049640
   2 F :   -0.255832
   3 O :   -0.445608
   4 O :   -0.455298
   5 H :    0.004649
   6 H :   -0.007346
   7 H :   -0.007340

  Mayer bond orders larger than 0.100000
B(  0-C ,  1-S ) :   0.9881 B(  0-C ,  5-H ) :   0.8716 B(  0-C ,  6-H ) :   0.8768
B(  0-C ,  7-H ) :   0.8797 B(  1-S ,  2-F ) :   0.7400 B(  1-S ,  3-O ) :   1.6091
B(  1-S ,  4-O ) :   1.5843 B(  1-S ,  5-H ) :   0.1284 B(  1-S ,  6-H ) :   0.1068
B(  1-S ,  7-H ) :   0.1121

FINAL SINGLE POINT ENERGY      -687.261701726700

DIPOLE MOMENT
-------------
                                X             Y             Z
Electronic contribution:      3.34272      -4.14167      -0.51194
Nuclear contribution   :     -3.03874       5.51823       1.39394
                        -----------------------------------------
Total Dipole Moment    :      0.30399       1.37656       0.88200
                        -----------------------------------------
Magnitude (a.u.)       :      1.66291
Magnitude (Debye)      :      4.22677

Rotational constants in cm-1:     0.164301     0.151617     0.146802
Rotational constants in MHz :  4925.615104  4545.361281  4401.017554

                             ****ORCA TERMINATED NORMALLY****
TOTAL RUN TIME: 0 days 0 hours 0 minutes 7 seconds 637 msec
