                         Program Version 5.0.0 -  RELEASE  -
|  1> !LC-BLYP RIJCOSX def2-SVPD def2/J TightSCF
|  2> *xyz 0 1
|  3> C          2.91632       -1.24259       -1.54313
|  4> C          3.46659       -1.59097       -2.88908
|  5> C          4.65227       -1.14316       -3.25969
|  6> N          2.75226       -2.29204       -3.72803
|  7> H          1.77836       -2.48960       -3.51274
|  8> H          2.94861       -2.20854       -4.71681
|  9> H          5.14672       -0.51251       -2.63385
| 10> H          4.78303       -1.00720       -4.25350
| 11> H          1.95294       -1.69278       -1.42424
| 12> H          2.82618       -0.17973       -1.45886
| 13> H          3.57606       -1.60596       -0.78312
| 14> *
| 15>
| 16> %MaxCore 64000
| 17>
| 18> %pal nprocs 8
| 19> end
| 20>
| 21> %scf
| 22>   MaxIter 150
| 23> end
| 24>
| 25>
| 26>                          ****END OF INPUT****

CARTESIAN COORDINATES (ANGSTROEM)
---------------------------------
  C      2.916320   -1.242590   -1.543130
  C      3.466590   -1.590970   -2.889080
  C      4.652270   -1.143160   -3.259690
  N      2.752260   -2.292040   -3.728030
  H      1.778360   -2.489600   -3.512740
  H      2.948610   -2.208540   -4.716810
  H      5.146720   -0.512510   -2.633850
  H      4.783030   -1.007200   -4.253500
  H      1.952940   -1.692780   -1.424240
  H      2.826180   -0.179730   -1.458860
  H      3.576060   -1.605960   -0.783120

 Total Charge           Charge          ....    0
 Multiplicity           Mult            ....    1
 Number of Electrons    NEL             ....   32
 Basis Dimension        Dim             ....  136

ORBITAL ENERGIES
----------------

  NO   OCC          E(Eh)            E(eV)
   0   2.0000     -14.192748      -386.2043
   1   2.0000     -10.111774      -275.1553
   2   2.0000     -10.078851      -274.2595
   3   2.0000     -10.014697      -272.5137
   4   2.0000      -1.032799       -28.1039
   5   2.0000      -0.861583       -23.4449
   6   2.0000      -0.795640       -21.6505
   7   2.0000      -0.679332       -18.4856
   8   2.0000      -0.629325       -17.1248
   9   2.0000      -0.575417       -15.6579
  10   2.0000      -0.541994       -14.7484
  11   2.0000      -0.500472       -13.6185
  12   2.0000      -0.489432       -13.3181
  13   2.0000      -0.463753       -12.6194
  14   2.0000      -0.435297       -11.8450
  15   2.0000      -0.286731        -7.8024
  16   0.0000       0.071635         1.9493
  17   0.0000       0.107090         2.9141
  18   0.0000       0.109498         2.9796
  19   0.0000       0.114446         3.1142
  20   0.0000       0.146194         3.9781

MULLIKEN ATOMIC CHARGES
-----------------------
   0 C :    0.958464
   1 C :   -0.596226
   2 C :    0.528129
   3 N :    0.323910
   4 H :   -0.108306
   5 H :   -0.102797
   6 H :   -0.205209
   7 H :   -0.468747
   8 H :   -0.167031
   9 H :   -0.107980
  10 H :   -0.054207
Sum of atomic charges:   -0.0000000

LOEWDIN ATOMIC CHARGES
----------------------
   0 C :    0.157918
   1 C :   -0.304683
   2 C :    0.150572
   3 N :    0.176231
   4 H :    0.000218
   5 H :    0.007813
   6 H :   -0.076055
   7 H :   -0.087689
   8 H :   -0.022730
   9 H :   -0.000872
  10 H :   -0.000722

  Mayer bond orders larger than 0.100000
B(  0-C ,  1-C ) :   1.2736 B(  0-C ,  8-H ) :   0.6204 B(  0-C ,  9-H ) :   0.7659
B(  0-C , 10-H ) :   0.6422 B(  1-C ,  2-C ) :   1.9554 B(  1-C ,  3-N ) :   1.1747
B(  1-C ,  6-H ) :   0.1763 B(  1-C ,  7-H ) :   0.2330 B(  1-C ,  8-H ) :   0.3657
B(  1-C ,  9-H ) :   0.1538 B(  1-C , 10-H ) :   0.2814 B(  2-C ,  3-N ) :   0.2563
B(  2-C ,  6-H ) :   0.7221 B(  2-C ,  7-H ) :   0.7260 B(  3-N ,  4-H ) :   1.0562
B(  3-N ,  5-H ) :   1.0957 B(  4-H ,  5-H ) :  -0.1268 B(  6-H ,  7-H ) :   0.1629
B(  8-H , 10-H ) :   0.1035

FINAL SINGLE POINT ENERGY      -172.636566497457

DIPOLE MOMENT
-------------
                                X             Y             Z
Electronic contribution:     -0.15980      -1.16369      -1.30990
Nuclear contribution   :     -0.76183       1.20997       1.18381
                        -----------------------------------------
Total Dipole Moment    :     -0.92163       0.04629      -0.12609
                        -----------------------------------------
Magnitude (a.u.)       :      0.93137
Magnitude (Debye)      :      2.36734

Rotational constants in cm-1:     0.357745     0.302571     0.170012
Rotational constants in MHz : 10724.926457  9070.849165  5096.845195

                             ****ORCA TERMINATED NORMALLY****
TOTAL RUN TIME: 0 days 0 hours 0 minutes 7 seconds 709 msec
