                         Program Version 5.0.0 -  RELEASE  -
|  1> !LC-BLYP RIJCOSX def2-SVPD def2/J TightSCF
|  2> *xyz 0 1
|  3> C          1.72854        1.42432       -5.63944
|  4> S          2.25263       -0.18811       -6.27184
|  5> O          3.56261       -0.44446       -5.63155
|  6> F          2.34494       -0.03374       -7.69650
|  7> O          1.26606       -1.15918       -5.80536
|  8> H          0.77944        1.68154       -6.06127
|  9> H          2.45151        2.16548       -5.90944
| 10> H          1.64478        1.37937       -4.57367
| 11> *
| 12>
| 13> %MaxCore 64000
| 14>
| 15> %pal nprocs 8
| 16> end
| 17>
| 18> %scf
| 19>   MaxIter 150
| 20> end
| 21>
| 22>
| 23>                          ****END OF INPUT****

CARTESIAN COORDINATES (ANGSTROEM)
---------------------------------
  C      1.728540    1.424320   -5.639440
  S      2.252630   -0.188110   -6.271840
  O      3.562610   -0.444460   -5.631550
  F      2.344940   -0.033740   -7.696500
  O      1.266060   -1.159180   -5.805360
  H      0.779440    1.681540   -6.061270
  H      2.451510    2.165480   -5.909440
  H      1.644780    1.379370   -4.573670

 Total Charge           Charge          ....    0
 Multiplicity           Mult            ....    1
 Number of Electrons    NEL             ....   50
 Basis Dimension        Dim             ....  140

ORBITAL ENERGIES
----------------

  NO   OCC          E(Eh)            E(eV)
   0   2.0000     -88.575781     -2410.2695
   1   2.0000     -24.603297      -669.4898
   2   2.0000     -18.972750      -516.2748
   3   2.0000     -18.964377      -516.0469
   4   2.0000     -10.151791      -276.2443
   5   2.0000      -8.125024      -221.0932
   6   2.0000      -6.163946      -167.7295
   7   2.0000      -6.156797      -167.5350
   8   2.0000      -6.155839      -167.5089
   9   2.0000      -1.471774       -40.0490
  10   2.0000      -1.205119       -32.7930
  11   2.0000      -1.098388       -29.8887
  12   2.0000      -0.914802       -24.8930
  13   2.0000      -0.830595       -22.6016
  14   2.0000      -0.720846       -19.6152
  15   2.0000      -0.703278       -19.1372
  16   2.0000      -0.664668       -18.0865
  17   2.0000      -0.587154       -15.9773
  18   2.0000      -0.584907       -15.9161
  19   2.0000      -0.574301       -15.6275
  20   2.0000      -0.541432       -14.7331
  21   2.0000      -0.493691       -13.4340
  22   2.0000      -0.440770       -11.9940
  23   2.0000      -0.432066       -11.7571
  24   2.0000      -0.408154       -11.1064
  25   0.0000       0.040069         1.0903
  26   0.0000       0.076040         2.0692
  27   0.0000       0.082364         2.2412
  28   0.0000       0.084668         2.3039
  29   0.0000       0.099437         2.7058

MULLIKEN ATOMIC CHARGES
-----------------------
   0 C :    0.701370
   1 S :    1.035730
   2 O :   -0.576020
   3 F :   -0.307427
   4 O :   -0.550673
   5 H :   -0.102361
   6 H :   -0.094878
   7 H :   -0.105741
Sum of atomic charges:   -0.0000000

LOEWDIN ATOMIC CHARGES
----------------------
   0 C :    0.116760
   1 S :    1.051996
   2 O :   -0.467078
   3 F :   -0.237117
   4 O :   -0.454740
   5 H :   -0.008693
   6 H :   -0.007099
   7 H :    0.005972

  Mayer bond orders larger than 0.100000
B(  0-C ,  1-S ) :   0.9880 B(  0-C ,  5-H ) :   0.8753 B(  0-C ,  6-H ) :   0.8765
B(  0-C ,  7-H ) :   0.8762 B(  1-S ,  2-O ) :   1.5677 B(  1-S ,  3-F ) :   0.7955
B(  1-S ,  4-O ) :   1.5879 B(  1-S ,  5-H ) :   0.1019 B(  1-S ,  6-H ) :   0.1061
B(  1-S ,  7-H ) :   0.1366

FINAL SINGLE POINT ENERGY      -687.242807388617

DIPOLE MOMENT
-------------
                                X             Y             Z
Electronic contribution:      1.28461      -3.45798      -3.96935
Nuclear contribution   :     -1.82220       5.10789       3.45696
                        -----------------------------------------
Total Dipole Moment    :     -0.53759       1.64992      -0.51239
                        -----------------------------------------
Magnitude (a.u.)       :      1.80936
Magnitude (Debye)      :      4.59902

Rotational constants in cm-1:     0.163267     0.154654     0.145086
Rotational constants in MHz :  4894.631475  4636.404456  4349.567403

                             ****ORCA TERMINATED NORMALLY****
TOTAL RUN TIME: 0 days 0 hours 0 minutes 7 seconds 594 msec
