                         Program Version 5.0.0 -  RELEASE  -
|  1> !LC-BLYP RIJCOSX def2-SVPD def2/J TightSCF
|  2> *xyz 0 1
|  3> C          2.91632       -1.24259       -1.54313
|  4> C          3.46659       -1.59097       -2.88908
|  5> N          4.65227       -1.14316       -3.25969
|  6> C          2.75226       -2.29204       -3.72803
|  7> H          1.77836       -2.48960       -3.51274
|  8> H          2.94861       -2.20854       -4.71681
|  9> H          5.14672       -0.51251       -2.63385
| 10> H          4.78303       -1.00720       -4.25350
| 11> H          1.95294       -1.69278       -1.42424
| 12> H          2.82618       -0.17973       -1.45886
| 13> H          3.57606       -1.60596       -0.78312
| 14> *
| 15>
| 16> %MaxCore 64000
| 17>
| 18> %pal nprocs 8
| 19> end
| 20>
| 21> %scf
| 22>   MaxIter 150
| 23> end
| 24>
| 25>
| 26>                          ****END OF INPUT****

CARTESIAN COORDINATES (ANGSTROEM)
---------------------------------
  C      2.916320   -1.242590   -1.543130
  C      3.466590   -1.590970   -2.889080
  N      4.652270   -1.143160   -3.259690
  C      2.752260   -2.292040   -3.728030
  H      1.778360   -2.489600   -3.512740
  H      2.948610   -2.208540   -4.716810
  H      5.146720   -0.512510   -2.633850
  H      4.783030   -1.007200   -4.253500
  H      1.952940   -1.692780   -1.424240
  H      2.826180   -0.179730   -1.458860
  H      3.576060   -1.605960   -0.783120

 Total Charge           Charge          ....    0
 Multiplicity           Mult            ....    1
 Number of Electrons    NEL             ....   32
 Basis Dimension        Dim             ....  136

ORBITAL ENERGIES
----------------

  NO   OCC          E(Eh)            E(eV)
   0   2.0000     -14.189136      -386.1060
   1   2.0000     -10.110548      -275.1220
   2   2.0000     -10.077674      -274.2275
   3   2.0000     -10.019342      -272.6401
   4   2.0000      -1.027556       -27.9612
   5   2.0000      -0.862082       -23.4584
   6   2.0000      -0.796922       -21.6854
   7   2.0000      -0.672822       -18.3084
   8   2.0000      -0.629891       -17.1402
   9   2.0000      -0.578280       -15.7358
  10   2.0000      -0.542947       -14.7743
  11   2.0000      -0.500217       -13.6116
  12   2.0000      -0.493460       -13.4277
  13   2.0000      -0.458575       -12.4785
  14   2.0000      -0.431174       -11.7328
  15   2.0000      -0.294205        -8.0057
  16   0.0000       0.071904         1.9566
  17   0.0000       0.108323         2.9476
  18   0.0000       0.112788         3.0691
  19   0.0000       0.115341         3.1386
  20   0.0000       0.149720         4.0741

MULLIKEN ATOMIC CHARGES
-----------------------
   0 C :    1.002963
   1 C :   -0.692301
   2 N :    0.348891
   3 C :    0.457282
   4 H :   -0.159902
   5 H :   -0.492860
   6 H :   -0.129500
   7 H :   -0.094529
   8 H :   -0.025027
   9 H :   -0.116420
  10 H :   -0.098599
Sum of atomic charges:   -0.0000000

LOEWDIN ATOMIC CHARGES
----------------------
   0 C :    0.154648
   1 C :   -0.311275
   2 N :    0.175688
   3 C :    0.157540
   4 H :   -0.077104
   5 H :   -0.081160
   6 H :    0.001747
   7 H :    0.003227
   8 H :   -0.009573
   9 H :   -0.004956
  10 H :   -0.008783

  Mayer bond orders larger than 0.100000
B(  0-C ,  1-C ) :   1.4103 B(  0-C ,  8-H ) :   0.7420 B(  0-C ,  9-H ) :   0.5941
B(  0-C , 10-H ) :   0.5756 B(  1-C ,  2-N ) :   1.1812 B(  1-C ,  3-C ) :   1.9179
B(  1-C ,  5-H ) :   0.2284 B(  1-C ,  8-H ) :   0.2829 B(  1-C ,  9-H ) :   0.3466
B(  1-C , 10-H ) :   0.3200 B(  2-N ,  3-C ) :   0.2707 B(  2-N ,  6-H ) :   1.0416
B(  2-N ,  7-H ) :   1.0665 B(  3-C ,  4-H ) :   0.8345 B(  3-C ,  5-H ) :   0.6493
B(  4-H ,  5-H ) :   0.2020 B(  6-H ,  7-H ) :  -0.1120 B(  8-H ,  9-H ) :   0.1228
B(  8-H , 10-H ) :   0.1002

FINAL SINGLE POINT ENERGY      -172.640366104812

DIPOLE MOMENT
-------------
                                X             Y             Z
Electronic contribution:      1.50362      -0.17022      -0.92309
Nuclear contribution   :     -1.18794       0.95232       1.07877
                        -----------------------------------------
Total Dipole Moment    :      0.31568       0.78210       0.15568
                        -----------------------------------------
Magnitude (a.u.)       :      0.85765
Magnitude (Debye)      :      2.17998

Rotational constants in cm-1:     0.358436     0.301769     0.169913
Rotational constants in MHz : 10745.629007  9046.806054  5093.859032

                             ****ORCA TERMINATED NORMALLY****
TOTAL RUN TIME: 0 days 0 hours 0 minutes 7 seconds 560 msec
