                         Program Version 5.0.0 -  RELEASE  -
|  1> !LC-BLYP RIJCOSX def2-SVPD def2/J TightSCF
|  2> *xyz 0 1
|  3> C          1.72854        1.42432       -5.63944
|  4> S          2.25263       -0.18811       -6.27184
|  5> O          3.56261       -0.44446       -5.63155
|  6> O          2.34494       -0.03374       -7.69650
|  7> F          1.26606       -1.15918       -5.80536
|  8> H          0.77944        1.68154       -6.06127
|  9> H          2.45151        2.16548       -5.90944
| 10> H          1.64478        1.37937       -4.57367
| 11> *
| 12>
| 13> %MaxCore 64000
| 14>
| 15> %pal nprocs 8
| 16> end
| 17>
| 18> %scf
| 19>   MaxIter 150
| 20> end
| 21>
| 22>
| 23>                          ****END OF INPUT****

CARTESIAN COORDINATES (ANGSTROEM)
---------------------------------
  C      1.728540    1.424320   -5.639440
  S      2.252630   -0.188110   -6.271840
  O      3.562610   -0.444460   -5.631550
  O      2.344940   -0.033740   -7.696500
  F      1.266060   -1.159180   -5.805360
  H      0.779440    1.681540   -6.061270
  H      2.451510    2.165480   -5.909440
  H      1.644780    1.379370   -4.573670

 Total Charge           Charge          ....    0
 Multiplicity           Mult            ....    1
 Number of Electrons    NEL             ....   50
 Basis Dimension        Dim             ....  140

ORBITAL ENERGIES
----------------

  NO   OCC          E(Eh)            E(eV)
   0   2.0000     -88.574428     -2410.2327
   1   2.0000     -24.592280      -669.1900
   2   2.0000     -18.979186      -516.4499
   3   2.0000     -18.964285      -516.0444
   4   2.0000     -10.151256      -276.2297
   5   2.0000      -8.123666      -221.0562
   6   2.0000      -6.162431      -167.6883
   7   2.0000      -6.155564      -167.5014
   8   2.0000      -6.154625      -167.4759
   9   2.0000      -1.451536       -39.4983
  10   2.0000      -1.214207       -33.0402
  11   2.0000      -1.106815       -30.1180
  12   2.0000      -0.912526       -24.8311
  13   2.0000      -0.821415       -22.3518
  14   2.0000      -0.711436       -19.3592
  15   2.0000      -0.688882       -18.7454
  16   2.0000      -0.662572       -18.0295
  17   2.0000      -0.587848       -15.9961
  18   2.0000      -0.585960       -15.9448
  19   2.0000      -0.574754       -15.6398
  20   2.0000      -0.545372       -14.8403
  21   2.0000      -0.498116       -13.5544
  22   2.0000      -0.446802       -12.1581
  23   2.0000      -0.433118       -11.7857
  24   2.0000      -0.414998       -11.2927
  25   0.0000       0.040772         1.1095
  26   0.0000       0.076816         2.0903
  27   0.0000       0.082970         2.2577
  28   0.0000       0.084361         2.2956
  29   0.0000       0.097102         2.6423

MULLIKEN ATOMIC CHARGES
-----------------------
   0 C :    0.701846
   1 S :    1.039455
   2 O :   -0.582396
   3 O :   -0.531912
   4 F :   -0.322990
   5 H :   -0.101596
   6 H :   -0.099567
   7 H :   -0.102839
Sum of atomic charges:    0.0000000

LOEWDIN ATOMIC CHARGES
----------------------
   0 C :    0.117055
   1 S :    1.051323
   2 O :   -0.467177
   3 O :   -0.445093
   4 F :   -0.246083
   5 H :   -0.008496
   6 H :    0.005880
   7 H :   -0.007409

  Mayer bond orders larger than 0.100000
B(  0-C ,  1-S ) :   0.9888 B(  0-C ,  5-H ) :   0.8763 B(  0-C ,  6-H ) :   0.8730
B(  0-C ,  7-H ) :   0.8785 B(  1-S ,  2-O ) :   1.5654 B(  1-S ,  3-O ) :   1.6103
B(  1-S ,  4-F ) :   0.7639 B(  1-S ,  5-H ) :   0.1021 B(  1-S ,  6-H ) :   0.1313
B(  1-S ,  7-H ) :   0.1111

FINAL SINGLE POINT ENERGY      -687.251923697502

DIPOLE MOMENT
-------------
                                X             Y             Z
Electronic contribution:     -0.52577      -5.33796      -0.81226
Nuclear contribution   :     -0.74433       6.23228       1.56758
                        -----------------------------------------
Total Dipole Moment    :     -1.27010       0.89432       0.75533
                        -----------------------------------------
Magnitude (a.u.)       :      1.72728
Magnitude (Debye)      :      4.39039

Rotational constants in cm-1:     0.164764     0.152261     0.145794
Rotational constants in MHz :  4939.488001  4564.674339  4370.797804

                             ****ORCA TERMINATED NORMALLY****
TOTAL RUN TIME: 0 days 0 hours 0 minutes 7 seconds 602 msec
