                         Program Version 5.0.0 -  RELEASE  -
|  1> !LC-BLYP RIJCOSX def2-SVPD def2/J TightSCF xyzfile
|  2>
|  3> *xyzfile 0 1 D1.xyz
|  4>
|  5> %MaxCore 64000
|  6>
|  7> %pal nprocs 4
|  8> end
|  9>
| 10> %scf
| 11>   MaxIter 150
| 12> end
| 13>
| 14>
| 15>                          ****END OF INPUT****

CARTESIAN COORDINATES (ANGSTROEM)
---------------------------------
  C      2.916324   -1.242589   -1.543125
  C      0.704661    1.443129   -4.503630
  C      1.728539    1.424320   -5.639443
  H      2.646718    1.953794   -5.381054
  H      1.299916    1.930613   -6.503614
  S      2.252625   -0.188115   -6.271840
  C      3.466585   -1.590971   -2.889082
  C      4.652275   -1.143164   -3.259692
  N      2.752264   -2.292043   -3.728029
  H      1.778364   -2.489604   -3.512738
  H      2.948612   -2.208544   -4.716813
  H      5.146723   -0.512508   -2.633852
  H      4.783030   -1.007203   -4.253498
  F      3.562607   -0.444464   -5.631552
  O      2.344944   -0.033742   -7.696501
  C      2.804084    0.290698   -1.359243
  C      1.052550    0.695659   -3.214915
  H     -0.232483    1.032925   -4.884449
  H      0.511700    2.495794   -4.267966
  C      2.388380    1.093669   -2.597108
  H      3.763425    0.674718   -0.999889
  H      2.094788    0.461222   -0.545756
  O      1.266058   -1.159177   -5.805365
  H      3.167316    1.013242   -3.359430
  H      2.357690    2.149375   -2.310997
  H      1.039284   -0.368429   -3.449329
  H      0.250787    0.865605   -2.488283
  H      1.940472   -1.716529   -1.441161
  H      3.558569   -1.663433   -0.766371

 Total Charge           Charge          ....    0
 Multiplicity           Mult            ....    1
 Number of Electrons    NEL             ....  112
 Basis Dimension        Dim             ....  404

ORBITAL ENERGIES
----------------

  NO   OCC          E(Eh)            E(eV)
   0   2.0000     -88.575969     -2410.2746
   1   2.0000     -24.586728      -669.0389
   2   2.0000     -18.983344      -516.5630
   3   2.0000     -18.979258      -516.4519
   4   2.0000     -14.184605      -385.9827
   5   2.0000     -10.153535      -276.2917
   6   2.0000     -10.117354      -275.3072
   7   2.0000     -10.108013      -275.0530
   8   2.0000     -10.094097      -274.6743
   9   2.0000     -10.091094      -274.5926
  10   2.0000     -10.089391      -274.5463
  11   2.0000     -10.089123      -274.5390
  12   2.0000     -10.013344      -272.4769
  13   2.0000      -8.124268      -221.0726
  14   2.0000      -6.163146      -167.7077
  15   2.0000      -6.156490      -167.5266
  16   2.0000      -6.154885      -167.4829
  17   2.0000      -1.441952       -39.2375
  18   2.0000      -1.223190       -33.2847
  19   2.0000      -1.125129       -30.6163
  20   2.0000      -1.030094       -28.0303
  21   2.0000      -0.951079       -25.8802
  22   2.0000      -0.911627       -24.8066
  23   2.0000      -0.871563       -23.7164
  24   2.0000      -0.840096       -22.8602
  25   2.0000      -0.805573       -21.9207
  26   2.0000      -0.796735       -21.6803
  27   2.0000      -0.745209       -20.2782
  28   2.0000      -0.707470       -19.2512
  29   2.0000      -0.689418       -18.7600
  30   2.0000      -0.679583       -18.4924
  31   2.0000      -0.671165       -18.2633
  32   2.0000      -0.654058       -17.7978
  33   2.0000      -0.623365       -16.9626
  34   2.0000      -0.610196       -16.6043
  35   2.0000      -0.603727       -16.4282
  36   2.0000      -0.586126       -15.9493
  37   2.0000      -0.583421       -15.8757
  38   2.0000      -0.567656       -15.4467
  39   2.0000      -0.551973       -15.0200
  40   2.0000      -0.540643       -14.7117
  41   2.0000      -0.529856       -14.4181
  42   2.0000      -0.508496       -13.8369
  43   2.0000      -0.497273       -13.5315
  44   2.0000      -0.490131       -13.3371
  45   2.0000      -0.484486       -13.1835
  46   2.0000      -0.477955       -13.0058
  47   2.0000      -0.462513       -12.5856
  48   2.0000      -0.454469       -12.3667
  49   2.0000      -0.445622       -12.1260
  50   2.0000      -0.440174       -11.9777
  51   2.0000      -0.429998       -11.7008
  52   2.0000      -0.423413       -11.5217
  53   2.0000      -0.421008       -11.4562
  54   2.0000      -0.416788       -11.3414
  55   2.0000      -0.283491        -7.7142
  56   0.0000       0.050350         1.3701
  57   0.0000       0.065308         1.7771
  58   0.0000       0.069157         1.8819
  59   0.0000       0.072911         1.9840
  60   0.0000       0.088459         2.4071

MULLIKEN ATOMIC CHARGES
-----------------------
   0 C :    0.794757
   1 C :    0.685622
   2 C :    0.338069
   3 H :    0.038789
   4 H :   -0.325419
   5 S :    1.262002
   6 C :   -0.738665
   7 C :    0.903423
   8 N :    0.618202
   9 H :    0.004720
  10 H :   -0.250722
  11 H :   -0.050561
  12 H :   -0.800549
  13 F :   -0.553334
  14 O :   -0.512161
  15 C :    0.535876
  16 C :    0.558915
  17 H :   -0.063909
  18 H :   -0.123778
  19 C :    0.181702
  20 H :   -0.100394
  21 H :   -0.221822
  22 O :   -0.709124
  23 H :   -0.203777
  24 H :   -0.253982
  25 H :   -0.570262
  26 H :   -0.159953
  27 H :    0.029908
  28 H :   -0.313573
Sum of atomic charges:   -0.0000000

LOEWDIN ATOMIC CHARGES
----------------------
   0 C :    0.018241
   1 C :   -0.033988
   2 C :   -0.038693
   3 H :    0.024064
   4 H :    0.029998
   5 S :    1.091482
   6 C :   -0.260886
   7 C :    0.165539
   8 N :    0.202943
   9 H :    0.009211
  10 H :   -0.042252
  11 H :   -0.068482
  12 H :   -0.117255
  13 F :   -0.267904
  14 O :   -0.426127
  15 C :   -0.018044
  16 C :   -0.026762
  17 H :    0.038279
  18 H :    0.041543
  19 C :   -0.035029
  20 H :    0.025474
  21 H :    0.024046
  22 O :   -0.445338
  23 H :   -0.003392
  24 H :    0.033300
  25 H :   -0.012675
  26 H :    0.040148
  27 H :    0.017874
  28 H :    0.034684

  Mayer bond orders larger than 0.100000
B(  0-C ,  6-C ) :   1.3498 B(  0-C ,  8-N ) :   0.1160 B(  0-C , 15-C ) :   1.0836
B(  0-C , 19-C ) :   0.1503 B(  0-C , 20-H ) :   0.1127 B(  0-C , 21-H ) :   0.2156
B(  0-C , 27-H ) :   0.4870 B(  0-C , 28-H ) :   0.6024 B(  1-C ,  2-C ) :   1.1877
B(  1-C ,  3-H ) :   0.1091 B(  1-C ,  4-H ) :   0.2270 B(  1-C , 16-C ) :   1.2132
B(  1-C , 17-H ) :   0.5714 B(  1-C , 18-H ) :   0.6683 B(  2-C ,  3-H ) :   0.8352
B(  2-C ,  4-H ) :   0.8104 B(  2-C ,  5-S ) :   0.9341 B(  2-C , 17-H ) :   0.1297
B(  2-C , 18-H ) :   0.1915 B(  5-S , 13-F ) :   0.7085 B(  5-S , 14-O ) :   1.6847
B(  5-S , 22-O ) :   1.5462 B(  6-C ,  7-C ) :   2.2079 B(  6-C ,  8-N ) :   1.0810
B(  6-C , 11-H ) :   0.1092 B(  6-C , 12-H ) :   0.3997 B(  6-C , 15-C ) :   0.1473
B(  6-C , 27-H ) :   0.3707 B(  6-C , 28-H ) :   0.2767 B(  7-C ,  8-N ) :   0.3572
B(  7-C , 11-H ) :   0.5198 B(  7-C , 12-H ) :   0.1389 B(  8-N ,  9-H ) :   0.8676
B(  8-N , 10-H ) :   0.9143 B(  8-N , 11-H ) :   0.2092 B(  8-N , 12-H ) :  -0.1029
B(  9-H , 10-H ) :  -0.1557 B(  9-H , 12-H ) :  -0.1025 B( 10-H , 12-H ) :   0.1003
B( 11-H , 19-C ) :  -0.1022 B( 11-H , 23-H ) :   0.1126 B( 12-H , 13-F ) :   0.3132
B( 15-C , 19-C ) :   1.1668 B( 15-C , 20-H ) :   0.6077 B( 15-C , 21-H ) :   0.7449
B( 15-C , 23-H ) :   0.2299 B( 15-C , 27-H ) :   0.1650 B( 16-C , 17-H ) :   0.3438
B( 16-C , 19-C ) :   1.1826 B( 16-C , 23-H ) :   0.1827 B( 16-C , 24-H ) :   0.1914
B( 16-C , 25-H ) :   0.6889 B( 16-C , 26-H ) :   0.6239 B( 17-H , 18-H ) :  -0.1453
B( 19-C , 20-H ) :   0.3394 B( 19-C , 21-H ) :   0.2105 B( 19-C , 23-H ) :   0.7677
B( 19-C , 24-H ) :   0.7755 B( 19-C , 25-H ) :   0.1973 B( 19-C , 26-H ) :   0.2534
B( 20-H , 21-H ) :  -0.1801

FINAL SINGLE POINT ENERGY     -1015.396615438361

DIPOLE MOMENT
-------------
                                X             Y             Z
Electronic contribution:      2.12125      -4.86825     -18.52330
Nuclear contribution   :     -2.89481       6.29550      19.36835
                        -----------------------------------------
Total Dipole Moment    :     -0.77356       1.42725       0.84505
                        -----------------------------------------
Magnitude (a.u.)       :      1.83018
Magnitude (Debye)      :      4.65195

Rotational constants in cm-1:     0.036515     0.018832     0.015081
Rotational constants in MHz :  1094.679513   564.567051   452.109105

                             ****ORCA TERMINATED NORMALLY****
TOTAL RUN TIME: 0 days 0 hours 2 minutes 46 seconds 720 msec
