                         Program Version 5.0.0 -  RELEASE  -
|  1> !LC-BLYP RIJCOSX def2-SVPD def2/J TightSCF xyzfile
|  2>
|  3> *xyzfile 0 1 D3.xyz
|  4>
|  5> %MaxCore 64000
|  6>
|  7> %pal nprocs 4
|  8> end
|  9>
| 10> %scf
| 11>   MaxIter 150
| 12> end
| 13>
| 14>
| 15>                          ****END OF INPUT****

CARTESIAN COORDINATES (ANGSTROEM)
---------------------------------
  C      2.916324   -1.242589   -1.543125
  C      0.704661    1.443129   -4.503630
  C      1.728539    1.424320   -5.639443
  H      2.646718    1.953794   -5.381054
  H      1.299916    1.930613   -6.503614
  S      2.252625   -0.188115   -6.271840
  C      3.466585   -1.590971   -2.889082
  C      4.652275   -1.143164   -3.259692
  N      2.752264   -2.292043   -3.728029
  H      1.778364   -2.489604   -3.512738
  H      2.948612   -2.208544   -4.716813
  H      5.146723   -0.512508   -2.633852
  H      4.783030   -1.007203   -4.253498
  O      3.562607   -0.444464   -5.631552
  F      2.344944   -0.033742   -7.696501
  C      2.804084    0.290698   -1.359243
  C      1.052550    0.695659   -3.214915
  H     -0.232483    1.032925   -4.884449
  H      0.511700    2.495794   -4.267966
  C      2.388380    1.093669   -2.597108
  H      3.763425    0.674718   -0.999889
  H      2.094788    0.461222   -0.545756
  O      1.266058   -1.159177   -5.805365
  H      3.167316    1.013242   -3.359430
  H      2.357690    2.149375   -2.310997
  H      1.039284   -0.368429   -3.449329
  H      0.250787    0.865605   -2.488283
  H      1.940472   -1.716529   -1.441161
  H      3.558569   -1.663433   -0.766371

 Total Charge           Charge          ....    0
 Multiplicity           Mult            ....    1
 Number of Electrons    NEL             ....  112
 Basis Dimension        Dim             ....  404

ORBITAL ENERGIES
----------------

  NO   OCC          E(Eh)            E(eV)
   0   2.0000     -88.581791     -2410.4331
   1   2.0000     -24.609490      -669.6583
   2   2.0000     -18.983630      -516.5708
   3   2.0000     -18.974486      -516.3220
   4   2.0000     -14.160462      -385.3258
   5   2.0000     -10.157474      -276.3989
   6   2.0000     -10.118761      -275.3455
   7   2.0000     -10.087737      -274.5013
   8   2.0000     -10.084425      -274.4112
   9   2.0000     -10.078512      -274.2503
  10   2.0000     -10.077263      -274.2163
  11   2.0000     -10.073526      -274.1146
  12   2.0000      -9.987048      -271.7614
  13   2.0000      -8.130384      -221.2390
  14   2.0000      -6.169265      -167.8742
  15   2.0000      -6.162569      -167.6920
  16   2.0000      -6.160802      -167.6439
  17   2.0000      -1.477356       -40.2009
  18   2.0000      -1.217432       -33.1280
  19   2.0000      -1.111010       -30.2321
  20   2.0000      -1.006501       -27.3883
  21   2.0000      -0.950656       -25.8687
  22   2.0000      -0.903157       -24.5761
  23   2.0000      -0.870985       -23.7007
  24   2.0000      -0.833971       -22.6935
  25   2.0000      -0.803973       -21.8772
  26   2.0000      -0.779993       -21.2247
  27   2.0000      -0.744556       -20.2604
  28   2.0000      -0.711756       -19.3679
  29   2.0000      -0.705737       -19.2041
  30   2.0000      -0.678514       -18.4633
  31   2.0000      -0.670370       -18.2417
  32   2.0000      -0.641074       -17.4445
  33   2.0000      -0.615069       -16.7369
  34   2.0000      -0.606331       -16.4991
  35   2.0000      -0.601866       -16.3776
  36   2.0000      -0.587275       -15.9806
  37   2.0000      -0.575663       -15.6646
  38   2.0000      -0.555443       -15.1144
  39   2.0000      -0.544544       -14.8178
  40   2.0000      -0.532486       -14.4897
  41   2.0000      -0.519156       -14.1270
  42   2.0000      -0.507037       -13.7972
  43   2.0000      -0.488699       -13.2982
  44   2.0000      -0.481560       -13.1039
  45   2.0000      -0.465064       -12.6550
  46   2.0000      -0.458999       -12.4900
  47   2.0000      -0.452763       -12.3203
  48   2.0000      -0.445212       -12.1148
  49   2.0000      -0.436444       -11.8763
  50   2.0000      -0.427330       -11.6282
  51   2.0000      -0.423511       -11.5243
  52   2.0000      -0.413313       -11.2468
  53   2.0000      -0.404794       -11.0150
  54   2.0000      -0.399955       -10.8833
  55   2.0000      -0.259678        -7.0662
  56   0.0000       0.038690         1.0528
  57   0.0000       0.062273         1.6945
  58   0.0000       0.067529         1.8376
  59   0.0000       0.077684         2.1139
  60   0.0000       0.086761         2.3609

MULLIKEN ATOMIC CHARGES
-----------------------
   0 C :    0.787276
   1 C :    0.652702
   2 C :    0.320276
   3 H :    0.031892
   4 H :   -0.283204
   5 S :    1.332785
   6 C :   -0.752776
   7 C :    0.886788
   8 N :    0.602051
   9 H :    0.006059
  10 H :   -0.255841
  11 H :   -0.103458
  12 H :   -0.742260
  13 O :   -0.696048
  14 F :   -0.383830
  15 C :    0.541808
  16 C :    0.541743
  17 H :   -0.055103
  18 H :   -0.124144
  19 C :    0.189402
  20 H :   -0.094947
  21 H :   -0.225329
  22 O :   -0.685566
  23 H :   -0.198358
  24 H :   -0.250525
  25 H :   -0.561448
  26 H :   -0.185496
  27 H :    0.021040
  28 H :   -0.315490
Sum of atomic charges:   -0.0000000

LOEWDIN ATOMIC CHARGES
----------------------
   0 C :    0.014898
   1 C :   -0.030127
   2 C :   -0.042626
   3 H :    0.028625
   4 H :    0.019011
   5 S :    1.127136
   6 C :   -0.262176
   7 C :    0.166576
   8 N :    0.202476
   9 H :    0.002778
  10 H :   -0.049907
  11 H :   -0.071927
  12 H :   -0.132900
  13 O :   -0.455360
  14 F :   -0.227182
  15 C :   -0.019995
  16 C :   -0.023412
  17 H :    0.036155
  18 H :    0.042840
  19 C :   -0.031979
  20 H :    0.024630
  21 H :    0.021018
  22 O :   -0.446668
  23 H :    0.000948
  24 H :    0.030818
  25 H :   -0.009812
  26 H :    0.039268
  27 H :    0.014982
  28 H :    0.031912

  Mayer bond orders larger than 0.100000
B(  0-C ,  6-C ) :   1.3375 B(  0-C ,  8-N ) :   0.1078 B(  0-C , 15-C ) :   1.0824
B(  0-C , 19-C ) :   0.1461 B(  0-C , 20-H ) :   0.1095 B(  0-C , 21-H ) :   0.2252
B(  0-C , 27-H ) :   0.4962 B(  0-C , 28-H ) :   0.6037 B(  1-C ,  2-C ) :   1.2153
B(  1-C ,  4-H ) :   0.2549 B(  1-C , 16-C ) :   1.2110 B(  1-C , 17-H ) :   0.5807
B(  1-C , 18-H ) :   0.6608 B(  2-C ,  3-H ) :   0.8636 B(  2-C ,  4-H ) :   0.7551
B(  2-C ,  5-S ) :   0.9671 B(  2-C , 17-H ) :   0.1210 B(  2-C , 18-H ) :   0.1977
B(  5-S , 13-O ) :   1.4504 B(  5-S , 14-F ) :   0.7230 B(  5-S , 22-O ) :   1.4971
B(  6-C ,  7-C ) :   2.2069 B(  6-C ,  8-N ) :   1.0714 B(  6-C , 11-H ) :   0.1057
B(  6-C , 12-H ) :   0.4186 B(  6-C , 15-C ) :   0.1378 B(  6-C , 27-H ) :   0.3676
B(  6-C , 28-H ) :   0.2807 B(  7-C ,  8-N ) :   0.3626 B(  7-C , 11-H ) :   0.4816
B(  7-C , 12-H ) :   0.2107 B(  8-N ,  9-H ) :   0.8707 B(  8-N , 10-H ) :   0.8996
B(  8-N , 11-H ) :   0.2129 B(  8-N , 12-H ) :  -0.1051 B(  9-H , 10-H ) :  -0.1598
B( 10-H , 12-H ) :   0.1105 B( 10-H , 13-O ) :   0.1168 B( 11-H , 23-H ) :   0.1100
B( 12-H , 13-O ) :   0.2675 B( 13-O , 22-O ) :   0.1430 B( 15-C , 19-C ) :   1.1680
B( 15-C , 20-H ) :   0.6059 B( 15-C , 21-H ) :   0.7431 B( 15-C , 23-H ) :   0.2197
B( 15-C , 27-H ) :   0.1613 B( 16-C , 17-H ) :   0.3454 B( 16-C , 19-C ) :   1.1948
B( 16-C , 23-H ) :   0.1863 B( 16-C , 24-H ) :   0.2036 B( 16-C , 25-H ) :   0.6970
B( 16-C , 26-H ) :   0.6232 B( 17-H , 18-H ) :  -0.1392 B( 19-C , 20-H ) :   0.3375
B( 19-C , 21-H ) :   0.2063 B( 19-C , 23-H ) :   0.7834 B( 19-C , 24-H ) :   0.7455
B( 19-C , 25-H ) :   0.2018 B( 19-C , 26-H ) :   0.2459 B( 20-H , 21-H ) :  -0.1815

FINAL SINGLE POINT ENERGY     -1015.378947034078

DIPOLE MOMENT
-------------
                                X             Y             Z
Electronic contribution:      0.00805      -4.06633     -22.50096
Nuclear contribution   :     -1.50273       5.82595      21.72909
                        -----------------------------------------
Total Dipole Moment    :     -1.49468       1.75962      -0.77187
                        -----------------------------------------
Magnitude (a.u.)       :      2.43436
Magnitude (Debye)      :      6.18765

Rotational constants in cm-1:     0.036883     0.018294     0.014745
Rotational constants in MHz :  1105.724679   548.429785   442.050481

                             ****ORCA TERMINATED NORMALLY****
TOTAL RUN TIME: 0 days 0 hours 2 minutes 48 seconds 465 msec
