                         Program Version 5.0.0 -  RELEASE  -
|  1> !LC-BLYP RIJCOSX def2-SVPD def2/J TightSCF xyzfile
|  2>
|  3> *xyzfile 0 1 D4.xyz
|  4>
|  5> %MaxCore 64000
|  6>
|  7> %pal nprocs 4
|  8> end
|  9>
| 10> %scf
| 11>   MaxIter 150
| 12> end
| 13>
| 14>
| 15>                          ****END OF INPUT****

CARTESIAN COORDINATES (ANGSTROEM)
---------------------------------
  C      2.916324   -1.242589   -1.543125
  C      0.704661    1.443129   -4.503630
  C      1.728539    1.424320   -5.639443
  H      2.646718    1.953794   -5.381054
  H      1.299916    1.930613   -6.503614
  S      2.252625   -0.188115   -6.271840
  C      3.466585   -1.590971   -2.889082
  N      4.652275   -1.143164   -3.259692
  C      2.752264   -2.292043   -3.728029
  H      1.778364   -2.489604   -3.512738
  H      2.948612   -2.208544   -4.716813
  H      5.146723   -0.512508   -2.633852
  H      4.783030   -1.007203   -4.253498
  O      3.562607   -0.444464   -5.631552
  F      2.344944   -0.033742   -7.696501
  C      2.804084    0.290698   -1.359243
  C      1.052550    0.695659   -3.214915
  H     -0.232483    1.032925   -4.884449
  H      0.511700    2.495794   -4.267966
  C      2.388380    1.093669   -2.597108
  H      3.763425    0.674718   -0.999889
  H      2.094788    0.461222   -0.545756
  O      1.266058   -1.159177   -5.805365
  H      3.167316    1.013242   -3.359430
  H      2.357690    2.149375   -2.310997
  H      1.039284   -0.368429   -3.449329
  H      0.250787    0.865605   -2.488283
  H      1.940472   -1.716529   -1.441161
  H      3.558569   -1.663433   -0.766371

 Total Charge           Charge          ....    0
 Multiplicity           Mult            ....    1
 Number of Electrons    NEL             ....  112
 Basis Dimension        Dim             ....  404

ORBITAL ENERGIES
----------------

  NO   OCC          E(Eh)            E(eV)
   0   2.0000     -88.577788     -2410.3241
   1   2.0000     -24.605667      -669.5542
   2   2.0000     -18.974325      -516.3176
   3   2.0000     -18.971143      -516.2311
   4   2.0000     -14.159408      -385.2971
   5   2.0000     -10.154167      -276.3089
   6   2.0000     -10.114862      -275.2394
   7   2.0000     -10.081996      -274.3451
   8   2.0000     -10.081907      -274.3426
   9   2.0000     -10.081729      -274.3378
  10   2.0000     -10.080497      -274.3043
  11   2.0000     -10.071556      -274.0610
  12   2.0000      -9.991950      -271.8948
  13   2.0000      -8.125973      -221.1190
  14   2.0000      -6.164874      -167.7548
  15   2.0000      -6.158166      -167.5722
  16   2.0000      -6.156453      -167.5256
  17   2.0000      -1.473322       -40.0911
  18   2.0000      -1.210549       -32.9407
  19   2.0000      -1.105211       -30.0743
  20   2.0000      -1.003355       -27.3027
  21   2.0000      -0.946930       -25.7673
  22   2.0000      -0.901740       -24.5376
  23   2.0000      -0.865919       -23.5629
  24   2.0000      -0.833238       -22.6736
  25   2.0000      -0.811109       -22.0714
  26   2.0000      -0.778968       -21.1968
  27   2.0000      -0.736542       -20.0423
  28   2.0000      -0.708652       -19.2834
  29   2.0000      -0.701180       -19.0801
  30   2.0000      -0.675455       -18.3801
  31   2.0000      -0.669746       -18.2247
  32   2.0000      -0.638864       -17.3844
  33   2.0000      -0.614561       -16.7231
  34   2.0000      -0.607223       -16.5234
  35   2.0000      -0.603896       -16.4329
  36   2.0000      -0.580661       -15.8006
  37   2.0000      -0.563034       -15.3209
  38   2.0000      -0.555191       -15.1075
  39   2.0000      -0.547017       -14.8851
  40   2.0000      -0.532912       -14.5013
  41   2.0000      -0.513352       -13.9690
  42   2.0000      -0.504326       -13.7234
  43   2.0000      -0.486594       -13.2409
  44   2.0000      -0.482034       -13.1168
  45   2.0000      -0.471241       -12.8231
  46   2.0000      -0.458674       -12.4812
  47   2.0000      -0.452397       -12.3104
  48   2.0000      -0.442095       -12.0300
  49   2.0000      -0.427694       -11.6382
  50   2.0000      -0.423288       -11.5182
  51   2.0000      -0.417477       -11.3601
  52   2.0000      -0.413644       -11.2558
  53   2.0000      -0.404300       -11.0016
  54   2.0000      -0.395236       -10.7549
  55   2.0000      -0.267460        -7.2780
  56   0.0000       0.040832         1.1111
  57   0.0000       0.064551         1.7565
  58   0.0000       0.067992         1.8502
  59   0.0000       0.077755         2.1158
  60   0.0000       0.090978         2.4756

MULLIKEN ATOMIC CHARGES
-----------------------
   0 C :    0.663085
   1 C :    0.626661
   2 C :    0.304764
   3 H :    0.058482
   4 H :   -0.290318
   5 S :    1.298192
   6 C :   -0.884941
   7 N :    0.629367
   8 C :    1.001183
   9 H :   -0.159390
  10 H :   -0.682479
  11 H :   -0.020964
  12 H :   -0.302480
  13 O :   -0.657617
  14 F :   -0.391389
  15 C :    0.686916
  16 C :    0.576337
  17 H :   -0.062888
  18 H :   -0.127188
  19 C :    0.098782
  20 H :   -0.096198
  21 H :   -0.216730
  22 O :   -0.663546
  23 H :   -0.117822
  24 H :   -0.321780
  25 H :   -0.666604
  26 H :   -0.140272
  27 H :    0.222311
  28 H :   -0.363473
Sum of atomic charges:   -0.0000000

LOEWDIN ATOMIC CHARGES
----------------------
   0 C :    0.013814
   1 C :   -0.030019
   2 C :   -0.045201
   3 H :    0.025721
   4 H :    0.018482
   5 S :    1.128825
   6 C :   -0.270158
   7 N :    0.204656
   8 C :    0.161478
   9 H :   -0.064047
  10 H :   -0.120515
  11 H :    0.002284
  12 H :   -0.057918
  13 O :   -0.463681
  14 F :   -0.227792
  15 C :   -0.023746
  16 C :   -0.019831
  17 H :    0.036883
  18 H :    0.041310
  19 C :   -0.034000
  20 H :    0.017935
  21 H :    0.022604
  22 O :   -0.430216
  23 H :   -0.001043
  24 H :    0.029910
  25 H :   -0.007379
  26 H :    0.039413
  27 H :    0.025934
  28 H :    0.026295

  Mayer bond orders larger than 0.100000
B(  0-C ,  6-C ) :   1.3970 B(  0-C ,  8-C ) :   0.1344 B(  0-C , 15-C ) :   1.0642
B(  0-C , 20-H ) :   0.1360 B(  0-C , 21-H ) :   0.2374 B(  0-C , 27-H ) :   0.7587
B(  0-C , 28-H ) :   0.4341 B(  1-C ,  2-C ) :   1.2159 B(  1-C ,  4-H ) :   0.2544
B(  1-C , 16-C ) :   1.2164 B(  1-C , 17-H ) :   0.5885 B(  1-C , 18-H ) :   0.6707
B(  2-C ,  3-H ) :   0.8533 B(  2-C ,  4-H ) :   0.7467 B(  2-C ,  5-S ) :   0.9563
B(  2-C , 17-H ) :   0.1224 B(  2-C , 18-H ) :   0.1963 B(  5-S , 13-O ) :   1.4384
B(  5-S , 14-F ) :   0.7163 B(  5-S , 22-O ) :   1.5436 B(  6-C ,  7-N ) :   1.0188
B(  6-C ,  8-C ) :   2.0564 B(  6-C , 10-H ) :   0.6130 B(  6-C , 11-H ) :   0.1142
B(  6-C , 15-C ) :   0.2755 B(  6-C , 21-H ) :  -0.1219 B(  6-C , 28-H ) :   0.4578
B(  7-N ,  8-C ) :   0.4469 B(  7-N ,  9-H ) :   0.2102 B(  7-N , 10-H ) :  -0.1362
B(  7-N , 11-H ) :   0.9328 B(  7-N , 12-H ) :   0.8639 B(  8-C ,  9-H ) :   0.4842
B(  8-C , 10-H ) :  -0.1893 B(  8-C , 27-H ) :  -0.1276 B(  9-H , 10-H ) :   0.1270
B(  9-H , 25-H ) :   0.1331 B( 10-H , 12-H ) :   0.1800 B( 11-H , 12-H ) :  -0.1723
B( 13-O , 22-O ) :   0.1520 B( 15-C , 19-C ) :   1.1704 B( 15-C , 20-H ) :   0.5755
B( 15-C , 21-H ) :   0.7078 B( 15-C , 23-H ) :   0.1281 B( 15-C , 27-H ) :   0.1463
B( 16-C , 17-H ) :   0.3361 B( 16-C , 19-C ) :   1.2096 B( 16-C , 23-H ) :   0.1661
B( 16-C , 24-H ) :   0.1789 B( 16-C , 25-H ) :   0.7141 B( 16-C , 26-H ) :   0.5893
B( 17-H , 18-H ) :  -0.1398 B( 19-C , 20-H ) :   0.3497 B( 19-C , 21-H ) :   0.1897
B( 19-C , 23-H ) :   0.8318 B( 19-C , 24-H ) :   0.7756 B( 19-C , 25-H ) :   0.2182
B( 19-C , 26-H ) :   0.2213 B( 20-H , 21-H ) :  -0.1837

FINAL SINGLE POINT ENERGY     -1015.382089420182

DIPOLE MOMENT
-------------
                                X             Y             Z
Electronic contribution:      1.29128      -3.37491     -22.17660
Nuclear contribution   :     -1.74760       5.67788      21.66873
                        -----------------------------------------
Total Dipole Moment    :     -0.45632       2.30296      -0.50787
                        -----------------------------------------
Magnitude (a.u.)       :      2.40204
Magnitude (Debye)      :      6.10550

Rotational constants in cm-1:     0.036818     0.018222     0.014682
Rotational constants in MHz :  1103.783048   546.296792   440.157914

                             ****ORCA TERMINATED NORMALLY****
TOTAL RUN TIME: 0 days 0 hours 2 minutes 50 seconds 779 msec
