                         Program Version 5.0.0 -  RELEASE  -
|  1> !LC-BLYP RIJCOSX def2-SVPD def2/J TightSCF xyzfile
|  2>
|  3> *xyzfile 0 1 D6.xyz
|  4>
|  5> %MaxCore 64000
|  6>
|  7> %pal nprocs 4
|  8> end
|  9>
| 10> %scf
| 11>   MaxIter 150
| 12> end
| 13>
| 14>
| 15>                          ****END OF INPUT****

CARTESIAN COORDINATES (ANGSTROEM)
---------------------------------
  C      2.916324   -1.242589   -1.543125
  C      0.704661    1.443129   -4.503630
  C      1.728539    1.424320   -5.639443
  H      2.646718    1.953794   -5.381054
  H      1.299916    1.930613   -6.503614
  S      2.252625   -0.188115   -6.271840
  C      3.466585   -1.590971   -2.889082
  N      4.652275   -1.143164   -3.259692
  C      2.752264   -2.292043   -3.728029
  H      1.778364   -2.489604   -3.512738
  H      2.948612   -2.208544   -4.716813
  H      5.146723   -0.512508   -2.633852
  H      4.783030   -1.007203   -4.253498
  O      3.562607   -0.444464   -5.631552
  O      2.344944   -0.033742   -7.696501
  C      2.804084    0.290698   -1.359243
  C      1.052550    0.695659   -3.214915
  H     -0.232483    1.032925   -4.884449
  H      0.511700    2.495794   -4.267966
  C      2.388380    1.093669   -2.597108
  H      3.763425    0.674718   -0.999889
  H      2.094788    0.461222   -0.545756
  F      1.266058   -1.159177   -5.805365
  H      3.167316    1.013242   -3.359430
  H      2.357690    2.149375   -2.310997
  H      1.039284   -0.368429   -3.449329
  H      0.250787    0.865605   -2.488283
  H      1.940472   -1.716529   -1.441161
  H      3.558569   -1.663433   -0.766371

 Total Charge           Charge          ....    0
 Multiplicity           Mult            ....    1
 Number of Electrons    NEL             ....  112
 Basis Dimension        Dim             ....  404

ORBITAL ENERGIES
----------------

  NO   OCC          E(Eh)            E(eV)
   0   2.0000     -88.574786     -2410.2425
   1   2.0000     -24.589141      -669.1045
   2   2.0000     -18.980961      -516.4982
   3   2.0000     -18.966814      -516.1132
   4   2.0000     -14.169024      -385.5588
   5   2.0000     -10.151699      -276.2418
   6   2.0000     -10.120312      -275.3877
   7   2.0000     -10.097189      -274.7585
   8   2.0000     -10.094346      -274.6811
   9   2.0000     -10.090755      -274.5834
  10   2.0000     -10.089005      -274.5358
  11   2.0000     -10.082193      -274.3504
  12   2.0000     -10.008097      -272.3342
  13   2.0000      -8.122773      -221.0319
  14   2.0000      -6.161672      -167.6676
  15   2.0000      -6.155131      -167.4896
  16   2.0000      -6.153279      -167.4392
  17   2.0000      -1.448931       -39.4274
  18   2.0000      -1.216077       -33.0911
  19   2.0000      -1.112184       -30.2641
  20   2.0000      -1.013860       -27.5885
  21   2.0000      -0.952010       -25.9055
  22   2.0000      -0.907258       -24.6877
  23   2.0000      -0.864979       -23.5373
  24   2.0000      -0.836108       -22.7517
  25   2.0000      -0.814682       -22.1686
  26   2.0000      -0.786193       -21.3934
  27   2.0000      -0.742184       -20.1958
  28   2.0000      -0.708083       -19.2679
  29   2.0000      -0.692210       -18.8360
  30   2.0000      -0.681326       -18.5398
  31   2.0000      -0.667095       -18.1526
  32   2.0000      -0.645247       -17.5581
  33   2.0000      -0.615233       -16.7413
  34   2.0000      -0.606365       -16.5000
  35   2.0000      -0.602828       -16.4038
  36   2.0000      -0.585220       -15.9246
  37   2.0000      -0.572432       -15.5767
  38   2.0000      -0.565140       -15.3782
  39   2.0000      -0.550449       -14.9785
  40   2.0000      -0.542851       -14.7717
  41   2.0000      -0.520539       -14.1646
  42   2.0000      -0.510442       -13.8898
  43   2.0000      -0.499223       -13.5845
  44   2.0000      -0.489409       -13.3175
  45   2.0000      -0.484790       -13.1918
  46   2.0000      -0.467517       -12.7218
  47   2.0000      -0.462759       -12.5923
  48   2.0000      -0.452110       -12.3025
  49   2.0000      -0.436381       -11.8745
  50   2.0000      -0.430832       -11.7235
  51   2.0000      -0.423919       -11.5354
  52   2.0000      -0.422293       -11.4912
  53   2.0000      -0.407767       -11.0959
  54   2.0000      -0.405415       -11.0319
  55   2.0000      -0.281566        -7.6618
  56   0.0000       0.045711         1.2439
  57   0.0000       0.065952         1.7946
  58   0.0000       0.070906         1.9294
  59   0.0000       0.074603         2.0300
  60   0.0000       0.090305         2.4573

MULLIKEN ATOMIC CHARGES
-----------------------
   0 C :    0.665989
   1 C :    0.649119
   2 C :    0.337157
   3 H :    0.050851
   4 H :   -0.301691
   5 S :    1.113285
   6 C :   -0.857079
   7 N :    0.635152
   8 C :    0.994419
   9 H :   -0.152030
  10 H :   -0.733164
  11 H :   -0.016141
  12 H :   -0.306986
  13 O :   -0.607664
  14 O :   -0.507423
  15 C :    0.681291
  16 C :    0.599616
  17 H :   -0.092948
  18 H :   -0.118354
  19 C :    0.099022
  20 H :   -0.092436
  21 H :   -0.217473
  22 F :   -0.426102
  23 H :   -0.118896
  24 H :   -0.317159
  25 H :   -0.687732
  26 H :   -0.132280
  27 H :    0.219838
  28 H :   -0.360179
Sum of atomic charges:    0.0000000

LOEWDIN ATOMIC CHARGES
----------------------
   0 C :    0.015414
   1 C :   -0.042016
   2 C :   -0.034510
   3 H :    0.033069
   4 H :    0.024968
   5 S :    1.109569
   6 C :   -0.266663
   7 N :    0.210818
   8 C :    0.152126
   9 H :   -0.068891
  10 H :   -0.120908
  11 H :    0.005704
  12 H :   -0.054656
  13 O :   -0.459952
  14 O :   -0.424874
  15 C :   -0.022052
  16 C :   -0.025864
  17 H :    0.033771
  18 H :    0.040653
  19 C :   -0.031842
  20 H :    0.019629
  21 H :    0.023718
  22 F :   -0.233717
  23 H :    0.000087
  24 H :    0.032478
  25 H :   -0.010413
  26 H :    0.039988
  27 H :    0.025789
  28 H :    0.028578

  Mayer bond orders larger than 0.100000
B(  0-C ,  6-C ) :   1.3980 B(  0-C ,  8-C ) :   0.1270 B(  0-C , 15-C ) :   1.0667
B(  0-C , 20-H ) :   0.1372 B(  0-C , 21-H ) :   0.2362 B(  0-C , 27-H ) :   0.7562
B(  0-C , 28-H ) :   0.4363 B(  1-C ,  2-C ) :   1.1855 B(  1-C ,  4-H ) :   0.2392
B(  1-C , 16-C ) :   1.2203 B(  1-C , 17-H ) :   0.5795 B(  1-C , 18-H ) :   0.6692
B(  2-C ,  3-H ) :   0.8528 B(  2-C ,  4-H ) :   0.8061 B(  2-C ,  5-S ) :   0.9552
B(  2-C , 17-H ) :   0.1211 B(  2-C , 18-H ) :   0.1888 B(  5-S , 10-H ) :   0.1159
B(  5-S , 13-O ) :   1.4699 B(  5-S , 14-O ) :   1.6813 B(  5-S , 22-F ) :   0.7361
B(  6-C ,  7-N ) :   1.0409 B(  6-C ,  8-C ) :   2.0611 B(  6-C , 10-H ) :   0.5864
B(  6-C , 11-H ) :   0.1122 B(  6-C , 15-C ) :   0.2797 B(  6-C , 21-H ) :  -0.1193
B(  6-C , 28-H ) :   0.4496 B(  7-N ,  8-C ) :   0.4365 B(  7-N ,  9-H ) :   0.2057
B(  7-N , 10-H ) :  -0.1148 B(  7-N , 11-H ) :   0.9285 B(  7-N , 12-H ) :   0.8636
B(  8-C ,  9-H ) :   0.4717 B(  8-C , 10-H ) :  -0.2240 B(  8-C , 27-H ) :  -0.1248
B(  9-H , 10-H ) :   0.1004 B(  9-H , 25-H ) :   0.1295 B( 10-H , 12-H ) :   0.1730
B( 11-H , 12-H ) :  -0.1739 B( 12-H , 13-O ) :   0.1129 B( 15-C , 19-C ) :   1.1767
B( 15-C , 20-H ) :   0.5764 B( 15-C , 21-H ) :   0.7105 B( 15-C , 23-H ) :   0.1310
B( 15-C , 27-H ) :   0.1499 B( 16-C , 17-H ) :   0.3231 B( 16-C , 19-C ) :   1.2044
B( 16-C , 23-H ) :   0.1699 B( 16-C , 24-H ) :   0.1757 B( 16-C , 25-H ) :   0.6762
B( 16-C , 26-H ) :   0.5944 B( 17-H , 18-H ) :  -0.1554 B( 19-C , 20-H ) :   0.3476
B( 19-C , 21-H ) :   0.1907 B( 19-C , 23-H ) :   0.8346 B( 19-C , 24-H ) :   0.7767
B( 19-C , 25-H ) :   0.2307 B( 19-C , 26-H ) :   0.2229 B( 20-H , 21-H ) :  -0.1825

FINAL SINGLE POINT ENERGY     -1015.394189684689

DIPOLE MOMENT
-------------
                                X             Y             Z
Electronic contribution:     -0.48682      -5.27277     -18.61215
Nuclear contribution   :     -0.51418       6.96452      19.50670
                        -----------------------------------------
Total Dipole Moment    :     -1.00100       1.69175       0.89456
                        -----------------------------------------
Magnitude (a.u.)       :      2.15969
Magnitude (Debye)      :      5.48949

Rotational constants in cm-1:     0.036455     0.018603     0.015008
Rotational constants in MHz :  1092.895336   557.693628   449.926016

                             ****ORCA TERMINATED NORMALLY****
TOTAL RUN TIME: 0 days 0 hours 2 minutes 50 seconds 630 msec
