                         Program Version 5.0.0 -  RELEASE  -
|  1> !wB97X-D3 RIJCOSX def2-SVPD def2/J TightSCF
|  2> *xyz -1 1
|  3> C          0.61188        1.65763       -4.50029
|  4> C          1.69499        1.54179       -5.57045
|  5> H          2.69733        1.73466       -5.18400
|  6> H          1.50666        2.27224       -6.35808
|  7> S          1.78029       -0.03313       -6.42874
|  8> O          2.56929        0.21366       -7.60736
|  9> O          0.41688       -0.46297       -6.61859
| 10> O          2.50513       -0.93326       -5.48257
| 11> H         -0.34424        1.45871       -4.93752
| 12> H          0.61845        2.64655       -4.09174
| 13> H          0.80247        0.94882       -3.72173
| 14> *
| 15> %MaxCore 64000
| 16>
| 17> %pal nprocs 18
| 18> end
| 19>
| 20> %scf
| 21>   MaxIter 150
| 22> end
| 23>
| 24>
| 25>                          ****END OF INPUT****

CARTESIAN COORDINATES (ANGSTROEM)
---------------------------------
  C      0.611880    1.657630   -4.500290
  C      1.694990    1.541790   -5.570450
  H      2.697330    1.734660   -5.184000
  H      1.506660    2.272240   -6.358080
  S      1.780290   -0.033130   -6.428740
  O      2.569290    0.213660   -7.607360
  O      0.416880   -0.462970   -6.618590
  O      2.505130   -0.933260   -5.482570
  H     -0.344240    1.458710   -4.937520
  H      0.618450    2.646550   -4.091740
  H      0.802470    0.948820   -3.721730

 Total Charge           Charge          ....   -1
 Multiplicity           Mult            ....    1
 Number of Electrons    NEL             ....   58
 Basis Dimension        Dim             ....  176

ORBITAL ENERGIES
----------------

  NO   OCC          E(Eh)            E(eV)
   0   2.0000     -88.975934     -2421.1582
   1   2.0000     -19.028524      -517.7925
   2   2.0000     -19.027861      -517.7744
   3   2.0000     -19.008756      -517.2546
   4   2.0000     -10.154475      -276.3173
   5   2.0000     -10.149258      -276.1753
   6   2.0000      -8.049739      -219.0445
   7   2.0000      -6.009302      -163.5214
   8   2.0000      -6.009153      -163.5174
   9   2.0000      -6.008756      -163.5066
  10   2.0000      -1.049171       -28.5494
  11   2.0000      -0.911154       -24.7938
  12   2.0000      -0.876226       -23.8433
  13   2.0000      -0.747194       -20.3322
  14   2.0000      -0.619364       -16.8537
  15   2.0000      -0.488877       -13.3030
  16   2.0000      -0.424116       -11.5408
  17   2.0000      -0.422539       -11.4979
  18   2.0000      -0.382147       -10.3987
  19   2.0000      -0.367117        -9.9898
  20   2.0000      -0.359437        -9.7808
  21   2.0000      -0.329913        -8.9774
  22   2.0000      -0.312996        -8.5170
  23   2.0000      -0.251821        -6.8524
  24   2.0000      -0.250090        -6.8053
  25   2.0000      -0.215612        -5.8671
  26   2.0000      -0.204301        -5.5593
  27   2.0000      -0.190672        -5.1885
  28   2.0000      -0.158461        -4.3120
  29   0.0000       0.207360         5.6426
  30   0.0000       0.229411         6.2426
  31   0.0000       0.232012         6.3134
  32   0.0000       0.238729         6.4961
  33   0.0000       0.260194         7.0802

MULLIKEN ATOMIC CHARGES
-----------------------
   0 C :    0.688186
   1 C :   -0.380310
   2 H :   -0.044639
   3 H :   -0.004802
   4 S :    1.341630
   5 O :   -0.789786
   6 O :   -0.802911
   7 O :   -0.852312
   8 H :   -0.033583
   9 H :   -0.083778
  10 H :   -0.037695
Sum of atomic charges:   -1.0000000

LOEWDIN ATOMIC CHARGES
----------------------
   0 C :    0.100460
   1 C :   -0.137148
   2 H :    0.007336
   3 H :   -0.000137
   4 S :    0.861538
   5 O :   -0.578707
   6 O :   -0.574385
   7 O :   -0.611171
   8 H :   -0.022559
   9 H :   -0.031697
  10 H :   -0.013529

  Mayer bond orders larger than 0.100000
B(  0-C ,  1-C ) :   1.2547 B(  0-C ,  8-H ) :   0.8335 B(  0-C ,  9-H ) :   0.7697
B(  0-C , 10-H ) :   0.8300 B(  1-C ,  2-H ) :   0.9955 B(  1-C ,  3-H ) :   0.9900
B(  1-C ,  4-S ) :   0.9332 B(  1-C ,  8-H ) :   0.1926 B(  1-C ,  9-H ) :   0.1962
B(  1-C , 10-H ) :   0.1773 B(  4-S ,  5-O ) :   1.3569 B(  4-S ,  6-O ) :   1.3197
B(  4-S ,  7-O ) :   1.2745

Dispersion correction           -0.002885916
FINAL SINGLE POINT ENERGY      -702.691710854813

DIPOLE MOMENT
-------------
                                X             Y             Z
Electronic contribution:      2.20959      -5.53129      -4.94568
Nuclear contribution   :     -2.69163       7.29476       5.86550
                        -----------------------------------------
Total Dipole Moment    :     -0.48204       1.76347       0.91982
                        -----------------------------------------
Magnitude (a.u.)       :      2.04652
Magnitude (Debye)      :      5.20184

Rotational constants in cm-1:     0.163060     0.082831     0.081111
Rotational constants in MHz :  4888.419330  2483.225008  2431.646841

                             ****ORCA TERMINATED NORMALLY****
TOTAL RUN TIME: 0 days 0 hours 0 minutes 10 seconds 196 msec
