                         Program Version 5.0.0 -  RELEASE  -
|  1> !wB97X-D3 RIJCOSX def2-SVPD def2/J TightSCF
|  2> *xyz 1 1
|  3> C          1.96337       -1.74915       -1.89689
|  4> N          2.73849       -2.01517       -3.09711
|  5> C          4.04974       -2.15472       -3.15204
|  6> N          4.65821       -1.98629       -4.31866
|  7> N          4.76423       -2.45444       -2.05049
|  8> H          4.28736       -2.77626       -1.21750
|  9> H          5.75082       -2.65835       -2.12599
| 10> H          2.34518       -1.69027       -3.97145
| 11> H          4.10900       -1.59268       -5.07176
| 12> H          5.64910       -2.15646       -4.42724
| 13> C          2.08852       -0.30091       -1.41520
| 14> H          2.23127       -2.45162       -1.10264
| 15> H          0.93025       -1.97780       -2.15544
| 16> H          1.82118        0.36368       -2.21003
| 17> H          3.09792       -0.11068       -1.11551
| 18> H          1.43391       -0.14382       -0.58352
| 19> *
| 20> %MaxCore 64000
| 21>
| 22> %pal nprocs 18
| 23> end
| 24>
| 25> %scf
| 26>   MaxIter 150
| 27> end
| 28>
| 29>
| 30>                          ****END OF INPUT****

CARTESIAN COORDINATES (ANGSTROEM)
---------------------------------
  C      1.963370   -1.749150   -1.896890
  N      2.738490   -2.015170   -3.097110
  C      4.049740   -2.154720   -3.152040
  N      4.658210   -1.986290   -4.318660
  N      4.764230   -2.454440   -2.050490
  H      4.287360   -2.776260   -1.217500
  H      5.750820   -2.658350   -2.125990
  H      2.345180   -1.690270   -3.971450
  H      4.109000   -1.592680   -5.071760
  H      5.649100   -2.156460   -4.427240
  C      2.088520   -0.300910   -1.415200
  H      2.231270   -2.451620   -1.102640
  H      0.930250   -1.977800   -2.155440
  H      1.821180    0.363680   -2.210030
  H      3.097920   -0.110680   -1.115510
  H      1.433910   -0.143820   -0.583520

 Total Charge           Charge          ....    1
 Multiplicity           Mult            ....    1
 Number of Electrons    NEL             ....   48
 Basis Dimension        Dim             ....  200

ORBITAL ENERGIES
----------------

  NO   OCC          E(Eh)            E(eV)
   0   2.0000     -14.663858      -399.0239
   1   2.0000     -14.662349      -398.9828
   2   2.0000     -14.661539      -398.9608
   3   2.0000     -10.630137      -289.2607
   4   2.0000     -10.498104      -285.6679
   5   2.0000     -10.425631      -283.6958
   6   2.0000      -1.330502       -36.2048
   7   2.0000      -1.215923       -33.0869
   8   2.0000      -1.202414       -32.7194
   9   2.0000      -1.041003       -28.3271
  10   2.0000      -0.948985       -25.8232
  11   2.0000      -0.912408       -24.8279
  12   2.0000      -0.891215       -24.2512
  13   2.0000      -0.850068       -23.1315
  14   2.0000      -0.797180       -21.6924
  15   2.0000      -0.788381       -21.4529
  16   2.0000      -0.761701       -20.7269
  17   2.0000      -0.730386       -19.8748
  18   2.0000      -0.701209       -19.0809
  19   2.0000      -0.663565       -18.0565
  20   2.0000      -0.628636       -17.1061
  21   2.0000      -0.607780       -16.5385
  22   2.0000      -0.574383       -15.6297
  23   2.0000      -0.544119       -14.8062
  24   0.0000      -0.090065        -2.4508
  25   0.0000      -0.078040        -2.1236
  26   0.0000      -0.043660        -1.1880
  27   0.0000      -0.035675        -0.9708
  28   0.0000      -0.007510        -0.2044

MULLIKEN ATOMIC CHARGES
-----------------------
   0 C :    0.251364
   1 N :   -0.434450
   2 C :    1.401240
   3 N :   -0.152032
   4 N :   -0.064380
   5 H :   -0.008172
   6 H :   -0.112831
   7 H :   -0.146305
   8 H :    0.020895
   9 H :   -0.036010
  10 C :    0.572207
  11 H :   -0.068639
  12 H :   -0.225778
  13 H :   -0.015438
  14 H :   -0.033881
  15 H :    0.052212
Sum of atomic charges:    1.0000000

LOEWDIN ATOMIC CHARGES
----------------------
   0 C :    0.042181
   1 N :    0.033125
   2 C :   -0.024729
   3 N :    0.256779
   4 N :    0.274001
   5 H :    0.024190
   6 H :    0.039013
   7 H :    0.057997
   8 H :    0.040918
   9 H :    0.046321
  10 C :    0.158086
  11 H :    0.027425
  12 H :    0.041281
  13 H :   -0.005494
  14 H :   -0.015022
  15 H :    0.003928

  Mayer bond orders larger than 0.100000
B(  0-C ,  1-N ) :   0.9010 B(  0-C ,  7-H ) :  -0.1128 B(  0-C , 10-C ) :   1.2257
B(  0-C , 11-H ) :   0.9226 B(  0-C , 12-H ) :   0.9122 B(  0-C , 13-H ) :   0.2017
B(  0-C , 14-H ) :   0.1680 B(  0-C , 15-H ) :   0.1445 B(  1-N ,  2-C ) :   1.0472
B(  1-N ,  3-N ) :   0.2829 B(  1-N ,  4-N ) :   0.1918 B(  1-N ,  7-H ) :   1.2414
B(  1-N , 11-H ) :   0.1203 B(  1-N , 12-H ) :   0.1978 B(  2-C ,  3-N ) :   0.8270
B(  2-C ,  4-N ) :   0.9320 B(  2-C ,  5-H ) :  -0.1070 B(  2-C ,  6-H ) :  -0.1502
B(  2-C ,  7-H ) :  -0.2008 B(  2-C ,  8-H ) :  -0.1261 B(  2-C ,  9-H ) :  -0.1274
B(  3-N ,  4-N ) :   0.1481 B(  3-N ,  8-H ) :   1.1379 B(  3-N ,  9-H ) :   1.2337
B(  4-N ,  5-H ) :   1.0776 B(  4-N ,  6-H ) :   1.2654 B(  5-H ,  6-H ) :  -0.1960
B(  8-H ,  9-H ) :  -0.1671 B( 10-C , 13-H ) :   0.8319 B( 10-C , 14-H ) :   0.8632
B( 10-C , 15-H ) :   0.8221

Dispersion correction           -0.003864095
FINAL SINGLE POINT ENERGY      -284.138338625290

DIPOLE MOMENT
-------------
                                X             Y             Z
Electronic contribution:      3.02253      -2.71261      -3.09653
Nuclear contribution   :     -2.17768       2.37118       2.44574
                        -----------------------------------------
Total Dipole Moment    :      0.84485      -0.34143      -0.65079
                        -----------------------------------------
Magnitude (a.u.)       :      1.11976
Magnitude (Debye)      :      2.84622

Rotational constants in cm-1:     0.215650     0.075183     0.066454
Rotational constants in MHz :  6465.033740  2253.919004  1992.232519

                             ****ORCA TERMINATED NORMALLY****
TOTAL RUN TIME: 0 days 0 hours 0 minutes 12 seconds 96 msec
