                         Program Version 5.0.0 -  RELEASE  -
|  1> !wB97X-D3 RIJCOSX def2-SVPD def2/J TightSCF
|  2> *xyz 0 1
|  3> C          0.61188        1.65763       -4.50029
|  4> C          1.69499        1.54179       -5.57045
|  5> H          2.69733        1.73466       -5.18400
|  6> H          1.50666        2.27224       -6.35808
|  7> S          1.78029       -0.03313       -6.42874
|  8> F          2.56929        0.21366       -7.60736
|  9> O          0.41688       -0.46297       -6.61859
| 10> O          2.50513       -0.93326       -5.48257
| 11> H         -0.34424        1.45871       -4.93752
| 12> H          0.61845        2.64655       -4.09174
| 13> H          0.80247        0.94882       -3.72173
| 14> *
| 15> %MaxCore 64000
| 16>
| 17> %pal nprocs 18
| 18> end
| 19>
| 20> %scf
| 21>   MaxIter 150
| 22> end
| 23>
| 24>
| 25>                          ****END OF INPUT****

CARTESIAN COORDINATES (ANGSTROEM)
---------------------------------
  C      0.611880    1.657630   -4.500290
  C      1.694990    1.541790   -5.570450
  H      2.697330    1.734660   -5.184000
  H      1.506660    2.272240   -6.358080
  S      1.780290   -0.033130   -6.428740
  F      2.569290    0.213660   -7.607360
  O      0.416880   -0.462970   -6.618590
  O      2.505130   -0.933260   -5.482570
  H     -0.344240    1.458710   -4.937520
  H      0.618450    2.646550   -4.091740
  H      0.802470    0.948820   -3.721730

 Total Charge           Charge          ....    0
 Multiplicity           Mult            ....    1
 Number of Electrons    NEL             ....   58
 Basis Dimension        Dim             ....  176

ORBITAL ENERGIES
----------------

  NO   OCC          E(Eh)            E(eV)
   0   2.0000     -89.236944     -2428.2607
   1   2.0000     -24.925957      -678.2698
   2   2.0000     -19.263165      -524.1774
   3   2.0000     -19.243161      -523.6330
   4   2.0000     -10.357441      -281.8403
   5   2.0000     -10.312086      -280.6061
   6   2.0000      -8.311583      -226.1697
   7   2.0000      -6.275297      -170.7595
   8   2.0000      -6.268763      -170.5817
   9   2.0000      -6.267477      -170.5467
  10   2.0000      -1.499759       -40.8105
  11   2.0000      -1.225318       -33.3426
  12   2.0000      -1.113903       -30.3108
  13   2.0000      -0.939659       -25.5694
  14   2.0000      -0.852850       -23.2072
  15   2.0000      -0.789886       -21.4939
  16   2.0000      -0.700746       -19.0683
  17   2.0000      -0.699398       -19.0316
  18   2.0000      -0.665154       -18.0998
  19   2.0000      -0.601243       -16.3607
  20   2.0000      -0.589992       -16.0545
  21   2.0000      -0.545622       -14.8471
  22   2.0000      -0.534467       -14.5436
  23   2.0000      -0.510172       -13.8825
  24   2.0000      -0.488518       -13.2932
  25   2.0000      -0.485537       -13.2121
  26   2.0000      -0.434145       -11.8137
  27   2.0000      -0.414923       -11.2906
  28   2.0000      -0.400752       -10.9050
  29   0.0000       0.063561         1.7296
  30   0.0000       0.087667         2.3855
  31   0.0000       0.095842         2.6080
  32   0.0000       0.098734         2.6867
  33   0.0000       0.117425         3.1953

MULLIKEN ATOMIC CHARGES
-----------------------
   0 C :    0.639040
   1 C :   -0.445914
   2 H :    0.024855
   3 H :    0.065038
   4 S :    1.532286
   5 F :   -0.401184
   6 O :   -0.664805
   7 O :   -0.713919
   8 H :    0.000364
   9 H :   -0.029564
  10 H :   -0.006198
Sum of atomic charges:   -0.0000000

LOEWDIN ATOMIC CHARGES
----------------------
   0 C :    0.143939
   1 C :   -0.100525
   2 H :    0.026333
   3 H :    0.017078
   4 S :    1.131825
   5 F :   -0.255081
   6 O :   -0.464688
   7 O :   -0.496054
   8 H :   -0.005127
   9 H :   -0.001461
  10 H :    0.003760

  Mayer bond orders larger than 0.100000
B(  0-C ,  1-C ) :   1.3194 B(  0-C ,  8-H ) :   0.8353 B(  0-C ,  9-H ) :   0.7885
B(  0-C , 10-H ) :   0.8373 B(  1-C ,  2-H ) :   0.9881 B(  1-C ,  3-H ) :   0.9593
B(  1-C ,  4-S ) :   0.9732 B(  1-C ,  8-H ) :   0.1835 B(  1-C ,  9-H ) :   0.1828
B(  1-C , 10-H ) :   0.1685 B(  4-S ,  5-F ) :   0.6845 B(  4-S ,  6-O ) :   1.5337
B(  4-S ,  7-O ) :   1.4803

Dispersion correction           -0.002888223
FINAL SINGLE POINT ENERGY      -727.173047097036

DIPOLE MOMENT
-------------
                                X             Y             Z
Electronic contribution:      3.85923      -5.57156      -7.52147
Nuclear contribution   :     -3.66946       7.33549       7.42434
                        -----------------------------------------
Total Dipole Moment    :      0.18976       1.76393      -0.09712
                        -----------------------------------------
Magnitude (a.u.)       :      1.77677
Magnitude (Debye)      :      4.51619

Rotational constants in cm-1:     0.158379     0.080294     0.077843
Rotational constants in MHz :  4748.076444  2407.152850  2333.668303

                             ****ORCA TERMINATED NORMALLY****
TOTAL RUN TIME: 0 days 0 hours 0 minutes 10 seconds 434 msec
