                         Program Version 5.0.0 -  RELEASE  -
|  1> !wB97X-D3 RIJCOSX def2-SVPD def2/J TightSCF
|  2> *xyz 0 1
|  3> C          1.96337       -1.74915       -1.89689
|  4> C          2.73849       -2.01517       -3.09711
|  5> C          4.04974       -2.15472       -3.15204
|  6> N          4.65821       -1.98629       -4.31866
|  7> N          4.76423       -2.45444       -2.05049
|  8> H          4.28736       -2.77626       -1.21750
|  9> H          5.75082       -2.65835       -2.12599
| 10> H          2.34518       -1.69027       -3.97145
| 11> H          4.10900       -1.59268       -5.07176
| 12> H          5.64910       -2.15646       -4.42724
| 13> C          2.08852       -0.30091       -1.41520
| 14> H          2.23127       -2.45162       -1.10264
| 15> H          0.93025       -1.97780       -2.15544
| 16> H          1.82118        0.36368       -2.21003
| 17> H          3.09792       -0.11068       -1.11551
| 18> H          1.43391       -0.14382       -0.58352
| 19> *
| 20> %MaxCore 64000
| 21>
| 22> %pal nprocs 18
| 23> end
| 24>
| 25> %scf
| 26>   MaxIter 150
| 27> end
| 28>
| 29>
| 30>                          ****END OF INPUT****

CARTESIAN COORDINATES (ANGSTROEM)
---------------------------------
  C      1.963370   -1.749150   -1.896890
  C      2.738490   -2.015170   -3.097110
  C      4.049740   -2.154720   -3.152040
  N      4.658210   -1.986290   -4.318660
  N      4.764230   -2.454440   -2.050490
  H      4.287360   -2.776260   -1.217500
  H      5.750820   -2.658350   -2.125990
  H      2.345180   -1.690270   -3.971450
  H      4.109000   -1.592680   -5.071760
  H      5.649100   -2.156460   -4.427240
  C      2.088520   -0.300910   -1.415200
  H      2.231270   -2.451620   -1.102640
  H      0.930250   -1.977800   -2.155440
  H      1.821180    0.363680   -2.210030
  H      3.097920   -0.110680   -1.115510
  H      1.433910   -0.143820   -0.583520

 Total Charge           Charge          ....    0
 Multiplicity           Mult            ....    1
 Number of Electrons    NEL             ....   48
 Basis Dimension        Dim             ....  200

ORBITAL ENERGIES
----------------

  NO   OCC          E(Eh)            E(eV)
   0   2.0000     -14.439630      -392.9223
   1   2.0000     -14.436810      -392.8456
   2   2.0000     -10.334415      -281.2137
   3   2.0000     -10.263916      -279.2953
   4   2.0000     -10.253320      -279.0070
   5   2.0000     -10.207272      -277.7540
   6   2.0000      -1.070446       -29.1283
   7   2.0000      -0.978305       -26.6210
   8   2.0000      -0.883596       -24.0439
   9   2.0000      -0.801580       -21.8121
  10   2.0000      -0.722503       -19.6603
  11   2.0000      -0.684797       -18.6343
  12   2.0000      -0.646722       -17.5982
  13   2.0000      -0.612313       -16.6619
  14   2.0000      -0.573377       -15.6024
  15   2.0000      -0.539249       -14.6737
  16   2.0000      -0.521592       -14.1932
  17   2.0000      -0.486398       -13.2356
  18   2.0000      -0.478201       -13.0125
  19   2.0000      -0.452350       -12.3091
  20   2.0000      -0.422337       -11.4924
  21   2.0000      -0.411120       -11.1872
  22   2.0000      -0.361840        -9.8462
  23   2.0000      -0.246208        -6.6997
  24   0.0000       0.087770         2.3884
  25   0.0000       0.113766         3.0957
  26   0.0000       0.121337         3.3018
  27   0.0000       0.130157         3.5418
  28   0.0000       0.153499         4.1769

MULLIKEN ATOMIC CHARGES
-----------------------
   0 C :   -0.186123
   1 C :   -0.293700
   2 C :    0.838531
   3 N :   -0.072177
   4 N :   -0.117877
   5 H :    0.002572
   6 H :   -0.245395
   7 H :   -0.165484
   8 H :    0.012761
   9 H :   -0.152762
  10 C :    0.637413
  11 H :   -0.082108
  12 H :   -0.081653
  13 H :   -0.039614
  14 H :   -0.051581
  15 H :   -0.002802
Sum of atomic charges:   -0.0000000

LOEWDIN ATOMIC CHARGES
----------------------
   0 C :   -0.102684
   1 C :   -0.051452
   2 C :   -0.218488
   3 N :    0.171108
   4 N :    0.194472
   5 H :   -0.005766
   6 H :   -0.009328
   7 H :   -0.049566
   8 H :    0.008408
   9 H :   -0.003347
  10 C :    0.118927
  11 H :    0.003077
  12 H :    0.012715
  13 H :   -0.017779
  14 H :   -0.024561
  15 H :   -0.025735

  Mayer bond orders larger than 0.100000
B(  0-C ,  1-C ) :   1.2463 B(  0-C ,  7-H ) :   0.2759 B(  0-C , 10-C ) :   1.1947
B(  0-C , 11-H ) :   0.8928 B(  0-C , 12-H ) :   0.8314 B(  0-C , 13-H ) :   0.2137
B(  0-C , 14-H ) :   0.1869 B(  0-C , 15-H ) :   0.1643 B(  1-C ,  2-C ) :   1.8350
B(  1-C ,  3-N ) :   0.2992 B(  1-C ,  4-N ) :   0.2051 B(  1-C ,  7-H ) :   0.7679
B(  1-C , 11-H ) :   0.1991 B(  1-C , 12-H ) :   0.2594 B(  2-C ,  3-N ) :   0.8735
B(  2-C ,  4-N ) :   0.8635 B(  2-C ,  6-H ) :  -0.1972 B(  2-C ,  7-H ) :   0.2741
B(  3-N ,  4-N ) :   0.1072 B(  3-N ,  8-H ) :   1.1254 B(  3-N ,  9-H ) :   1.2496
B(  4-N ,  5-H ) :   1.0357 B(  4-N ,  6-H ) :   1.3659 B(  5-H ,  6-H ) :  -0.2023
B(  8-H ,  9-H ) :  -0.1627 B( 10-C , 13-H ) :   0.8401 B( 10-C , 14-H ) :   0.8534
B( 10-C , 15-H ) :   0.8077

Dispersion correction           -0.003858102
FINAL SINGLE POINT ENERGY      -267.666404287996

DIPOLE MOMENT
-------------
                                X             Y             Z
Electronic contribution:      3.29209      -2.42502      -2.51775
Nuclear contribution   :     -2.31778       2.31977       2.35294
                        -----------------------------------------
Total Dipole Moment    :      0.97431      -0.10525      -0.16481
                        -----------------------------------------
Magnitude (a.u.)       :      0.99374
Magnitude (Debye)      :      2.52589

Rotational constants in cm-1:     0.219415     0.075373     0.066689
Rotational constants in MHz :  6577.897266  2259.621393  1999.290981

                             ****ORCA TERMINATED NORMALLY****
TOTAL RUN TIME: 0 days 0 hours 0 minutes 13 seconds 415 msec
