                         Program Version 5.0.0 -  RELEASE  -
|  1> !wB97X-D3 RIJCOSX def2-SVPD def2/J TightSCF
|  2> *xyz 0 1
|  3> C          0.61188        1.65763       -4.50029
|  4> C          1.69499        1.54179       -5.57045
|  5> H          2.69733        1.73466       -5.18400
|  6> H          1.50666        2.27224       -6.35808
|  7> S          1.78029       -0.03313       -6.42874
|  8> O          2.56929        0.21366       -7.60736
|  9> F          0.41688       -0.46297       -6.61859
| 10> O          2.50513       -0.93326       -5.48257
| 11> H         -0.34424        1.45871       -4.93752
| 12> H          0.61845        2.64655       -4.09174
| 13> H          0.80247        0.94882       -3.72173
| 14> *
| 15> %MaxCore 64000
| 16>
| 17> %pal nprocs 18
| 18> end
| 19>
| 20> %scf
| 21>   MaxIter 150
| 22> end
| 23>
| 24>
| 25>                          ****END OF INPUT****

CARTESIAN COORDINATES (ANGSTROEM)
---------------------------------
  C      0.611880    1.657630   -4.500290
  C      1.694990    1.541790   -5.570450
  H      2.697330    1.734660   -5.184000
  H      1.506660    2.272240   -6.358080
  S      1.780290   -0.033130   -6.428740
  O      2.569290    0.213660   -7.607360
  F      0.416880   -0.462970   -6.618590
  O      2.505130   -0.933260   -5.482570
  H     -0.344240    1.458710   -4.937520
  H      0.618450    2.646550   -4.091740
  H      0.802470    0.948820   -3.721730

 Total Charge           Charge          ....    0
 Multiplicity           Mult            ....    1
 Number of Electrons    NEL             ....   58
 Basis Dimension        Dim             ....  176

ORBITAL ENERGIES
----------------

  NO   OCC          E(Eh)            E(eV)
   0   2.0000     -89.236655     -2428.2528
   1   2.0000     -24.925372      -678.2538
   2   2.0000     -19.262779      -524.1669
   3   2.0000     -19.243289      -523.6365
   4   2.0000     -10.357241      -281.8349
   5   2.0000     -10.317886      -280.7640
   6   2.0000      -8.311306      -226.1621
   7   2.0000      -6.275161      -170.7558
   8   2.0000      -6.268431      -170.5727
   9   2.0000      -6.267130      -170.5373
  10   2.0000      -1.498063       -40.7644
  11   2.0000      -1.226415       -33.3724
  12   2.0000      -1.113700       -30.3053
  13   2.0000      -0.943567       -25.6758
  14   2.0000      -0.848580       -23.0910
  15   2.0000      -0.795119       -21.6363
  16   2.0000      -0.711523       -19.3615
  17   2.0000      -0.698913       -19.0184
  18   2.0000      -0.654698       -17.8152
  19   2.0000      -0.602158       -16.3856
  20   2.0000      -0.583882       -15.8882
  21   2.0000      -0.556637       -15.1469
  22   2.0000      -0.541056       -14.7229
  23   2.0000      -0.514133       -13.9903
  24   2.0000      -0.496681       -13.5154
  25   2.0000      -0.482701       -13.1350
  26   2.0000      -0.432787       -11.7767
  27   2.0000      -0.415127       -11.2962
  28   2.0000      -0.400938       -10.9101
  29   0.0000       0.060758         1.6533
  30   0.0000       0.090358         2.4588
  31   0.0000       0.096102         2.6151
  32   0.0000       0.098884         2.6908
  33   0.0000       0.119218         3.2441

MULLIKEN ATOMIC CHARGES
-----------------------
   0 C :    0.653405
   1 C :   -0.421219
   2 H :    0.024786
   3 H :    0.059210
   4 S :    1.502404
   5 O :   -0.647799
   6 F :   -0.405999
   7 O :   -0.712354
   8 H :   -0.015536
   9 H :   -0.031272
  10 H :   -0.005627
Sum of atomic charges:    0.0000000

LOEWDIN ATOMIC CHARGES
----------------------
   0 C :    0.128843
   1 C :   -0.088478
   2 H :    0.038656
   3 H :    0.020914
   4 S :    1.128810
   5 O :   -0.465020
   6 F :   -0.254671
   7 O :   -0.495272
   8 H :   -0.010801
   9 H :   -0.002780
  10 H :   -0.000200

  Mayer bond orders larger than 0.100000
B(  0-C ,  1-C ) :   1.2691 B(  0-C ,  8-H ) :   0.8360 B(  0-C ,  9-H ) :   0.7861
B(  0-C , 10-H ) :   0.8455 B(  1-C ,  2-H ) :   0.9946 B(  1-C ,  3-H ) :   0.9908
B(  1-C ,  4-S ) :   0.9996 B(  1-C ,  8-H ) :   0.1719 B(  1-C ,  9-H ) :   0.1871
B(  1-C , 10-H ) :   0.1663 B(  4-S ,  5-O ) :   1.5682 B(  4-S ,  6-F ) :   0.6723
B(  4-S ,  7-O ) :   1.4916

Dispersion correction           -0.002869916
FINAL SINGLE POINT ENERGY      -727.172973453511

DIPOLE MOMENT
-------------
                                X             Y             Z
Electronic contribution:      0.21405      -6.70403      -5.82129
Nuclear contribution   :     -1.42658       8.04056       6.39401
                        -----------------------------------------
Total Dipole Moment    :     -1.21253       1.33653       0.57273
                        -----------------------------------------
Magnitude (a.u.)       :      1.89329
Magnitude (Debye)      :      4.81237

Rotational constants in cm-1:     0.153659     0.082363     0.078978
Rotational constants in MHz :  4606.587369  2469.179541  2367.702074

                             ****ORCA TERMINATED NORMALLY****
TOTAL RUN TIME: 0 days 0 hours 0 minutes 9 seconds 973 msec
