                         Program Version 5.0.0 -  RELEASE  -
|  1> !wB97X-D3 RIJCOSX def2-SVPD def2/J TightSCF
|  2> *xyz 0 1
|  3> C          1.96337       -1.74915       -1.89689
|  4> N          2.73849       -2.01517       -3.09711
|  5> C          4.04974       -2.15472       -3.15204
|  6> C          4.65821       -1.98629       -4.31866
|  7> N          4.76423       -2.45444       -2.05049
|  8> H          4.28736       -2.77626       -1.21750
|  9> H          5.75082       -2.65835       -2.12599
| 10> H          2.34518       -1.69027       -3.97145
| 11> H          4.10900       -1.59268       -5.07176
| 12> H          5.64910       -2.15646       -4.42724
| 13> C          2.08852       -0.30091       -1.41520
| 14> H          2.23127       -2.45162       -1.10264
| 15> H          0.93025       -1.97780       -2.15544
| 16> H          1.82118        0.36368       -2.21003
| 17> H          3.09792       -0.11068       -1.11551
| 18> H          1.43391       -0.14382       -0.58352
| 19> *
| 20> %MaxCore 64000
| 21>
| 22> %pal nprocs 18
| 23> end
| 24>
| 25> %scf
| 26>   MaxIter 150
| 27> end
| 28>
| 29>
| 30>                          ****END OF INPUT****

CARTESIAN COORDINATES (ANGSTROEM)
---------------------------------
  C      1.963370   -1.749150   -1.896890
  N      2.738490   -2.015170   -3.097110
  C      4.049740   -2.154720   -3.152040
  C      4.658210   -1.986290   -4.318660
  N      4.764230   -2.454440   -2.050490
  H      4.287360   -2.776260   -1.217500
  H      5.750820   -2.658350   -2.125990
  H      2.345180   -1.690270   -3.971450
  H      4.109000   -1.592680   -5.071760
  H      5.649100   -2.156460   -4.427240
  C      2.088520   -0.300910   -1.415200
  H      2.231270   -2.451620   -1.102640
  H      0.930250   -1.977800   -2.155440
  H      1.821180    0.363680   -2.210030
  H      3.097920   -0.110680   -1.115510
  H      1.433910   -0.143820   -0.583520

 Total Charge           Charge          ....    0
 Multiplicity           Mult            ....    1
 Number of Electrons    NEL             ....   48
 Basis Dimension        Dim             ....  200

ORBITAL ENERGIES
----------------

  NO   OCC          E(Eh)            E(eV)
   0   2.0000     -14.437904      -392.8753
   1   2.0000     -14.435896      -392.8207
   2   2.0000     -10.335952      -281.2555
   3   2.0000     -10.330587      -281.1096
   4   2.0000     -10.278447      -279.6908
   5   2.0000     -10.199600      -277.5452
   6   2.0000      -1.079301       -29.3693
   7   2.0000      -0.991368       -26.9765
   8   2.0000      -0.881062       -23.9749
   9   2.0000      -0.809692       -22.0328
  10   2.0000      -0.736244       -20.0342
  11   2.0000      -0.704252       -19.1637
  12   2.0000      -0.640039       -17.4163
  13   2.0000      -0.598548       -16.2873
  14   2.0000      -0.580158       -15.7869
  15   2.0000      -0.537761       -14.6332
  16   2.0000      -0.534408       -14.5420
  17   2.0000      -0.500565       -13.6211
  18   2.0000      -0.480779       -13.0827
  19   2.0000      -0.471471       -12.8294
  20   2.0000      -0.457516       -12.4496
  21   2.0000      -0.452021       -12.3001
  22   2.0000      -0.348803        -9.4914
  23   2.0000      -0.250553        -6.8179
  24   0.0000       0.084463         2.2984
  25   0.0000       0.114180         3.1070
  26   0.0000       0.117402         3.1947
  27   0.0000       0.122150         3.3239
  28   0.0000       0.152815         4.1583

MULLIKEN ATOMIC CHARGES
-----------------------
   0 C :    0.279688
   1 N :   -0.382365
   2 C :    0.685912
   3 C :    0.336588
   4 N :    0.064620
   5 H :   -0.113225
   6 H :   -0.150191
   7 H :   -0.188485
   8 H :   -0.235878
   9 H :   -0.393838
  10 C :    0.579190
  11 H :   -0.111787
  12 H :   -0.279715
  13 H :   -0.047509
  14 H :   -0.039325
  15 H :   -0.003682
Sum of atomic charges:   -0.0000000

LOEWDIN ATOMIC CHARGES
----------------------
   0 C :    0.011222
   1 N :   -0.028114
   2 C :   -0.238209
   3 C :    0.136594
   4 N :    0.193125
   5 H :   -0.020703
   6 H :    0.007108
   7 H :    0.032723
   8 H :   -0.098762
   9 H :   -0.097230
  10 C :    0.130982
  11 H :    0.009875
  12 H :    0.018674
  13 H :   -0.016310
  14 H :   -0.021388
  15 H :   -0.019589

  Mayer bond orders larger than 0.100000
B(  0-C ,  1-N ) :   0.8910 B(  0-C ,  7-H ) :  -0.1179 B(  0-C , 10-C ) :   1.2016
B(  0-C , 11-H ) :   0.9185 B(  0-C , 12-H ) :   0.9082 B(  0-C , 13-H ) :   0.2174
B(  0-C , 14-H ) :   0.1765 B(  0-C , 15-H ) :   0.1510 B(  1-N ,  2-C ) :   1.0697
B(  1-N ,  3-C ) :   0.2541 B(  1-N ,  4-N ) :   0.1306 B(  1-N ,  7-H ) :   1.1833
B(  1-N , 11-H ) :   0.1359 B(  1-N , 12-H ) :   0.1949 B(  2-C ,  3-C ) :   1.4992
B(  2-C ,  4-N ) :   0.9557 B(  2-C ,  7-H ) :  -0.1446 B(  2-C ,  9-H ) :   0.1261
B(  3-C ,  4-N ) :   0.1874 B(  3-C ,  8-H ) :   0.8784 B(  3-C ,  9-H ) :   0.8380
B(  4-N ,  5-H ) :   1.0630 B(  4-N ,  6-H ) :   1.2262 B(  5-H ,  6-H ) :  -0.1933
B( 10-C , 13-H ) :   0.8265 B( 10-C , 14-H ) :   0.8555 B( 10-C , 15-H ) :   0.8365

Dispersion correction           -0.003890877
FINAL SINGLE POINT ENERGY      -267.660926386633

DIPOLE MOMENT
-------------
                                X             Y             Z
Electronic contribution:      1.39833      -2.32959      -1.20013
Nuclear contribution   :     -1.91052       2.32590       2.09379
                        -----------------------------------------
Total Dipole Moment    :     -0.51219      -0.00369       0.89366
                        -----------------------------------------
Magnitude (a.u.)       :      1.03004
Magnitude (Debye)      :      2.61815

Rotational constants in cm-1:     0.219448     0.077923     0.068804
Rotational constants in MHz :  6578.886179  2336.083179  2062.700476

                             ****ORCA TERMINATED NORMALLY****
TOTAL RUN TIME: 0 days 0 hours 0 minutes 12 seconds 271 msec
