                         Program Version 5.0.0 -  RELEASE  -
|  1> !wB97X-D3 RIJCOSX def2-SVPD def2/J TightSCF
|  2> *xyz 0 1
|  3> C          0.61188        1.65763       -4.50029
|  4> C          1.69499        1.54179       -5.57045
|  5> H          2.69733        1.73466       -5.18400
|  6> H          1.50666        2.27224       -6.35808
|  7> S          1.78029       -0.03313       -6.42874
|  8> O          2.56929        0.21366       -7.60736
|  9> O          0.41688       -0.46297       -6.61859
| 10> F          2.50513       -0.93326       -5.48257
| 11> H         -0.34424        1.45871       -4.93752
| 12> H          0.61845        2.64655       -4.09174
| 13> H          0.80247        0.94882       -3.72173
| 14> *
| 15> %MaxCore 64000
| 16>
| 17> %pal nprocs 18
| 18> end
| 19>
| 20> %scf
| 21>   MaxIter 150
| 22> end
| 23>
| 24>
| 25>                          ****END OF INPUT****

CARTESIAN COORDINATES (ANGSTROEM)
---------------------------------
  C      0.611880    1.657630   -4.500290
  C      1.694990    1.541790   -5.570450
  H      2.697330    1.734660   -5.184000
  H      1.506660    2.272240   -6.358080
  S      1.780290   -0.033130   -6.428740
  O      2.569290    0.213660   -7.607360
  O      0.416880   -0.462970   -6.618590
  F      2.505130   -0.933260   -5.482570
  H     -0.344240    1.458710   -4.937520
  H      0.618450    2.646550   -4.091740
  H      0.802470    0.948820   -3.721730

 Total Charge           Charge          ....    0
 Multiplicity           Mult            ....    1
 Number of Electrons    NEL             ....   58
 Basis Dimension        Dim             ....  176

ORBITAL ENERGIES
----------------

  NO   OCC          E(Eh)            E(eV)
   0   2.0000     -89.234424     -2428.1921
   1   2.0000     -24.897890      -677.5060
   2   2.0000     -19.262891      -524.1699
   3   2.0000     -19.262172      -524.1503
   4   2.0000     -10.355973      -281.8004
   5   2.0000     -10.312742      -280.6240
   6   2.0000      -8.308877      -226.0960
   7   2.0000      -6.272414      -170.6811
   8   2.0000      -6.266303      -170.5148
   9   2.0000      -6.265015      -170.4797
  10   2.0000      -1.453663       -39.5562
  11   2.0000      -1.237674       -33.6788
  12   2.0000      -1.142489       -31.0887
  13   2.0000      -0.939836       -25.5742
  14   2.0000      -0.833584       -22.6830
  15   2.0000      -0.782149       -21.2834
  16   2.0000      -0.685943       -18.6655
  17   2.0000      -0.667955       -18.1760
  18   2.0000      -0.656403       -17.8616
  19   2.0000      -0.600720       -16.3464
  20   2.0000      -0.584727       -15.9112
  21   2.0000      -0.563270       -15.3274
  22   2.0000      -0.537089       -14.6149
  23   2.0000      -0.507010       -13.7964
  24   2.0000      -0.504383       -13.7250
  25   2.0000      -0.482459       -13.1284
  26   2.0000      -0.442089       -12.0298
  27   2.0000      -0.430817       -11.7231
  28   2.0000      -0.421868       -11.4796
  29   0.0000       0.064701         1.7606
  30   0.0000       0.092779         2.5246
  31   0.0000       0.096597         2.6285
  32   0.0000       0.098239         2.6732
  33   0.0000       0.118677         3.2294

MULLIKEN ATOMIC CHARGES
-----------------------
   0 C :    0.674978
   1 C :   -0.444207
   2 H :    0.017944
   3 H :    0.067399
   4 S :    1.517873
   5 O :   -0.665678
   6 O :   -0.681295
   7 F :   -0.428216
   8 H :    0.002085
   9 H :   -0.031003
  10 H :   -0.029879
Sum of atomic charges:    0.0000000

LOEWDIN ATOMIC CHARGES
----------------------
   0 C :    0.130942
   1 C :   -0.091285
   2 H :    0.024870
   3 H :    0.031562
   4 S :    1.126887
   5 O :   -0.466491
   6 O :   -0.463257
   7 F :   -0.279638
   8 H :   -0.006232
   9 H :   -0.003627
  10 H :   -0.003731

  Mayer bond orders larger than 0.100000
B(  0-C ,  1-C ) :   1.2855 B(  0-C ,  8-H ) :   0.8414 B(  0-C ,  9-H ) :   0.7831
B(  0-C , 10-H ) :   0.8292 B(  1-C ,  2-H ) :   0.9847 B(  1-C ,  3-H ) :   0.9861
B(  1-C ,  4-S ) :   0.9998 B(  1-C ,  8-H ) :   0.1851 B(  1-C ,  9-H ) :   0.1828
B(  1-C , 10-H ) :   0.1697 B(  4-S ,  5-O ) :   1.5625 B(  4-S ,  6-O ) :   1.5366
B(  4-S ,  7-F ) :   0.6109

Dispersion correction           -0.002849988
FINAL SINGLE POINT ENERGY      -727.197498428614

DIPOLE MOMENT
-------------
                                X             Y             Z
Electronic contribution:      3.77194      -7.54436      -3.87847
Nuclear contribution   :     -3.60260       8.53062       5.21025
                        -----------------------------------------
Total Dipole Moment    :      0.16933       0.98626       1.33178
                        -----------------------------------------
Magnitude (a.u.)       :      1.66584
Magnitude (Debye)      :      4.23422

Rotational constants in cm-1:     0.154011     0.080858     0.079602
Rotational constants in MHz :  4617.134198  2424.070332  2386.404775

                             ****ORCA TERMINATED NORMALLY****
TOTAL RUN TIME: 0 days 0 hours 0 minutes 9 seconds 682 msec
