                         Program Version 5.0.0 -  RELEASE  -
|  1> !wB97X-D3 RIJCOSX def2-SVPD def2/J TightSCF
|  2> *xyz 0 1
|  3> C          1.96337       -1.74915       -1.89689
|  4> N          2.73849       -2.01517       -3.09711
|  5> C          4.04974       -2.15472       -3.15204
|  6> N          4.65821       -1.98629       -4.31866
|  7> C          4.76423       -2.45444       -2.05049
|  8> H          4.28736       -2.77626       -1.21750
|  9> H          5.75082       -2.65835       -2.12599
| 10> H          2.34518       -1.69027       -3.97145
| 11> H          4.10900       -1.59268       -5.07176
| 12> H          5.64910       -2.15646       -4.42724
| 13> C          2.08852       -0.30091       -1.41520
| 14> H          2.23127       -2.45162       -1.10264
| 15> H          0.93025       -1.97780       -2.15544
| 16> H          1.82118        0.36368       -2.21003
| 17> H          3.09792       -0.11068       -1.11551
| 18> H          1.43391       -0.14382       -0.58352
| 19> *
| 20> %MaxCore 64000
| 21>
| 22> %pal nprocs 18
| 23> end
| 24>
| 25> %scf
| 26>   MaxIter 150
| 27> end
| 28>
| 29>
| 30>                          ****END OF INPUT****

CARTESIAN COORDINATES (ANGSTROEM)
---------------------------------
  C      1.963370   -1.749150   -1.896890
  N      2.738490   -2.015170   -3.097110
  C      4.049740   -2.154720   -3.152040
  N      4.658210   -1.986290   -4.318660
  C      4.764230   -2.454440   -2.050490
  H      4.287360   -2.776260   -1.217500
  H      5.750820   -2.658350   -2.125990
  H      2.345180   -1.690270   -3.971450
  H      4.109000   -1.592680   -5.071760
  H      5.649100   -2.156460   -4.427240
  C      2.088520   -0.300910   -1.415200
  H      2.231270   -2.451620   -1.102640
  H      0.930250   -1.977800   -2.155440
  H      1.821180    0.363680   -2.210030
  H      3.097920   -0.110680   -1.115510
  H      1.433910   -0.143820   -0.583520

 Total Charge           Charge          ....    0
 Multiplicity           Mult            ....    1
 Number of Electrons    NEL             ....   48
 Basis Dimension        Dim             ....  200

ORBITAL ENERGIES
----------------

  NO   OCC          E(Eh)            E(eV)
   0   2.0000     -14.440499      -392.9459
   1   2.0000     -14.439970      -392.9316
   2   2.0000     -10.338010      -281.3116
   3   2.0000     -10.323908      -280.9278
   4   2.0000     -10.271686      -279.5068
   5   2.0000     -10.200134      -277.5598
   6   2.0000      -1.085307       -29.5327
   7   2.0000      -0.995867       -27.0989
   8   2.0000      -0.863428       -23.4951
   9   2.0000      -0.815663       -22.1953
  10   2.0000      -0.750038       -20.4096
  11   2.0000      -0.666124       -18.1262
  12   2.0000      -0.652100       -17.7445
  13   2.0000      -0.627419       -17.0729
  14   2.0000      -0.569738       -15.5034
  15   2.0000      -0.540328       -14.7031
  16   2.0000      -0.518819       -14.1178
  17   2.0000      -0.497001       -13.5241
  18   2.0000      -0.477935       -13.0053
  19   2.0000      -0.465112       -12.6563
  20   2.0000      -0.460997       -12.5444
  21   2.0000      -0.441487       -12.0135
  22   2.0000      -0.345957        -9.4140
  23   2.0000      -0.252233        -6.8636
  24   0.0000       0.086045         2.3414
  25   0.0000       0.109656         2.9839
  26   0.0000       0.120454         3.2777
  27   0.0000       0.123346         3.3564
  28   0.0000       0.154302         4.1988

MULLIKEN ATOMIC CHARGES
-----------------------
   0 C :    0.240600
   1 N :   -0.374001
   2 C :    0.697923
   3 N :   -0.012608
   4 C :    0.350077
   5 H :   -0.096405
   6 H :   -0.546792
   7 H :   -0.273913
   8 H :   -0.120924
   9 H :   -0.071062
  10 C :    0.605998
  11 H :    0.017273
  12 H :   -0.292972
  13 H :   -0.059865
  14 H :   -0.056104
  15 H :   -0.007223
Sum of atomic charges:    0.0000000

LOEWDIN ATOMIC CHARGES
----------------------
   0 C :    0.019493
   1 N :   -0.030451
   2 C :   -0.238377
   3 N :    0.177721
   4 C :    0.151341
   5 H :   -0.110900
   6 H :   -0.104294
   7 H :    0.019552
   8 H :   -0.006640
   9 H :    0.014466
  10 C :    0.133840
  11 H :    0.017845
  12 H :    0.018290
  13 H :   -0.020677
  14 H :   -0.022531
  15 H :   -0.018679

  Mayer bond orders larger than 0.100000
B(  0-C ,  1-N ) :   0.8774 B(  0-C ,  7-H ) :  -0.1057 B(  0-C , 10-C ) :   1.1869
B(  0-C , 11-H ) :   0.8982 B(  0-C , 12-H ) :   0.9496 B(  0-C , 13-H ) :   0.2063
B(  0-C , 14-H ) :   0.1816 B(  0-C , 15-H ) :   0.1582 B(  1-N ,  2-C ) :   0.9445
B(  1-N ,  3-N ) :   0.1844 B(  1-N ,  4-C ) :   0.3191 B(  1-N ,  7-H ) :   1.2604
B(  1-N , 12-H ) :   0.1674 B(  2-C ,  3-N ) :   0.8794 B(  2-C ,  4-C ) :   1.7267
B(  2-C ,  5-H ) :   0.2657 B(  2-C ,  6-H ) :   0.1102 B(  2-C ,  7-H ) :  -0.1989
B(  3-N ,  4-C ) :   0.2068 B(  3-N ,  8-H ) :   1.1686 B(  3-N ,  9-H ) :   1.2196
B(  4-C ,  5-H ) :   0.6344 B(  4-C ,  6-H ) :   0.9557 B(  8-H ,  9-H ) :  -0.1620
B( 10-C , 13-H ) :   0.8333 B( 10-C , 14-H ) :   0.8701 B( 10-C , 15-H ) :   0.8307

Dispersion correction           -0.003853453
FINAL SINGLE POINT ENERGY      -267.660421469438

DIPOLE MOMENT
-------------
                                X             Y             Z
Electronic contribution:      1.33469      -1.82136      -3.42393
Nuclear contribution   :     -1.88803       2.22658       2.57497
                        -----------------------------------------
Total Dipole Moment    :     -0.55334       0.40523      -0.84895
                        -----------------------------------------
Magnitude (a.u.)       :      1.09138
Magnitude (Debye)      :      2.77408

Rotational constants in cm-1:     0.226509     0.075782     0.067928
Rotational constants in MHz :  6790.555051  2271.890226  2036.439218

                             ****ORCA TERMINATED NORMALLY****
TOTAL RUN TIME: 0 days 0 hours 0 minutes 12 seconds 47 msec
