                         Program Version 5.0.0 -  RELEASE  -
|  1> !wB97X-D3 RIJCOSX def2-SVPD def2/J TightSCF xyzfile
|  2>
|  3> *xyzfile 0 1 D1.xyz
|  4>
|  5> %MaxCore 64000
|  6>
|  7> %pal nprocs 18
|  8> end
|  9>
| 10> %scf
| 11>   MaxIter 150
| 12> end
| 13>
| 14>
| 15>                          ****END OF INPUT****

CARTESIAN COORDINATES (ANGSTROEM)
---------------------------------
  C      1.963365   -1.749150   -1.896887
  C      2.738490   -2.015170   -3.097113
  C      0.611877    1.657634   -4.500288
  C      1.694991    1.541794   -5.570447
  H      2.697326    1.734659   -5.183996
  H      1.506656    2.272239   -6.358076
  S      1.780287   -0.033128   -6.428739
  C      4.049736   -2.154717   -3.152044
  N      4.658206   -1.986293   -4.318655
  N      4.764231   -2.454435   -2.050491
  H      4.287363   -2.776259   -1.217496
  H      5.750825   -2.658351   -2.125988
  H      2.345176   -1.690274   -3.971447
  H      4.109004   -1.592677   -5.071760
  H      5.649095   -2.156462   -4.427237
  F      2.569287    0.213657   -7.607360
  O      0.416880   -0.462969   -6.618595
  C      2.088520   -0.300912   -1.415204
  H      2.231272   -2.451616   -1.102643
  H      0.930249   -1.977801   -2.155438
  C      0.680356    0.655418   -3.348038
  H     -0.356865    1.549231   -4.991128
  H      0.650228    2.675438   -4.096000
  C      1.968993    0.733582   -2.535654
  H      3.051356   -0.168602   -0.911868
  H      1.316501   -0.136231   -0.657252
  O      2.505129   -0.933263   -5.482570
  H      2.824195    0.624726   -3.208464
  H      2.058919    1.730331   -2.093112
  H      0.542252   -0.344731   -3.766662
  H     -0.174219    0.829692   -2.685182

 Total Charge           Charge          ....    0
 Multiplicity           Mult            ....    1
 Number of Electrons    NEL             ....  120
 Basis Dimension        Dim             ....  432

ORBITAL ENERGIES
----------------

  NO   OCC          E(Eh)            E(eV)
   0   2.0000     -89.248076     -2428.5636
   1   2.0000     -24.934119      -678.4919
   2   2.0000     -19.272175      -524.4226
   3   2.0000     -19.258082      -524.0390
   4   2.0000     -14.421608      -392.4319
   5   2.0000     -14.405699      -391.9990
   6   2.0000     -10.357930      -281.8536
   7   2.0000     -10.316879      -280.7366
   8   2.0000     -10.311064      -280.5783
   9   2.0000     -10.284575      -279.8575
  10   2.0000     -10.272921      -279.5404
  11   2.0000     -10.262176      -279.2480
  12   2.0000     -10.250112      -278.9197
  13   2.0000     -10.175653      -276.8936
  14   2.0000      -8.321586      -226.4419
  15   2.0000      -6.285355      -171.0332
  16   2.0000      -6.278998      -170.8602
  17   2.0000      -6.277424      -170.8174
  18   2.0000      -1.507498       -41.0211
  19   2.0000      -1.236658       -33.6512
  20   2.0000      -1.131319       -30.7848
  21   2.0000      -1.047602       -28.5067
  22   2.0000      -0.956546       -26.0289
  23   2.0000      -0.951683       -25.8966
  24   2.0000      -0.904752       -24.6195
  25   2.0000      -0.868062       -23.6212
  26   2.0000      -0.837046       -22.7772
  27   2.0000      -0.801801       -21.8181
  28   2.0000      -0.762191       -20.7403
  29   2.0000      -0.729506       -19.8509
  30   2.0000      -0.713902       -19.4263
  31   2.0000      -0.695566       -18.9273
  32   2.0000      -0.694928       -18.9099
  33   2.0000      -0.657318       -17.8865
  34   2.0000      -0.654184       -17.8013
  35   2.0000      -0.629124       -17.1193
  36   2.0000      -0.604558       -16.4508
  37   2.0000      -0.598850       -16.2955
  38   2.0000      -0.588575       -16.0159
  39   2.0000      -0.569763       -15.5040
  40   2.0000      -0.567271       -15.4362
  41   2.0000      -0.545063       -14.8319
  42   2.0000      -0.535633       -14.5753
  43   2.0000      -0.526603       -14.3296
  44   2.0000      -0.514212       -13.9924
  45   2.0000      -0.501113       -13.6360
  46   2.0000      -0.482590       -13.1319
  47   2.0000      -0.476146       -12.9566
  48   2.0000      -0.468582       -12.7508
  49   2.0000      -0.459400       -12.5009
  50   2.0000      -0.447788       -12.1849
  51   2.0000      -0.431280       -11.7357
  52   2.0000      -0.425114       -11.5679
  53   2.0000      -0.419303       -11.4098
  54   2.0000      -0.417322       -11.3559
  55   2.0000      -0.405743       -11.0408
  56   2.0000      -0.391518       -10.6538
  57   2.0000      -0.377114       -10.2618
  58   2.0000      -0.339360        -9.2345
  59   2.0000      -0.223579        -6.0839
  60   0.0000       0.059088         1.6079
  61   0.0000       0.082085         2.2337
  62   0.0000       0.086006         2.3403
  63   0.0000       0.097153         2.6437
  64   0.0000       0.107297         2.9197

MULLIKEN ATOMIC CHARGES
-----------------------
   0 C :    0.243903
   1 C :    0.102974
   2 C :    0.361977
   3 C :    0.019338
   4 H :    0.157982
   5 H :   -0.026930
   6 S :    1.660278
   7 C :    0.732529
   8 N :    0.099315
   9 N :   -0.077985
  10 H :   -0.018120
  11 H :   -0.244864
  12 H :   -0.434530
  13 H :   -0.167298
  14 H :   -0.249218
  15 F :   -0.477821
  16 O :   -0.701742
  17 C :    0.550786
  18 H :   -0.344637
  19 H :    0.125477
  20 C :   -0.008262
  21 H :    0.013761
  22 H :   -0.013936
  23 C :   -0.136827
  24 H :   -0.017576
  25 H :    0.036648
  26 O :   -0.760784
  27 H :    0.028446
  28 H :   -0.198412
  29 H :   -0.087858
  30 H :   -0.166612
Sum of atomic charges:   -0.0000000

LOEWDIN ATOMIC CHARGES
----------------------
   0 C :   -0.049163
   1 C :   -0.030128
   2 C :   -0.021148
   3 C :   -0.045130
   4 H :    0.023616
   5 H :    0.019968
   6 S :    1.197759
   7 C :   -0.195101
   8 N :    0.194613
   9 N :    0.190248
  10 H :   -0.010223
  11 H :   -0.013953
  12 H :   -0.129996
  13 H :   -0.080058
  14 H :   -0.007385
  15 F :   -0.246306
  16 O :   -0.442490
  17 C :   -0.022738
  18 H :    0.000787
  19 H :    0.011407
  20 C :   -0.017439
  21 H :    0.029579
  22 H :    0.038578
  23 C :   -0.029403
  24 H :    0.017837
  25 H :    0.015684
  26 O :   -0.477985
  27 H :    0.008556
  28 H :    0.022134
  29 H :    0.012817
  30 H :    0.035062

  Mayer bond orders larger than 0.100000
B(  0-C ,  1-C ) :   1.0795 B(  0-C ,  7-C ) :   0.1158 B(  0-C , 12-H ) :   0.3931
B(  0-C , 17-C ) :   1.1084 B(  0-C , 18-H ) :   0.8478 B(  0-C , 19-H ) :   0.6816
B(  0-C , 24-H ) :   0.1300 B(  0-C , 25-H ) :   0.1825 B(  1-C ,  7-C ) :   1.7603
B(  1-C ,  8-N ) :   0.2350 B(  1-C ,  9-N ) :   0.2407 B(  1-C , 10-H ) :  -0.1044
B(  1-C , 12-H ) :   0.1054 B(  1-C , 18-H ) :   0.2268 B(  1-C , 19-H ) :   0.2671
B(  1-C , 26-O ) :  -0.1206 B(  2-C ,  3-C ) :   1.2885 B(  2-C ,  4-H ) :   0.1065
B(  2-C ,  5-H ) :   0.1917 B(  2-C , 20-C ) :   1.2334 B(  2-C , 21-H ) :   0.6990
B(  2-C , 22-H ) :   0.8024 B(  3-C ,  4-H ) :   0.8709 B(  3-C ,  5-H ) :   0.8176
B(  3-C ,  6-S ) :   1.0530 B(  3-C , 21-H ) :   0.1111 B(  3-C , 22-H ) :   0.1219
B(  6-S , 15-F ) :   0.5867 B(  6-S , 16-O ) :   1.4749 B(  6-S , 26-O ) :   1.3046
B(  7-C ,  8-N ) :   0.7724 B(  7-C ,  9-N ) :   0.8624 B(  7-C , 11-H ) :  -0.1742
B(  7-C , 12-H ) :   0.5728 B(  7-C , 14-H ) :  -0.2387 B(  8-N , 13-H ) :   1.1646
B(  8-N , 14-H ) :   1.3710 B(  9-N , 10-H ) :   1.0576 B(  9-N , 11-H ) :   1.3585
B( 10-H , 11-H ) :  -0.2072 B( 12-H , 23-C ) :   0.1022 B( 12-H , 26-O ) :   0.1705
B( 12-H , 28-H ) :  -0.1103 B( 13-H , 14-H ) :  -0.1972 B( 13-H , 26-O ) :   0.1281
B( 16-O , 26-O ) :   0.1338 B( 17-C , 23-C ) :   1.2342 B( 17-C , 24-H ) :   0.7552
B( 17-C , 25-H ) :   0.6917 B( 20-C , 21-H ) :   0.2595 B( 20-C , 23-C ) :   1.1725
B( 20-C , 28-H ) :   0.1588 B( 20-C , 29-H ) :   0.9552 B( 20-C , 30-H ) :   0.8698
B( 23-C , 24-H ) :   0.2439 B( 23-C , 25-H ) :   0.1473 B( 23-C , 27-H ) :   0.9190
B( 23-C , 28-H ) :   0.8966 B( 23-C , 30-H ) :   0.1559

Dispersion correction           -0.016380103
FINAL SINGLE POINT ENERGY     -1072.195972960500

DIPOLE MOMENT
-------------
                                X             Y             Z
Electronic contribution:      0.72013      -0.93274     -23.51492
Nuclear contribution   :      0.18720       2.58739      22.98820
                        -----------------------------------------
Total Dipole Moment    :      0.90733       1.65466      -0.52672
                        -----------------------------------------
Magnitude (a.u.)       :      1.95923
Magnitude (Debye)      :      4.97995

Rotational constants in cm-1:     0.028798     0.014448     0.010940
Rotational constants in MHz :   863.355869   433.126694   327.985023

                             ****ORCA TERMINATED NORMALLY****
TOTAL RUN TIME: 0 days 0 hours 1 minutes 9 seconds 434 msec
