                         Program Version 5.0.0 -  RELEASE  -
|  1> !wB97X-D3 RIJCOSX def2-SVPD def2/J TightSCF xyzfile
|  2>
|  3> *xyzfile 0 1 D2.xyz
|  4>
|  5> %MaxCore 64000
|  6>
|  7> %pal nprocs 18
|  8> end
|  9>
| 10> %scf
| 11>   MaxIter 150
| 12> end
| 13>
| 14>
| 15>                          ****END OF INPUT****

CARTESIAN COORDINATES (ANGSTROEM)
---------------------------------
  C      1.963365   -1.749150   -1.896887
  N      2.738490   -2.015170   -3.097113
  C      0.611877    1.657634   -4.500288
  C      1.694991    1.541794   -5.570447
  H      2.697326    1.734659   -5.183996
  H      1.506656    2.272239   -6.358076
  S      1.780287   -0.033128   -6.428739
  C      4.049736   -2.154717   -3.152044
  C      4.658206   -1.986293   -4.318655
  N      4.764231   -2.454435   -2.050491
  H      4.287363   -2.776259   -1.217496
  H      5.750825   -2.658351   -2.125988
  H      2.345176   -1.690274   -3.971447
  H      4.109004   -1.592677   -5.071760
  H      5.649095   -2.156462   -4.427237
  F      2.569287    0.213657   -7.607360
  O      0.416880   -0.462969   -6.618595
  C      2.088520   -0.300912   -1.415204
  H      2.231272   -2.451616   -1.102643
  H      0.930249   -1.977801   -2.155438
  C      0.680356    0.655418   -3.348038
  H     -0.356865    1.549231   -4.991128
  H      0.650228    2.675438   -4.096000
  C      1.968993    0.733582   -2.535654
  H      3.051356   -0.168602   -0.911868
  H      1.316501   -0.136231   -0.657252
  O      2.505129   -0.933263   -5.482570
  H      2.824195    0.624726   -3.208464
  H      2.058919    1.730331   -2.093112
  H      0.542252   -0.344731   -3.766662
  H     -0.174219    0.829692   -2.685182

 Total Charge           Charge          ....    0
 Multiplicity           Mult            ....    1
 Number of Electrons    NEL             ....  120
 Basis Dimension        Dim             ....  432

ORBITAL ENERGIES
----------------

  NO   OCC          E(Eh)            E(eV)
   0   2.0000     -89.250850     -2428.6391
   1   2.0000     -24.935554      -678.5309
   2   2.0000     -19.273867      -524.4686
   3   2.0000     -19.257578      -524.0253
   4   2.0000     -14.419004      -392.3610
   5   2.0000     -14.402585      -391.9143
   6   2.0000     -10.361227      -281.9433
   7   2.0000     -10.324666      -280.9485
   8   2.0000     -10.313256      -280.6380
   9   2.0000     -10.311826      -280.5991
  10   2.0000     -10.298425      -280.2344
  11   2.0000     -10.288280      -279.9583
  12   2.0000     -10.282837      -279.8102
  13   2.0000     -10.168734      -276.7053
  14   2.0000      -8.324090      -226.5100
  15   2.0000      -6.287694      -171.0969
  16   2.0000      -6.281621      -170.9316
  17   2.0000      -6.280016      -170.8879
  18   2.0000      -1.508498       -41.0483
  19   2.0000      -1.238287       -33.6955
  20   2.0000      -1.132136       -30.8070
  21   2.0000      -1.055988       -28.7349
  22   2.0000      -0.972526       -26.4638
  23   2.0000      -0.958139       -26.0723
  24   2.0000      -0.906767       -24.6744
  25   2.0000      -0.873220       -23.7615
  26   2.0000      -0.834980       -22.7210
  27   2.0000      -0.807897       -21.9840
  28   2.0000      -0.769179       -20.9304
  29   2.0000      -0.737001       -20.0548
  30   2.0000      -0.715800       -19.4779
  31   2.0000      -0.702722       -19.1220
  32   2.0000      -0.696639       -18.9565
  33   2.0000      -0.671149       -18.2629
  34   2.0000      -0.664156       -18.0726
  35   2.0000      -0.620827       -16.8936
  36   2.0000      -0.608719       -16.5641
  37   2.0000      -0.605210       -16.4686
  38   2.0000      -0.580817       -15.8048
  39   2.0000      -0.578895       -15.7525
  40   2.0000      -0.568217       -15.4620
  41   2.0000      -0.559528       -15.2255
  42   2.0000      -0.542972       -14.7750
  43   2.0000      -0.532729       -14.4963
  44   2.0000      -0.516783       -14.0624
  45   2.0000      -0.501107       -13.6358
  46   2.0000      -0.486891       -13.2490
  47   2.0000      -0.482387       -13.1264
  48   2.0000      -0.469974       -12.7887
  49   2.0000      -0.462352       -12.5812
  50   2.0000      -0.452300       -12.3077
  51   2.0000      -0.451166       -12.2768
  52   2.0000      -0.444308       -12.0902
  53   2.0000      -0.429343       -11.6830
  54   2.0000      -0.424467       -11.5503
  55   2.0000      -0.417380       -11.3575
  56   2.0000      -0.413627       -11.2554
  57   2.0000      -0.398161       -10.8345
  58   2.0000      -0.326104        -8.8737
  59   2.0000      -0.226555        -6.1649
  60   0.0000       0.059955         1.6315
  61   0.0000       0.080250         2.1837
  62   0.0000       0.088083         2.3969
  63   0.0000       0.092921         2.5285
  64   0.0000       0.105841         2.8801

MULLIKEN ATOMIC CHARGES
-----------------------
   0 C :    0.951934
   1 N :   -0.041564
   2 C :    0.365287
   3 C :    0.009204
   4 H :    0.166798
   5 H :   -0.021945
   6 S :    1.679898
   7 C :    0.694084
   8 C :    0.645921
   9 N :    0.110669
  10 H :   -0.059563
  11 H :   -0.178728
  12 H :   -0.648502
  13 H :   -0.258342
  14 H :   -0.658280
  15 F :   -0.473260
  16 O :   -0.705573
  17 C :    0.363074
  18 H :   -0.393763
  19 H :   -0.133774
  20 C :   -0.010147
  21 H :    0.024850
  22 H :   -0.008644
  23 C :   -0.007405
  24 H :   -0.015394
  25 H :   -0.078288
  26 O :   -0.859056
  27 H :    0.095250
  28 H :   -0.313497
  29 H :   -0.080916
  30 H :   -0.160329
Sum of atomic charges:   -0.0000000

LOEWDIN ATOMIC CHARGES
----------------------
   0 C :    0.060091
   1 N :    0.004932
   2 C :   -0.019445
   3 C :   -0.043690
   4 H :    0.025666
   5 H :    0.020849
   6 S :    1.199796
   7 C :   -0.217252
   8 C :    0.158031
   9 N :    0.188801
  10 H :   -0.025039
  11 H :    0.002622
  12 H :   -0.073632
  13 H :   -0.166305
  14 H :   -0.099443
  15 F :   -0.237581
  16 O :   -0.447282
  17 C :   -0.017239
  18 H :    0.007606
  19 H :    0.017716
  20 C :   -0.022174
  21 H :    0.030510
  22 H :    0.039767
  23 C :   -0.026873
  24 H :    0.018605
  25 H :    0.018912
  26 O :   -0.477430
  27 H :    0.010519
  28 H :    0.025115
  29 H :    0.008540
  30 H :    0.035306

  Mayer bond orders larger than 0.100000
B(  0-C ,  1-N ) :   0.8919 B(  0-C , 12-H ) :  -0.3306 B(  0-C , 17-C ) :   1.0609
B(  0-C , 18-H ) :   0.9020 B(  0-C , 19-H ) :   0.6749 B(  0-C , 25-H ) :   0.1156
B(  1-N ,  7-C ) :   1.0434 B(  1-N ,  8-C ) :   0.2151 B(  1-N ,  9-N ) :   0.2084
B(  1-N , 12-H ) :   1.1130 B(  1-N , 19-H ) :   0.1316 B(  2-C ,  3-C ) :   1.2864
B(  2-C ,  5-H ) :   0.1867 B(  2-C , 20-C ) :   1.2449 B(  2-C , 21-H ) :   0.6943
B(  2-C , 22-H ) :   0.8034 B(  3-C ,  4-H ) :   0.8739 B(  3-C ,  5-H ) :   0.8240
B(  3-C ,  6-S ) :   1.0430 B(  3-C , 21-H ) :   0.1125 B(  3-C , 22-H ) :   0.1287
B(  6-S , 15-F ) :   0.5923 B(  6-S , 16-O ) :   1.4738 B(  6-S , 26-O ) :   1.3172
B(  7-C ,  8-C ) :   1.4989 B(  7-C ,  9-N ) :   0.9356 B(  7-C , 11-H ) :  -0.1182
B(  7-C , 12-H ) :  -0.3236 B(  7-C , 13-H ) :   0.1515 B(  7-C , 14-H ) :   0.1961
B(  8-C ,  9-N ) :   0.2599 B(  8-C , 13-H ) :   0.5829 B(  8-C , 14-H ) :   0.7228
B(  9-N , 10-H ) :   0.9647 B(  9-N , 11-H ) :   1.2546 B( 10-H , 11-H ) :  -0.2005
B( 12-H , 19-H ) :   0.1836 B( 12-H , 24-H ) :   0.1298 B( 12-H , 26-O ) :   0.1155
B( 12-H , 27-H ) :   0.1041 B( 13-H , 14-H ) :  -0.1874 B( 13-H , 26-O ) :   0.2420
B( 16-O , 26-O ) :   0.1314 B( 17-C , 18-H ) :   0.1234 B( 17-C , 19-H ) :   0.1021
B( 17-C , 23-C ) :   1.2587 B( 17-C , 24-H ) :   0.7679 B( 17-C , 25-H ) :   0.8905
B( 18-H , 19-H ) :  -0.1316 B( 20-C , 21-H ) :   0.2604 B( 20-C , 23-C ) :   1.1468
B( 20-C , 28-H ) :   0.1366 B( 20-C , 29-H ) :   0.9648 B( 20-C , 30-H ) :   0.8758
B( 23-C , 24-H ) :   0.2056 B( 23-C , 25-H ) :   0.1192 B( 23-C , 27-H ) :   0.8769
B( 23-C , 28-H ) :   0.9532 B( 23-C , 30-H ) :   0.1360

Dispersion correction           -0.016478967
FINAL SINGLE POINT ENERGY     -1072.191485817553

DIPOLE MOMENT
-------------
                                X             Y             Z
Electronic contribution:     -0.89905      -0.75177     -22.47660
Nuclear contribution   :      0.43347       2.59110      22.83150
                        -----------------------------------------
Total Dipole Moment    :     -0.46558       1.83933       0.35490
                        -----------------------------------------
Magnitude (a.u.)       :      1.93024
Magnitude (Debye)      :      4.90629

Rotational constants in cm-1:     0.029257     0.014415     0.010996
Rotational constants in MHz :   877.098782   432.159206   329.643335

                             ****ORCA TERMINATED NORMALLY****
TOTAL RUN TIME: 0 days 0 hours 1 minutes 19 seconds 766 msec
