                         Program Version 5.0.0 -  RELEASE  -
|  1> !wB97X-D3 RIJCOSX def2-SVPD def2/J TightSCF xyzfile
|  2>
|  3> *xyzfile 0 1 D6.xyz
|  4>
|  5> %MaxCore 64000
|  6>
|  7> %pal nprocs 18
|  8> end
|  9>
| 10> %scf
| 11>   MaxIter 150
| 12> end
| 13>
| 14>
| 15>                          ****END OF INPUT****

CARTESIAN COORDINATES (ANGSTROEM)
---------------------------------
  C      1.963365   -1.749150   -1.896887
  N      2.738490   -2.015170   -3.097113
  C      0.611877    1.657634   -4.500288
  C      1.694991    1.541794   -5.570447
  H      2.697326    1.734659   -5.183996
  H      1.506656    2.272239   -6.358076
  S      1.780287   -0.033128   -6.428739
  C      4.049736   -2.154717   -3.152044
  N      4.658206   -1.986293   -4.318655
  C      4.764231   -2.454435   -2.050491
  H      4.287363   -2.776259   -1.217496
  H      5.750825   -2.658351   -2.125988
  H      2.345176   -1.690274   -3.971447
  H      4.109004   -1.592677   -5.071760
  H      5.649095   -2.156462   -4.427237
  O      2.569287    0.213657   -7.607360
  F      0.416880   -0.462969   -6.618595
  C      2.088520   -0.300912   -1.415204
  H      2.231272   -2.451616   -1.102643
  H      0.930249   -1.977801   -2.155438
  C      0.680356    0.655418   -3.348038
  H     -0.356865    1.549231   -4.991128
  H      0.650228    2.675438   -4.096000
  C      1.968993    0.733582   -2.535654
  H      3.051356   -0.168602   -0.911868
  H      1.316501   -0.136231   -0.657252
  O      2.505129   -0.933263   -5.482570
  H      2.824195    0.624726   -3.208464
  H      2.058919    1.730331   -2.093112
  H      0.542252   -0.344731   -3.766662
  H     -0.174219    0.829692   -2.685182

 Total Charge           Charge          ....    0
 Multiplicity           Mult            ....    1
 Number of Electrons    NEL             ....  120
 Basis Dimension        Dim             ....  432

ORBITAL ENERGIES
----------------

  NO   OCC          E(Eh)            E(eV)
   0   2.0000     -89.267068     -2429.0804
   1   2.0000     -24.949530      -678.9112
   2   2.0000     -19.287894      -524.8503
   3   2.0000     -19.279119      -524.6115
   4   2.0000     -14.404965      -391.9790
   5   2.0000     -14.404415      -391.9641
   6   2.0000     -10.371925      -282.2344
   7   2.0000     -10.335779      -281.2509
   8   2.0000     -10.314040      -280.6593
   9   2.0000     -10.310162      -280.5538
  10   2.0000     -10.309434      -280.5340
  11   2.0000     -10.293616      -280.1035
  12   2.0000     -10.280479      -279.7460
  13   2.0000     -10.177828      -276.9528
  14   2.0000      -8.340280      -226.9506
  15   2.0000      -6.304124      -171.5439
  16   2.0000      -6.297891      -171.3743
  17   2.0000      -6.295930      -171.3210
  18   2.0000      -1.521505       -41.4022
  19   2.0000      -1.255493       -34.1637
  20   2.0000      -1.150898       -31.3175
  21   2.0000      -1.057650       -28.7801
  22   2.0000      -0.975466       -26.5438
  23   2.0000      -0.967394       -26.3241
  24   2.0000      -0.911892       -24.8138
  25   2.0000      -0.872169       -23.7329
  26   2.0000      -0.841734       -22.9048
  27   2.0000      -0.800664       -21.7872
  28   2.0000      -0.790120       -21.5003
  29   2.0000      -0.752645       -20.4805
  30   2.0000      -0.727043       -19.7838
  31   2.0000      -0.724832       -19.7237
  32   2.0000      -0.695289       -18.9198
  33   2.0000      -0.681035       -18.5319
  34   2.0000      -0.641163       -17.4469
  35   2.0000      -0.629857       -17.1393
  36   2.0000      -0.616567       -16.7777
  37   2.0000      -0.613361       -16.6904
  38   2.0000      -0.602402       -16.3922
  39   2.0000      -0.591442       -16.0940
  40   2.0000      -0.569769       -15.5042
  41   2.0000      -0.560967       -15.2647
  42   2.0000      -0.544705       -14.8222
  43   2.0000      -0.534389       -14.5415
  44   2.0000      -0.527027       -14.3411
  45   2.0000      -0.511424       -13.9166
  46   2.0000      -0.494846       -13.4654
  47   2.0000      -0.491008       -13.3610
  48   2.0000      -0.474927       -12.9234
  49   2.0000      -0.467428       -12.7194
  50   2.0000      -0.459572       -12.5056
  51   2.0000      -0.457929       -12.4609
  52   2.0000      -0.445317       -12.1177
  53   2.0000      -0.437431       -11.9031
  54   2.0000      -0.431780       -11.7493
  55   2.0000      -0.426721       -11.6117
  56   2.0000      -0.424021       -11.5382
  57   2.0000      -0.411676       -11.2023
  58   2.0000      -0.318299        -8.6614
  59   2.0000      -0.229320        -6.2401
  60   0.0000       0.048262         1.3133
  61   0.0000       0.074891         2.0379
  62   0.0000       0.079734         2.1697
  63   0.0000       0.088957         2.4207
  64   0.0000       0.096099         2.6150

MULLIKEN ATOMIC CHARGES
-----------------------
   0 C :    0.911599
   1 N :    0.106572
   2 C :    0.408193
   3 C :    0.027904
   4 H :    0.141633
   5 H :   -0.032700
   6 S :    1.581131
   7 C :    0.714857
   8 N :    0.345949
   9 C :    0.421090
  10 H :   -0.019155
  11 H :   -0.656046
  12 H :   -0.861220
  13 H :   -0.296572
  14 H :   -0.215068
  15 O :   -0.663699
  16 F :   -0.459559
  17 C :    0.409494
  18 H :   -0.275897
  19 H :   -0.173543
  20 C :    0.011693
  21 H :    0.002552
  22 H :   -0.013337
  23 C :   -0.025037
  24 H :   -0.087291
  25 H :   -0.019957
  26 O :   -0.816626
  27 H :    0.062788
  28 H :   -0.287949
  29 H :   -0.075104
  30 H :   -0.166695
Sum of atomic charges:   -0.0000000

LOEWDIN ATOMIC CHARGES
----------------------
   0 C :    0.067187
   1 N :    0.001476
   2 C :   -0.034337
   3 C :   -0.029957
   4 H :    0.037457
   5 H :    0.026411
   6 S :    1.198122
   7 C :   -0.219789
   8 N :    0.204532
   9 C :    0.142672
  10 H :   -0.118589
  11 H :   -0.110565
  12 H :   -0.089926
  13 H :   -0.084661
  14 H :    0.012751
  15 O :   -0.438623
  16 F :   -0.235469
  17 C :   -0.010413
  18 H :    0.015437
  19 H :    0.015093
  20 C :   -0.028520
  21 H :    0.025642
  22 H :    0.039544
  23 C :   -0.026214
  24 H :    0.019923
  25 H :    0.020876
  26 O :   -0.475657
  27 H :    0.010400
  28 H :    0.026768
  29 H :    0.002311
  30 H :    0.036118

  Mayer bond orders larger than 0.100000
B(  0-C ,  1-N ) :   0.9123 B(  0-C , 12-H ) :  -0.3756 B(  0-C , 17-C ) :   1.0345
B(  0-C , 18-H ) :   0.9184 B(  0-C , 19-H ) :   0.7436 B(  0-C , 25-H ) :   0.1025
B(  1-N ,  7-C ) :   0.9354 B(  1-N ,  9-C ) :   0.4488 B(  1-N , 12-H ) :   0.9782
B(  1-N , 13-H ) :   0.1055 B(  1-N , 19-H ) :   0.1429 B(  2-C ,  3-C ) :   1.2375
B(  2-C ,  5-H ) :   0.1654 B(  2-C , 20-C ) :   1.2355 B(  2-C , 21-H ) :   0.6847
B(  2-C , 22-H ) :   0.8099 B(  3-C ,  4-H ) :   0.8951 B(  3-C ,  5-H ) :   0.8891
B(  3-C ,  6-S ) :   1.0671 B(  3-C , 21-H ) :   0.1072 B(  3-C , 22-H ) :   0.1173
B(  6-S , 15-O ) :   1.5885 B(  6-S , 16-F ) :   0.5511 B(  6-S , 26-O ) :   1.3279
B(  7-C ,  8-N ) :   0.8276 B(  7-C ,  9-C ) :   1.5932 B(  7-C , 10-H ) :   0.3160
B(  7-C , 11-H ) :   0.2405 B(  7-C , 12-H ) :  -0.3509 B(  7-C , 14-H ) :  -0.1712
B(  8-N ,  9-C ) :   0.2284 B(  8-N , 13-H ) :   1.0422 B(  8-N , 14-H ) :   1.3132
B(  9-C , 10-H ) :   0.5754 B(  9-C , 11-H ) :   0.7774 B(  9-C , 12-H ) :  -0.1041
B( 10-H , 18-H ) :   0.1452 B( 12-H , 19-H ) :   0.1050 B( 12-H , 26-O ) :   0.1512
B( 12-H , 27-H ) :   0.1108 B( 13-H , 14-H ) :  -0.1970 B( 13-H , 26-O ) :   0.1962
B( 16-F , 26-O ) :   0.1477 B( 17-C , 23-C ) :   1.2549 B( 17-C , 24-H ) :   0.8108
B( 17-C , 25-H ) :   0.8378 B( 18-H , 19-H ) :  -0.1695 B( 20-C , 21-H ) :   0.2568
B( 20-C , 23-C ) :   1.1691 B( 20-C , 27-H ) :   0.1005 B( 20-C , 28-H ) :   0.1500
B( 20-C , 29-H ) :   0.9476 B( 20-C , 30-H ) :   0.8756 B( 23-C , 24-H ) :   0.2152
B( 23-C , 25-H ) :   0.1213 B( 23-C , 27-H ) :   0.8611 B( 23-C , 28-H ) :   0.9307
B( 23-C , 30-H ) :   0.1366

Dispersion correction           -0.016353093
FINAL SINGLE POINT ENERGY     -1072.203570237821

DIPOLE MOMENT
-------------
                                X             Y             Z
Electronic contribution:     -4.89666      -1.33683     -22.72637
Nuclear contribution   :      2.90585       3.30398      21.99296
                        -----------------------------------------
Total Dipole Moment    :     -1.99081       1.96716      -0.73341
                        -----------------------------------------
Magnitude (a.u.)       :      2.89325
Magnitude (Debye)      :      7.35406

Rotational constants in cm-1:     0.029065     0.014689     0.011200
Rotational constants in MHz :   871.338526   440.374927   335.770911

                             ****ORCA TERMINATED NORMALLY****
TOTAL RUN TIME: 0 days 0 hours 1 minutes 22 seconds 896 msec
