                         Program Version 5.0.0 -  RELEASE  -
|  1> !wB97X-D3 RIJCOSX def2-SVPD def2/J TightSCF xyzfile
|  2>
|  3> *xyzfile 0 1 D8.xyz
|  4>
|  5> %MaxCore 64000
|  6>
|  7> %pal nprocs 18
|  8> end
|  9>
| 10> %scf
| 11>   MaxIter 150
| 12> end
| 13>
| 14>
| 15>                          ****END OF INPUT****

CARTESIAN COORDINATES (ANGSTROEM)
---------------------------------
  C      1.963365   -1.749150   -1.896887
  N      2.738490   -2.015170   -3.097113
  C      0.611877    1.657634   -4.500288
  C      1.694991    1.541794   -5.570447
  H      2.697326    1.734659   -5.183996
  H      1.506656    2.272239   -6.358076
  S      1.780287   -0.033128   -6.428739
  C      4.049736   -2.154717   -3.152044
  C      4.658206   -1.986293   -4.318655
  N      4.764231   -2.454435   -2.050491
  H      4.287363   -2.776259   -1.217496
  H      5.750825   -2.658351   -2.125988
  H      2.345176   -1.690274   -3.971447
  H      4.109004   -1.592677   -5.071760
  H      5.649095   -2.156462   -4.427237
  O      2.569287    0.213657   -7.607360
  O      0.416880   -0.462969   -6.618595
  C      2.088520   -0.300912   -1.415204
  H      2.231272   -2.451616   -1.102643
  H      0.930249   -1.977801   -2.155438
  C      0.680356    0.655418   -3.348038
  H     -0.356865    1.549231   -4.991128
  H      0.650228    2.675438   -4.096000
  C      1.968993    0.733582   -2.535654
  H      3.051356   -0.168602   -0.911868
  H      1.316501   -0.136231   -0.657252
  F      2.505129   -0.933263   -5.482570
  H      2.824195    0.624726   -3.208464
  H      2.058919    1.730331   -2.093112
  H      0.542252   -0.344731   -3.766662
  H     -0.174219    0.829692   -2.685182

 Total Charge           Charge          ....    0
 Multiplicity           Mult            ....    1
 Number of Electrons    NEL             ....  120
 Basis Dimension        Dim             ....  432

ORBITAL ENERGIES
----------------

  NO   OCC          E(Eh)            E(eV)
   0   2.0000     -89.240091     -2428.3463
   1   2.0000     -24.910030      -677.8364
   2   2.0000     -19.267385      -524.2922
   3   2.0000     -19.265545      -524.2421
   4   2.0000     -14.438963      -392.9042
   5   2.0000     -14.432915      -392.7396
   6   2.0000     -10.355279      -281.7815
   7   2.0000     -10.336980      -281.2835
   8   2.0000     -10.331799      -281.1425
   9   2.0000     -10.322668      -280.8941
  10   2.0000     -10.309157      -280.5264
  11   2.0000     -10.301838      -280.3273
  12   2.0000     -10.297167      -280.2001
  13   2.0000     -10.197304      -277.4828
  14   2.0000      -8.313338      -226.2174
  15   2.0000      -6.277159      -170.8102
  16   2.0000      -6.270697      -170.6344
  17   2.0000      -6.269404      -170.5992
  18   2.0000      -1.468703       -39.9654
  19   2.0000      -1.242699       -33.8155
  20   2.0000      -1.145828       -31.1796
  21   2.0000      -1.081367       -29.4255
  22   2.0000      -0.994836       -27.0709
  23   2.0000      -0.960086       -26.1253
  24   2.0000      -0.914467       -24.8839
  25   2.0000      -0.879289       -23.9267
  26   2.0000      -0.832821       -22.6622
  27   2.0000      -0.823688       -22.4137
  28   2.0000      -0.782826       -21.3018
  29   2.0000      -0.746031       -20.3005
  30   2.0000      -0.705714       -19.2035
  31   2.0000      -0.703914       -19.1545
  32   2.0000      -0.684009       -18.6128
  33   2.0000      -0.678576       -18.4650
  34   2.0000      -0.659429       -17.9440
  35   2.0000      -0.638166       -17.3654
  36   2.0000      -0.609725       -16.5915
  37   2.0000      -0.605195       -16.4682
  38   2.0000      -0.592350       -16.1187
  39   2.0000      -0.586775       -15.9670
  40   2.0000      -0.575817       -15.6688
  41   2.0000      -0.567684       -15.4475
  42   2.0000      -0.550140       -14.9701
  43   2.0000      -0.539868       -14.6906
  44   2.0000      -0.526194       -14.3185
  45   2.0000      -0.508970       -13.8498
  46   2.0000      -0.502412       -13.6713
  47   2.0000      -0.494729       -13.4623
  48   2.0000      -0.483395       -13.1538
  49   2.0000      -0.475186       -12.9305
  50   2.0000      -0.468093       -12.7375
  51   2.0000      -0.462121       -12.5750
  52   2.0000      -0.446937       -12.1618
  53   2.0000      -0.441899       -12.0247
  54   2.0000      -0.436174       -11.8689
  55   2.0000      -0.427215       -11.6251
  56   2.0000      -0.426157       -11.5963
  57   2.0000      -0.423781       -11.5317
  58   2.0000      -0.349409        -9.5079
  59   2.0000      -0.251859        -6.8534
  60   0.0000       0.070614         1.9215
  61   0.0000       0.083204         2.2641
  62   0.0000       0.087702         2.3865
  63   0.0000       0.092019         2.5040
  64   0.0000       0.106516         2.8985

MULLIKEN ATOMIC CHARGES
-----------------------
   0 C :    0.952149
   1 N :   -0.051493
   2 C :    0.429210
   3 C :    0.012975
   4 H :    0.172763
   5 H :   -0.089168
   6 S :    1.574183
   7 C :    0.784350
   8 C :    0.650157
   9 N :    0.101156
  10 H :   -0.041370
  11 H :   -0.174149
  12 H :   -0.622075
  13 H :   -0.330099
  14 H :   -0.616365
  15 O :   -0.695407
  16 O :   -0.726039
  17 C :    0.355187
  18 H :   -0.385600
  19 H :   -0.129236
  20 C :   -0.005403
  21 H :    0.018297
  22 H :   -0.007102
  23 C :   -0.021127
  24 H :   -0.012187
  25 H :   -0.080362
  26 F :   -0.593094
  27 H :    0.091398
  28 H :   -0.295143
  29 H :   -0.136542
  30 H :   -0.129864
Sum of atomic charges:   -0.0000000

LOEWDIN ATOMIC CHARGES
----------------------
   0 C :    0.062154
   1 N :   -0.000325
   2 C :   -0.030018
   3 C :   -0.037223
   4 H :    0.023737
   5 H :    0.034252
   6 S :    1.147507
   7 C :   -0.214654
   8 C :    0.162510
   9 N :    0.195796
  10 H :   -0.020354
  11 H :    0.007583
  12 H :   -0.046522
  13 H :   -0.140254
  14 H :   -0.090728
  15 O :   -0.447343
  16 O :   -0.451515
  17 C :   -0.015612
  18 H :    0.011114
  19 H :    0.019745
  20 C :   -0.026278
  21 H :    0.030660
  22 H :    0.037433
  23 C :   -0.028932
  24 H :    0.019902
  25 H :    0.021910
  26 F :   -0.301815
  27 H :    0.007715
  28 H :    0.028621
  29 H :    0.004087
  30 H :    0.036846

  Mayer bond orders larger than 0.100000
B(  0-C ,  1-N ) :   0.8881 B(  0-C , 12-H ) :  -0.3158 B(  0-C , 17-C ) :   1.0582
B(  0-C , 18-H ) :   0.9016 B(  0-C , 19-H ) :   0.6801 B(  0-C , 25-H ) :   0.1061
B(  1-N ,  7-C ) :   1.0507 B(  1-N ,  8-C ) :   0.2143 B(  1-N ,  9-N ) :   0.2042
B(  1-N , 12-H ) :   1.1195 B(  1-N , 19-H ) :   0.1429 B(  2-C ,  3-C ) :   1.2406
B(  2-C ,  4-H ) :   0.1073 B(  2-C ,  5-H ) :   0.1591 B(  2-C , 20-C ) :   1.2444
B(  2-C , 21-H ) :   0.6950 B(  2-C , 22-H ) :   0.7844 B(  3-C ,  4-H ) :   0.8788
B(  3-C ,  5-H ) :   0.8558 B(  3-C ,  6-S ) :   1.0726 B(  3-C , 21-H ) :   0.1252
B(  3-C , 22-H ) :   0.1211 B(  6-S , 15-O ) :   1.5234 B(  6-S , 16-O ) :   1.4429
B(  6-S , 26-F ) :   0.5997 B(  7-C ,  8-C ) :   1.4604 B(  7-C ,  9-N ) :   0.9137
B(  7-C , 11-H ) :  -0.1347 B(  7-C , 12-H ) :  -0.3114 B(  7-C , 13-H ) :   0.1278
B(  7-C , 14-H ) :   0.2296 B(  8-C ,  9-N ) :   0.2812 B(  8-C , 13-H ) :   0.5251
B(  8-C , 14-H ) :   0.7341 B(  9-N , 10-H ) :   0.9581 B(  9-N , 11-H ) :   1.2561
B( 10-H , 11-H ) :  -0.2023 B( 12-H , 13-H ) :  -0.1006 B( 12-H , 19-H ) :   0.1713
B( 12-H , 24-H ) :   0.1084 B( 13-H , 14-H ) :  -0.2338 B( 13-H , 26-F ) :   0.3125
B( 17-C , 18-H ) :   0.1245 B( 17-C , 23-C ) :   1.2478 B( 17-C , 24-H ) :   0.7753
B( 17-C , 25-H ) :   0.9040 B( 18-H , 19-H ) :  -0.1346 B( 20-C , 21-H ) :   0.2628
B( 20-C , 23-C ) :   1.1541 B( 20-C , 28-H ) :   0.1420 B( 20-C , 29-H ) :   0.9718
B( 20-C , 30-H ) :   0.8653 B( 23-C , 24-H ) :   0.2056 B( 23-C , 25-H ) :   0.1196
B( 23-C , 27-H ) :   0.8721 B( 23-C , 28-H ) :   0.9685 B( 23-C , 30-H ) :   0.1451

Dispersion correction           -0.016408015
FINAL SINGLE POINT ENERGY     -1072.209462065085

DIPOLE MOMENT
-------------
                                X             Y             Z
Electronic contribution:     -0.87338      -2.89269     -18.29136
Nuclear contribution   :      0.50676       3.90127      20.40426
                        -----------------------------------------
Total Dipole Moment    :     -0.36662       1.00859       2.11290
                        -----------------------------------------
Magnitude (a.u.)       :      2.36981
Magnitude (Debye)      :      6.02358

Rotational constants in cm-1:     0.029548     0.014706     0.011197
Rotational constants in MHz :   885.834387   440.871746   335.667619

                             ****ORCA TERMINATED NORMALLY****
TOTAL RUN TIME: 0 days 0 hours 1 minutes 27 seconds 268 msec
