                         Program Version 5.0.0 -  RELEASE  -
|  1> !wB97X-D3 RIJCOSX def2-TZVPD def2/J TightSCF
|  2> *xyz -1 1
|  3> C          0.61188        1.65763       -4.50029
|  4> C          1.69499        1.54179       -5.57045
|  5> H          2.69733        1.73466       -5.18400
|  6> H          1.50666        2.27224       -6.35808
|  7> S          1.78029       -0.03313       -6.42874
|  8> O          2.56929        0.21366       -7.60736
|  9> O          0.41688       -0.46297       -6.61859
| 10> C          0.68036        0.65542       -3.34804
| 11> H         -0.35687        1.54923       -4.99113
| 12> H          0.65023        2.67544       -4.09600
| 13> O          2.50513       -0.93326       -5.48257
| 14> H          0.64318       -0.34009       -3.73853
| 15> H         -0.14865        0.81153       -2.68980
| 16> H          1.59447        0.79330       -2.80925
| 17> *
| 18> %MaxCore 64000
| 19>
| 20> %pal nprocs 8
| 21> end
| 22>
| 23> %scf
| 24>   MaxIter 150
| 25> end
| 26>
| 27>
| 28>                          ****END OF INPUT****

CARTESIAN COORDINATES (ANGSTROEM)
---------------------------------
  C      0.611880    1.657630   -4.500290
  C      1.694990    1.541790   -5.570450
  H      2.697330    1.734660   -5.184000
  H      1.506660    2.272240   -6.358080
  S      1.780290   -0.033130   -6.428740
  O      2.569290    0.213660   -7.607360
  O      0.416880   -0.462970   -6.618590
  C      0.680360    0.655420   -3.348040
  H     -0.356870    1.549230   -4.991130
  H      0.650230    2.675440   -4.096000
  O      2.505130   -0.933260   -5.482570
  H      0.643180   -0.340090   -3.738530
  H     -0.148650    0.811530   -2.689800
  H      1.594470    0.793300   -2.809250

 Total Charge           Charge          ....   -1
 Multiplicity           Mult            ....    1
 Number of Electrons    NEL             ....   66
 Basis Dimension        Dim             ....  340

ORBITAL ENERGIES
----------------

  NO   OCC          E(Eh)            E(eV)
   0   2.0000     -88.935938     -2420.0699
   1   2.0000     -19.015309      -517.4329
   2   2.0000     -19.013500      -517.3836
   3   2.0000     -18.995287      -516.8880
   4   2.0000     -10.144264      -276.0395
   5   2.0000     -10.137060      -275.8434
   6   2.0000     -10.123649      -275.4785
   7   2.0000      -7.999102      -217.6666
   8   2.0000      -5.953322      -161.9981
   9   2.0000      -5.952179      -161.9670
  10   2.0000      -5.951732      -161.9549
  11   2.0000      -1.043235       -28.3879
  12   2.0000      -0.914951       -24.8971
  13   2.0000      -0.881695       -23.9921
  14   2.0000      -0.773072       -21.0364
  15   2.0000      -0.681064       -18.5327
  16   2.0000      -0.580720       -15.8022
  17   2.0000      -0.487567       -13.2674
  18   2.0000      -0.434664       -11.8278
  19   2.0000      -0.419496       -11.4151
  20   2.0000      -0.393798       -10.7158
  21   2.0000      -0.379743       -10.3333
  22   2.0000      -0.361208        -9.8290
  23   2.0000      -0.349865        -9.5203
  24   2.0000      -0.318744        -8.6735
  25   2.0000      -0.309255        -8.4152
  26   2.0000      -0.295034        -8.0283
  27   2.0000      -0.251543        -6.8448
  28   2.0000      -0.250278        -6.8104
  29   2.0000      -0.216270        -5.8850
  30   2.0000      -0.204836        -5.5739
  31   2.0000      -0.190091        -5.1726
  32   2.0000      -0.159348        -4.3361
  33   0.0000       0.173144         4.7115
  34   0.0000       0.181762         4.9460
  35   0.0000       0.184015         5.0073
  36   0.0000       0.189378         5.1532
  37   0.0000       0.210723         5.7341

MULLIKEN ATOMIC CHARGES
-----------------------
   0 C :   -0.235741
   1 C :   -0.633653
   2 H :    0.296339
   3 H :    0.255223
   4 S :    1.198345
   5 O :   -0.700341
   6 O :   -0.704804
   7 C :   -1.206985
   8 H :    0.266612
   9 H :    0.248845
  10 O :   -0.737723
  11 H :    0.363963
  12 H :    0.303694
  13 H :    0.286226
Sum of atomic charges:   -1.0000000

LOEWDIN ATOMIC CHARGES
----------------------
   0 C :   -0.298802
   1 C :   -0.286122
   2 H :    0.092184
   3 H :    0.084283
   4 S :    0.356498
   5 O :   -0.387323
   6 O :   -0.376201
   7 C :   -0.121885
   8 H :    0.096154
   9 H :    0.092819
  10 O :   -0.424638
  11 H :    0.056161
  12 H :    0.052844
  13 H :    0.064027

  Mayer bond orders larger than 0.100000
B(  0-C ,  1-C ) :   0.9197 B(  0-C ,  7-C ) :   0.6609 B(  0-C ,  8-H ) :   0.9333
B(  0-C ,  9-H ) :   0.9524 B(  1-C ,  2-H ) :   0.9278 B(  1-C ,  3-H ) :   0.9953
B(  1-C ,  4-S ) :   0.8279 B(  1-C ,  5-O ) :   0.1519 B(  1-C ,  7-C ) :   0.1393
B(  1-C , 10-O ) :   0.1331 B(  4-S ,  5-O ) :   1.4741 B(  4-S ,  6-O ) :   1.5260
B(  4-S , 10-O ) :   1.4795 B(  7-C , 11-H ) :   0.9302 B(  7-C , 12-H ) :   0.9454
B(  7-C , 13-H ) :   0.9843

Dispersion correction           -0.004635695
FINAL SINGLE POINT ENERGY      -742.540451467908

DIPOLE MOMENT
-------------
                                X             Y             Z
Electronic contribution:      3.17917      -5.27401      -8.61915
Nuclear contribution   :     -3.81113       6.97418       9.97106
                        -----------------------------------------
Total Dipole Moment    :     -0.63196       1.70018       1.35191
                        -----------------------------------------
Magnitude (a.u.)       :      2.26222
Magnitude (Debye)      :      5.75011

Rotational constants in cm-1:     0.136135     0.055477     0.052562
Rotational constants in MHz :  4081.221574  1663.170947  1575.772362

                             ****ORCA TERMINATED NORMALLY****
TOTAL RUN TIME: 0 days 0 hours 0 minutes 47 seconds 374 msec
