                         Program Version 5.0.0 -  RELEASE  -
|  1> !wB97X-D3 RIJCOSX def2-TZVPD def2/J TightSCF
|  2> *xyz 1 1
|  3> C          1.96337       -1.74915       -1.89689
|  4> N          2.73849       -2.01517       -3.09711
|  5> C          4.04974       -2.15472       -3.15204
|  6> N          4.65821       -1.98629       -4.31866
|  7> N          4.76423       -2.45444       -2.05049
|  8> H          4.28736       -2.77626       -1.21750
|  9> H          5.75082       -2.65835       -2.12599
| 10> H          2.34518       -1.69027       -3.97145
| 11> H          4.10900       -1.59268       -5.07176
| 12> H          5.64910       -2.15646       -4.42724
| 13> C          2.08852       -0.30091       -1.41520
| 14> H          2.23127       -2.45162       -1.10264
| 15> H          0.93025       -1.97780       -2.15544
| 16> C          1.96899        0.73358       -2.53565
| 17> H          3.05136       -0.16860       -0.91187
| 18> H          1.31650       -0.13623       -0.65725
| 19> H          2.73046        0.55745       -3.26643
| 20> H          2.08619        1.71595       -2.12808
| 21> H          1.00672        0.65098       -2.99620
| 22> *
| 23> %MaxCore 64000
| 24>
| 25> %pal nprocs 8
| 26> end
| 27>
| 28> %scf
| 29>   MaxIter 150
| 30> end
| 31>
| 32>
| 33>                          ****END OF INPUT****

CARTESIAN COORDINATES (ANGSTROEM)
---------------------------------
  C      1.963370   -1.749150   -1.896890
  N      2.738490   -2.015170   -3.097110
  C      4.049740   -2.154720   -3.152040
  N      4.658210   -1.986290   -4.318660
  N      4.764230   -2.454440   -2.050490
  H      4.287360   -2.776260   -1.217500
  H      5.750820   -2.658350   -2.125990
  H      2.345180   -1.690270   -3.971450
  H      4.109000   -1.592680   -5.071760
  H      5.649100   -2.156460   -4.427240
  C      2.088520   -0.300910   -1.415200
  H      2.231270   -2.451620   -1.102640
  H      0.930250   -1.977800   -2.155440
  C      1.968990    0.733580   -2.535650
  H      3.051360   -0.168600   -0.911870
  H      1.316500   -0.136230   -0.657250
  H      2.730460    0.557450   -3.266430
  H      2.086190    1.715950   -2.128080
  H      1.006720    0.650980   -2.996200

 Total Charge           Charge          ....    1
 Multiplicity           Mult            ....    1
 Number of Electrons    NEL             ....   56
 Basis Dimension        Dim             ....  367

ORBITAL ENERGIES
----------------

  NO   OCC          E(Eh)            E(eV)
   0   2.0000     -14.644193      -398.4888
   1   2.0000     -14.642086      -398.4314
   2   2.0000     -14.641690      -398.4206
   3   2.0000     -10.611000      -288.7400
   4   2.0000     -10.477373      -285.1038
   5   2.0000     -10.416574      -283.4494
   6   2.0000     -10.391852      -282.7767
   7   2.0000      -1.333912       -36.2976
   8   2.0000      -1.219807       -33.1926
   9   2.0000      -1.206833       -32.8396
  10   2.0000      -1.055255       -28.7149
  11   2.0000      -0.978166       -26.6173
  12   2.0000      -0.933482       -25.4013
  13   2.0000      -0.886481       -24.1224
  14   2.0000      -0.874387       -23.7933
  15   2.0000      -0.832339       -22.6491
  16   2.0000      -0.790895       -21.5213
  17   2.0000      -0.782654       -21.2971
  18   2.0000      -0.758443       -20.6383
  19   2.0000      -0.725054       -19.7297
  20   2.0000      -0.700114       -19.0511
  21   2.0000      -0.684392       -18.6232
  22   2.0000      -0.645786       -17.5727
  23   2.0000      -0.602070       -16.3832
  24   2.0000      -0.588551       -16.0153
  25   2.0000      -0.577118       -15.7042
  26   2.0000      -0.565982       -15.4012
  27   2.0000      -0.536281       -14.5930
  28   0.0000      -0.089119        -2.4251
  29   0.0000      -0.086800        -2.3619
  30   0.0000      -0.059160        -1.6098
  31   0.0000      -0.047492        -1.2923
  32   0.0000      -0.022484        -0.6118

MULLIKEN ATOMIC CHARGES
-----------------------
   0 C :   -0.920768
   1 N :   -0.180334
   2 C :    0.801764
   3 N :   -0.424870
   4 N :   -0.358531
   5 H :    0.222582
   6 H :    0.205524
   7 H :    0.312586
   8 H :    0.212088
   9 H :    0.199701
  10 C :   -0.077108
  11 H :    0.316358
  12 H :    0.379754
  13 C :   -1.292994
  14 H :    0.281514
  15 H :    0.337290
  16 H :    0.291997
  17 H :    0.341325
  18 H :    0.352122
Sum of atomic charges:    1.0000000

LOEWDIN ATOMIC CHARGES
----------------------
   0 C :   -0.167345
   1 N :    0.075990
   2 C :   -0.430449
   3 N :    0.205907
   4 N :    0.214319
   5 H :    0.128962
   6 H :    0.138047
   7 H :    0.161621
   8 H :    0.140905
   9 H :    0.143524
  10 C :   -0.222904
  11 H :    0.121444
  12 H :    0.134753
  13 C :   -0.089384
  14 H :    0.108755
  15 H :    0.120919
  16 H :    0.056145
  17 H :    0.080384
  18 H :    0.078408

  Mayer bond orders larger than 0.100000
B(  0-C ,  1-N ) :   0.9457 B(  0-C , 10-C ) :   0.8085 B(  0-C , 11-H ) :   0.9006
B(  0-C , 12-H ) :   0.8790 B(  0-C , 13-C ) :   0.2261 B(  1-N ,  2-C ) :   1.2458
B(  1-N ,  3-N ) :   0.1123 B(  1-N ,  7-H ) :   0.9108 B(  2-C ,  3-N ) :   0.9496
B(  2-C ,  4-N ) :   1.1140 B(  3-N ,  8-H ) :   0.9892 B(  3-N ,  9-H ) :   1.0473
B(  4-N ,  5-H ) :   0.9321 B(  4-N ,  6-H ) :   1.0403 B( 10-C , 13-C ) :   0.6111
B( 10-C , 14-H ) :   0.9319 B( 10-C , 15-H ) :   0.9484 B( 13-C , 16-H ) :   0.9646
B( 13-C , 17-H ) :   0.9405 B( 13-C , 18-H ) :   0.9599

Dispersion correction           -0.005597340
FINAL SINGLE POINT ENERGY      -323.748864819087

DIPOLE MOMENT
-------------
                                X             Y             Z
Electronic contribution:      3.89243      -4.88965      -2.31956
Nuclear contribution   :     -2.72963       4.05673       1.67650
                        -----------------------------------------
Total Dipole Moment    :      1.16280      -0.83292      -0.64306
                        -----------------------------------------
Magnitude (a.u.)       :      1.56824
Magnitude (Debye)      :      3.98616

Rotational constants in cm-1:     0.140891     0.054763     0.048590
Rotational constants in MHz :  4223.814968  1641.764475  1456.690885

                             ****ORCA TERMINATED NORMALLY****
TOTAL RUN TIME: 0 days 0 hours 1 minutes 5 seconds 969 msec
