                         Program Version 5.0.0 -  RELEASE  -
|  1> !wB97X-D3 RIJCOSX def2-TZVPD def2/J TightSCF
|  2> *xyz 0 1
|  3> C          0.61188        1.65763       -4.50029
|  4> C          1.69499        1.54179       -5.57045
|  5> H          2.69733        1.73466       -5.18400
|  6> H          1.50666        2.27224       -6.35808
|  7> S          1.78029       -0.03313       -6.42874
|  8> F          2.56929        0.21366       -7.60736
|  9> O          0.41688       -0.46297       -6.61859
| 10> C          0.68036        0.65542       -3.34804
| 11> H         -0.35687        1.54923       -4.99113
| 12> H          0.65023        2.67544       -4.09600
| 13> O          2.50513       -0.93326       -5.48257
| 14> H          0.64318       -0.34009       -3.73853
| 15> H         -0.14865        0.81153       -2.68980
| 16> H          1.59447        0.79330       -2.80925
| 17> *
| 18> %MaxCore 64000
| 19>
| 20> %pal nprocs 8
| 21> end
| 22>
| 23> %scf
| 24>   MaxIter 150
| 25> end
| 26>
| 27>
| 28>                          ****END OF INPUT****

CARTESIAN COORDINATES (ANGSTROEM)
---------------------------------
  C      0.611880    1.657630   -4.500290
  C      1.694990    1.541790   -5.570450
  H      2.697330    1.734660   -5.184000
  H      1.506660    2.272240   -6.358080
  S      1.780290   -0.033130   -6.428740
  F      2.569290    0.213660   -7.607360
  O      0.416880   -0.462970   -6.618590
  C      0.680360    0.655420   -3.348040
  H     -0.356870    1.549230   -4.991130
  H      0.650230    2.675440   -4.096000
  O      2.505130   -0.933260   -5.482570
  H      0.643180   -0.340090   -3.738530
  H     -0.148650    0.811530   -2.689800
  H      1.594470    0.793300   -2.809250

 Total Charge           Charge          ....    0
 Multiplicity           Mult            ....    1
 Number of Electrons    NEL             ....   66
 Basis Dimension        Dim             ....  340

ORBITAL ENERGIES
----------------

  NO   OCC          E(Eh)            E(eV)
   0   2.0000     -89.196119     -2427.1498
   1   2.0000     -24.909710      -677.8277
   2   2.0000     -19.247018      -523.7380
   3   2.0000     -19.227171      -523.1979
   4   2.0000     -10.335805      -281.2516
   5   2.0000     -10.302227      -280.3378
   6   2.0000     -10.262699      -279.2622
   7   2.0000      -8.259814      -224.7610
   8   2.0000      -6.217040      -169.1743
   9   2.0000      -6.210834      -169.0054
  10   2.0000      -6.210481      -168.9958
  11   2.0000      -1.504121       -40.9292
  12   2.0000      -1.220577       -33.2136
  13   2.0000      -1.114936       -30.3390
  14   2.0000      -0.947003       -25.7693
  15   2.0000      -0.870723       -23.6936
  16   2.0000      -0.818569       -22.2744
  17   2.0000      -0.744716       -20.2648
  18   2.0000      -0.695209       -18.9176
  19   2.0000      -0.686752       -18.6875
  20   2.0000      -0.659733       -17.9522
  21   2.0000      -0.594945       -16.1893
  22   2.0000      -0.584507       -15.9052
  23   2.0000      -0.553787       -15.0693
  24   2.0000      -0.544574       -14.8186
  25   2.0000      -0.523283       -14.2393
  26   2.0000      -0.486158       -13.2290
  27   2.0000      -0.468764       -12.7557
  28   2.0000      -0.466067       -12.6823
  29   2.0000      -0.449026       -12.2186
  30   2.0000      -0.431246       -11.7348
  31   2.0000      -0.408460       -11.1148
  32   2.0000      -0.398985       -10.8569
  33   0.0000       0.047464         1.2916
  34   0.0000       0.062950         1.7129
  35   0.0000       0.066523         1.8102
  36   0.0000       0.074780         2.0349
  37   0.0000       0.095509         2.5989

MULLIKEN ATOMIC CHARGES
-----------------------
   0 C :   -0.315792
   1 C :   -0.627303
   2 H :    0.364399
   3 H :    0.347978
   4 S :    1.191384
   5 F :   -0.102058
   6 O :   -0.587395
   7 C :   -1.236920
   8 H :    0.296104
   9 H :    0.276259
  10 O :   -0.610561
  11 H :    0.368712
  12 H :    0.317669
  13 H :    0.317524
Sum of atomic charges:   -0.0000000

LOEWDIN ATOMIC CHARGES
----------------------
   0 C :   -0.269029
   1 C :   -0.245606
   2 H :    0.109171
   3 H :    0.099922
   4 S :    0.604869
   5 F :   -0.048697
   6 O :   -0.268026
   7 C :   -0.098646
   8 H :    0.108122
   9 H :    0.114967
  10 O :   -0.313508
  11 H :    0.061255
  12 H :    0.070471
  13 H :    0.074734

  Mayer bond orders larger than 0.100000
B(  0-C ,  1-C ) :   0.9858 B(  0-C ,  7-C ) :   0.6964 B(  0-C ,  8-H ) :   0.9139
B(  0-C ,  9-H ) :   0.9316 B(  1-C ,  2-H ) :   0.8737 B(  1-C ,  3-H ) :   0.8741
B(  1-C ,  4-S ) :   0.8129 B(  1-C ,  7-C ) :   0.1318 B(  1-C , 10-O ) :   0.1052
B(  4-S ,  5-F ) :   0.9879 B(  4-S ,  6-O ) :   1.6888 B(  4-S , 10-O ) :   1.6369
B(  7-C , 11-H ) :   0.9122 B(  7-C , 12-H ) :   0.9560 B(  7-C , 13-H ) :   0.9710

Dispersion correction           -0.004622270
FINAL SINGLE POINT ENERGY      -767.055722716825

DIPOLE MOMENT
-------------
                                X             Y             Z
Electronic contribution:      5.12457      -5.42705     -12.01636
Nuclear contribution   :     -4.93724       7.05784      11.92827
                        -----------------------------------------
Total Dipole Moment    :      0.18733       1.63078      -0.08808
                        -----------------------------------------
Magnitude (a.u.)       :      1.64387
Magnitude (Debye)      :      4.17839

Rotational constants in cm-1:     0.134572     0.053398     0.050578
Rotational constants in MHz :  4034.377338  1600.833917  1516.302250

                             ****ORCA TERMINATED NORMALLY****
TOTAL RUN TIME: 0 days 0 hours 0 minutes 49 seconds 892 msec
