                         Program Version 5.0.0 -  RELEASE  -
|  1> !wB97X-D3 RIJCOSX def2-TZVPD def2/J TightSCF
|  2> *xyz 0 1
|  3> C          1.96337       -1.74915       -1.89689
|  4> C          2.73849       -2.01517       -3.09711
|  5> C          4.04974       -2.15472       -3.15204
|  6> N          4.65821       -1.98629       -4.31866
|  7> N          4.76423       -2.45444       -2.05049
|  8> H          4.28736       -2.77626       -1.21750
|  9> H          5.75082       -2.65835       -2.12599
| 10> H          2.34518       -1.69027       -3.97145
| 11> H          4.10900       -1.59268       -5.07176
| 12> H          5.64910       -2.15646       -4.42724
| 13> C          2.08852       -0.30091       -1.41520
| 14> H          2.23127       -2.45162       -1.10264
| 15> H          0.93025       -1.97780       -2.15544
| 16> C          1.96899        0.73358       -2.53565
| 17> H          3.05136       -0.16860       -0.91187
| 18> H          1.31650       -0.13623       -0.65725
| 19> H          2.73046        0.55745       -3.26643
| 20> H          2.08619        1.71595       -2.12808
| 21> H          1.00672        0.65098       -2.99620
| 22> *
| 23> %MaxCore 64000
| 24>
| 25> %pal nprocs 8
| 26> end
| 27>
| 28> %scf
| 29>   MaxIter 150
| 30> end
| 31>
| 32>
| 33>                          ****END OF INPUT****

CARTESIAN COORDINATES (ANGSTROEM)
---------------------------------
  C      1.963370   -1.749150   -1.896890
  C      2.738490   -2.015170   -3.097110
  C      4.049740   -2.154720   -3.152040
  N      4.658210   -1.986290   -4.318660
  N      4.764230   -2.454440   -2.050490
  H      4.287360   -2.776260   -1.217500
  H      5.750820   -2.658350   -2.125990
  H      2.345180   -1.690270   -3.971450
  H      4.109000   -1.592680   -5.071760
  H      5.649100   -2.156460   -4.427240
  C      2.088520   -0.300910   -1.415200
  H      2.231270   -2.451620   -1.102640
  H      0.930250   -1.977800   -2.155440
  C      1.968990    0.733580   -2.535650
  H      3.051360   -0.168600   -0.911870
  H      1.316500   -0.136230   -0.657250
  H      2.730460    0.557450   -3.266430
  H      2.086190    1.715950   -2.128080
  H      1.006720    0.650980   -2.996200

 Total Charge           Charge          ....    0
 Multiplicity           Mult            ....    1
 Number of Electrons    NEL             ....   56
 Basis Dimension        Dim             ....  367

ORBITAL ENERGIES
----------------

  NO   OCC          E(Eh)            E(eV)
   0   2.0000     -14.422969      -392.4689
   1   2.0000     -14.421168      -392.4199
   2   2.0000     -10.319703      -280.8134
   3   2.0000     -10.249668      -278.9076
   4   2.0000     -10.246953      -278.8338
   5   2.0000     -10.238411      -278.6013
   6   2.0000     -10.191284      -277.3189
   7   2.0000      -1.078430       -29.3456
   8   2.0000      -0.986819       -26.8527
   9   2.0000      -0.902563       -24.5600
  10   2.0000      -0.833523       -22.6813
  11   2.0000      -0.772032       -21.0081
  12   2.0000      -0.704963       -19.1830
  13   2.0000      -0.674862       -18.3639
  14   2.0000      -0.645023       -17.5520
  15   2.0000      -0.608307       -16.5529
  16   2.0000      -0.571770       -15.5586
  17   2.0000      -0.546020       -14.8580
  18   2.0000      -0.535492       -14.5715
  19   2.0000      -0.504780       -13.7357
  20   2.0000      -0.487429       -13.2636
  21   2.0000      -0.469542       -12.7769
  22   2.0000      -0.451576       -12.2880
  23   2.0000      -0.423260       -11.5175
  24   2.0000      -0.404883       -11.0174
  25   2.0000      -0.400273       -10.8920
  26   2.0000      -0.360626        -9.8131
  27   2.0000      -0.245738        -6.6869
  28   0.0000       0.062404         1.6981
  29   0.0000       0.085892         2.3372
  30   0.0000       0.088892         2.4189
  31   0.0000       0.100062         2.7228
  32   0.0000       0.112679         3.0662

MULLIKEN ATOMIC CHARGES
-----------------------
   0 C :   -0.434758
   1 C :   -0.710571
   2 C :    0.250442
   3 N :   -0.433003
   4 N :   -0.393295
   5 H :    0.204382
   6 H :    0.153371
   7 H :    0.367123
   8 H :    0.204188
   9 H :    0.150692
  10 C :   -0.180637
  11 H :    0.373518
  12 H :    0.226720
  13 C :   -1.299445
  14 H :    0.255285
  15 H :    0.273243
  16 H :    0.327105
  17 H :    0.325749
  18 H :    0.339891
Sum of atomic charges:   -0.0000000

LOEWDIN ATOMIC CHARGES
----------------------
   0 C :   -0.243575
   1 C :   -0.166842
   2 C :   -0.542035
   3 N :    0.107992
   4 N :    0.126663
   5 H :    0.102811
   6 H :    0.099289
   7 H :    0.067889
   8 H :    0.112963
   9 H :    0.103544
  10 C :   -0.253687
  11 H :    0.098056
  12 H :    0.106775
  13 C :   -0.109588
  14 H :    0.101540
  15 H :    0.099212
  16 H :    0.058073
  17 H :    0.061535
  18 H :    0.069385

  Mayer bond orders larger than 0.100000
B(  0-C ,  1-C ) :   0.6410 B(  0-C ,  2-C ) :   0.1234 B(  0-C , 10-C ) :   0.7654
B(  0-C , 11-H ) :   0.9057 B(  0-C , 12-H ) :   1.0648 B(  0-C , 13-C ) :   0.1379
B(  1-C ,  2-C ) :   1.4647 B(  1-C ,  7-H ) :   0.9967 B(  1-C , 10-C ) :   0.1053
B(  1-C , 11-H ) :  -0.1214 B(  1-C , 13-C ) :   0.1797 B(  2-C ,  3-N ) :   1.0481
B(  2-C ,  4-N ) :   1.0067 B(  2-C ,  7-H ) :  -0.2017 B(  2-C , 10-C ) :   0.1493
B(  3-N ,  8-H ) :   0.9817 B(  3-N ,  9-H ) :   1.0745 B(  4-N ,  5-H ) :   0.9401
B(  4-N ,  6-H ) :   1.0769 B( 10-C , 13-C ) :   0.6160 B( 10-C , 14-H ) :   0.9197
B( 10-C , 15-H ) :   0.9569 B( 13-C , 16-H ) :   0.9915 B( 13-C , 17-H ) :   0.9333
B( 13-C , 18-H ) :   0.9486

Dispersion correction           -0.005583508
FINAL SINGLE POINT ENERGY      -307.259957963034

DIPOLE MOMENT
-------------
                                X             Y             Z
Electronic contribution:      3.83055      -4.05664      -1.72653
Nuclear contribution   :     -2.83106       3.92601       1.57906
                        -----------------------------------------
Total Dipole Moment    :      0.99949      -0.13063      -0.14746
                        -----------------------------------------
Magnitude (a.u.)       :      1.01872
Magnitude (Debye)      :      2.58938

Rotational constants in cm-1:     0.142679     0.055043     0.048600
Rotational constants in MHz :  4277.395781  1650.135877  1456.977167

                             ****ORCA TERMINATED NORMALLY****
TOTAL RUN TIME: 0 days 0 hours 1 minutes 11 seconds 279 msec
