                         Program Version 5.0.0 -  RELEASE  -
|  1> !wB97X-D3 RIJCOSX def2-TZVPD def2/J TightSCF
|  2> *xyz 0 1
|  3> C          0.61188        1.65763       -4.50029
|  4> C          1.69499        1.54179       -5.57045
|  5> H          2.69733        1.73466       -5.18400
|  6> H          1.50666        2.27224       -6.35808
|  7> S          1.78029       -0.03313       -6.42874
|  8> O          2.56929        0.21366       -7.60736
|  9> F          0.41688       -0.46297       -6.61859
| 10> C          0.68036        0.65542       -3.34804
| 11> H         -0.35687        1.54923       -4.99113
| 12> H          0.65023        2.67544       -4.09600
| 13> O          2.50513       -0.93326       -5.48257
| 14> H          0.64318       -0.34009       -3.73853
| 15> H         -0.14865        0.81153       -2.68980
| 16> H          1.59447        0.79330       -2.80925
| 17> *
| 18> %MaxCore 64000
| 19>
| 20> %pal nprocs 8
| 21> end
| 22>
| 23> %scf
| 24>   MaxIter 150
| 25> end
| 26>
| 27>
| 28>                          ****END OF INPUT****

CARTESIAN COORDINATES (ANGSTROEM)
---------------------------------
  C      0.611880    1.657630   -4.500290
  C      1.694990    1.541790   -5.570450
  H      2.697330    1.734660   -5.184000
  H      1.506660    2.272240   -6.358080
  S      1.780290   -0.033130   -6.428740
  O      2.569290    0.213660   -7.607360
  F      0.416880   -0.462970   -6.618590
  C      0.680360    0.655420   -3.348040
  H     -0.356870    1.549230   -4.991130
  H      0.650230    2.675440   -4.096000
  O      2.505130   -0.933260   -5.482570
  H      0.643180   -0.340090   -3.738530
  H     -0.148650    0.811530   -2.689800
  H      1.594470    0.793300   -2.809250

 Total Charge           Charge          ....    0
 Multiplicity           Mult            ....    1
 Number of Electrons    NEL             ....   66
 Basis Dimension        Dim             ....  340

ORBITAL ENERGIES
----------------

  NO   OCC          E(Eh)            E(eV)
   0   2.0000     -89.195518     -2427.1334
   1   2.0000     -24.909537      -677.8230
   2   2.0000     -19.245616      -523.6998
   3   2.0000     -19.226556      -523.1812
   4   2.0000     -10.335494      -281.2431
   5   2.0000     -10.307540      -280.4824
   6   2.0000     -10.271750      -279.5085
   7   2.0000      -8.259216      -224.7447
   8   2.0000      -6.216696      -169.1649
   9   2.0000      -6.210111      -168.9857
  10   2.0000      -6.209759      -168.9761
  11   2.0000      -1.502844       -40.8945
  12   2.0000      -1.220708       -33.2172
  13   2.0000      -1.114159       -30.3178
  14   2.0000      -0.952404       -25.9162
  15   2.0000      -0.869088       -23.6491
  16   2.0000      -0.823148       -22.3990
  17   2.0000      -0.747669       -20.3451
  18   2.0000      -0.702137       -19.1061
  19   2.0000      -0.694049       -18.8860
  20   2.0000      -0.648136       -17.6367
  21   2.0000      -0.595101       -16.1935
  22   2.0000      -0.584903       -15.9160
  23   2.0000      -0.559939       -15.2367
  24   2.0000      -0.542251       -14.7554
  25   2.0000      -0.532110       -14.4794
  26   2.0000      -0.487499       -13.2655
  27   2.0000      -0.481238       -13.0951
  28   2.0000      -0.472717       -12.8633
  29   2.0000      -0.456735       -12.4284
  30   2.0000      -0.425935       -11.5903
  31   2.0000      -0.409992       -11.1564
  32   2.0000      -0.396636       -10.7930
  33   0.0000       0.049551         1.3484
  34   0.0000       0.061400         1.6708
  35   0.0000       0.070485         1.9180
  36   0.0000       0.071545         1.9468
  37   0.0000       0.095285         2.5928

MULLIKEN ATOMIC CHARGES
-----------------------
   0 C :   -0.342804
   1 C :   -0.550441
   2 H :    0.349271
   3 H :    0.316164
   4 S :    1.184744
   5 O :   -0.580517
   6 F :   -0.136761
   7 C :   -1.187687
   8 H :    0.301162
   9 H :    0.271527
  10 O :   -0.607445
  11 H :    0.349126
  12 H :    0.319712
  13 H :    0.313947
Sum of atomic charges:    0.0000000

LOEWDIN ATOMIC CHARGES
----------------------
   0 C :   -0.278317
   1 C :   -0.236426
   2 H :    0.118947
   3 H :    0.103110
   4 S :    0.602296
   5 O :   -0.273759
   6 F :   -0.044134
   7 C :   -0.102146
   8 H :    0.104025
   9 H :    0.114057
  10 O :   -0.311791
  11 H :    0.056808
  12 H :    0.070156
  13 H :    0.077174

  Mayer bond orders larger than 0.100000
B(  0-C ,  1-C ) :   0.9121 B(  0-C ,  7-C ) :   0.7061 B(  0-C ,  8-H ) :   0.9208
B(  0-C ,  9-H ) :   0.9459 B(  1-C ,  2-H ) :   0.8779 B(  1-C ,  3-H ) :   0.9547
B(  1-C ,  4-S ) :   0.8082 B(  1-C ,  5-O ) :   0.1183 B(  4-S ,  5-O ) :   1.6454
B(  4-S ,  6-F ) :   1.0023 B(  4-S , 10-O ) :   1.6523 B(  7-C , 11-H ) :   0.9117
B(  7-C , 12-H ) :   0.9676 B(  7-C , 13-H ) :   0.9856

Dispersion correction           -0.004581112
FINAL SINGLE POINT ENERGY      -767.054857159350

DIPOLE MOMENT
-------------
                                X             Y             Z
Electronic contribution:      1.42739      -6.56557     -10.25714
Nuclear contribution   :     -2.62245       7.78551      10.86491
                        -----------------------------------------
Total Dipole Moment    :     -1.19506       1.21994       0.60777
                        -----------------------------------------
Magnitude (a.u.)       :      1.81268
Magnitude (Debye)      :      4.60747

Rotational constants in cm-1:     0.129509     0.054228     0.052367
Rotational constants in MHz :  3882.596420  1625.701900  1569.934536

                             ****ORCA TERMINATED NORMALLY****
TOTAL RUN TIME: 0 days 0 hours 0 minutes 52 seconds 110 msec
