                         Program Version 5.0.0 -  RELEASE  -
|  1> !wB97X-D3 RIJCOSX def2-TZVPD def2/J TightSCF
|  2> *xyz 0 1
|  3> C          1.96337       -1.74915       -1.89689
|  4> N          2.73849       -2.01517       -3.09711
|  5> C          4.04974       -2.15472       -3.15204
|  6> C          4.65821       -1.98629       -4.31866
|  7> N          4.76423       -2.45444       -2.05049
|  8> H          4.28736       -2.77626       -1.21750
|  9> H          5.75082       -2.65835       -2.12599
| 10> H          2.34518       -1.69027       -3.97145
| 11> H          4.10900       -1.59268       -5.07176
| 12> H          5.64910       -2.15646       -4.42724
| 13> C          2.08852       -0.30091       -1.41520
| 14> H          2.23127       -2.45162       -1.10264
| 15> H          0.93025       -1.97780       -2.15544
| 16> C          1.96899        0.73358       -2.53565
| 17> H          3.05136       -0.16860       -0.91187
| 18> H          1.31650       -0.13623       -0.65725
| 19> H          2.73046        0.55745       -3.26643
| 20> H          2.08619        1.71595       -2.12808
| 21> H          1.00672        0.65098       -2.99620
| 22> *
| 23> %MaxCore 64000
| 24>
| 25> %pal nprocs 8
| 26> end
| 27>
| 28> %scf
| 29>   MaxIter 150
| 30> end
| 31>
| 32>
| 33>                          ****END OF INPUT****

CARTESIAN COORDINATES (ANGSTROEM)
---------------------------------
  C      1.963370   -1.749150   -1.896890
  N      2.738490   -2.015170   -3.097110
  C      4.049740   -2.154720   -3.152040
  C      4.658210   -1.986290   -4.318660
  N      4.764230   -2.454440   -2.050490
  H      4.287360   -2.776260   -1.217500
  H      5.750820   -2.658350   -2.125990
  H      2.345180   -1.690270   -3.971450
  H      4.109000   -1.592680   -5.071760
  H      5.649100   -2.156460   -4.427240
  C      2.088520   -0.300910   -1.415200
  H      2.231270   -2.451620   -1.102640
  H      0.930250   -1.977800   -2.155440
  C      1.968990    0.733580   -2.535650
  H      3.051360   -0.168600   -0.911870
  H      1.316500   -0.136230   -0.657250
  H      2.730460    0.557450   -3.266430
  H      2.086190    1.715950   -2.128080
  H      1.006720    0.650980   -2.996200

 Total Charge           Charge          ....    0
 Multiplicity           Mult            ....    1
 Number of Electrons    NEL             ....   56
 Basis Dimension        Dim             ....  367

ORBITAL ENERGIES
----------------

  NO   OCC          E(Eh)            E(eV)
   0   2.0000     -14.421346      -392.4248
   1   2.0000     -14.420201      -392.3936
   2   2.0000     -10.321543      -280.8635
   3   2.0000     -10.312704      -280.6229
   4   2.0000     -10.272940      -279.5409
   5   2.0000     -10.257712      -279.1265
   6   2.0000     -10.184042      -277.1219
   7   2.0000      -1.087002       -29.5788
   8   2.0000      -0.999886       -27.2083
   9   2.0000      -0.903405       -24.5829
  10   2.0000      -0.840124       -22.8609
  11   2.0000      -0.783906       -21.3312
  12   2.0000      -0.717872       -19.5343
  13   2.0000      -0.693932       -18.8828
  14   2.0000      -0.637244       -17.3403
  15   2.0000      -0.597741       -16.2654
  16   2.0000      -0.579342       -15.7647
  17   2.0000      -0.560224       -15.2445
  18   2.0000      -0.543574       -14.7914
  19   2.0000      -0.502075       -13.6622
  20   2.0000      -0.493376       -13.4254
  21   2.0000      -0.486540       -13.2394
  22   2.0000      -0.468464       -12.7476
  23   2.0000      -0.446572       -12.1519
  24   2.0000      -0.443055       -12.0561
  25   2.0000      -0.430500       -11.7145
  26   2.0000      -0.346988        -9.4420
  27   2.0000      -0.250644        -6.8204
  28   0.0000       0.063625         1.7313
  29   0.0000       0.081137         2.2079
  30   0.0000       0.087757         2.3880
  31   0.0000       0.090458         2.4615
  32   0.0000       0.113395         3.0856

MULLIKEN ATOMIC CHARGES
-----------------------
   0 C :   -0.908427
   1 N :   -0.170745
   2 C :    1.035418
   3 C :   -1.680392
   4 N :   -0.394518
   5 H :    0.173064
   6 H :    0.175131
   7 H :    0.276048
   8 H :    0.311471
   9 H :    0.332117
  10 C :   -0.040680
  11 H :    0.279946
  12 H :    0.346421
  13 C :   -1.319993
  14 H :    0.280649
  15 H :    0.308561
  16 H :    0.340064
  17 H :    0.325934
  18 H :    0.329932
Sum of atomic charges:    0.0000000

LOEWDIN ATOMIC CHARGES
----------------------
   0 C :   -0.201966
   1 N :    0.006033
   2 C :   -0.565981
   3 C :   -0.004729
   4 N :    0.122224
   5 H :    0.092711
   6 H :    0.110621
   7 H :    0.140071
   8 H :    0.010683
   9 H :    0.009149
  10 C :   -0.241288
  11 H :    0.106767
  12 H :    0.116469
  13 C :   -0.102766
  14 H :    0.102960
  15 H :    0.103195
  16 H :    0.061265
  17 H :    0.066047
  18 H :    0.068534

  Mayer bond orders larger than 0.100000
B(  0-C ,  1-N ) :   0.9511 B(  0-C ,  4-N ) :   0.1085 B(  0-C , 10-C ) :   0.7794
B(  0-C , 11-H ) :   0.9308 B(  0-C , 12-H ) :   0.9146 B(  0-C , 13-C ) :   0.2358
B(  1-N ,  2-C ) :   1.1325 B(  1-N ,  7-H ) :   0.8543 B(  2-C ,  3-C ) :   0.6275
B(  2-C ,  4-N ) :   0.9903 B(  2-C ,  9-H ) :  -0.1247 B(  3-C ,  8-H ) :   0.9442
B(  3-C ,  9-H ) :   1.0373 B(  4-N ,  5-H ) :   0.9940 B(  4-N ,  6-H ) :   1.0236
B( 10-C , 13-C ) :   0.5911 B( 10-C , 14-H ) :   0.9303 B( 10-C , 15-H ) :   0.9750
B( 13-C , 16-H ) :   0.9607 B( 13-C , 17-H ) :   0.9303 B( 13-C , 18-H ) :   0.9612

Dispersion correction           -0.005637449
FINAL SINGLE POINT ENERGY      -307.256554451249

DIPOLE MOMENT
-------------
                                X             Y             Z
Electronic contribution:      1.92742      -3.91493      -0.40887
Nuclear contribution   :     -2.41054       3.93233       1.31148
                        -----------------------------------------
Total Dipole Moment    :     -0.48312       0.01740       0.90261
                        -----------------------------------------
Magnitude (a.u.)       :      1.02392
Magnitude (Debye)      :      2.60259

Rotational constants in cm-1:     0.144008     0.056232     0.050126
Rotational constants in MHz :  4317.255215  1685.791221  1502.728769

                             ****ORCA TERMINATED NORMALLY****
TOTAL RUN TIME: 0 days 0 hours 1 minutes 5 seconds 779 msec
