                         Program Version 5.0.0 -  RELEASE  -
|  1> !wB97X-D3 RIJCOSX def2-TZVPD def2/J TightSCF
|  2> *xyz 0 1
|  3> C          0.61188        1.65763       -4.50029
|  4> C          1.69499        1.54179       -5.57045
|  5> H          2.69733        1.73466       -5.18400
|  6> H          1.50666        2.27224       -6.35808
|  7> S          1.78029       -0.03313       -6.42874
|  8> O          2.56929        0.21366       -7.60736
|  9> O          0.41688       -0.46297       -6.61859
| 10> C          0.68036        0.65542       -3.34804
| 11> H         -0.35687        1.54923       -4.99113
| 12> H          0.65023        2.67544       -4.09600
| 13> F          2.50513       -0.93326       -5.48257
| 14> H          0.64318       -0.34009       -3.73853
| 15> H         -0.14865        0.81153       -2.68980
| 16> H          1.59447        0.79330       -2.80925
| 17> *
| 18> %MaxCore 64000
| 19>
| 20> %pal nprocs 8
| 21> end
| 22>
| 23> %scf
| 24>   MaxIter 150
| 25> end
| 26>
| 27>
| 28>                          ****END OF INPUT****

CARTESIAN COORDINATES (ANGSTROEM)
---------------------------------
  C      0.611880    1.657630   -4.500290
  C      1.694990    1.541790   -5.570450
  H      2.697330    1.734660   -5.184000
  H      1.506660    2.272240   -6.358080
  S      1.780290   -0.033130   -6.428740
  O      2.569290    0.213660   -7.607360
  O      0.416880   -0.462970   -6.618590
  C      0.680360    0.655420   -3.348040
  H     -0.356870    1.549230   -4.991130
  H      0.650230    2.675440   -4.096000
  F      2.505130   -0.933260   -5.482570
  H      0.643180   -0.340090   -3.738530
  H     -0.148650    0.811530   -2.689800
  H      1.594470    0.793300   -2.809250

 Total Charge           Charge          ....    0
 Multiplicity           Mult            ....    1
 Number of Electrons    NEL             ....   66
 Basis Dimension        Dim             ....  340

ORBITAL ENERGIES
----------------

  NO   OCC          E(Eh)            E(eV)
   0   2.0000     -89.192849     -2427.0608
   1   2.0000     -24.880704      -677.0384
   2   2.0000     -19.246006      -523.7104
   3   2.0000     -19.244972      -523.6823
   4   2.0000     -10.334588      -281.2184
   5   2.0000     -10.303072      -280.3609
   6   2.0000     -10.276021      -279.6247
   7   2.0000      -8.256498      -224.6707
   8   2.0000      -6.214034      -169.0925
   9   2.0000      -6.207684      -168.9197
  10   2.0000      -6.206889      -168.8980
  11   2.0000      -1.458623       -39.6912
  12   2.0000      -1.232470       -33.5372
  13   2.0000      -1.141773       -31.0692
  14   2.0000      -0.950069       -25.8527
  15   2.0000      -0.865651       -23.5555
  16   2.0000      -0.805574       -21.9208
  17   2.0000      -0.743772       -20.2391
  18   2.0000      -0.672312       -18.2945
  19   2.0000      -0.662812       -18.0360
  20   2.0000      -0.653367       -17.7790
  21   2.0000      -0.598724       -16.2921
  22   2.0000      -0.580111       -15.7856
  23   2.0000      -0.558864       -15.2075
  24   2.0000      -0.551020       -14.9940
  25   2.0000      -0.536114       -14.5884
  26   2.0000      -0.495094       -13.4722
  27   2.0000      -0.482351       -13.1254
  28   2.0000      -0.468394       -12.7456
  29   2.0000      -0.455914       -12.4060
  30   2.0000      -0.437507       -11.9052
  31   2.0000      -0.423855       -11.5337
  32   2.0000      -0.419159       -11.4059
  33   0.0000       0.055501         1.5103
  34   0.0000       0.062737         1.7072
  35   0.0000       0.069679         1.8961
  36   0.0000       0.072318         1.9679
  37   0.0000       0.099856         2.7172

MULLIKEN ATOMIC CHARGES
-----------------------
   0 C :   -0.241103
   1 C :   -0.645899
   2 H :    0.383823
   3 H :    0.316539
   4 S :    1.216535
   5 O :   -0.595400
   6 O :   -0.588861
   7 C :   -1.257870
   8 H :    0.297904
   9 H :    0.287953
  10 F :   -0.171501
  11 H :    0.359864
  12 H :    0.310615
  13 H :    0.327403
Sum of atomic charges:    0.0000000

LOEWDIN ATOMIC CHARGES
----------------------
   0 C :   -0.276127
   1 C :   -0.237538
   2 H :    0.108655
   3 H :    0.111490
   4 S :    0.601628
   5 O :   -0.275234
   6 O :   -0.266870
   7 C :   -0.101562
   8 H :    0.108540
   9 H :    0.113954
  10 F :   -0.090690
  11 H :    0.058559
  12 H :    0.072128
  13 H :    0.073065

  Mayer bond orders larger than 0.100000
B(  0-C ,  1-C ) :   0.9170 B(  0-C ,  7-C ) :   0.6119 B(  0-C ,  8-H ) :   0.9305
B(  0-C ,  9-H ) :   0.9316 B(  1-C ,  2-H ) :   0.8565 B(  1-C ,  3-H ) :   0.9297
B(  1-C ,  4-S ) :   0.8135 B(  1-C ,  5-O ) :   0.1280 B(  1-C ,  7-C ) :   0.1811
B(  4-S ,  5-O ) :   1.6214 B(  4-S ,  6-O ) :   1.6864 B(  4-S , 10-F ) :   0.9552
B(  7-C , 11-H ) :   0.9000 B(  7-C , 12-H ) :   0.9696 B(  7-C , 13-H ) :   0.9788

Dispersion correction           -0.004577549
FINAL SINGLE POINT ENERGY      -767.079133750728

DIPOLE MOMENT
-------------
                                X             Y             Z
Electronic contribution:      5.00112      -7.38928      -8.28895
Nuclear contribution   :     -4.86824       8.29128       9.64318
                        -----------------------------------------
Total Dipole Moment    :      0.13288       0.90200       1.35423
                        -----------------------------------------
Magnitude (a.u.)       :      1.63254
Magnitude (Debye)      :      4.14960

Rotational constants in cm-1:     0.129339     0.055092     0.051542
Rotational constants in MHz :  3877.477482  1651.602611  1545.182728

                             ****ORCA TERMINATED NORMALLY****
TOTAL RUN TIME: 0 days 0 hours 0 minutes 51 seconds 548 msec
