                         Program Version 5.0.0 -  RELEASE  -
|  1> !wB97X-D3 RIJCOSX def2-TZVPD def2/J TightSCF
|  2> *xyz 0 1
|  3> C          1.96337       -1.74915       -1.89689
|  4> N          2.73849       -2.01517       -3.09711
|  5> C          4.04974       -2.15472       -3.15204
|  6> N          4.65821       -1.98629       -4.31866
|  7> C          4.76423       -2.45444       -2.05049
|  8> H          4.28736       -2.77626       -1.21750
|  9> H          5.75082       -2.65835       -2.12599
| 10> H          2.34518       -1.69027       -3.97145
| 11> H          4.10900       -1.59268       -5.07176
| 12> H          5.64910       -2.15646       -4.42724
| 13> C          2.08852       -0.30091       -1.41520
| 14> H          2.23127       -2.45162       -1.10264
| 15> H          0.93025       -1.97780       -2.15544
| 16> C          1.96899        0.73358       -2.53565
| 17> H          3.05136       -0.16860       -0.91187
| 18> H          1.31650       -0.13623       -0.65725
| 19> H          2.73046        0.55745       -3.26643
| 20> H          2.08619        1.71595       -2.12808
| 21> H          1.00672        0.65098       -2.99620
| 22> *
| 23> %MaxCore 64000
| 24>
| 25> %pal nprocs 8
| 26> end
| 27>
| 28> %scf
| 29>   MaxIter 150
| 30> end
| 31>
| 32>
| 33>                          ****END OF INPUT****

CARTESIAN COORDINATES (ANGSTROEM)
---------------------------------
  C      1.963370   -1.749150   -1.896890
  N      2.738490   -2.015170   -3.097110
  C      4.049740   -2.154720   -3.152040
  N      4.658210   -1.986290   -4.318660
  C      4.764230   -2.454440   -2.050490
  H      4.287360   -2.776260   -1.217500
  H      5.750820   -2.658350   -2.125990
  H      2.345180   -1.690270   -3.971450
  H      4.109000   -1.592680   -5.071760
  H      5.649100   -2.156460   -4.427240
  C      2.088520   -0.300910   -1.415200
  H      2.231270   -2.451620   -1.102640
  H      0.930250   -1.977800   -2.155440
  C      1.968990    0.733580   -2.535650
  H      3.051360   -0.168600   -0.911870
  H      1.316500   -0.136230   -0.657250
  H      2.730460    0.557450   -3.266430
  H      2.086190    1.715950   -2.128080
  H      1.006720    0.650980   -2.996200

 Total Charge           Charge          ....    0
 Multiplicity           Mult            ....    1
 Number of Electrons    NEL             ....   56
 Basis Dimension        Dim             ....  367

ORBITAL ENERGIES
----------------

  NO   OCC          E(Eh)            E(eV)
   0   2.0000     -14.424181      -392.5019
   1   2.0000     -14.423816      -392.4920
   2   2.0000     -10.323042      -280.9043
   3   2.0000     -10.306716      -280.4600
   4   2.0000     -10.267173      -279.3840
   5   2.0000     -10.257319      -279.1158
   6   2.0000     -10.183790      -277.1150
   7   2.0000      -1.092827       -29.7373
   8   2.0000      -1.004344       -27.3296
   9   2.0000      -0.893853       -24.3230
  10   2.0000      -0.824971       -22.4486
  11   2.0000      -0.805416       -21.9165
  12   2.0000      -0.717996       -19.5377
  13   2.0000      -0.660361       -17.9693
  14   2.0000      -0.649313       -17.6687
  15   2.0000      -0.627474       -17.0744
  16   2.0000      -0.575474       -15.6595
  17   2.0000      -0.552117       -15.0239
  18   2.0000      -0.536654       -14.6031
  19   2.0000      -0.501099       -13.6356
  20   2.0000      -0.493665       -13.4333
  21   2.0000      -0.479082       -13.0365
  22   2.0000      -0.466460       -12.6930
  23   2.0000      -0.446136       -12.1400
  24   2.0000      -0.440075       -11.9751
  25   2.0000      -0.423625       -11.5274
  26   2.0000      -0.344481        -9.3738
  27   2.0000      -0.251559        -6.8453
  28   0.0000       0.061835         1.6826
  29   0.0000       0.082653         2.2491
  30   0.0000       0.089930         2.4471
  31   0.0000       0.092625         2.5205
  32   0.0000       0.111984         3.0472

MULLIKEN ATOMIC CHARGES
-----------------------
   0 C :   -0.874059
   1 N :   -0.233591
   2 C :    1.017785
   3 N :   -0.432403
   4 C :   -1.609372
   5 H :    0.310843
   6 H :    0.366676
   7 H :    0.284057
   8 H :    0.173621
   9 H :    0.177425
  10 C :   -0.097894
  11 H :    0.277462
  12 H :    0.355297
  13 C :   -1.270453
  14 H :    0.291672
  15 H :    0.319176
  16 H :    0.296183
  17 H :    0.330287
  18 H :    0.317288
Sum of atomic charges:    0.0000000

LOEWDIN ATOMIC CHARGES
----------------------
   0 C :   -0.196605
   1 N :    0.003717
   2 C :   -0.569220
   3 N :    0.113784
   4 C :    0.005159
   5 H :    0.002579
   6 H :    0.005716
   7 H :    0.133454
   8 H :    0.102768
   9 H :    0.116024
  10 C :   -0.237071
  11 H :    0.112344
  12 H :    0.116169
  13 C :   -0.106681
  14 H :    0.103515
  15 H :    0.104880
  16 H :    0.056877
  17 H :    0.065668
  18 H :    0.066923

  Mayer bond orders larger than 0.100000
B(  0-C ,  1-N ) :   0.9281 B(  0-C ,  4-C ) :   0.1379 B(  0-C , 10-C ) :   0.8287
B(  0-C , 11-H ) :   0.9195 B(  0-C , 12-H ) :   0.8638 B(  0-C , 13-C ) :   0.2374
B(  1-N ,  2-C ) :   1.0396 B(  1-N ,  7-H ) :   0.9120 B(  2-C ,  3-N ) :   0.8649
B(  2-C ,  4-C ) :   0.9115 B(  2-C ,  6-H ) :  -0.1112 B(  3-N ,  4-C ) :   0.1255
B(  3-N ,  8-H ) :   1.0199 B(  3-N ,  9-H ) :   1.0271 B(  4-C ,  5-H ) :   0.9421
B(  4-C ,  6-H ) :   0.9733 B( 10-C , 13-C ) :   0.5892 B( 10-C , 14-H ) :   0.9374
B( 10-C , 15-H ) :   0.9467 B( 13-C , 16-H ) :   0.9894 B( 13-C , 17-H ) :   0.9278
B( 13-C , 18-H ) :   0.9766

Dispersion correction           -0.005601115
FINAL SINGLE POINT ENERGY      -307.255447546486

DIPOLE MOMENT
-------------
                                X             Y             Z
Electronic contribution:      1.85385      -3.40485      -2.62322
Nuclear contribution   :     -2.38731       3.82978       1.80833
                        -----------------------------------------
Total Dipole Moment    :     -0.53347       0.42494      -0.81489
                        -----------------------------------------
Magnitude (a.u.)       :      1.06264
Magnitude (Debye)      :      2.70102

Rotational constants in cm-1:     0.144922     0.055791     0.049560
Rotational constants in MHz :  4344.653038  1672.561873  1485.775629

                             ****ORCA TERMINATED NORMALLY****
TOTAL RUN TIME: 0 days 0 hours 1 minutes 7 seconds 568 msec
