                         Program Version 5.0.0 -  RELEASE  -
|  1> !wB97X-D3 RIJCOSX def2-TZVPD def2/J TightSCF xyzfile
|  2>
|  3> *xyzfile 0 1 D1.xyz
|  4>
|  5> %MaxCore 64000
|  6>
|  7> %pal nprocs 18
|  8> end
|  9>
| 10> %scf
| 11>   MaxIter 150
| 12> end
| 13>
| 14>
| 15>                          ****END OF INPUT****

CARTESIAN COORDINATES (ANGSTROEM)
---------------------------------
  C      1.963365   -1.749150   -1.896887
  C      2.738490   -2.015170   -3.097113
  C      0.611877    1.657634   -4.500288
  C      1.694991    1.541794   -5.570447
  H      2.697326    1.734659   -5.183996
  H      1.506656    2.272239   -6.358076
  S      1.780287   -0.033128   -6.428739
  C      4.049736   -2.154717   -3.152044
  N      4.658206   -1.986293   -4.318655
  N      4.764231   -2.454435   -2.050491
  H      4.287363   -2.776259   -1.217496
  H      5.750825   -2.658351   -2.125988
  H      2.345176   -1.690274   -3.971447
  H      4.109004   -1.592677   -5.071760
  H      5.649095   -2.156462   -4.427237
  F      2.569287    0.213657   -7.607360
  O      0.416880   -0.462969   -6.618595
  C      2.088520   -0.300912   -1.415204
  H      2.231272   -2.451616   -1.102643
  H      0.930249   -1.977801   -2.155438
  C      0.680356    0.655418   -3.348038
  H     -0.356865    1.549231   -4.991128
  H      0.650228    2.675438   -4.096000
  C      1.968993    0.733582   -2.535654
  H      3.051356   -0.168602   -0.911868
  H      1.316501   -0.136231   -0.657252
  O      2.505129   -0.933263   -5.482570
  H      2.824195    0.624726   -3.208464
  H      2.058919    1.730331   -2.093112
  H      0.542252   -0.344731   -3.766662
  H     -0.174219    0.829692   -2.685182

 Total Charge           Charge          ....    0
 Multiplicity           Mult            ....    1
 Number of Electrons    NEL             ....  120
 Basis Dimension        Dim             ....  689

ORBITAL ENERGIES
----------------

  NO   OCC          E(Eh)            E(eV)
   0   2.0000     -89.206722     -2427.4383
   1   2.0000     -24.918683      -678.0718
   2   2.0000     -19.256048      -523.9837
   3   2.0000     -19.242195      -523.6067
   4   2.0000     -14.404758      -391.9734
   5   2.0000     -14.389580      -391.5604
   6   2.0000     -10.339739      -281.3586
   7   2.0000     -10.299899      -280.2745
   8   2.0000     -10.296209      -280.1741
   9   2.0000     -10.268294      -279.4145
  10   2.0000     -10.256921      -279.1050
  11   2.0000     -10.246699      -278.8268
  12   2.0000     -10.234686      -278.5000
  13   2.0000     -10.159902      -276.4650
  14   2.0000      -8.270781      -225.0594
  15   2.0000      -6.228064      -169.4742
  16   2.0000      -6.221644      -169.2995
  17   2.0000      -6.221505      -169.2958
  18   2.0000      -1.513454       -41.1832
  19   2.0000      -1.232789       -33.5459
  20   2.0000      -1.133561       -30.8458
  21   2.0000      -1.055222       -28.7141
  22   2.0000      -0.964353       -26.2414
  23   2.0000      -0.953895       -25.9568
  24   2.0000      -0.908269       -24.7153
  25   2.0000      -0.869797       -23.6684
  26   2.0000      -0.838544       -22.8179
  27   2.0000      -0.803917       -21.8757
  28   2.0000      -0.764782       -20.8108
  29   2.0000      -0.729549       -19.8520
  30   2.0000      -0.709928       -19.3181
  31   2.0000      -0.696075       -18.9412
  32   2.0000      -0.692860       -18.8537
  33   2.0000      -0.658198       -17.9105
  34   2.0000      -0.653784       -17.7904
  35   2.0000      -0.627193       -17.0668
  36   2.0000      -0.600942       -16.3525
  37   2.0000      -0.595443       -16.2028
  38   2.0000      -0.588300       -16.0085
  39   2.0000      -0.566297       -15.4097
  40   2.0000      -0.564000       -15.3472
  41   2.0000      -0.543196       -14.7811
  42   2.0000      -0.533481       -14.5167
  43   2.0000      -0.524309       -14.2672
  44   2.0000      -0.511737       -13.9251
  45   2.0000      -0.498629       -13.5684
  46   2.0000      -0.480204       -13.0670
  47   2.0000      -0.474350       -12.9077
  48   2.0000      -0.466944       -12.7062
  49   2.0000      -0.457828       -12.4581
  50   2.0000      -0.445840       -12.1319
  51   2.0000      -0.429317       -11.6823
  52   2.0000      -0.423468       -11.5232
  53   2.0000      -0.417555       -11.3622
  54   2.0000      -0.415782       -11.3140
  55   2.0000      -0.404137       -10.9971
  56   2.0000      -0.390365       -10.6224
  57   2.0000      -0.376160       -10.2358
  58   2.0000      -0.338371        -9.2075
  59   2.0000      -0.222953        -6.0669
  60   0.0000       0.039618         1.0781
  61   0.0000       0.058276         1.5858
  62   0.0000       0.060927         1.6579
  63   0.0000       0.072619         1.9761
  64   0.0000       0.085074         2.3150

MULLIKEN ATOMIC CHARGES
-----------------------
   0 C :   -0.478709
   1 C :   -0.382388
   2 C :   -0.713202
   3 C :   -0.700663
   4 H :    0.404687
   5 H :    0.413738
   6 S :    1.008790
   7 C :   -0.469592
   8 N :   -0.331739
   9 N :   -0.374832
  10 H :    0.215732
  11 H :    0.144074
  12 H :    0.777942
  13 H :    0.322346
  14 H :    0.106998
  15 F :   -0.117965
  16 O :   -0.625087
  17 C :   -0.584724
  18 H :    0.480490
  19 H :    0.245911
  20 C :   -0.464372
  21 H :    0.295882
  22 H :    0.319462
  23 C :   -0.429457
  24 H :    0.268560
  25 H :    0.287455
  26 O :   -0.707751
  27 H :    0.234393
  28 H :    0.327532
  29 H :    0.173731
  30 H :    0.352756
Sum of atomic charges:    0.0000000

LOEWDIN ATOMIC CHARGES
----------------------
   0 C :   -0.226592
   1 C :   -0.153257
   2 C :   -0.215012
   3 C :   -0.224066
   4 H :    0.107566
   5 H :    0.102924
   6 S :    0.661572
   7 C :   -0.529412
   8 N :    0.112132
   9 N :    0.121406
  10 H :    0.099194
  11 H :    0.095255
  12 H :    0.019726
  13 H :    0.060423
  14 H :    0.101832
  15 F :   -0.038178
  16 O :   -0.246945
  17 C :   -0.196858
  18 H :    0.098178
  19 H :    0.104747
  20 C :   -0.206245
  21 H :    0.112799
  22 H :    0.122671
  23 C :   -0.210108
  24 H :    0.107493
  25 H :    0.105184
  26 O :   -0.330536
  27 H :    0.102485
  28 H :    0.113883
  29 H :    0.104055
  30 H :    0.123682

  Mayer bond orders larger than 0.100000
B(  0-C ,  1-C ) :   0.5254 B(  0-C ,  7-C ) :   0.2215 B(  0-C , 17-C ) :   0.7899
B(  0-C , 18-H ) :   0.8137 B(  0-C , 19-H ) :   0.9886 B(  0-C , 20-C ) :   0.1882
B(  1-C ,  7-C ) :   1.7134 B(  1-C ,  8-N ) :  -0.1828 B(  1-C , 12-H ) :   0.7162
B(  1-C , 18-H ) :  -0.1495 B(  1-C , 23-C ) :   0.2025 B(  1-C , 26-O ) :   0.1612
B(  2-C ,  3-C ) :   1.0446 B(  2-C ,  6-S ) :   0.1308 B(  2-C , 20-C ) :   0.9889
B(  2-C , 21-H ) :   0.9166 B(  2-C , 22-H ) :   0.9040 B(  2-C , 23-C ) :   0.3274
B(  3-C ,  4-H ) :   0.8188 B(  3-C ,  5-H ) :   0.7842 B(  3-C ,  6-S ) :   0.7525
B(  3-C , 16-O ) :   0.1194 B(  3-C , 23-C ) :   0.1557 B(  6-S , 15-F ) :   0.9202
B(  6-S , 16-O ) :   1.6610 B(  6-S , 26-O ) :   1.8494 B(  7-C ,  8-N ) :   1.1574
B(  7-C ,  9-N ) :   1.0743 B(  7-C , 12-H ) :  -0.2913 B(  7-C , 17-C ) :   0.2300
B(  8-N , 13-H ) :   0.8885 B(  8-N , 14-H ) :   1.1017 B(  9-N , 10-H ) :   0.9348
B(  9-N , 11-H ) :   1.0690 B( 12-H , 26-O ) :  -0.3347 B( 17-C , 20-C ) :   0.3166
B( 17-C , 23-C ) :   1.0415 B( 17-C , 24-H ) :   0.9310 B( 17-C , 25-H ) :   0.8837
B( 20-C , 23-C ) :   0.3251 B( 20-C , 29-H ) :   1.0487 B( 20-C , 30-H ) :   0.8119
B( 23-C , 27-H ) :   1.0667 B( 23-C , 28-H ) :   0.8604

Dispersion correction           -0.016380103
FINAL SINGLE POINT ENERGY     -1073.105647976847

DIPOLE MOMENT
-------------
                                X             Y             Z
Electronic contribution:      0.72294      -0.98254     -23.55618
Nuclear contribution   :      0.18720       2.58739      22.98820
                        -----------------------------------------
Total Dipole Moment    :      0.91014       1.60485      -0.56798
                        -----------------------------------------
Magnitude (a.u.)       :      1.93042
Magnitude (Debye)      :      4.90673

Rotational constants in cm-1:     0.028798     0.014448     0.010940
Rotational constants in MHz :   863.355869   433.126694   327.985023

                             ****ORCA TERMINATED NORMALLY****
TOTAL RUN TIME: 0 days 0 hours 2 minutes 36 seconds 788 msec
