                         Program Version 5.0.0 -  RELEASE  -
|  1> !wB97X-D3 RIJCOSX def2-TZVPD def2/J TightSCF xyzfile
|  2>
|  3> *xyzfile 0 1 D4.xyz
|  4>
|  5> %MaxCore 64000
|  6>
|  7> %pal nprocs 18
|  8> end
|  9>
| 10> %scf
| 11>   MaxIter 150
| 12> end
| 13>
| 14>
| 15>                          ****END OF INPUT****

CARTESIAN COORDINATES (ANGSTROEM)
---------------------------------
  C      1.963365   -1.749150   -1.896887
  C      2.738490   -2.015170   -3.097113
  C      0.611877    1.657634   -4.500288
  C      1.694991    1.541794   -5.570447
  H      2.697326    1.734659   -5.183996
  H      1.506656    2.272239   -6.358076
  S      1.780287   -0.033128   -6.428739
  C      4.049736   -2.154717   -3.152044
  N      4.658206   -1.986293   -4.318655
  N      4.764231   -2.454435   -2.050491
  H      4.287363   -2.776259   -1.217496
  H      5.750825   -2.658351   -2.125988
  H      2.345176   -1.690274   -3.971447
  H      4.109004   -1.592677   -5.071760
  H      5.649095   -2.156462   -4.427237
  O      2.569287    0.213657   -7.607360
  F      0.416880   -0.462969   -6.618595
  C      2.088520   -0.300912   -1.415204
  H      2.231272   -2.451616   -1.102643
  H      0.930249   -1.977801   -2.155438
  C      0.680356    0.655418   -3.348038
  H     -0.356865    1.549231   -4.991128
  H      0.650228    2.675438   -4.096000
  C      1.968993    0.733582   -2.535654
  H      3.051356   -0.168602   -0.911868
  H      1.316501   -0.136231   -0.657252
  O      2.505129   -0.933263   -5.482570
  H      2.824195    0.624726   -3.208464
  H      2.058919    1.730331   -2.093112
  H      0.542252   -0.344731   -3.766662
  H     -0.174219    0.829692   -2.685182

 Total Charge           Charge          ....    0
 Multiplicity           Mult            ....    1
 Number of Electrons    NEL             ....  120
 Basis Dimension        Dim             ....  689

ORBITAL ENERGIES
----------------

  NO   OCC          E(Eh)            E(eV)
   0   2.0000     -89.207130     -2427.4494
   1   2.0000     -24.918340      -678.0625
   2   2.0000     -19.255286      -523.9630
   3   2.0000     -19.240191      -523.5522
   4   2.0000     -14.405294      -391.9880
   5   2.0000     -14.388881      -391.5414
   6   2.0000     -10.339584      -281.3544
   7   2.0000     -10.304646      -280.4037
   8   2.0000     -10.296954      -280.1944
   9   2.0000     -10.276787      -279.6456
  10   2.0000     -10.261355      -279.2257
  11   2.0000     -10.249784      -278.9108
  12   2.0000     -10.237442      -278.5749
  13   2.0000     -10.159725      -276.4602
  14   2.0000      -8.271076      -225.0674
  15   2.0000      -6.228409      -169.4836
  16   2.0000      -6.222117      -169.3124
  17   2.0000      -6.221584      -169.2979
  18   2.0000      -1.511553       -41.1315
  19   2.0000      -1.233603       -33.5680
  20   2.0000      -1.132741       -30.8235
  21   2.0000      -1.055264       -28.7152
  22   2.0000      -0.964475       -26.2447
  23   2.0000      -0.958893       -26.0928
  24   2.0000      -0.910377       -24.7726
  25   2.0000      -0.868692       -23.6383
  26   2.0000      -0.839476       -22.8433
  27   2.0000      -0.808450       -21.9990
  28   2.0000      -0.766415       -20.8552
  29   2.0000      -0.732095       -19.9213
  30   2.0000      -0.709455       -19.3053
  31   2.0000      -0.706869       -19.2349
  32   2.0000      -0.690427       -18.7875
  33   2.0000      -0.661208       -17.9924
  34   2.0000      -0.649700       -17.6792
  35   2.0000      -0.625159       -17.0114
  36   2.0000      -0.599839       -16.3224
  37   2.0000      -0.597961       -16.2713
  38   2.0000      -0.580371       -15.7927
  39   2.0000      -0.573728       -15.6119
  40   2.0000      -0.567265       -15.4361
  41   2.0000      -0.543865       -14.7993
  42   2.0000      -0.537724       -14.6322
  43   2.0000      -0.531456       -14.4617
  44   2.0000      -0.517687       -14.0870
  45   2.0000      -0.493690       -13.4340
  46   2.0000      -0.484054       -13.1718
  47   2.0000      -0.476689       -12.9714
  48   2.0000      -0.469504       -12.7758
  49   2.0000      -0.463349       -12.6084
  50   2.0000      -0.448663       -12.2088
  51   2.0000      -0.435313       -11.8455
  52   2.0000      -0.431244       -11.7347
  53   2.0000      -0.422952       -11.5091
  54   2.0000      -0.412280       -11.2187
  55   2.0000      -0.406307       -11.0562
  56   2.0000      -0.393863       -10.7176
  57   2.0000      -0.372184       -10.1276
  58   2.0000      -0.338204        -9.2030
  59   2.0000      -0.223596        -6.0843
  60   0.0000       0.044554         1.2124
  61   0.0000       0.058117         1.5814
  62   0.0000       0.064113         1.7446
  63   0.0000       0.071058         1.9336
  64   0.0000       0.083070         2.2605

MULLIKEN ATOMIC CHARGES
-----------------------
   0 C :   -0.473618
   1 C :   -0.355830
   2 C :   -0.735987
   3 C :   -0.624471
   4 H :    0.388864
   5 H :    0.362542
   6 S :    1.014333
   7 C :   -0.468471
   8 N :   -0.328958
   9 N :   -0.376363
  10 H :    0.214551
  11 H :    0.145730
  12 H :    0.750171
  13 H :    0.313791
  14 H :    0.110861
  15 O :   -0.623389
  16 F :   -0.156107
  17 C :   -0.584593
  18 H :    0.476657
  19 H :    0.238140
  20 C :   -0.356398
  21 H :    0.303073
  22 H :    0.320895
  23 C :   -0.444577
  24 H :    0.273233
  25 H :    0.287581
  26 O :   -0.695377
  27 H :    0.228483
  28 H :    0.333060
  29 H :    0.123687
  30 H :    0.338486
Sum of atomic charges:    0.0000000

LOEWDIN ATOMIC CHARGES
----------------------
   0 C :   -0.228950
   1 C :   -0.158241
   2 C :   -0.224930
   3 C :   -0.214677
   4 H :    0.117136
   5 H :    0.106078
   6 S :    0.659866
   7 C :   -0.528963
   8 N :    0.117541
   9 N :    0.121840
  10 H :    0.099038
  11 H :    0.095876
  12 H :    0.015126
  13 H :    0.066219
  14 H :    0.103878
  15 O :   -0.259632
  16 F :   -0.027657
  17 C :   -0.196628
  18 H :    0.098083
  19 H :    0.102722
  20 C :   -0.211290
  21 H :    0.108670
  22 H :    0.121573
  23 C :   -0.207971
  24 H :    0.108287
  25 H :    0.105058
  26 O :   -0.330355
  27 H :    0.104070
  28 H :    0.115103
  29 H :    0.100039
  30 H :    0.123090

  Mayer bond orders larger than 0.100000
B(  0-C ,  1-C ) :   0.5126 B(  0-C ,  7-C ) :   0.2207 B(  0-C , 17-C ) :   0.7908
B(  0-C , 18-H ) :   0.8197 B(  0-C , 19-H ) :   0.9889 B(  0-C , 20-C ) :   0.1931
B(  1-C ,  7-C ) :   1.7158 B(  1-C ,  8-N ) :  -0.1836 B(  1-C , 12-H ) :   0.8102
B(  1-C , 18-H ) :  -0.1512 B(  1-C , 23-C ) :   0.1934 B(  1-C , 26-O ) :   0.2158
B(  2-C ,  3-C ) :   0.9623 B(  2-C ,  6-S ) :   0.1260 B(  2-C , 20-C ) :   0.9048
B(  2-C , 21-H ) :   0.9437 B(  2-C , 22-H ) :   0.9083 B(  2-C , 23-C ) :   0.3430
B(  3-C ,  4-H ) :   0.8362 B(  3-C ,  5-H ) :   0.8897 B(  3-C ,  6-S ) :   0.7530
B(  3-C , 15-O ) :   0.1381 B(  3-C , 23-C ) :   0.1554 B(  6-S , 15-O ) :   1.5520
B(  6-S , 16-F ) :   0.9754 B(  6-S , 26-O ) :   1.8808 B(  7-C ,  8-N ) :   1.1516
B(  7-C ,  9-N ) :   1.0786 B(  7-C , 12-H ) :  -0.2997 B(  7-C , 17-C ) :   0.2322
B(  8-N , 13-H ) :   0.8893 B(  8-N , 14-H ) :   1.0990 B(  9-N , 10-H ) :   0.9349
B(  9-N , 11-H ) :   1.0685 B( 12-H , 26-O ) :  -0.4203 B( 17-C , 20-C ) :   0.3161
B( 17-C , 23-C ) :   1.0473 B( 17-C , 24-H ) :   0.9272 B( 17-C , 25-H ) :   0.8820
B( 20-C , 23-C ) :   0.4009 B( 20-C , 29-H ) :   1.0310 B( 20-C , 30-H ) :   0.8368
B( 23-C , 27-H ) :   1.0677 B( 23-C , 28-H ) :   0.8529

Dispersion correction           -0.016327615
FINAL SINGLE POINT ENERGY     -1073.105329191694

DIPOLE MOMENT
-------------
                                X             Y             Z
Electronic contribution:     -3.02947      -2.15152     -21.75608
Nuclear contribution   :      2.64598       3.36033      21.85869
                        -----------------------------------------
Total Dipole Moment    :     -0.38349       1.20882       0.10262
                        -----------------------------------------
Magnitude (a.u.)       :      1.27233
Magnitude (Debye)      :      3.23402

Rotational constants in cm-1:     0.028973     0.014435     0.011026
Rotational constants in MHz :   868.588266   432.748309   330.548534

                             ****ORCA TERMINATED NORMALLY****
TOTAL RUN TIME: 0 days 0 hours 3 minutes 47 seconds 730 msec
