                         Program Version 5.0.0 -  RELEASE  -
|  1> !wB97X-D3 RIJCOSX def2-TZVPD def2/J TightSCF xyzfile
|  2>
|  3> *xyzfile 0 1 D7.xyz
|  4>
|  5> %MaxCore 64000
|  6>
|  7> %pal nprocs 18
|  8> end
|  9>
| 10> %scf
| 11>   MaxIter 150
| 12> end
| 13>
| 14>
| 15>                          ****END OF INPUT****

CARTESIAN COORDINATES (ANGSTROEM)
---------------------------------
  C      1.963365   -1.749150   -1.896887
  C      2.738490   -2.015170   -3.097113
  C      0.611877    1.657634   -4.500288
  C      1.694991    1.541794   -5.570447
  H      2.697326    1.734659   -5.183996
  H      1.506656    2.272239   -6.358076
  S      1.780287   -0.033128   -6.428739
  C      4.049736   -2.154717   -3.152044
  N      4.658206   -1.986293   -4.318655
  N      4.764231   -2.454435   -2.050491
  H      4.287363   -2.776259   -1.217496
  H      5.750825   -2.658351   -2.125988
  H      2.345176   -1.690274   -3.971447
  H      4.109004   -1.592677   -5.071760
  H      5.649095   -2.156462   -4.427237
  O      2.569287    0.213657   -7.607360
  O      0.416880   -0.462969   -6.618595
  C      2.088520   -0.300912   -1.415204
  H      2.231272   -2.451616   -1.102643
  H      0.930249   -1.977801   -2.155438
  C      0.680356    0.655418   -3.348038
  H     -0.356865    1.549231   -4.991128
  H      0.650228    2.675438   -4.096000
  C      1.968993    0.733582   -2.535654
  H      3.051356   -0.168602   -0.911868
  H      1.316501   -0.136231   -0.657252
  F      2.505129   -0.933263   -5.482570
  H      2.824195    0.624726   -3.208464
  H      2.058919    1.730331   -2.093112
  H      0.542252   -0.344731   -3.766662
  H     -0.174219    0.829692   -2.685182

 Total Charge           Charge          ....    0
 Multiplicity           Mult            ....    1
 Number of Electrons    NEL             ....  120
 Basis Dimension        Dim             ....  689

ORBITAL ENERGIES
----------------

  NO   OCC          E(Eh)            E(eV)
   0   2.0000     -89.196515     -2427.1606
   1   2.0000     -24.892886      -677.3699
   2   2.0000     -19.249500      -523.8055
   3   2.0000     -19.249093      -523.7944
   4   2.0000     -14.424572      -392.5126
   5   2.0000     -14.419389      -392.3715
   6   2.0000     -10.334086      -281.2048
   7   2.0000     -10.321381      -280.8590
   8   2.0000     -10.297457      -280.2081
   9   2.0000     -10.278013      -279.6789
  10   2.0000     -10.269620      -279.4506
  11   2.0000     -10.260249      -279.1956
  12   2.0000     -10.252212      -278.9769
  13   2.0000     -10.188517      -277.2436
  14   2.0000      -8.260612      -224.7827
  15   2.0000      -6.218329      -169.2093
  16   2.0000      -6.211589      -169.0259
  17   2.0000      -6.210882      -169.0067
  18   2.0000      -1.475437       -40.1487
  19   2.0000      -1.237706       -33.6797
  20   2.0000      -1.145546       -31.1719
  21   2.0000      -1.079957       -29.3871
  22   2.0000      -0.988857       -26.9082
  23   2.0000      -0.955200       -25.9923
  24   2.0000      -0.918036       -24.9810
  25   2.0000      -0.871320       -23.7098
  26   2.0000      -0.846308       -23.0292
  27   2.0000      -0.808960       -22.0129
  28   2.0000      -0.779200       -21.2031
  29   2.0000      -0.737210       -20.0605
  30   2.0000      -0.697966       -18.9926
  31   2.0000      -0.687390       -18.7048
  32   2.0000      -0.683056       -18.5869
  33   2.0000      -0.672203       -18.2916
  34   2.0000      -0.650826       -17.7099
  35   2.0000      -0.644572       -17.5397
  36   2.0000      -0.610684       -16.6176
  37   2.0000      -0.596188       -16.2231
  38   2.0000      -0.591470       -16.0947
  39   2.0000      -0.571393       -15.5484
  40   2.0000      -0.569077       -15.4854
  41   2.0000      -0.557277       -15.1643
  42   2.0000      -0.546978       -14.8840
  43   2.0000      -0.531305       -14.4575
  44   2.0000      -0.520266       -14.1572
  45   2.0000      -0.497806       -13.5460
  46   2.0000      -0.495936       -13.4951
  47   2.0000      -0.490057       -13.3351
  48   2.0000      -0.483051       -13.1445
  49   2.0000      -0.463460       -12.6114
  50   2.0000      -0.452617       -12.3163
  51   2.0000      -0.439207       -11.9514
  52   2.0000      -0.436468       -11.8769
  53   2.0000      -0.427003       -11.6193
  54   2.0000      -0.422749       -11.5036
  55   2.0000      -0.415786       -11.3141
  56   2.0000      -0.405781       -11.0419
  57   2.0000      -0.400653       -10.9023
  58   2.0000      -0.361939        -9.8489
  59   2.0000      -0.247724        -6.7409
  60   0.0000       0.053090         1.4447
  61   0.0000       0.059682         1.6240
  62   0.0000       0.066976         1.8225
  63   0.0000       0.069476         1.8905
  64   0.0000       0.083246         2.2652

MULLIKEN ATOMIC CHARGES
-----------------------
   0 C :   -0.464254
   1 C :   -0.365723
   2 C :   -0.654348
   3 C :   -0.647912
   4 H :    0.394473
   5 H :    0.379808
   6 S :    1.004340
   7 C :   -0.388822
   8 N :   -0.356918
   9 N :   -0.383654
  10 H :    0.219138
  11 H :    0.148901
  12 H :    0.700000
  13 H :    0.291259
  14 H :    0.110007
  15 O :   -0.618178
  16 O :   -0.614897
  17 C :   -0.607733
  18 H :    0.486598
  19 H :    0.250491
  20 C :   -0.486508
  21 H :    0.296118
  22 H :    0.331528
  23 C :   -0.361939
  24 H :    0.276797
  25 H :    0.291255
  26 F :   -0.256135
  27 H :    0.201034
  28 H :    0.332400
  29 H :    0.159346
  30 H :    0.333528
Sum of atomic charges:   -0.0000000

LOEWDIN ATOMIC CHARGES
----------------------
   0 C :   -0.224265
   1 C :   -0.151961
   2 C :   -0.222576
   3 C :   -0.220235
   4 H :    0.106008
   5 H :    0.113569
   6 S :    0.625673
   7 C :   -0.524732
   8 N :    0.120218
   9 N :    0.129033
  10 H :    0.102913
  11 H :    0.099837
  12 H :    0.035293
  13 H :    0.081683
  14 H :    0.109879
  15 O :   -0.266664
  16 O :   -0.251551
  17 C :   -0.195482
  18 H :    0.100978
  19 H :    0.106675
  20 C :   -0.209444
  21 H :    0.112934
  22 H :    0.120879
  23 C :   -0.211095
  24 H :    0.108513
  25 H :    0.107582
  26 F :   -0.145296
  27 H :    0.099984
  28 H :    0.116593
  29 H :    0.100471
  30 H :    0.124587

  Mayer bond orders larger than 0.100000
B(  0-C ,  1-C ) :   0.4997 B(  0-C ,  7-C ) :   0.2040 B(  0-C , 17-C ) :   0.8057
B(  0-C , 18-H ) :   0.8022 B(  0-C , 19-H ) :   0.9987 B(  0-C , 20-C ) :   0.1623
B(  1-C ,  7-C ) :   1.7112 B(  1-C ,  8-N ) :  -0.1400 B(  1-C , 12-H ) :   0.7009
B(  1-C , 18-H ) :  -0.1553 B(  1-C , 23-C ) :   0.1893 B(  1-C , 26-F ) :   0.1546
B(  2-C ,  3-C ) :   0.9852 B(  2-C ,  6-S ) :   0.1438 B(  2-C , 20-C ) :   1.0150
B(  2-C , 21-H ) :   0.9344 B(  2-C , 22-H ) :   0.9059 B(  2-C , 23-C ) :   0.2822
B(  3-C ,  4-H ) :   0.8239 B(  3-C ,  5-H ) :   0.8356 B(  3-C ,  6-S ) :   0.7888
B(  3-C , 15-O ) :   0.1294 B(  3-C , 23-C ) :   0.1601 B(  3-C , 26-F ) :   0.1033
B(  6-S , 15-O ) :   1.5029 B(  6-S , 16-O ) :   1.5960 B(  6-S , 26-F ) :   1.2159
B(  7-C ,  8-N ) :   1.0690 B(  7-C ,  9-N ) :   1.0672 B(  7-C , 12-H ) :  -0.2602
B(  7-C , 17-C ) :   0.2172 B(  8-N , 13-H ) :   0.9215 B(  8-N , 14-H ) :   1.1099
B(  9-N , 10-H ) :   0.9321 B(  9-N , 11-H ) :   1.0722 B( 12-H , 26-F ) :  -0.2466
B( 17-C , 20-C ) :   0.3270 B( 17-C , 23-C ) :   1.0652 B( 17-C , 24-H ) :   0.9254
B( 17-C , 25-H ) :   0.8843 B( 20-C , 23-C ) :   0.2437 B( 20-C , 27-H ) :  -0.1043
B( 20-C , 29-H ) :   1.0848 B( 20-C , 30-H ) :   0.8154 B( 23-C , 27-H ) :   1.1078
B( 23-C , 28-H ) :   0.8515 B( 23-C , 29-H ) :  -0.1433

Dispersion correction           -0.016306792
FINAL SINGLE POINT ENERGY     -1073.122923996441

DIPOLE MOMENT
-------------
                                X             Y             Z
Electronic contribution:      0.77703      -3.12425     -19.40046
Nuclear contribution   :      0.26049       3.89757      20.56096
                        -----------------------------------------
Total Dipole Moment    :      1.03752       0.77332       1.16050
                        -----------------------------------------
Magnitude (a.u.)       :      1.73817
Magnitude (Debye)      :      4.41808

Rotational constants in cm-1:     0.029090     0.014735     0.011139
Rotational constants in MHz :   872.086433   441.731892   333.928051

                             ****ORCA TERMINATED NORMALLY****
TOTAL RUN TIME: 0 days 0 hours 2 minutes 57 seconds 575 msec
