                         Program Version 5.0.0 -  RELEASE  -
|  1> !wB97X-D3 RIJCOSX def2-TZVPD def2/J TightSCF
|  2> *xyz -1 1
|  3> C          0.69721        3.22791       -0.52513
|  4> O          1.48929        2.37470        0.19919
|  5> H          0.26505        2.70007       -1.34946
|  6> H          1.28994        4.03943       -0.89255
|  7> H         -0.08148        3.61005        0.10138
|  8> *
|  9>
| 10> %MaxCore 64000
| 11> %pal nprocs 8
| 12> end
| 13>
| 14> %scf
| 15>   MaxIter 150
| 16> end
| 17>
| 18>
| 19>                          ****END OF INPUT****

CARTESIAN COORDINATES (ANGSTROEM)
---------------------------------
  C      0.697210    3.227910   -0.525130
  O      1.489290    2.374700    0.199190
  H      0.265050    2.700070   -1.349460
  H      1.289940    4.039430   -0.892550
  H     -0.081480    3.610050    0.101380

 Total Charge           Charge          ....   -1
 Multiplicity           Mult            ....    1
 Number of Electrons    NEL             ....   18
 Basis Dimension        Dim             ....  104

ORBITAL ENERGIES
----------------

  NO   OCC          E(Eh)            E(eV)
   0   2.0000     -18.874119      -513.5909
   1   2.0000     -10.055909      -273.6352
   2   2.0000      -0.772571       -21.0227
   3   2.0000      -0.508887       -13.8475
   4   2.0000      -0.295158        -8.0317
   5   2.0000      -0.295137        -8.0311
   6   2.0000      -0.194598        -5.2953
   7   2.0000      -0.041672        -1.1339
   8   2.0000      -0.041671        -1.1339
   9   0.0000       0.226182         6.1547
  10   0.0000       0.274822         7.4783
  11   0.0000       0.280203         7.6247
  12   0.0000       0.280205         7.6248
  13   0.0000       0.329845         8.9755

MULLIKEN ATOMIC CHARGES
-----------------------
   0 C :   -0.549248
   1 O :   -0.944526
   2 H :    0.164475
   3 H :    0.164669
   4 H :    0.164628
Sum of atomic charges:   -1.0000000

LOEWDIN ATOMIC CHARGES
----------------------
   0 C :   -0.511200
   1 O :   -0.517857
   2 H :    0.009686
   3 H :    0.009687
   4 H :    0.009684

  Mayer bond orders larger than 0.100000
B(  0-C ,  1-O ) :   1.0534 B(  0-C ,  2-H ) :   0.9588 B(  0-C ,  3-H ) :   0.9588
B(  0-C ,  4-H ) :   0.9588

Dispersion correction           -0.000090821
FINAL SINGLE POINT ENERGY      -115.107443415567

DIPOLE MOMENT
-------------
                                X             Y             Z
Electronic contribution:      1.06989      -1.15242       0.97829
Nuclear contribution   :     -1.66672       1.79535      -1.52413
                        -----------------------------------------
Total Dipole Moment    :     -0.59682       0.64292      -0.54584
                        -----------------------------------------
Magnitude (a.u.)       :      1.03319
Magnitude (Debye)      :      2.62617

Rotational constants in cm-1:     5.477728     0.937442     0.937441
Rotational constants in MHz : 164218.159175 28103.818547 28103.787504

                             ****ORCA TERMINATED NORMALLY****
TOTAL RUN TIME: 0 days 0 hours 0 minutes 5 seconds 411 msec
