                         Program Version 5.0.0 -  RELEASE  -
|  1> !wB97X-D3 RIJCOSX def2-TZVPD def2/J TightSCF
|  2> *xyz 1 1
|  3> C          3.95643        0.50147       -0.37910
|  4> N          3.80389        1.96157       -0.15675
|  5> H          4.20643        2.24441        0.74536
|  6> H          2.80827        2.21132       -0.09610
|  7> H          4.28076        2.50155       -0.89104
|  8> H          3.52890        0.23799       -1.32393
|  9> H          3.45469       -0.03240        0.40073
| 10> H          4.99562        0.24661       -0.37434
| 11> *
| 12>
| 13> %MaxCore 64000
| 14> %pal nprocs 8
| 15> end
| 16>
| 17> %scf
| 18>   MaxIter 150
| 19> end
| 20>
| 21>
| 22>                          ****END OF INPUT****

CARTESIAN COORDINATES (ANGSTROEM)
---------------------------------
  C      3.956430    0.501470   -0.379100
  N      3.803890    1.961570   -0.156750
  H      4.206430    2.244410    0.745360
  H      2.808270    2.211320   -0.096100
  H      4.280760    2.501550   -0.891040
  H      3.528900    0.237990   -1.323930
  H      3.454690   -0.032400    0.400730
  H      4.995620    0.246610   -0.374340

 Total Charge           Charge          ....    1
 Multiplicity           Mult            ....    1
 Number of Electrons    NEL             ....   18
 Basis Dimension        Dim             ....  128

ORBITAL ENERGIES
----------------

  NO   OCC          E(Eh)            E(eV)
   0   2.0000     -14.771611      -401.9560
   1   2.0000     -10.530131      -286.5394
   2   2.0000      -1.343611       -36.5615
   3   2.0000      -1.052365       -28.6363
   4   2.0000      -0.916933       -24.9510
   5   2.0000      -0.905508       -24.6401
   6   2.0000      -0.812951       -22.1215
   7   2.0000      -0.724543       -19.7158
   8   2.0000      -0.722795       -19.6683
   9   0.0000      -0.131342        -3.5740
  10   0.0000      -0.069570        -1.8931
  11   0.0000      -0.062041        -1.6882
  12   0.0000      -0.062013        -1.6874
  13   0.0000      -0.020577        -0.5599

MULLIKEN ATOMIC CHARGES
-----------------------
   0 C :   -0.831201
   1 N :   -0.350324
   2 H :    0.376135
   3 H :    0.377368
   4 H :    0.375047
   5 H :    0.350606
   6 H :    0.351783
   7 H :    0.350585
Sum of atomic charges:    1.0000000

LOEWDIN ATOMIC CHARGES
----------------------
   0 C :   -0.010688
   1 N :    0.149021
   2 H :    0.180596
   3 H :    0.182157
   4 H :    0.183649
   5 H :    0.105111
   6 H :    0.105227
   7 H :    0.104929

  Mayer bond orders larger than 0.100000
B(  0-C ,  1-N ) :   0.9400 B(  0-C ,  5-H ) :   0.8891 B(  0-C ,  6-H ) :   0.8850
B(  0-C ,  7-H ) :   0.8879 B(  1-N ,  2-H ) :   0.8542 B(  1-N ,  3-H ) :   0.8512
B(  1-N ,  4-H ) :   0.8528

Dispersion correction           -0.000504075
FINAL SINGLE POINT ENERGY       -96.226811238893

DIPOLE MOMENT
-------------
                                X             Y             Z
Electronic contribution:     -0.11045       1.07677       0.14111
Nuclear contribution   :      0.02154      -0.23654       0.01355
                        -----------------------------------------
Total Dipole Moment    :     -0.08890       0.84024       0.15466
                        -----------------------------------------
Magnitude (a.u.)       :      0.85896
Magnitude (Debye)      :      2.18331

Rotational constants in cm-1:     2.873586     0.687737     0.684128
Rotational constants in MHz : 86147.950763 20617.847271 20509.632222

                             ****ORCA TERMINATED NORMALLY****
TOTAL RUN TIME: 0 days 0 hours 0 minutes 6 seconds 733 msec
