                         Program Version 5.0.0 -  RELEASE  -
|  1> !wB97X-D3 RIJCOSX def2-TZVPD def2/J TightSCF
|  2> *xyz 0 1
|  3> C          0.69721        3.22791       -0.52513
|  4> F          1.48929        2.37470        0.19919
|  5> H          0.26505        2.70007       -1.34946
|  6> H          1.28994        4.03943       -0.89255
|  7> H         -0.08148        3.61005        0.10138
|  8> *
|  9>
| 10> %MaxCore 64000
| 11> %pal nprocs 8
| 12> end
| 13>
| 14> %scf
| 15>   MaxIter 150
| 16> end
| 17>
| 18>
| 19>                          ****END OF INPUT****

CARTESIAN COORDINATES (ANGSTROEM)
---------------------------------
  C      0.697210    3.227910   -0.525130
  F      1.489290    2.374700    0.199190
  H      0.265050    2.700070   -1.349460
  H      1.289940    4.039430   -0.892550
  H     -0.081480    3.610050    0.101380

 Total Charge           Charge          ....    0
 Multiplicity           Mult            ....    1
 Number of Electrons    NEL             ....   18
 Basis Dimension        Dim             ....  104

ORBITAL ENERGIES
----------------

  NO   OCC          E(Eh)            E(eV)
   0   2.0000     -24.767938      -673.9699
   1   2.0000     -10.339777      -281.3596
   2   2.0000      -1.311399       -35.6850
   3   2.0000      -0.821300       -22.3487
   4   2.0000      -0.595371       -16.2009
   5   2.0000      -0.592067       -16.1110
   6   2.0000      -0.592053       -16.1106
   7   2.0000      -0.448089       -12.1931
   8   2.0000      -0.448076       -12.1928
   9   0.0000       0.074125         2.0171
  10   0.0000       0.116235         3.1629
  11   0.0000       0.134496         3.6598
  12   0.0000       0.134499         3.6599
  13   0.0000       0.161191         4.3862

MULLIKEN ATOMIC CHARGES
-----------------------
   0 C :   -0.334473
   1 F :   -0.288145
   2 H :    0.207373
   3 H :    0.207623
   4 H :    0.207622
Sum of atomic charges:   -0.0000000

LOEWDIN ATOMIC CHARGES
----------------------
   0 C :   -0.114112
   1 F :   -0.100421
   2 H :    0.071505
   3 H :    0.071516
   4 H :    0.071512

  Mayer bond orders larger than 0.100000
B(  0-C ,  1-F ) :   0.8306 B(  0-C ,  2-H ) :   0.9498 B(  0-C ,  3-H ) :   0.9496
B(  0-C ,  4-H ) :   0.9497

Dispersion correction           -0.000130378
FINAL SINGLE POINT ENERGY      -139.766287055574

DIPOLE MOMENT
-------------
                                X             Y             Z
Electronic contribution:      1.70306      -1.83448       1.55725
Nuclear contribution   :     -2.11402       2.27717      -1.93317
                        -----------------------------------------
Total Dipole Moment    :     -0.41096       0.44269      -0.37592
                        -----------------------------------------
Magnitude (a.u.)       :      0.71146
Magnitude (Debye)      :      1.80839

Rotational constants in cm-1:     5.477728     0.872600     0.872599
Rotational constants in MHz : 164218.159175 26159.886777 26159.859881

                             ****ORCA TERMINATED NORMALLY****
TOTAL RUN TIME: 0 days 0 hours 0 minutes 4 seconds 587 msec
