                         Program Version 5.0.0 -  RELEASE  -
|  1> !wB97X-D3 RIJCOSX def2-TZVPD def2/J TightSCF
|  2> *xyz 0 1
|  3> C          3.95643        0.50147       -0.37910
|  4> C          3.80389        1.96157       -0.15675
|  5> H          4.20643        2.24441        0.74536
|  6> H          2.80827        2.21132       -0.09610
|  7> H          4.28076        2.50155       -0.89104
|  8> H          3.52890        0.23799       -1.32393
|  9> H          3.45469       -0.03240        0.40073
| 10> H          4.99562        0.24661       -0.37434
| 11> *
| 12>
| 13> %MaxCore 64000
| 14> %pal nprocs 8
| 15> end
| 16>
| 17> %scf
| 18>   MaxIter 150
| 19> end
| 20>
| 21>
| 22>                          ****END OF INPUT****

CARTESIAN COORDINATES (ANGSTROEM)
---------------------------------
  C      3.956430    0.501470   -0.379100
  C      3.803890    1.961570   -0.156750
  H      4.206430    2.244410    0.745360
  H      2.808270    2.211320   -0.096100
  H      4.280760    2.501550   -0.891040
  H      3.528900    0.237990   -1.323930
  H      3.454690   -0.032400    0.400730
  H      4.995620    0.246610   -0.374340

 Total Charge           Charge          ....    0
 Multiplicity           Mult            ....    1
 Number of Electrons    NEL             ....   18
 Basis Dimension        Dim             ....  128

ORBITAL ENERGIES
----------------

  NO   OCC          E(Eh)            E(eV)
   0   2.0000     -10.247998      -278.8622
   1   2.0000     -10.233366      -278.4640
   2   2.0000      -0.885599       -24.0984
   3   2.0000      -0.732720       -19.9383
   4   2.0000      -0.552511       -15.0346
   5   2.0000      -0.545782       -14.8515
   6   2.0000      -0.463443       -12.6109
   7   2.0000      -0.442986       -12.0543
   8   2.0000      -0.436469       -11.8769
   9   0.0000       0.078516         2.1365
  10   0.0000       0.099332         2.7029
  11   0.0000       0.142977         3.8906
  12   0.0000       0.144755         3.9390
  13   0.0000       0.169591         4.6148

MULLIKEN ATOMIC CHARGES
-----------------------
   0 C :   -0.799305
   1 C :   -0.998191
   2 H :    0.329164
   3 H :    0.321805
   4 H :    0.323693
   5 H :    0.270221
   6 H :    0.278521
   7 H :    0.274093
Sum of atomic charges:    0.0000000

LOEWDIN ATOMIC CHARGES
----------------------
   0 C :   -0.164138
   1 C :   -0.169903
   2 H :    0.047213
   3 H :    0.048666
   4 H :    0.049775
   5 H :    0.062645
   6 H :    0.063125
   7 H :    0.062617

  Mayer bond orders larger than 0.100000
B(  0-C ,  1-C ) :   0.5802 B(  0-C ,  5-H ) :   0.9728 B(  0-C ,  6-H ) :   0.9688
B(  0-C ,  7-H ) :   0.9694 B(  1-C ,  2-H ) :   0.9517 B(  1-C ,  3-H ) :   0.9446
B(  1-C ,  4-H ) :   0.9352

Dispersion correction           -0.000493281
FINAL SINGLE POINT ENERGY       -79.823516596937

DIPOLE MOMENT
-------------
                                X             Y             Z
Electronic contribution:      0.00220       0.01061      -0.03661
Nuclear contribution   :     -0.00471       0.01526       0.05114
                        -----------------------------------------
Total Dipole Moment    :     -0.00251       0.02587       0.01453
                        -----------------------------------------
Magnitude (a.u.)       :      0.02978
Magnitude (Debye)      :      0.07569

Rotational constants in cm-1:     2.873610     0.717865     0.713933
Rotational constants in MHz : 86148.646881 21521.066032 21403.176468

                             ****ORCA TERMINATED NORMALLY****
TOTAL RUN TIME: 0 days 0 hours 0 minutes 6 seconds 278 msec
