                         Program Version 5.0.0 -  RELEASE  -
|  1> !PBE0 D3BJ RIJCOSX def2-TZVP def2/J TightSCF
|  2> *xyz -1 1
|  3> C          4.93020       -7.37532       -2.64962
|  4> C          3.84189       -6.95161       -3.63283
|  5> H          3.45814       -5.95442       -3.40712
|  6> H          2.98848       -7.64361       -3.56708
|  7> S          4.31812       -6.91593       -5.36869
|  8> O          5.40615       -5.89948       -5.51297
|  9> O          3.11191       -6.44508       -6.04379
| 10> O          4.76340       -8.23942       -5.69863
| 11> H          5.27901       -8.35440       -2.90385
| 12> H          4.53000       -7.38577       -1.65734
| 13> H          5.74437       -6.68276       -2.69856
| 14> *
| 15>
| 16> %MaxCore 64000
| 17>
| 18> %pal nprocs 4
| 19> end
| 20>
| 21> %scf
| 22>   MaxIter 150
| 23> end
| 24>
| 25>
| 26>                          ****END OF INPUT****

CARTESIAN COORDINATES (ANGSTROEM)
---------------------------------
  C      4.930200   -7.375320   -2.649620
  C      3.841890   -6.951610   -3.632830
  H      3.458140   -5.954420   -3.407120
  H      2.988480   -7.643610   -3.567080
  S      4.318120   -6.915930   -5.368690
  O      5.406150   -5.899480   -5.512970
  O      3.111910   -6.445080   -6.043790
  O      4.763400   -8.239420   -5.698630
  H      5.279010   -8.354400   -2.903850
  H      4.530000   -7.385770   -1.657340
  H      5.744370   -6.682760   -2.698560

 Total Charge           Charge          ....   -1
 Multiplicity           Mult            ....    1
 Number of Electrons    NEL             ....   58
 Basis Dimension        Dim             ....  222

ORBITAL ENERGIES
----------------

  NO   OCC          E(Eh)            E(eV)
   0   2.0000     -88.994513     -2421.6638
   1   2.0000     -18.981410      -516.5104
   2   2.0000     -18.971977      -516.2537
   3   2.0000     -18.964077      -516.0388
   4   2.0000     -10.082128      -274.3486
   5   2.0000     -10.073975      -274.1268
   6   2.0000      -7.939763      -216.0519
   7   2.0000      -5.877105      -159.9241
   8   2.0000      -5.875891      -159.8911
   9   2.0000      -5.875590      -159.8829
  10   2.0000      -0.941673       -25.6242
  11   2.0000      -0.813943       -22.1485
  12   2.0000      -0.784137       -21.3375
  13   2.0000      -0.653183       -17.7740
  14   2.0000      -0.523466       -14.2442
  15   2.0000      -0.395461       -10.7610
  16   2.0000      -0.329049        -8.9539
  17   2.0000      -0.323646        -8.8069
  18   2.0000      -0.284887        -7.7522
  19   2.0000      -0.270309        -7.3555
  20   2.0000      -0.263234        -7.1630
  21   2.0000      -0.239466        -6.5162
  22   2.0000      -0.221929        -6.0390
  23   2.0000      -0.157269        -4.2795
  24   2.0000      -0.156033        -4.2459
  25   2.0000      -0.123014        -3.3474
  26   2.0000      -0.113372        -3.0850
  27   2.0000      -0.104708        -2.8492
  28   2.0000      -0.068066        -1.8522
  29   0.0000       0.180900         4.9225
  30   0.0000       0.225093         6.1251
  31   0.0000       0.240627         6.5478
  32   0.0000       0.244920         6.6646
  33   0.0000       0.270913         7.3719

MULLIKEN ATOMIC CHARGES
-----------------------
   0 C :   -0.344333
   1 C :   -0.240192
   2 H :    0.089409
   3 H :    0.079651
   4 S :    0.803057
   5 O :   -0.596564
   6 O :   -0.558936
   7 O :   -0.535145
   8 H :    0.115107
   9 H :    0.073808
  10 H :    0.114139
Sum of atomic charges:   -1.0000000

LOEWDIN ATOMIC CHARGES
----------------------
   0 C :   -0.347098
   1 C :   -0.435675
   2 H :    0.120787
   3 H :    0.121207
   4 S :    0.410269
   5 O :   -0.440730
   6 O :   -0.396026
   7 O :   -0.364032
   8 H :    0.115082
   9 H :    0.101074
  10 H :    0.115140

  Mayer bond orders larger than 0.100000
B(  0-C ,  1-C ) :   0.9808 B(  0-C ,  8-H ) :   0.9708 B(  0-C ,  9-H ) :   0.9632
B(  0-C , 10-H ) :   0.9698 B(  1-C ,  2-H ) :   0.9575 B(  1-C ,  3-H ) :   0.9530
B(  1-C ,  4-S ) :   0.8685 B(  4-S ,  5-O ) :   1.7360 B(  4-S ,  6-O ) :   1.8096
B(  4-S ,  7-O ) :   1.8023

Dispersion correction           -0.008216202
FINAL SINGLE POINT ENERGY      -702.840928887565

DIPOLE MOMENT
-------------
                                X             Y             Z
Electronic contribution:     -0.35846       0.81592      -7.87694
Nuclear contribution   :      0.07504      -1.14369       9.75001
                        -----------------------------------------
Total Dipole Moment    :     -0.28342      -0.32777       1.87307
                        -----------------------------------------
Magnitude (a.u.)       :      1.92253
Magnitude (Debye)      :      4.88669

Rotational constants in cm-1:     0.160553     0.082191     0.080550
Rotational constants in MHz :  4813.250478  2464.013016  2414.833054

                             ****ORCA TERMINATED NORMALLY****
TOTAL RUN TIME: 0 days 0 hours 0 minutes 25 seconds 423 msec
