                         Program Version 5.0.0 -  RELEASE  -
|  1> !PBE0 D3BJ RIJCOSX def2-TZVP def2/J TightSCF
|  2> *xyz 1 1
|  3> C          5.55821       -1.99291       -6.21505
|  4> C          4.18188       -2.58967       -6.29891
|  5> N          3.14587       -1.76843       -6.48675
|  6> N          4.01910       -3.86431       -6.22743
|  7> H          4.76849       -4.59115       -5.99077
|  8> H          3.12241       -4.33339       -6.31462
|  9> H          3.28164       -0.77779       -6.56655
| 10> H          2.21255       -2.13419       -6.56225
| 11> C          6.41926       -2.54294       -5.07763
| 12> H          6.03683       -2.19819       -7.17685
| 13> H          5.46761       -0.90737       -6.12797
| 14> H          6.50056       -3.60553       -5.17358
| 15> H          5.96544       -2.30329       -4.13874
| 16> H          7.39438       -2.10494       -5.12457
| 17> *
| 18>
| 19> %MaxCore 64000
| 20>
| 21> %pal nprocs 4
| 22> end
| 23>
| 24> %scf
| 25>   MaxIter 150
| 26> end
| 27>
| 28>
| 29>                          ****END OF INPUT****

CARTESIAN COORDINATES (ANGSTROEM)
---------------------------------
  C      5.558210   -1.992910   -6.215050
  C      4.181880   -2.589670   -6.298910
  N      3.145870   -1.768430   -6.486750
  N      4.019100   -3.864310   -6.227430
  H      4.768490   -4.591150   -5.990770
  H      3.122410   -4.333390   -6.314620
  H      3.281640   -0.777790   -6.566550
  H      2.212550   -2.134190   -6.562250
  C      6.419260   -2.542940   -5.077630
  H      6.036830   -2.198190   -7.176850
  H      5.467610   -0.907370   -6.127970
  H      6.500560   -3.605530   -5.173580
  H      5.965440   -2.303290   -4.138740
  H      7.394380   -2.104940   -5.124570

 Total Charge           Charge          ....    1
 Multiplicity           Mult            ....    1
 Number of Electrons    NEL             ....   40
 Basis Dimension        Dim             ....  209

ORBITAL ENERGIES
----------------

  NO   OCC          E(Eh)            E(eV)
   0   2.0000     -14.634479      -398.2244
   1   2.0000     -14.623223      -397.9181
   2   2.0000     -10.544431      -286.9286
   3   2.0000     -10.419703      -283.5345
   4   2.0000     -10.374155      -282.2951
   5   2.0000      -1.230710       -33.4893
   6   2.0000      -1.131507       -30.7899
   7   2.0000      -0.991797       -26.9882
   8   2.0000      -0.886883       -24.1333
   9   2.0000      -0.833650       -22.6848
  10   2.0000      -0.789712       -21.4891
  11   2.0000      -0.762558       -20.7503
  12   2.0000      -0.711662       -19.3653
  13   2.0000      -0.667472       -18.1628
  14   2.0000      -0.636673       -17.3248
  15   2.0000      -0.616245       -16.7689
  16   2.0000      -0.561976       -15.2921
  17   2.0000      -0.551694       -15.0124
  18   2.0000      -0.535824       -14.5805
  19   2.0000      -0.504130       -13.7181
  20   0.0000      -0.199664        -5.4331
  21   0.0000      -0.149641        -4.0719
  22   0.0000      -0.113356        -3.0846
  23   0.0000      -0.101705        -2.7675
  24   0.0000      -0.079511        -2.1636

MULLIKEN ATOMIC CHARGES
-----------------------
   0 C :   -0.210608
   1 C :    0.325644
   2 N :   -0.355278
   3 N :   -0.369041
   4 H :    0.324638
   5 H :    0.292485
   6 H :    0.300925
   7 H :    0.281497
   8 C :   -0.360746
   9 H :    0.182350
  10 H :    0.142862
  11 H :    0.109861
  12 H :    0.157375
  13 H :    0.178036
Sum of atomic charges:    1.0000000

LOEWDIN ATOMIC CHARGES
----------------------
   0 C :   -0.220856
   1 C :   -0.297722
   2 N :    0.105770
   3 N :    0.115860
   4 H :    0.236837
   5 H :    0.201736
   6 H :    0.201104
   7 H :    0.193195
   8 C :   -0.267260
   9 H :    0.176263
  10 H :    0.160895
  11 H :    0.119504
  12 H :    0.133388
  13 H :    0.141288

  Mayer bond orders larger than 0.100000
B(  0-C ,  1-C ) :   0.9993 B(  0-C ,  8-C ) :   1.0084 B(  0-C ,  9-H ) :   0.9141
B(  0-C , 10-H ) :   0.9549 B(  1-C ,  2-N ) :   1.4581 B(  1-C ,  3-N ) :   1.4912
B(  2-N ,  6-H ) :   0.8828 B(  2-N ,  7-H ) :   0.8880 B(  3-N ,  4-H ) :   0.8634
B(  3-N ,  5-H ) :   0.8800 B(  8-C , 11-H ) :   0.9658 B(  8-C , 12-H ) :   0.9611
B(  8-C , 13-H ) :   0.9575

Dispersion correction           -0.008442500
FINAL SINGLE POINT ENERGY      -228.849010334220

DIPOLE MOMENT
-------------
                                X             Y             Z
Electronic contribution:     -3.78179      -0.47526      -1.56754
Nuclear contribution   :      2.76041       0.12669       1.26265
                        -----------------------------------------
Total Dipole Moment    :     -1.02138      -0.34857      -0.30489
                        -----------------------------------------
Magnitude (a.u.)       :      1.12146
Magnitude (Debye)      :      2.85052

Rotational constants in cm-1:     0.280918     0.124524     0.094121
Rotational constants in MHz :  8421.697738  3733.133254  2821.684112

                             ****ORCA TERMINATED NORMALLY****
TOTAL RUN TIME: 0 days 0 hours 0 minutes 22 seconds 480 msec
