                         Program Version 5.0.0 -  RELEASE  -
|  1> !PBE0 D3BJ RIJCOSX def2-TZVP def2/J TightSCF xyzfile
|  2>
|  3> *xyzfile 0 1 B.xyz
|  4>
|  5> %MaxCore 64000
|  6>
|  7> %pal nprocs 18
|  8> end
|  9>
| 10> %scf
| 11>   MaxIter 150
| 12> end
| 13>
| 14>
| 15>                          ****END OF INPUT****

CARTESIAN COORDINATES (ANGSTROEM)
---------------------------------
  C      5.558206   -1.992914   -6.215054
  C      4.930199   -7.375319   -2.649623
  C      3.841892   -6.951611   -3.632829
  H      3.458144   -5.954425   -3.407121
  H      2.988484   -7.643606   -3.567078
  S      4.318115   -6.915930   -5.368692
  C      4.181880   -2.589671   -6.298911
  N      3.145873   -1.768431   -6.486753
  N      4.019102   -3.864307   -6.227427
  H      4.768490   -4.591153   -5.990773
  H      3.122405   -4.333392   -6.314620
  H      3.281635   -0.777786   -6.566549
  H      2.212549   -2.134193   -6.562246
  O      5.406154   -5.899480   -5.512972
  O      3.111910   -6.445079   -6.043792
  C      6.419260   -2.542944   -5.077630
  C      5.872267   -5.002756   -2.427819
  C      6.173994   -6.485522   -2.606315
  H      6.734852   -6.613767   -3.534015
  H      6.821463   -6.831018   -1.793617
  H      4.469612   -7.406168   -1.655876
  H      5.230134   -8.398678   -2.885906
  C      5.896512   -2.169314   -3.694552
  H      7.428880   -2.143665   -5.208078
  H      6.505894   -3.627541   -5.175502
  C      6.807804   -2.623428   -2.551019
  H      4.894708   -2.589732   -3.557501
  H      5.778823   -1.081255   -3.635790
  C      7.111544   -4.122463   -2.520363
  H      7.751615   -2.071393   -2.614406
  H      6.345837   -2.326401   -1.604086
  H      5.362882   -4.828697   -1.471335
  H      5.174429   -4.702577   -3.211298
  H      7.778329   -4.329347   -1.677651
  H      7.673189   -4.402845   -3.417586
  O      4.763396   -8.239424   -5.698629
  H      6.036826   -2.198189   -7.176852
  H      5.467610   -0.907371   -6.127968

 Total Charge           Charge          ....    0
 Multiplicity           Mult            ....    1
 Number of Electrons    NEL             ....  136
 Basis Dimension        Dim             ....  634

ORBITAL ENERGIES
----------------

  NO   OCC          E(Eh)            E(eV)
   0   2.0000     -89.153711     -2425.9958
   1   2.0000     -19.148250      -521.0504
   2   2.0000     -19.135192      -520.6950
   3   2.0000     -19.128973      -520.5258
   4   2.0000     -14.472948      -393.8290
   5   2.0000     -14.434600      -392.7854
   6   2.0000     -10.378921      -282.4248
   7   2.0000     -10.279350      -279.7153
   8   2.0000     -10.246316      -278.8164
   9   2.0000     -10.234291      -278.4892
  10   2.0000     -10.222771      -278.1757
  11   2.0000     -10.213932      -277.9352
  12   2.0000     -10.210228      -277.8344
  13   2.0000     -10.202484      -277.6237
  14   2.0000     -10.201461      -277.5959
  15   2.0000     -10.194114      -277.3960
  16   2.0000      -8.099685      -220.4036
  17   2.0000      -6.036869      -164.2716
  18   2.0000      -6.036133      -164.2515
  19   2.0000      -6.035120      -164.2240
  20   2.0000      -1.105942       -30.0942
  21   2.0000      -1.065800       -29.0019
  22   2.0000      -0.975173       -26.5358
  23   2.0000      -0.966971       -26.3126
  24   2.0000      -0.959280       -26.1033
  25   2.0000      -0.865356       -23.5475
  26   2.0000      -0.829207       -22.5639
  27   2.0000      -0.804796       -21.8996
  28   2.0000      -0.764532       -20.8040
  29   2.0000      -0.728954       -19.8358
  30   2.0000      -0.695709       -18.9312
  31   2.0000      -0.673642       -18.3307
  32   2.0000      -0.645817       -17.5736
  33   2.0000      -0.624602       -16.9963
  34   2.0000      -0.613597       -16.6968
  35   2.0000      -0.593642       -16.1538
  36   2.0000      -0.577538       -15.7156
  37   2.0000      -0.555488       -15.1156
  38   2.0000      -0.529703       -14.4140
  39   2.0000      -0.517118       -14.0715
  40   2.0000      -0.502218       -13.6661
  41   2.0000      -0.486311       -13.2332
  42   2.0000      -0.479179       -13.0391
  43   2.0000      -0.465750       -12.6737
  44   2.0000      -0.459336       -12.4992
  45   2.0000      -0.451408       -12.2834
  46   2.0000      -0.442631       -12.0446
  47   2.0000      -0.437411       -11.9026
  48   2.0000      -0.423747       -11.5307
  49   2.0000      -0.412956       -11.2371
  50   2.0000      -0.407837       -11.0978
  51   2.0000      -0.406033       -11.0487
  52   2.0000      -0.385371       -10.4865
  53   2.0000      -0.378908       -10.3106
  54   2.0000      -0.373334       -10.1589
  55   2.0000      -0.355637        -9.6774
  56   2.0000      -0.346341        -9.4244
  57   2.0000      -0.340615        -9.2686
  58   2.0000      -0.338085        -9.1998
  59   2.0000      -0.328330        -8.9343
  60   2.0000      -0.323385        -8.7998
  61   2.0000      -0.318693        -8.6721
  62   2.0000      -0.312596        -8.5062
  63   2.0000      -0.310516        -8.4496
  64   2.0000      -0.277477        -7.5505
  65   2.0000      -0.274107        -7.4588
  66   2.0000      -0.262673        -7.1477
  67   2.0000      -0.241359        -6.5677
  68   0.0000      -0.041094        -1.1182
  69   0.0000      -0.010664        -0.2902
  70   0.0000       0.027121         0.7380
  71   0.0000       0.038047         1.0353
  72   0.0000       0.051042         1.3889

MULLIKEN ATOMIC CHARGES
-----------------------
   0 C :   -0.145267
   1 C :   -0.159556
   2 C :   -0.289010
   3 H :    0.109783
   4 H :    0.134528
   5 S :    0.852030
   6 C :    0.230784
   7 N :   -0.404594
   8 N :   -0.306878
   9 H :    0.315877
  10 H :    0.268727
  11 H :    0.265958
  12 H :    0.264677
  13 O :   -0.581699
  14 O :   -0.572019
  15 C :   -0.314102
  16 C :   -0.246606
  17 C :   -0.186600
  18 H :    0.137735
  19 H :    0.090316
  20 H :    0.088591
  21 H :    0.124529
  22 C :   -0.239398
  23 H :    0.117151
  24 H :    0.193883
  25 C :   -0.136047
  26 H :    0.126125
  27 H :    0.096451
  28 C :   -0.211140
  29 H :    0.103311
  30 H :    0.100198
  31 H :    0.088121
  32 H :    0.071419
  33 H :    0.102611
  34 H :    0.119749
  35 O :   -0.476823
  36 H :    0.159291
  37 H :    0.107894
Sum of atomic charges:   -0.0000000

LOEWDIN ATOMIC CHARGES
----------------------
   0 C :   -0.208531
   1 C :   -0.291115
   2 C :   -0.394420
   3 H :    0.124558
   4 H :    0.140474
   5 S :    0.456117
   6 C :   -0.332080
   7 N :    0.056339
   8 N :    0.123354
   9 H :    0.168598
  10 H :    0.185901
  11 H :    0.182305
  12 H :    0.182192
  13 O :   -0.368729
  14 O :   -0.372570
  15 C :   -0.255319
  16 C :   -0.275497
  17 C :   -0.275587
  18 H :    0.145164
  19 H :    0.134216
  20 H :    0.137242
  21 H :    0.145553
  22 C :   -0.274162
  23 H :    0.146832
  24 H :    0.153804
  25 C :   -0.268829
  26 H :    0.137971
  27 H :    0.135384
  28 C :   -0.270950
  29 H :    0.137669
  30 H :    0.139047
  31 H :    0.133190
  32 H :    0.132583
  33 H :    0.137797
  34 H :    0.141086
  35 O :   -0.305630
  36 H :    0.168122
  37 H :    0.147919

  Mayer bond orders larger than 0.100000
B(  0-C ,  6-C ) :   0.9943 B(  0-C , 15-C ) :   0.9825 B(  0-C , 36-H ) :   0.9250
B(  0-C , 37-H ) :   0.9652 B(  1-C ,  2-C ) :   0.9860 B(  1-C , 17-C ) :   1.0240
B(  1-C , 20-H ) :   0.9458 B(  1-C , 21-H ) :   0.9490 B(  2-C ,  3-H ) :   0.9464
B(  2-C ,  4-H ) :   0.9451 B(  2-C ,  5-S ) :   0.9023 B(  5-S , 13-O ) :   1.4817
B(  5-S , 14-O ) :   1.6906 B(  5-S , 35-O ) :   1.9131 B(  6-C ,  7-N ) :   1.3412
B(  6-C ,  8-N ) :   1.6428 B(  7-N , 11-H ) :   0.8991 B(  7-N , 12-H ) :   0.8948
B(  8-N ,  9-H ) :   0.7076 B(  8-N , 10-H ) :   0.8669 B(  9-H , 13-O ) :   0.2303
B( 15-C , 22-C ) :   0.9855 B( 15-C , 23-H ) :   0.9481 B( 15-C , 24-H ) :   0.9560
B( 16-C , 17-C ) :   1.0062 B( 16-C , 28-C ) :   1.0140 B( 16-C , 31-H ) :   0.9505
B( 16-C , 32-H ) :   0.9546 B( 17-C , 18-H ) :   0.9530 B( 17-C , 19-H ) :   0.9550
B( 22-C , 25-C ) :   1.0126 B( 22-C , 26-H ) :   0.9629 B( 22-C , 27-H ) :   0.9489
B( 25-C , 28-C ) :   0.9843 B( 25-C , 29-H ) :   0.9617 B( 25-C , 30-H ) :   0.9583
B( 28-C , 33-H ) :   0.9540 B( 28-C , 34-H ) :   0.9714

Dispersion correction           -0.040705935
FINAL SINGLE POINT ENERGY     -1127.073849198822

DIPOLE MOMENT
-------------
                                X             Y             Z
Electronic contribution:     -9.21710     -11.43867     -14.23669
Nuclear contribution   :      8.53517      16.50844      14.36520
                        -----------------------------------------
Total Dipole Moment    :     -0.68194       5.06977       0.12850
                        -----------------------------------------
Magnitude (a.u.)       :      5.11704
Magnitude (Debye)      :     13.00648

Rotational constants in cm-1:     0.017951     0.012436     0.008288
Rotational constants in MHz :   538.163255   372.824050   248.467077

                             ****ORCA TERMINATED NORMALLY****
TOTAL RUN TIME: 0 days 0 hours 1 minutes 10 seconds 377 msec
