                         Program Version 5.0.0 -  RELEASE  -
|  1> !PBE0 D3BJ RIJCOSX def2-TZVP def2/J TightSCF
|  2> *xyz 0 1
|  3> C          4.93020       -7.37532       -2.64962
|  4> C          3.84189       -6.95161       -3.63283
|  5> H          3.45814       -5.95442       -3.40712
|  6> H          2.98848       -7.64361       -3.56708
|  7> S          4.31812       -6.91593       -5.36869
|  8> F          5.40615       -5.89948       -5.51297
|  9> O          3.11191       -6.44508       -6.04379
| 10> O          4.76340       -8.23942       -5.69863
| 11> H          5.27901       -8.35440       -2.90385
| 12> H          4.53000       -7.38577       -1.65734
| 13> H          5.74437       -6.68276       -2.69856
| 14> *
| 15>
| 16> %MaxCore 64000
| 17>
| 18> %pal nprocs 4
| 19> end
| 20>
| 21> %scf
| 22>   MaxIter 150
| 23> end
| 24>
| 25>
| 26>                          ****END OF INPUT****

CARTESIAN COORDINATES (ANGSTROEM)
---------------------------------
  C      4.930200   -7.375320   -2.649620
  C      3.841890   -6.951610   -3.632830
  H      3.458140   -5.954420   -3.407120
  H      2.988480   -7.643610   -3.567080
  S      4.318120   -6.915930   -5.368690
  F      5.406150   -5.899480   -5.512970
  O      3.111910   -6.445080   -6.043790
  O      4.763400   -8.239420   -5.698630
  H      5.279010   -8.354400   -2.903850
  H      4.530000   -7.385770   -1.657340
  H      5.744370   -6.682760   -2.698560

 Total Charge           Charge          ....    0
 Multiplicity           Mult            ....    1
 Number of Electrons    NEL             ....   58
 Basis Dimension        Dim             ....  222

ORBITAL ENERGIES
----------------

  NO   OCC          E(Eh)            E(eV)
   0   2.0000     -89.259505     -2428.8746
   1   2.0000     -24.868497      -676.7062
   2   2.0000     -19.222096      -523.0598
   3   2.0000     -19.212318      -522.7938
   4   2.0000     -10.286115      -279.8994
   5   2.0000     -10.241249      -278.6786
   6   2.0000      -8.205439      -223.2814
   7   2.0000      -6.145786      -167.2353
   8   2.0000      -6.139818      -167.0729
   9   2.0000      -6.139031      -167.0515
  10   2.0000      -1.374093       -37.3910
  11   2.0000      -1.140397       -31.0318
  12   2.0000      -1.047461       -28.5029
  13   2.0000      -0.846730       -23.0407
  14   2.0000      -0.740575       -20.1521
  15   2.0000      -0.690422       -18.7873
  16   2.0000      -0.592581       -16.1250
  17   2.0000      -0.575185       -15.6516
  18   2.0000      -0.563207       -15.3256
  19   2.0000      -0.508099       -13.8261
  20   2.0000      -0.493890       -13.4394
  21   2.0000      -0.471253       -12.8234
  22   2.0000      -0.449242       -12.2245
  23   2.0000      -0.421900       -11.4805
  24   2.0000      -0.416865       -11.3435
  25   2.0000      -0.392957       -10.6929
  26   2.0000      -0.354439        -9.6448
  27   2.0000      -0.342357        -9.3160
  28   2.0000      -0.331949        -9.0328
  29   0.0000       0.013318         0.3624
  30   0.0000       0.050748         1.3809
  31   0.0000       0.068243         1.8570
  32   0.0000       0.079149         2.1538
  33   0.0000       0.084343         2.2951

MULLIKEN ATOMIC CHARGES
-----------------------
   0 C :   -0.366513
   1 C :   -0.255881
   2 H :    0.150436
   3 H :    0.163956
   4 S :    0.836400
   5 F :   -0.126993
   6 O :   -0.420827
   7 O :   -0.399164
   8 H :    0.152240
   9 H :    0.136354
  10 H :    0.129992
Sum of atomic charges:   -0.0000000

LOEWDIN ATOMIC CHARGES
----------------------
   0 C :   -0.318905
   1 C :   -0.396469
   2 H :    0.140849
   3 H :    0.155716
   4 S :    0.543026
   5 F :    0.035897
   6 O :   -0.283231
   7 O :   -0.252276
   8 H :    0.127344
   9 H :    0.126554
  10 H :    0.121495

  Mayer bond orders larger than 0.100000
B(  0-C ,  1-C ) :   0.9924 B(  0-C ,  8-H ) :   0.9630 B(  0-C ,  9-H ) :   0.9578
B(  0-C , 10-H ) :   0.9674 B(  1-C ,  2-H ) :   0.9397 B(  1-C ,  3-H ) :   0.9354
B(  1-C ,  4-S ) :   0.9066 B(  4-S ,  5-F ) :   1.0952 B(  4-S ,  6-O ) :   1.9369
B(  4-S ,  7-O ) :   1.9446

Dispersion correction           -0.007821282
FINAL SINGLE POINT ENERGY      -727.368029075615

DIPOLE MOMENT
-------------
                                X             Y             Z
Electronic contribution:      1.30263       2.63192      -8.78214
Nuclear contribution   :     -0.98922      -2.24849      10.35711
                        -----------------------------------------
Total Dipole Moment    :      0.31341       0.38342       1.57497
                        -----------------------------------------
Magnitude (a.u.)       :      1.65099
Magnitude (Debye)      :      4.19648

Rotational constants in cm-1:     0.151436     0.080885     0.078670
Rotational constants in MHz :  4539.936009  2424.868817  2358.476812

                             ****ORCA TERMINATED NORMALLY****
TOTAL RUN TIME: 0 days 0 hours 0 minutes 21 seconds 884 msec
