                         Program Version 5.0.0 -  RELEASE  -
|  1> !PBE0 D3BJ RIJCOSX def2-TZVP def2/J TightSCF
|  2> *xyz 0 1
|  3> C          5.55821       -1.99291       -6.21505
|  4> C          4.18188       -2.58967       -6.29891
|  5> C          3.14587       -1.76843       -6.48675
|  6> N          4.01910       -3.86431       -6.22743
|  7> H          4.76849       -4.59115       -5.99077
|  8> H          3.12241       -4.33339       -6.31462
|  9> H          3.28164       -0.77779       -6.56655
| 10> H          2.21255       -2.13419       -6.56225
| 11> C          6.41926       -2.54294       -5.07763
| 12> H          6.03683       -2.19819       -7.17685
| 13> H          5.46761       -0.90737       -6.12797
| 14> H          6.50056       -3.60553       -5.17358
| 15> H          5.96544       -2.30329       -4.13874
| 16> H          7.39438       -2.10494       -5.12457
| 17> *
| 18>
| 19> %MaxCore 64000
| 20>
| 21> %pal nprocs 4
| 22> end
| 23>
| 24> %scf
| 25>   MaxIter 150
| 26> end
| 27>
| 28>
| 29>                          ****END OF INPUT****

CARTESIAN COORDINATES (ANGSTROEM)
---------------------------------
  C      5.558210   -1.992910   -6.215050
  C      4.181880   -2.589670   -6.298910
  C      3.145870   -1.768430   -6.486750
  N      4.019100   -3.864310   -6.227430
  H      4.768490   -4.591150   -5.990770
  H      3.122410   -4.333390   -6.314620
  H      3.281640   -0.777790   -6.566550
  H      2.212550   -2.134190   -6.562250
  C      6.419260   -2.542940   -5.077630
  H      6.036830   -2.198190   -7.176850
  H      5.467610   -0.907370   -6.127970
  H      6.500560   -3.605530   -5.173580
  H      5.965440   -2.303290   -4.138740
  H      7.394380   -2.104940   -5.124570

 Total Charge           Charge          ....    0
 Multiplicity           Mult            ....    1
 Number of Electrons    NEL             ....   40
 Basis Dimension        Dim             ....  209

ORBITAL ENERGIES
----------------

  NO   OCC          E(Eh)            E(eV)
   0   2.0000     -14.389901      -391.5691
   1   2.0000     -10.241966      -278.6981
   2   2.0000     -10.219250      -278.0799
   3   2.0000     -10.206932      -277.7447
   4   2.0000     -10.145616      -276.0763
   5   2.0000      -0.959934       -26.1211
   6   2.0000      -0.800403       -21.7801
   7   2.0000      -0.738599       -20.0983
   8   2.0000      -0.649717       -17.6797
   9   2.0000      -0.599272       -16.3070
  10   2.0000      -0.531251       -14.4561
  11   2.0000      -0.486413       -13.2360
  12   2.0000      -0.456321       -12.4171
  13   2.0000      -0.434972       -11.8362
  14   2.0000      -0.404357       -11.0031
  15   2.0000      -0.393655       -10.7119
  16   2.0000      -0.369414       -10.0523
  17   2.0000      -0.345470        -9.4007
  18   2.0000      -0.339385        -9.2351
  19   2.0000      -0.193776        -5.2729
  20   0.0000       0.029494         0.8026
  21   0.0000       0.054298         1.4775
  22   0.0000       0.075486         2.0541
  23   0.0000       0.080466         2.1896
  24   0.0000       0.103014         2.8032

MULLIKEN ATOMIC CHARGES
-----------------------
   0 C :   -0.192877
   1 C :    0.211932
   2 C :   -0.444648
   3 N :   -0.475256
   4 H :    0.244742
   5 H :    0.241689
   6 H :    0.110011
   7 H :    0.091131
   8 C :   -0.344675
   9 H :    0.108391
  10 H :    0.111560
  11 H :    0.087030
  12 H :    0.125535
  13 H :    0.125434
Sum of atomic charges:    0.0000000

LOEWDIN ATOMIC CHARGES
----------------------
   0 C :   -0.239343
   1 C :   -0.383114
   2 C :   -0.283118
   3 N :    0.007589
   4 H :    0.189053
   5 H :    0.174348
   6 H :    0.100067
   7 H :    0.093893
   8 C :   -0.301694
   9 H :    0.144566
  10 H :    0.149039
  11 H :    0.108940
  12 H :    0.121206
  13 H :    0.118569

  Mayer bond orders larger than 0.100000
B(  0-C ,  1-C ) :   1.0051 B(  0-C ,  8-C ) :   0.9977 B(  0-C ,  9-H ) :   0.9530
B(  0-C , 10-H ) :   0.9636 B(  1-C ,  2-C ) :   1.7491 B(  1-C ,  3-N ) :   1.1953
B(  2-C ,  6-H ) :   0.9820 B(  2-C ,  7-H ) :   0.9852 B(  3-N ,  4-H ) :   0.9064
B(  3-N ,  5-H ) :   0.9084 B(  8-C , 11-H ) :   0.9746 B(  8-C , 12-H ) :   0.9698
B(  8-C , 13-H ) :   0.9731

Dispersion correction           -0.008774511
FINAL SINGLE POINT ENERGY      -212.381476485625

DIPOLE MOMENT
-------------
                                X             Y             Z
Electronic contribution:     -2.03061      -1.10041      -1.02635
Nuclear contribution   :      2.41345       0.31141       1.16343
                        -----------------------------------------
Total Dipole Moment    :      0.38285      -0.78900       0.13708
                        -----------------------------------------
Magnitude (a.u.)       :      0.88763
Magnitude (Debye)      :      2.25617

Rotational constants in cm-1:     0.287957     0.129204     0.097498
Rotational constants in MHz :  8632.737925  3873.424745  2922.919500

                             ****ORCA TERMINATED NORMALLY****
TOTAL RUN TIME: 0 days 0 hours 0 minutes 25 seconds 280 msec
