                         Program Version 5.0.0 -  RELEASE  -
|  1> !PBE0 D3BJ RIJCOSX def2-TZVP def2/J TightSCF
|  2> *xyz 0 1
|  3> C          4.93020       -7.37532       -2.64962
|  4> C          3.84189       -6.95161       -3.63283
|  5> H          3.45814       -5.95442       -3.40712
|  6> H          2.98848       -7.64361       -3.56708
|  7> S          4.31812       -6.91593       -5.36869
|  8> O          5.40615       -5.89948       -5.51297
|  9> F          3.11191       -6.44508       -6.04379
| 10> O          4.76340       -8.23942       -5.69863
| 11> H          5.27901       -8.35440       -2.90385
| 12> H          4.53000       -7.38577       -1.65734
| 13> H          5.74437       -6.68276       -2.69856
| 14> *
| 15>
| 16> %MaxCore 64000
| 17>
| 18> %pal nprocs 4
| 19> end
| 20>
| 21> %scf
| 22>   MaxIter 150
| 23> end
| 24>
| 25>
| 26>                          ****END OF INPUT****

CARTESIAN COORDINATES (ANGSTROEM)
---------------------------------
  C      4.930200   -7.375320   -2.649620
  C      3.841890   -6.951610   -3.632830
  H      3.458140   -5.954420   -3.407120
  H      2.988480   -7.643610   -3.567080
  S      4.318120   -6.915930   -5.368690
  O      5.406150   -5.899480   -5.512970
  F      3.111910   -6.445080   -6.043790
  O      4.763400   -8.239420   -5.698630
  H      5.279010   -8.354400   -2.903850
  H      4.530000   -7.385770   -1.657340
  H      5.744370   -6.682760   -2.698560

 Total Charge           Charge          ....    0
 Multiplicity           Mult            ....    1
 Number of Electrons    NEL             ....   58
 Basis Dimension        Dim             ....  222

ORBITAL ENERGIES
----------------

  NO   OCC          E(Eh)            E(eV)
   0   2.0000     -89.261317     -2428.9239
   1   2.0000     -24.883517      -677.1149
   2   2.0000     -19.221268      -523.0373
   3   2.0000     -19.204282      -522.5751
   4   2.0000     -10.287075      -279.9255
   5   2.0000     -10.239897      -278.6418
   6   2.0000      -8.207182      -223.3288
   7   2.0000      -6.147479      -167.2814
   8   2.0000      -6.141389      -167.1157
   9   2.0000      -6.140926      -167.1031
  10   2.0000      -1.401218       -38.1291
  11   2.0000      -1.133508       -30.8443
  12   2.0000      -1.028617       -27.9901
  13   2.0000      -0.846498       -23.0344
  14   2.0000      -0.754649       -20.5351
  15   2.0000      -0.690884       -18.7999
  16   2.0000      -0.597008       -16.2454
  17   2.0000      -0.594602       -16.1799
  18   2.0000      -0.572502       -15.5786
  19   2.0000      -0.509257       -13.8576
  20   2.0000      -0.497187       -13.5292
  21   2.0000      -0.458213       -12.4686
  22   2.0000      -0.445120       -12.1123
  23   2.0000      -0.424386       -11.5481
  24   2.0000      -0.402297       -10.9471
  25   2.0000      -0.399078       -10.8595
  26   2.0000      -0.350131        -9.5275
  27   2.0000      -0.334886        -9.1127
  28   2.0000      -0.318243        -8.6598
  29   0.0000       0.031350         0.8531
  30   0.0000       0.035904         0.9770
  31   0.0000       0.071576         1.9477
  32   0.0000       0.075086         2.0432
  33   0.0000       0.082243         2.2379

MULLIKEN ATOMIC CHARGES
-----------------------
   0 C :   -0.368410
   1 C :   -0.243594
   2 H :    0.145847
   3 H :    0.141783
   4 S :    0.831953
   5 O :   -0.450857
   6 F :   -0.100370
   7 O :   -0.392223
   8 H :    0.149275
   9 H :    0.136018
  10 H :    0.150577
Sum of atomic charges:    0.0000000

LOEWDIN ATOMIC CHARGES
----------------------
   0 C :   -0.304884
   1 C :   -0.402082
   2 H :    0.139259
   3 H :    0.141693
   4 S :    0.536926
   5 O :   -0.323300
   6 F :    0.078098
   7 O :   -0.250738
   8 H :    0.128591
   9 H :    0.127316
  10 H :    0.129120

  Mayer bond orders larger than 0.100000
B(  0-C ,  1-C ) :   1.0074 B(  0-C ,  8-H ) :   0.9644 B(  0-C ,  9-H ) :   0.9553
B(  0-C , 10-H ) :   0.9644 B(  1-C ,  2-H ) :   0.9329 B(  1-C ,  3-H ) :   0.9300
B(  1-C ,  4-S ) :   0.9112 B(  4-S ,  5-O ) :   1.8806 B(  4-S ,  6-F ) :   1.1353
B(  4-S ,  7-O ) :   1.9482

Dispersion correction           -0.007853653
FINAL SINGLE POINT ENERGY      -727.356724176099

DIPOLE MOMENT
-------------
                                X             Y             Z
Electronic contribution:     -2.58286       1.70192      -9.69133
Nuclear contribution   :      1.40145      -1.67996      10.91024
                        -----------------------------------------
Total Dipole Moment    :     -1.18141       0.02196       1.21890
                        -----------------------------------------
Magnitude (a.u.)       :      1.69763
Magnitude (Debye)      :      4.31503

Rotational constants in cm-1:     0.155875     0.079864     0.077188
Rotational constants in MHz :  4673.017506  2394.277415  2314.027118

                             ****ORCA TERMINATED NORMALLY****
TOTAL RUN TIME: 0 days 0 hours 0 minutes 21 seconds 958 msec
