                         Program Version 5.0.0 -  RELEASE  -
|  1> !PBE0 D3BJ RIJCOSX def2-TZVP def2/J TightSCF
|  2> *xyz 0 1
|  3> C          5.55821       -1.99291       -6.21505
|  4> C          4.18188       -2.58967       -6.29891
|  5> N          3.14587       -1.76843       -6.48675
|  6> C          4.01910       -3.86431       -6.22743
|  7> H          4.76849       -4.59115       -5.99077
|  8> H          3.12241       -4.33339       -6.31462
|  9> H          3.28164       -0.77779       -6.56655
| 10> H          2.21255       -2.13419       -6.56225
| 11> C          6.41926       -2.54294       -5.07763
| 12> H          6.03683       -2.19819       -7.17685
| 13> H          5.46761       -0.90737       -6.12797
| 14> H          6.50056       -3.60553       -5.17358
| 15> H          5.96544       -2.30329       -4.13874
| 16> H          7.39438       -2.10494       -5.12457
| 17> *
| 18>
| 19> %MaxCore 64000
| 20>
| 21> %pal nprocs 4
| 22> end
| 23>
| 24> %scf
| 25>   MaxIter 150
| 26> end
| 27>
| 28>
| 29>                          ****END OF INPUT****

CARTESIAN COORDINATES (ANGSTROEM)
---------------------------------
  C      5.558210   -1.992910   -6.215050
  C      4.181880   -2.589670   -6.298910
  N      3.145870   -1.768430   -6.486750
  C      4.019100   -3.864310   -6.227430
  H      4.768490   -4.591150   -5.990770
  H      3.122410   -4.333390   -6.314620
  H      3.281640   -0.777790   -6.566550
  H      2.212550   -2.134190   -6.562250
  C      6.419260   -2.542940   -5.077630
  H      6.036830   -2.198190   -7.176850
  H      5.467610   -0.907370   -6.127970
  H      6.500560   -3.605530   -5.173580
  H      5.965440   -2.303290   -4.138740
  H      7.394380   -2.104940   -5.124570

 Total Charge           Charge          ....    0
 Multiplicity           Mult            ....    1
 Number of Electrons    NEL             ....   40
 Basis Dimension        Dim             ....  209

ORBITAL ENERGIES
----------------

  NO   OCC          E(Eh)            E(eV)
   0   2.0000     -14.378765      -391.2661
   1   2.0000     -10.239457      -278.6298
   2   2.0000     -10.220306      -278.1087
   3   2.0000     -10.200741      -277.5763
   4   2.0000     -10.152583      -276.2658
   5   2.0000      -0.949442       -25.8356
   6   2.0000      -0.803930       -21.8760
   7   2.0000      -0.734925       -19.9983
   8   2.0000      -0.659651       -17.9500
   9   2.0000      -0.574104       -15.6222
  10   2.0000      -0.537110       -14.6155
  11   2.0000      -0.500159       -13.6100
  12   2.0000      -0.460172       -12.5219
  13   2.0000      -0.430903       -11.7255
  14   2.0000      -0.396439       -10.7877
  15   2.0000      -0.383581       -10.4378
  16   2.0000      -0.361934        -9.8487
  17   2.0000      -0.346667        -9.4333
  18   2.0000      -0.336733        -9.1630
  19   2.0000      -0.201707        -5.4887
  20   0.0000       0.040722         1.1081
  21   0.0000       0.052993         1.4420
  22   0.0000       0.077690         2.1141
  23   0.0000       0.085577         2.3287
  24   0.0000       0.107958         2.9377

MULLIKEN ATOMIC CHARGES
-----------------------
   0 C :   -0.176516
   1 C :    0.194294
   2 N :   -0.462206
   3 C :   -0.429966
   4 H :    0.109376
   5 H :    0.095468
   6 H :    0.229928
   7 H :    0.231265
   8 C :   -0.347853
   9 H :    0.118719
  10 H :    0.082784
  11 H :    0.117967
  12 H :    0.119013
  13 H :    0.117727
Sum of atomic charges:   -0.0000000

LOEWDIN ATOMIC CHARGES
----------------------
   0 C :   -0.239266
   1 C :   -0.369365
   2 N :   -0.005776
   3 C :   -0.281927
   4 H :    0.120682
   5 H :    0.100400
   6 H :    0.161322
   7 H :    0.168119
   8 C :   -0.292981
   9 H :    0.150312
  10 H :    0.133598
  11 H :    0.119147
  12 H :    0.120356
  13 H :    0.115380

  Mayer bond orders larger than 0.100000
B(  0-C ,  1-C ) :   0.9657 B(  0-C ,  8-C ) :   1.0159 B(  0-C ,  9-H ) :   0.9548
B(  0-C , 10-H ) :   0.9622 B(  1-C ,  2-N ) :   1.1715 B(  1-C ,  3-C ) :   1.7991
B(  2-N ,  6-H ) :   0.9189 B(  2-N ,  7-H ) :   0.9144 B(  3-C ,  4-H ) :   0.9819
B(  3-C ,  5-H ) :   0.9748 B(  8-C , 11-H ) :   0.9736 B(  8-C , 12-H ) :   0.9725
B(  8-C , 13-H ) :   0.9695

Dispersion correction           -0.008802735
FINAL SINGLE POINT ENERGY      -212.391177796435

DIPOLE MOMENT
-------------
                                X             Y             Z
Electronic contribution:     -2.82641       0.83634      -1.29198
Nuclear contribution   :      2.61570      -0.17401       1.22349
                        -----------------------------------------
Total Dipole Moment    :     -0.21071       0.66232      -0.06849
                        -----------------------------------------
Magnitude (a.u.)       :      0.69840
Magnitude (Debye)      :      1.77519

Rotational constants in cm-1:     0.298189     0.125314     0.096441
Rotational constants in MHz :  8939.495008  3756.825352  2891.223400

                             ****ORCA TERMINATED NORMALLY****
TOTAL RUN TIME: 0 days 0 hours 0 minutes 25 seconds 512 msec
