                         Program Version 5.0.0 -  RELEASE  -
|  1> !PBE0 D3BJ RIJCOSX def2-TZVP def2/J TightSCF
|  2> *xyz 0 1
|  3> C          4.93020       -7.37532       -2.64962
|  4> C          3.84189       -6.95161       -3.63283
|  5> H          3.45814       -5.95442       -3.40712
|  6> H          2.98848       -7.64361       -3.56708
|  7> S          4.31812       -6.91593       -5.36869
|  8> O          5.40615       -5.89948       -5.51297
|  9> O          3.11191       -6.44508       -6.04379
| 10> F          4.76340       -8.23942       -5.69863
| 11> H          5.27901       -8.35440       -2.90385
| 12> H          4.53000       -7.38577       -1.65734
| 13> H          5.74437       -6.68276       -2.69856
| 14> *
| 15>
| 16> %MaxCore 64000
| 17>
| 18> %pal nprocs 4
| 19> end
| 20>
| 21> %scf
| 22>   MaxIter 150
| 23> end
| 24>
| 25>
| 26>                          ****END OF INPUT****

CARTESIAN COORDINATES (ANGSTROEM)
---------------------------------
  C      4.930200   -7.375320   -2.649620
  C      3.841890   -6.951610   -3.632830
  H      3.458140   -5.954420   -3.407120
  H      2.988480   -7.643610   -3.567080
  S      4.318120   -6.915930   -5.368690
  O      5.406150   -5.899480   -5.512970
  O      3.111910   -6.445080   -6.043790
  F      4.763400   -8.239420   -5.698630
  H      5.279010   -8.354400   -2.903850
  H      4.530000   -7.385770   -1.657340
  H      5.744370   -6.682760   -2.698560

 Total Charge           Charge          ....    0
 Multiplicity           Mult            ....    1
 Number of Electrons    NEL             ....   58
 Basis Dimension        Dim             ....  222

ORBITAL ENERGIES
----------------

  NO   OCC          E(Eh)            E(eV)
   0   2.0000     -89.262863     -2428.9660
   1   2.0000     -24.897233      -677.4882
   2   2.0000     -19.212544      -522.7999
   3   2.0000     -19.205313      -522.6031
   4   2.0000     -10.287209      -279.9292
   5   2.0000     -10.242259      -278.7060
   6   2.0000      -8.208671      -223.3693
   7   2.0000      -6.149103      -167.3256
   8   2.0000      -6.142702      -167.1514
   9   2.0000      -6.142390      -167.1429
  10   2.0000      -1.423497       -38.7353
  11   2.0000      -1.121840       -30.5268
  12   2.0000      -1.021336       -27.7920
  13   2.0000      -0.849153       -23.1066
  14   2.0000      -0.758995       -20.6533
  15   2.0000      -0.700839       -19.0708
  16   2.0000      -0.618200       -16.8221
  17   2.0000      -0.609321       -16.5805
  18   2.0000      -0.566790       -15.4231
  19   2.0000      -0.508204       -13.8289
  20   2.0000      -0.493057       -13.4168
  21   2.0000      -0.465522       -12.6675
  22   2.0000      -0.445476       -12.1220
  23   2.0000      -0.421954       -11.4820
  24   2.0000      -0.410815       -11.1789
  25   2.0000      -0.387479       -10.5438
  26   2.0000      -0.341143        -9.2830
  27   2.0000      -0.334379        -9.0989
  28   2.0000      -0.312535        -8.5045
  29   0.0000       0.017134         0.4662
  30   0.0000       0.047918         1.3039
  31   0.0000       0.065518         1.7828
  32   0.0000       0.077823         2.1177
  33   0.0000       0.078215         2.1283

MULLIKEN ATOMIC CHARGES
-----------------------
   0 C :   -0.365608
   1 C :   -0.253890
   2 H :    0.168524
   3 H :    0.146263
   4 S :    0.828008
   5 O :   -0.446206
   6 O :   -0.409457
   7 F :   -0.084858
   8 H :    0.126547
   9 H :    0.136738
  10 H :    0.153939
Sum of atomic charges:   -0.0000000

LOEWDIN ATOMIC CHARGES
----------------------
   0 C :   -0.319125
   1 C :   -0.397190
   2 H :    0.153299
   3 H :    0.143072
   4 S :    0.533663
   5 O :   -0.319865
   6 O :   -0.278235
   7 F :    0.109099
   8 H :    0.120480
   9 H :    0.126759
  10 H :    0.128042

  Mayer bond orders larger than 0.100000
B(  0-C ,  1-C ) :   0.9910 B(  0-C ,  8-H ) :   0.9674 B(  0-C ,  9-H ) :   0.9575
B(  0-C , 10-H ) :   0.9626 B(  1-C ,  2-H ) :   0.9373 B(  1-C ,  3-H ) :   0.9366
B(  1-C ,  4-S ) :   0.9052 B(  4-S ,  5-O ) :   1.8785 B(  4-S ,  6-O ) :   1.9398
B(  4-S ,  7-F ) :   1.1489

Dispersion correction           -0.007814948
FINAL SINGLE POINT ENERGY      -727.345364702016

DIPOLE MOMENT
-------------
                                X             Y             Z
Electronic contribution:      0.20569      -1.31544      -9.10212
Nuclear contribution   :     -0.31946       0.18980      10.55057
                        -----------------------------------------
Total Dipole Moment    :     -0.11376      -1.12565       1.44845
                        -----------------------------------------
Magnitude (a.u.)       :      1.83794
Magnitude (Debye)      :      4.67167

Rotational constants in cm-1:     0.151421     0.081183     0.078684
Rotational constants in MHz :  4539.489207  2433.790160  2358.892966

                             ****ORCA TERMINATED NORMALLY****
TOTAL RUN TIME: 0 days 0 hours 0 minutes 26 seconds 80 msec
