                         Program Version 5.0.0 -  RELEASE  -
|  1> !PBE0 D3BJ RIJCOSX def2-TZVP def2/J TightSCF xyzfile
|  2>
|  3> *xyzfile 0 1 D1.xyz
|  4>
|  5> %MaxCore 64000
|  6>
|  7> %pal nprocs 18
|  8> end
|  9>
| 10> %scf
| 11>   MaxIter 150
| 12> end
| 13>
| 14>
| 15>                          ****END OF INPUT****

CARTESIAN COORDINATES (ANGSTROEM)
---------------------------------
  C      5.558206   -1.992914   -6.215054
  C      4.930199   -7.375319   -2.649623
  C      3.841892   -6.951611   -3.632829
  H      3.458144   -5.954425   -3.407121
  H      2.988484   -7.643606   -3.567078
  S      4.318115   -6.915930   -5.368692
  C      4.181880   -2.589671   -6.298911
  C      3.145873   -1.768431   -6.486753
  N      4.019102   -3.864307   -6.227427
  H      4.768490   -4.591153   -5.990773
  H      3.122405   -4.333392   -6.314620
  H      3.281635   -0.777786   -6.566549
  H      2.212549   -2.134193   -6.562246
  F      5.406154   -5.899480   -5.512972
  O      3.111910   -6.445079   -6.043792
  C      6.419260   -2.542944   -5.077630
  C      5.872267   -5.002756   -2.427819
  C      6.173994   -6.485522   -2.606315
  H      6.734852   -6.613767   -3.534015
  H      6.821463   -6.831018   -1.793617
  H      4.469612   -7.406168   -1.655876
  H      5.230134   -8.398678   -2.885906
  C      5.896512   -2.169314   -3.694552
  H      7.428880   -2.143665   -5.208078
  H      6.505894   -3.627541   -5.175502
  C      6.807804   -2.623428   -2.551019
  H      4.894708   -2.589732   -3.557501
  H      5.778823   -1.081255   -3.635790
  C      7.111544   -4.122463   -2.520363
  H      7.751615   -2.071393   -2.614406
  H      6.345837   -2.326401   -1.604086
  H      5.362882   -4.828697   -1.471335
  H      5.174429   -4.702577   -3.211298
  H      7.778329   -4.329347   -1.677651
  H      7.673189   -4.402845   -3.417586
  O      4.763396   -8.239424   -5.698629
  H      6.036826   -2.198189   -7.176852
  H      5.467610   -0.907371   -6.127968

 Total Charge           Charge          ....    0
 Multiplicity           Mult            ....    1
 Number of Electrons    NEL             ....  136
 Basis Dimension        Dim             ....  634

ORBITAL ENERGIES
----------------

  NO   OCC          E(Eh)            E(eV)
   0   2.0000     -89.278537     -2429.3925
   1   2.0000     -24.900166      -677.5680
   2   2.0000     -19.240100      -523.5497
   3   2.0000     -19.233107      -523.3594
   4   2.0000     -14.365679      -390.9100
   5   2.0000     -10.294433      -280.1258
   6   2.0000     -10.257569      -279.1226
   7   2.0000     -10.241157      -278.6760
   8   2.0000     -10.232062      -278.4286
   9   2.0000     -10.230560      -278.3877
  10   2.0000     -10.225144      -278.2403
  11   2.0000     -10.219825      -278.0956
  12   2.0000     -10.218650      -278.0636
  13   2.0000     -10.214403      -277.9480
  14   2.0000     -10.213051      -277.9113
  15   2.0000     -10.136179      -275.8195
  16   2.0000      -8.225071      -223.8156
  17   2.0000      -6.165782      -167.7795
  18   2.0000      -6.158989      -167.5946
  19   2.0000      -6.158497      -167.5812
  20   2.0000      -1.411438       -38.4072
  21   2.0000      -1.160955       -31.5912
  22   2.0000      -1.068410       -29.0729
  23   2.0000      -0.945939       -25.7403
  24   2.0000      -0.876493       -23.8506
  25   2.0000      -0.843784       -22.9605
  26   2.0000      -0.815505       -22.1910
  27   2.0000      -0.783207       -21.3121
  28   2.0000      -0.763982       -20.7890
  29   2.0000      -0.734246       -19.9799
  30   2.0000      -0.719073       -19.5670
  31   2.0000      -0.679846       -18.4995
  32   2.0000      -0.643530       -17.5113
  33   2.0000      -0.635436       -17.2911
  34   2.0000      -0.627750       -17.0819
  35   2.0000      -0.605253       -16.4698
  36   2.0000      -0.589705       -16.0467
  37   2.0000      -0.578224       -15.7343
  38   2.0000      -0.574384       -15.6298
  39   2.0000      -0.524664       -14.2768
  40   2.0000      -0.519022       -14.1233
  41   2.0000      -0.506476       -13.7819
  42   2.0000      -0.500327       -13.6146
  43   2.0000      -0.491595       -13.3770
  44   2.0000      -0.480110       -13.0644
  45   2.0000      -0.477114       -12.9829
  46   2.0000      -0.466686       -12.6992
  47   2.0000      -0.448664       -12.2088
  48   2.0000      -0.445738       -12.1292
  49   2.0000      -0.435768       -11.8579
  50   2.0000      -0.424115       -11.5408
  51   2.0000      -0.421918       -11.4810
  52   2.0000      -0.407592       -11.0911
  53   2.0000      -0.391888       -10.6638
  54   2.0000      -0.387146       -10.5348
  55   2.0000      -0.382585       -10.4107
  56   2.0000      -0.380299       -10.3485
  57   2.0000      -0.369461       -10.0535
  58   2.0000      -0.367862       -10.0100
  59   2.0000      -0.356968        -9.7136
  60   2.0000      -0.353734        -9.6256
  61   2.0000      -0.348935        -9.4950
  62   2.0000      -0.347766        -9.4632
  63   2.0000      -0.341005        -9.2792
  64   2.0000      -0.330585        -8.9957
  65   2.0000      -0.323622        -8.8062
  66   2.0000      -0.319524        -8.6947
  67   2.0000      -0.183393        -4.9904
  68   0.0000      -0.002252        -0.0613
  69   0.0000       0.030475         0.8293
  70   0.0000       0.037691         1.0256
  71   0.0000       0.041890         1.1399
  72   0.0000       0.048680         1.3246

MULLIKEN ATOMIC CHARGES
-----------------------
   0 C :   -0.145377
   1 C :   -0.168626
   2 C :   -0.312904
   3 H :    0.180000
   4 H :    0.182164
   5 S :    0.847483
   6 C :    0.149387
   7 C :   -0.457004
   8 N :   -0.454952
   9 H :    0.246361
  10 H :    0.255398
  11 H :    0.103792
  12 H :    0.093865
  13 F :   -0.124235
  14 O :   -0.431561
  15 C :   -0.276713
  16 C :   -0.288607
  17 C :   -0.226806
  18 H :    0.122476
  19 H :    0.119300
  20 H :    0.119138
  21 H :    0.145121
  22 C :   -0.227075
  23 H :    0.105843
  24 H :    0.094391
  25 C :   -0.136385
  26 H :    0.132303
  27 H :    0.105417
  28 C :   -0.194515
  29 H :    0.104389
  30 H :    0.099682
  31 H :    0.107512
  32 H :    0.081429
  33 H :    0.108021
  34 H :    0.112323
  35 O :   -0.388341
  36 H :    0.112124
  37 H :    0.105181
Sum of atomic charges:   -0.0000000

LOEWDIN ATOMIC CHARGES
----------------------
   0 C :   -0.213881
   1 C :   -0.287357
   2 C :   -0.368049
   3 H :    0.145679
   4 H :    0.160424
   5 S :    0.559753
   6 C :   -0.387185
   7 C :   -0.289372
   8 N :   -0.009302
   9 H :    0.153465
  10 H :    0.172975
  11 H :    0.097954
  12 H :    0.093742
  13 F :    0.061666
  14 O :   -0.267564
  15 C :   -0.271371
  16 C :   -0.275813
  17 C :   -0.276975
  18 H :    0.136566
  19 H :    0.144117
  20 H :    0.149670
  21 H :    0.148414
  22 C :   -0.269021
  23 H :    0.139825
  24 H :    0.127031
  25 C :   -0.270412
  26 H :    0.140600
  27 H :    0.141644
  28 C :   -0.272180
  29 H :    0.138785
  30 H :    0.137855
  31 H :    0.139983
  32 H :    0.130636
  33 H :    0.138352
  34 H :    0.137922
  35 O :   -0.236895
  36 H :    0.147039
  37 H :    0.151281

  Mayer bond orders larger than 0.100000
B(  0-C ,  6-C ) :   1.0000 B(  0-C , 15-C ) :   0.9770 B(  0-C , 36-H ) :   0.9477
B(  0-C , 37-H ) :   0.9655 B(  1-C ,  2-C ) :   0.9747 B(  1-C , 17-C ) :   1.0093
B(  1-C , 20-H ) :   0.9388 B(  1-C , 21-H ) :   0.9542 B(  2-C ,  3-H ) :   0.9328
B(  2-C ,  4-H ) :   0.9292 B(  2-C ,  5-S ) :   0.9121 B(  5-S , 13-F ) :   1.0326
B(  5-S , 14-O ) :   1.8679 B(  5-S , 35-O ) :   1.9834 B(  6-C ,  7-C ) :   1.7454
B(  6-C ,  8-N ) :   1.2493 B(  7-C , 11-H ) :   0.9833 B(  7-C , 12-H ) :   0.9808
B(  8-N ,  9-H ) :   0.8742 B(  8-N , 10-H ) :   0.8887 B( 15-C , 22-C ) :   0.9821
B( 15-C , 23-H ) :   0.9497 B( 15-C , 24-H ) :   0.9813 B( 16-C , 17-C ) :   0.9654
B( 16-C , 28-C ) :   1.0087 B( 16-C , 31-H ) :   0.9484 B( 16-C , 32-H ) :   0.9723
B( 17-C , 18-H ) :   0.9726 B( 17-C , 19-H ) :   0.9561 B( 22-C , 25-C ) :   0.9916
B( 22-C , 26-H ) :   0.9737 B( 22-C , 27-H ) :   0.9520 B( 25-C , 28-C ) :   0.9905
B( 25-C , 29-H ) :   0.9595 B( 25-C , 30-H ) :   0.9622 B( 28-C , 33-H ) :   0.9544
B( 28-C , 34-H ) :   0.9673

Dispersion correction           -0.040263234
FINAL SINGLE POINT ENERGY     -1134.946902649449

DIPOLE MOMENT
-------------
                                X             Y             Z
Electronic contribution:     -7.01136     -18.80846     -13.23354
Nuclear contribution   :      7.78491      18.17172      15.09294
                        -----------------------------------------
Total Dipole Moment    :      0.77355      -0.63674       1.85939
                        -----------------------------------------
Magnitude (a.u.)       :      2.11215
Magnitude (Debye)      :      5.36865

Rotational constants in cm-1:     0.018190     0.012573     0.008405
Rotational constants in MHz :   545.327178   376.916509   251.974803

                             ****ORCA TERMINATED NORMALLY****
TOTAL RUN TIME: 0 days 0 hours 1 minutes 35 seconds 511 msec
