                         Program Version 5.0.0 -  RELEASE  -
|  1> !PBE0 D3BJ RIJCOSX def2-TZVP def2/J TightSCF xyzfile
|  2>
|  3> *xyzfile 0 1 D2.xyz
|  4>
|  5> %MaxCore 64000
|  6>
|  7> %pal nprocs 18
|  8> end
|  9>
| 10> %scf
| 11>   MaxIter 150
| 12> end
| 13>
| 14>
| 15>                          ****END OF INPUT****

CARTESIAN COORDINATES (ANGSTROEM)
---------------------------------
  C      5.558206   -1.992914   -6.215054
  C      4.930199   -7.375319   -2.649623
  C      3.841892   -6.951611   -3.632829
  H      3.458144   -5.954425   -3.407121
  H      2.988484   -7.643606   -3.567078
  S      4.318115   -6.915930   -5.368692
  C      4.181880   -2.589671   -6.298911
  N      3.145873   -1.768431   -6.486753
  C      4.019102   -3.864307   -6.227427
  H      4.768490   -4.591153   -5.990773
  H      3.122405   -4.333392   -6.314620
  H      3.281635   -0.777786   -6.566549
  H      2.212549   -2.134193   -6.562246
  F      5.406154   -5.899480   -5.512972
  O      3.111910   -6.445079   -6.043792
  C      6.419260   -2.542944   -5.077630
  C      5.872267   -5.002756   -2.427819
  C      6.173994   -6.485522   -2.606315
  H      6.734852   -6.613767   -3.534015
  H      6.821463   -6.831018   -1.793617
  H      4.469612   -7.406168   -1.655876
  H      5.230134   -8.398678   -2.885906
  C      5.896512   -2.169314   -3.694552
  H      7.428880   -2.143665   -5.208078
  H      6.505894   -3.627541   -5.175502
  C      6.807804   -2.623428   -2.551019
  H      4.894708   -2.589732   -3.557501
  H      5.778823   -1.081255   -3.635790
  C      7.111544   -4.122463   -2.520363
  H      7.751615   -2.071393   -2.614406
  H      6.345837   -2.326401   -1.604086
  H      5.362882   -4.828697   -1.471335
  H      5.174429   -4.702577   -3.211298
  H      7.778329   -4.329347   -1.677651
  H      7.673189   -4.402845   -3.417586
  O      4.763396   -8.239424   -5.698629
  H      6.036826   -2.198189   -7.176852
  H      5.467610   -0.907371   -6.127968

 Total Charge           Charge          ....    0
 Multiplicity           Mult            ....    1
 Number of Electrons    NEL             ....  136
 Basis Dimension        Dim             ....  634

ORBITAL ENERGIES
----------------

  NO   OCC          E(Eh)            E(eV)
   0   2.0000     -89.256465     -2428.7919
   1   2.0000     -24.868553      -676.7077
   2   2.0000     -19.219570      -522.9911
   3   2.0000     -19.207641      -522.6665
   4   2.0000     -14.371887      -391.0789
   5   2.0000     -10.278255      -279.6855
   6   2.0000     -10.245580      -278.7964
   7   2.0000     -10.230759      -278.3931
   8   2.0000     -10.229954      -278.3712
   9   2.0000     -10.222716      -278.1742
  10   2.0000     -10.218774      -278.0670
  11   2.0000     -10.216158      -277.9958
  12   2.0000     -10.216003      -277.9916
  13   2.0000     -10.214983      -277.9638
  14   2.0000     -10.211359      -277.8652
  15   2.0000     -10.130963      -275.6775
  16   2.0000      -8.202682      -223.2063
  17   2.0000      -6.143208      -167.1652
  18   2.0000      -6.136899      -166.9935
  19   2.0000      -6.136142      -166.9729
  20   2.0000      -1.381369       -37.5890
  21   2.0000      -1.138450       -30.9788
  22   2.0000      -1.045113       -28.4390
  23   2.0000      -0.942320       -25.6418
  24   2.0000      -0.863731       -23.5033
  25   2.0000      -0.838406       -22.8142
  26   2.0000      -0.809121       -22.0173
  27   2.0000      -0.780194       -21.2302
  28   2.0000      -0.743402       -20.2290
  29   2.0000      -0.732057       -19.9203
  30   2.0000      -0.704390       -19.1674
  31   2.0000      -0.678307       -18.4577
  32   2.0000      -0.640821       -17.4376
  33   2.0000      -0.621756       -16.9188
  34   2.0000      -0.607487       -16.5306
  35   2.0000      -0.582030       -15.8378
  36   2.0000      -0.579644       -15.7729
  37   2.0000      -0.562174       -15.2975
  38   2.0000      -0.555143       -15.1062
  39   2.0000      -0.528467       -14.3803
  40   2.0000      -0.508400       -13.8343
  41   2.0000      -0.504571       -13.7301
  42   2.0000      -0.498545       -13.5661
  43   2.0000      -0.483744       -13.1633
  44   2.0000      -0.470606       -12.8058
  45   2.0000      -0.469025       -12.7628
  46   2.0000      -0.462698       -12.5906
  47   2.0000      -0.447266       -12.1707
  48   2.0000      -0.431128       -11.7316
  49   2.0000      -0.425849       -11.5879
  50   2.0000      -0.420067       -11.4306
  51   2.0000      -0.412956       -11.2371
  52   2.0000      -0.390652       -10.6302
  53   2.0000      -0.385633       -10.4936
  54   2.0000      -0.378697       -10.3049
  55   2.0000      -0.373245       -10.1565
  56   2.0000      -0.362658        -9.8684
  57   2.0000      -0.359643        -9.7864
  58   2.0000      -0.354179        -9.6377
  59   2.0000      -0.348364        -9.4795
  60   2.0000      -0.341298        -9.2872
  61   2.0000      -0.339969        -9.2510
  62   2.0000      -0.333079        -9.0636
  63   2.0000      -0.327762        -8.9189
  64   2.0000      -0.323492        -8.8027
  65   2.0000      -0.318483        -8.6664
  66   2.0000      -0.315094        -8.5741
  67   2.0000      -0.193011        -5.2521
  68   0.0000       0.017316         0.4712
  69   0.0000       0.040561         1.1037
  70   0.0000       0.042936         1.1683
  71   0.0000       0.045734         1.2445
  72   0.0000       0.053921         1.4673

MULLIKEN ATOMIC CHARGES
-----------------------
   0 C :   -0.135787
   1 C :   -0.165316
   2 C :   -0.311483
   3 H :    0.176478
   4 H :    0.174873
   5 S :    0.848214
   6 C :    0.176390
   7 N :   -0.452194
   8 C :   -0.513046
   9 H :    0.142085
  10 H :    0.125412
  11 H :    0.224508
  12 H :    0.228716
  13 F :   -0.113181
  14 O :   -0.418871
  15 C :   -0.256735
  16 C :   -0.285400
  17 C :   -0.226916
  18 H :    0.122846
  19 H :    0.113579
  20 H :    0.113152
  21 H :    0.140806
  22 C :   -0.234675
  23 H :    0.097826
  24 H :    0.107012
  25 C :   -0.132327
  26 H :    0.135319
  27 H :    0.096020
  28 C :   -0.195998
  29 H :    0.101981
  30 H :    0.096768
  31 H :    0.101201
  32 H :    0.099072
  33 H :    0.104603
  34 H :    0.112670
  35 O :   -0.401071
  36 H :    0.121403
  37 H :    0.082066
Sum of atomic charges:    0.0000000

LOEWDIN ATOMIC CHARGES
----------------------
   0 C :   -0.215000
   1 C :   -0.288890
   2 C :   -0.369240
   3 H :    0.144922
   4 H :    0.157689
   5 S :    0.562915
   6 C :   -0.376388
   7 N :   -0.006851
   8 C :   -0.310590
   9 H :    0.098551
  10 H :    0.104124
  11 H :    0.159124
  12 H :    0.167924
  13 F :    0.065196
  14 O :   -0.256975
  15 C :   -0.260535
  16 C :   -0.275389
  17 C :   -0.277139
  18 H :    0.137311
  19 H :    0.142223
  20 H :    0.147320
  21 H :    0.147433
  22 C :   -0.270858
  23 H :    0.137892
  24 H :    0.135818
  25 C :   -0.270921
  26 H :    0.140571
  27 H :    0.137291
  28 C :   -0.272060
  29 H :    0.137818
  30 H :    0.137078
  31 H :    0.138310
  32 H :    0.135270
  33 H :    0.137476
  34 H :    0.138404
  35 O :   -0.248724
  36 H :    0.152452
  37 H :    0.136449

  Mayer bond orders larger than 0.100000
B(  0-C ,  6-C ) :   0.9713 B(  0-C , 15-C ) :   1.0002 B(  0-C , 36-H ) :   0.9433
B(  0-C , 37-H ) :   0.9608 B(  1-C ,  2-C ) :   0.9762 B(  1-C , 17-C ) :   1.0115
B(  1-C , 20-H ) :   0.9401 B(  1-C , 21-H ) :   0.9539 B(  2-C ,  3-H ) :   0.9352
B(  2-C ,  4-H ) :   0.9327 B(  2-C ,  5-S ) :   0.9114 B(  5-S , 13-F ) :   1.0570
B(  5-S , 14-O ) :   1.8883 B(  5-S , 35-O ) :   1.9712 B(  6-C ,  7-N ) :   1.1816
B(  6-C ,  8-C ) :   1.7788 B(  7-N , 11-H ) :   0.9171 B(  7-N , 12-H ) :   0.9119
B(  8-C ,  9-H ) :   0.9951 B(  8-C , 10-H ) :   0.9663 B( 15-C , 22-C ) :   0.9977
B( 15-C , 23-H ) :   0.9493 B( 15-C , 24-H ) :   0.9701 B( 16-C , 17-C ) :   0.9714
B( 16-C , 28-C ) :   1.0111 B( 16-C , 31-H ) :   0.9490 B( 16-C , 32-H ) :   0.9690
B( 17-C , 18-H ) :   0.9708 B( 17-C , 19-H ) :   0.9560 B( 22-C , 25-C ) :   0.9977
B( 22-C , 26-H ) :   0.9695 B( 22-C , 27-H ) :   0.9523 B( 25-C , 28-C ) :   0.9918
B( 25-C , 29-H ) :   0.9597 B( 25-C , 30-H ) :   0.9619 B( 28-C , 33-H ) :   0.9548
B( 28-C , 34-H ) :   0.9671

Dispersion correction           -0.040519837
FINAL SINGLE POINT ENERGY     -1134.940900056773

DIPOLE MOMENT
-------------
                                X             Y             Z
Electronic contribution:     -7.76865     -16.92878     -13.66155
Nuclear contribution   :      7.91684      17.85507      15.13212
                        -----------------------------------------
Total Dipole Moment    :      0.14819       0.92629       1.47056
                        -----------------------------------------
Magnitude (a.u.)       :      1.74429
Magnitude (Debye)      :      4.43363

Rotational constants in cm-1:     0.018015     0.012410     0.008313
Rotational constants in MHz :   540.084467   372.038374   249.228144

                             ****ORCA TERMINATED NORMALLY****
TOTAL RUN TIME: 0 days 0 hours 1 minutes 31 seconds 633 msec
