                         Program Version 5.0.0 -  RELEASE  -
|  1> !BLYP D3BJ RIJCOSX def2-TZVPD def2/J TightSCF
|  2> *xyz -1 1
|  3> C         -0.87096        0.24804       -2.66280
|  4> C         -0.47749        0.60819       -4.10105
|  5> H          0.20677        1.45830       -4.11875
|  6> H         -1.36844        0.92942       -4.64785
|  7> C          0.18467       -0.50664       -4.91676
|  8> O         -0.15869       -1.70109       -4.65798
|  9> O          1.05594       -0.17441       -5.74037
| 10> H         -1.54056       -0.58646       -2.67455
| 11> H         -1.35339        1.08600       -2.20455
| 12> H          0.00660       -0.00662       -2.10609
| 13> *
| 14>
| 15> %MaxCore 64000
| 16>
| 17> %pal nprocs 4
| 18> end
| 19>
| 20> %scf
| 21>   MaxIter 150
| 22> end
| 23>
| 24>
| 25>                          ****END OF INPUT****

CARTESIAN COORDINATES (ANGSTROEM)
---------------------------------
  C     -0.870960    0.248040   -2.662800
  C     -0.477490    0.608190   -4.101050
  H      0.206770    1.458300   -4.118750
  H     -1.368440    0.929420   -4.647850
  C      0.184670   -0.506640   -4.916760
  O     -0.158690   -1.701090   -4.657980
  O      1.055940   -0.174410   -5.740370
  H     -1.540560   -0.586460   -2.674550
  H     -1.353390    1.086000   -2.204550
  H      0.006600   -0.006620   -2.106090

 Total Charge           Charge          ....   -1
 Multiplicity           Mult            ....    1
 Number of Electrons    NEL             ....   40
 Basis Dimension        Dim             ....  236

ORBITAL ENERGIES
----------------

  NO   OCC          E(Eh)            E(eV)
   0   2.0000     -18.513656      -503.7822
   1   2.0000     -18.510779      -503.7039
   2   2.0000      -9.782968      -266.2081
   3   2.0000      -9.737937      -264.9827
   4   2.0000      -9.730471      -264.7796
   5   2.0000      -0.726990       -19.7824
   6   2.0000      -0.639117       -17.3913
   7   2.0000      -0.524458       -14.2712
   8   2.0000      -0.405733       -11.0406
   9   2.0000      -0.259639        -7.0651
  10   2.0000      -0.240312        -6.5392
  11   2.0000      -0.205869        -5.6020
  12   2.0000      -0.177382        -4.8268
  13   2.0000      -0.166112        -4.5201
  14   2.0000      -0.155231        -4.2241
  15   2.0000      -0.129123        -3.5136
  16   2.0000      -0.114045        -3.1033
  17   2.0000      -0.009316        -0.2535
  18   2.0000       0.002769         0.0754
  19   2.0000       0.019710         0.5363
  20   0.0000       0.119620         3.2550
  21   0.0000       0.146033         3.9738
  22   0.0000       0.162536         4.4228
  23   0.0000       0.169429         4.6104
  24   0.0000       0.193009         5.2520

MULLIKEN ATOMIC CHARGES
-----------------------
   0 C :   -1.053458
   1 C :   -0.130630
   2 H :    0.205792
   3 H :    0.175036
   4 C :    0.373815
   5 O :   -0.720317
   6 O :   -0.705614
   7 H :    0.247618
   8 H :    0.331611
   9 H :    0.276148
Sum of atomic charges:   -1.0000000

LOEWDIN ATOMIC CHARGES
----------------------
   0 C :   -0.131589
   1 C :   -0.208061
   2 H :    0.080346
   3 H :    0.088217
   4 C :   -0.782450
   5 O :   -0.098397
   6 O :   -0.084116
   7 H :    0.047417
   8 H :    0.035203
   9 H :    0.053430

  Mayer bond orders larger than 0.100000
B(  0-C ,  1-C ) :   0.5322 B(  0-C ,  7-H ) :   1.0264 B(  0-C ,  8-H ) :   0.9281
B(  0-C ,  9-H ) :   0.9714 B(  1-C ,  2-H ) :   1.0139 B(  1-C ,  3-H ) :   0.9544
B(  1-C ,  4-C ) :   0.9546 B(  4-C ,  5-O ) :   1.3939 B(  4-C ,  6-O ) :   1.4097

Dispersion correction           -0.013467156
FINAL SINGLE POINT ENERGY      -267.885656754323

DIPOLE MOMENT
-------------
                                X             Y             Z
Electronic contribution:      2.67495      -2.98190      -4.61889
Nuclear contribution   :     -3.54611       4.15440       5.90446
                        -----------------------------------------
Total Dipole Moment    :     -0.87116       1.17250       1.28557
                        -----------------------------------------
Magnitude (a.u.)       :      1.94586
Magnitude (Debye)      :      4.94599

Rotational constants in cm-1:     0.332789     0.132085     0.101080
Rotational constants in MHz :  9976.755824  3959.803182  3030.288811

                             ****ORCA TERMINATED NORMALLY****
TOTAL RUN TIME: 0 days 0 hours 0 minutes 11 seconds 949 msec
