                         Program Version 5.0.0 -  RELEASE  -
|  1> !BLYP D3BJ RIJCOSX def2-TZVPD def2/J TightSCF
|  2> *xyz 1 1
|  3> C          2.48645       -2.67712       -2.56345
|  4> C          3.03764       -2.36672       -3.92351
|  5> N          2.28036       -2.45441       -4.96769
|  6> N          4.32174       -2.01793       -4.01664
|  7> H          4.87994       -1.91167       -3.17382
|  8> H          4.71015       -1.67088       -4.88356
|  9> H          1.27042       -2.41265       -4.86614
| 10> H          2.58183       -2.05528       -5.84688
| 11> C          2.49799       -1.46946       -1.61030
| 12> H          1.47259       -3.05153       -2.69437
| 13> H          3.08320       -3.49064       -2.14147
| 14> H          1.91240       -0.67831       -2.02991
| 15> H          3.50450       -1.13364       -1.47227
| 16> H          2.08509       -1.75655       -0.66585
| 17> *
| 18>
| 19> %MaxCore 64000
| 20>
| 21> %pal nprocs 4
| 22> end
| 23>
| 24> %scf
| 25>   MaxIter 150
| 26> end
| 27>
| 28>
| 29>                          ****END OF INPUT****

CARTESIAN COORDINATES (ANGSTROEM)
---------------------------------
  C      2.486450   -2.677120   -2.563450
  C      3.037640   -2.366720   -3.923510
  N      2.280360   -2.454410   -4.967690
  N      4.321740   -2.017930   -4.016640
  H      4.879940   -1.911670   -3.173820
  H      4.710150   -1.670880   -4.883560
  H      1.270420   -2.412650   -4.866140
  H      2.581830   -2.055280   -5.846880
  C      2.497990   -1.469460   -1.610300
  H      1.472590   -3.051530   -2.694370
  H      3.083200   -3.490640   -2.141470
  H      1.912400   -0.678310   -2.029910
  H      3.504500   -1.133640   -1.472270
  H      2.085090   -1.756550   -0.665850

 Total Charge           Charge          ....    1
 Multiplicity           Mult            ....    1
 Number of Electrons    NEL             ....   40
 Basis Dimension        Dim             ....  266

ORBITAL ENERGIES
----------------

  NO   OCC          E(Eh)            E(eV)
   0   2.0000     -14.253600      -387.8602
   1   2.0000     -14.248734      -387.7278
   2   2.0000     -10.220321      -278.1091
   3   2.0000     -10.102682      -274.9079
   4   2.0000     -10.061404      -273.7847
   5   2.0000      -1.116508       -30.3817
   6   2.0000      -1.027564       -27.9614
   7   2.0000      -0.890697       -24.2371
   8   2.0000      -0.798334       -21.7238
   9   2.0000      -0.751616       -20.4525
  10   2.0000      -0.717859       -19.5339
  11   2.0000      -0.691859       -18.8264
  12   2.0000      -0.649745       -17.6805
  13   2.0000      -0.599047       -16.3009
  14   2.0000      -0.572721       -15.5845
  15   2.0000      -0.558499       -15.1975
  16   2.0000      -0.503548       -13.7022
  17   2.0000      -0.493428       -13.4269
  18   2.0000      -0.484226       -13.1764
  19   2.0000      -0.453882       -12.3508
  20   0.0000      -0.245905        -6.6914
  21   0.0000      -0.191248        -5.2041
  22   0.0000      -0.151201        -4.1144
  23   0.0000      -0.146880        -3.9968
  24   0.0000      -0.116643        -3.1740

MULLIKEN ATOMIC CHARGES
-----------------------
   0 C :   -0.320786
   1 C :    0.579914
   2 N :   -0.226011
   3 N :   -0.264809
   4 H :    0.210148
   5 H :    0.186059
   6 H :    0.235569
   7 H :    0.205060
   8 C :   -1.176429
   9 H :    0.257851
  10 H :    0.275031
  11 H :    0.363059
  12 H :    0.346563
  13 H :    0.328781
Sum of atomic charges:    1.0000000

LOEWDIN ATOMIC CHARGES
----------------------
   0 C :   -0.139317
   1 C :   -0.368790
   2 N :    0.243728
   3 N :    0.240129
   4 H :    0.141998
   5 H :    0.140455
   6 H :    0.151841
   7 H :    0.145154
   8 C :   -0.044265
   9 H :    0.120673
  10 H :    0.135417
  11 H :    0.080982
  12 H :    0.067295
  13 H :    0.084701

  Mayer bond orders larger than 0.100000
B(  0-C ,  1-C ) :   0.7905 B(  0-C ,  8-C ) :   0.5794 B(  0-C ,  9-H ) :   0.9811
B(  0-C , 10-H ) :   0.9475 B(  1-C ,  2-N ) :   1.3055 B(  1-C ,  3-N ) :   1.1948
B(  2-N ,  3-N ) :   0.1068 B(  2-N ,  6-H ) :   0.9291 B(  2-N ,  7-H ) :   0.9690
B(  3-N ,  4-H ) :   0.9527 B(  3-N ,  5-H ) :   1.0003 B(  8-C , 11-H ) :   0.9389
B(  8-C , 12-H ) :   0.9072 B(  8-C , 13-H ) :   0.9743

Dispersion correction           -0.020570697
FINAL SINGLE POINT ENERGY      -229.031229891179

DIPOLE MOMENT
-------------
                                X             Y             Z
Electronic contribution:      1.06281      -1.07977      -3.90197
Nuclear contribution   :     -0.84604       1.34287       2.92710
                        -----------------------------------------
Total Dipole Moment    :      0.21677       0.26310      -0.97487
                        -----------------------------------------
Magnitude (a.u.)       :      1.03275
Magnitude (Debye)      :      2.62505

Rotational constants in cm-1:     0.265816     0.126189     0.097583
Rotational constants in MHz :  7968.948902  3783.040103  2925.457702

                             ****ORCA TERMINATED NORMALLY****
TOTAL RUN TIME: 0 days 0 hours 0 minutes 13 seconds 600 msec
