                         Program Version 5.0.0 -  RELEASE  -
|  1> !BLYP D3BJ RIJCOSX def2-TZVPD def2/J TightSCF xyzfile
|  2>
|  3> *xyzfile 0 1 B.xyz
|  4>
|  5> %MaxCore 64000
|  6>
|  7> %pal nprocs 4
|  8> end
|  9>
| 10> %scf
| 11>   MaxIter 150
| 12> end
| 13>
| 14>
| 15>                          ****END OF INPUT****

CARTESIAN COORDINATES (ANGSTROEM)
---------------------------------
  C      2.486452   -2.677121   -2.563447
  C     -0.870963    0.248043   -2.662804
  C     -0.477492    0.608191   -4.101052
  H      0.206773    1.458299   -4.118748
  H     -1.368442    0.929419   -4.647855
  C      0.184673   -0.506640   -4.916760
  C      3.037640   -2.366715   -3.923509
  N      2.280360   -2.454408   -4.967692
  N      4.321736   -2.017932   -4.016641
  H      4.879940   -1.911668   -3.173823
  H      4.710148   -1.670882   -4.883561
  H      1.270423   -2.412650   -4.866143
  H      2.581829   -2.055282   -5.846878
  O     -0.158685   -1.701088   -4.657981
  O      1.055938   -0.174410   -5.740373
  C      2.497991   -1.469464   -1.610303
  C      1.582841   -0.321986   -2.042619
  H      2.193083   -1.833912   -0.625420
  H      3.523356   -1.103982   -1.490392
  C      0.100160   -0.673551   -1.915815
  H      1.822311   -0.040361   -3.072834
  H      1.813180    0.557019   -1.433266
  H     -0.063284   -1.679120   -2.301112
  H     -0.168820   -0.691680   -0.853831
  H     -1.001048    1.181040   -2.104071
  H     -1.844645   -0.246592   -2.663281
  H      1.472592   -3.051527   -2.694366
  H      3.083201   -3.490638   -2.141472

 Total Charge           Charge          ....    0
 Multiplicity           Mult            ....    1
 Number of Electrons    NEL             ....   94
 Basis Dimension        Dim             ....  594

ORBITAL ENERGIES
----------------

  NO   OCC          E(Eh)            E(eV)
   0   2.0000     -18.688438      -508.5382
   1   2.0000     -18.681925      -508.3610
   2   2.0000     -14.085201      -383.2778
   3   2.0000     -14.048994      -382.2926
   4   2.0000     -10.041980      -273.2562
   5   2.0000      -9.950512      -270.7672
   6   2.0000      -9.946838      -270.6672
   7   2.0000      -9.929425      -270.1934
   8   2.0000      -9.900561      -269.4080
   9   2.0000      -9.883035      -268.9311
  10   2.0000      -9.878630      -268.8112
  11   2.0000      -9.867688      -268.5134
  12   2.0000      -0.939276       -25.5590
  13   2.0000      -0.905778       -24.6475
  14   2.0000      -0.848394       -23.0860
  15   2.0000      -0.816915       -22.2294
  16   2.0000      -0.749156       -20.3856
  17   2.0000      -0.698504       -19.0073
  18   2.0000      -0.658234       -17.9115
  19   2.0000      -0.609279       -16.5793
  20   2.0000      -0.591750       -16.1023
  21   2.0000      -0.551480       -15.0065
  22   2.0000      -0.547941       -14.9102
  23   2.0000      -0.518836       -14.1183
  24   2.0000      -0.495192       -13.4749
  25   2.0000      -0.467886       -12.7318
  26   2.0000      -0.443942       -12.0803
  27   2.0000      -0.425871       -11.5885
  28   2.0000      -0.403988       -10.9931
  29   2.0000      -0.398444       -10.8422
  30   2.0000      -0.390313       -10.6210
  31   2.0000      -0.372217       -10.1285
  32   2.0000      -0.362456        -9.8629
  33   2.0000      -0.358390        -9.7523
  34   2.0000      -0.338830        -9.2200
  35   2.0000      -0.331154        -9.0111
  36   2.0000      -0.318600        -8.6696
  37   2.0000      -0.310913        -8.4604
  38   2.0000      -0.305959        -8.3256
  39   2.0000      -0.290089        -7.8937
  40   2.0000      -0.279449        -7.6042
  41   2.0000      -0.271415        -7.3856
  42   2.0000      -0.263307        -7.1649
  43   2.0000      -0.254682        -6.9303
  44   2.0000      -0.186337        -5.0705
  45   2.0000      -0.169799        -4.6205
  46   2.0000      -0.154857        -4.2139
  47   0.0000      -0.073545        -2.0012
  48   0.0000      -0.049296        -1.3414
  49   0.0000      -0.013346        -0.3632
  50   0.0000      -0.000486        -0.0132
  51   0.0000       0.006255         0.1702

MULLIKEN ATOMIC CHARGES
-----------------------
   0 C :   -0.501474
   1 C :   -0.516470
   2 C :   -0.562936
   3 H :    0.206969
   4 H :    0.282309
   5 C :    0.718748
   6 C :    0.373847
   7 N :   -0.207278
   8 N :   -0.323858
   9 H :    0.174879
  10 H :    0.166904
  11 H :    0.319367
  12 H :    0.166485
  13 O :   -0.827897
  14 O :   -0.751180
  15 C :   -0.481241
  16 C :   -0.451268
  17 H :    0.260280
  18 H :    0.255747
  19 C :   -0.463509
  20 H :    0.268683
  21 H :    0.268985
  22 H :    0.226470
  23 H :    0.344359
  24 H :    0.248420
  25 H :    0.256947
  26 H :    0.262728
  27 H :    0.284985
Sum of atomic charges:   -0.0000000

LOEWDIN ATOMIC CHARGES
----------------------
   0 C :   -0.101328
   1 C :   -0.191370
   2 C :   -0.126666
   3 H :    0.102564
   4 H :    0.111943
   5 C :   -0.702626
   6 C :   -0.377517
   7 N :    0.238552
   8 N :    0.201873
   9 H :    0.119835
  10 H :    0.125195
  11 H :    0.044182
  12 H :    0.127197
  13 O :   -0.046884
  14 O :   -0.019006
  15 C :   -0.182223
  16 C :   -0.187339
  17 H :    0.113457
  18 H :    0.097551
  19 C :   -0.207390
  20 H :    0.103354
  21 H :    0.115134
  22 H :    0.086838
  23 H :    0.109480
  24 H :    0.101371
  25 H :    0.104770
  26 H :    0.115382
  27 H :    0.123671

  Mayer bond orders larger than 0.100000
B(  0-C ,  6-C ) :   0.7556 B(  0-C , 15-C ) :   0.7656 B(  0-C , 19-C ) :   0.1078
B(  0-C , 26-H ) :   0.9682 B(  0-C , 27-H ) :   0.9377 B(  1-C ,  2-C ) :   0.7473
B(  1-C , 19-C ) :   0.9903 B(  1-C , 22-H ) :   0.1195 B(  1-C , 24-H ) :   0.9731
B(  1-C , 25-H ) :   0.9312 B(  2-C ,  3-H ) :   1.0629 B(  2-C ,  4-H ) :   0.8994
B(  2-C ,  5-C ) :   0.8959 B(  2-C , 16-C ) :   0.1301 B(  5-C , 13-O ) :   1.1376
B(  5-C , 14-O ) :   1.2561 B(  6-C ,  7-N ) :   1.4552 B(  6-C ,  8-N ) :   1.0120
B(  6-C , 15-C ) :   0.1310 B(  7-N ,  8-N ) :   0.1268 B(  7-N , 11-H ) :   0.6716
B(  7-N , 12-H ) :   0.9408 B(  8-N ,  9-H ) :   1.0013 B(  8-N , 10-H ) :   0.9821
B( 11-H , 13-O ) :   0.2251 B( 13-O , 14-O ) :   0.1099 B( 15-C , 16-C ) :   0.9194
B( 15-C , 17-H ) :   0.9492 B( 15-C , 18-H ) :   0.8777 B( 15-C , 19-C ) :   0.2105
B( 16-C , 19-C ) :   0.3760 B( 16-C , 20-H ) :   0.8873 B( 16-C , 21-H ) :   0.9556
B( 16-C , 23-H ) :  -0.1012 B( 19-C , 22-H ) :   0.9607 B( 19-C , 23-H ) :   0.8690

Dispersion correction           -0.062903097
FINAL SINGLE POINT ENERGY      -574.510223313685

DIPOLE MOMENT
-------------
                                X             Y             Z
Electronic contribution:      1.60644      -2.89255      -8.88421
Nuclear contribution   :      1.39386       1.90489      10.36520
                        -----------------------------------------
Total Dipole Moment    :      3.00030      -0.98766       1.48100
                        -----------------------------------------
Magnitude (a.u.)       :      3.48865
Magnitude (Debye)      :      8.86743

Rotational constants in cm-1:     0.041165     0.025922     0.019001
Rotational constants in MHz :  1234.086888   777.109255   569.639629

                             ****ORCA TERMINATED NORMALLY****
TOTAL RUN TIME: 0 days 0 hours 1 minutes 14 seconds 133 msec
