                         Program Version 5.0.0 -  RELEASE  -
|  1> !BLYP D3BJ RIJCOSX def2-TZVPD def2/J TightSCF
|  2> *xyz 0 1
|  3> C         -0.87096        0.24804       -2.66280
|  4> C         -0.47749        0.60819       -4.10105
|  5> H          0.20677        1.45830       -4.11875
|  6> H         -1.36844        0.92942       -4.64785
|  7> C          0.18467       -0.50664       -4.91676
|  8> F         -0.15869       -1.70109       -4.65798
|  9> O          1.05594       -0.17441       -5.74037
| 10> H         -1.54056       -0.58646       -2.67455
| 11> H         -1.35339        1.08600       -2.20455
| 12> H          0.00660       -0.00662       -2.10609
| 13> *
| 14>
| 15> %MaxCore 64000
| 16>
| 17> %pal nprocs 4
| 18> end
| 19>
| 20> %scf
| 21>   MaxIter 150
| 22> end
| 23>
| 24>
| 25>                          ****END OF INPUT****

CARTESIAN COORDINATES (ANGSTROEM)
---------------------------------
  C     -0.870960    0.248040   -2.662800
  C     -0.477490    0.608190   -4.101050
  H      0.206770    1.458300   -4.118750
  H     -1.368440    0.929420   -4.647850
  C      0.184670   -0.506640   -4.916760
  F     -0.158690   -1.701090   -4.657980
  O      1.055940   -0.174410   -5.740370
  H     -1.540560   -0.586460   -2.674550
  H     -1.353390    1.086000   -2.204550
  H      0.006600   -0.006620   -2.106090

 Total Charge           Charge          ....    0
 Multiplicity           Mult            ....    1
 Number of Electrons    NEL             ....   40
 Basis Dimension        Dim             ....  236

ORBITAL ENERGIES
----------------

  NO   OCC          E(Eh)            E(eV)
   0   2.0000     -24.349328      -662.5789
   1   2.0000     -18.778720      -510.9949
   2   2.0000     -10.074353      -274.1371
   3   2.0000      -9.936045      -270.3735
   4   2.0000      -9.911226      -269.6982
   5   2.0000      -1.199597       -32.6427
   6   2.0000      -0.945267       -25.7220
   7   2.0000      -0.722528       -19.6610
   8   2.0000      -0.613621       -16.6975
   9   2.0000      -0.573883       -15.6161
  10   2.0000      -0.481886       -13.1128
  11   2.0000      -0.474075       -12.9002
  12   2.0000      -0.435595       -11.8532
  13   2.0000      -0.413906       -11.2630
  14   2.0000      -0.380868       -10.3639
  15   2.0000      -0.352719        -9.5980
  16   2.0000      -0.339711        -9.2440
  17   2.0000      -0.331687        -9.0257
  18   2.0000      -0.306658        -8.3446
  19   2.0000      -0.242367        -6.5951
  20   0.0000      -0.063009        -1.7146
  21   0.0000      -0.018812        -0.5119
  22   0.0000       0.013435         0.3656
  23   0.0000       0.022494         0.6121
  24   0.0000       0.033368         0.9080

MULLIKEN ATOMIC CHARGES
-----------------------
   0 C :   -1.110668
   1 C :   -0.113108
   2 H :    0.231109
   3 H :    0.251829
   4 C :    0.484320
   5 F :   -0.217977
   6 O :   -0.473149
   7 H :    0.299875
   8 H :    0.314139
   9 H :    0.333629
Sum of atomic charges:   -0.0000000

LOEWDIN ATOMIC CHARGES
----------------------
   0 C :   -0.086439
   1 C :   -0.148373
   2 H :    0.113731
   3 H :    0.117762
   4 C :   -0.504599
   5 F :    0.208190
   6 O :    0.102341
   7 H :    0.063388
   8 H :    0.064870
   9 H :    0.069128

  Mayer bond orders larger than 0.100000
B(  0-C ,  1-C ) :   0.5659 B(  0-C ,  7-H ) :   0.9748 B(  0-C ,  8-H ) :   0.9620
B(  0-C ,  9-H ) :   0.9393 B(  1-C ,  2-H ) :   0.9846 B(  1-C ,  3-H ) :   0.9139
B(  1-C ,  4-C ) :   0.9333 B(  4-C ,  5-F ) :   1.0089 B(  4-C ,  6-O ) :   1.7302

Dispersion correction           -0.012676051
FINAL SINGLE POINT ENERGY      -292.457865110267

DIPOLE MOMENT
-------------
                                X             Y             Z
Electronic contribution:      2.63182      -5.36775      -5.31856
Nuclear contribution   :     -3.42837       5.66737       6.17046
                        -----------------------------------------
Total Dipole Moment    :     -0.79654       0.29962       0.85189
                        -----------------------------------------
Magnitude (a.u.)       :      1.20415
Magnitude (Debye)      :      3.06070

Rotational constants in cm-1:     0.304660     0.130969     0.097716
Rotational constants in MHz :  9133.464515  3926.366384  2929.457090

                             ****ORCA TERMINATED NORMALLY****
TOTAL RUN TIME: 0 days 0 hours 0 minutes 12 seconds 87 msec
