                         Program Version 5.0.0 -  RELEASE  -
|  1> !BLYP D3BJ RIJCOSX def2-TZVPD def2/J TightSCF
|  2> *xyz 0 1
|  3> C          2.48645       -2.67712       -2.56345
|  4> C          3.03764       -2.36672       -3.92351
|  5> C          2.28036       -2.45441       -4.96769
|  6> N          4.32174       -2.01793       -4.01664
|  7> H          4.87994       -1.91167       -3.17382
|  8> H          4.71015       -1.67088       -4.88356
|  9> H          1.27042       -2.41265       -4.86614
| 10> H          2.58183       -2.05528       -5.84688
| 11> C          2.49799       -1.46946       -1.61030
| 12> H          1.47259       -3.05153       -2.69437
| 13> H          3.08320       -3.49064       -2.14147
| 14> H          1.91240       -0.67831       -2.02991
| 15> H          3.50450       -1.13364       -1.47227
| 16> H          2.08509       -1.75655       -0.66585
| 17> *
| 18>
| 19> %MaxCore 64000
| 20>
| 21> %pal nprocs 4
| 22> end
| 23>
| 24> %scf
| 25>   MaxIter 150
| 26> end
| 27>
| 28>
| 29>                          ****END OF INPUT****

CARTESIAN COORDINATES (ANGSTROEM)
---------------------------------
  C      2.486450   -2.677120   -2.563450
  C      3.037640   -2.366720   -3.923510
  C      2.280360   -2.454410   -4.967690
  N      4.321740   -2.017930   -4.016640
  H      4.879940   -1.911670   -3.173820
  H      4.710150   -1.670880   -4.883560
  H      1.270420   -2.412650   -4.866140
  H      2.581830   -2.055280   -5.846880
  C      2.497990   -1.469460   -1.610300
  H      1.472590   -3.051530   -2.694370
  H      3.083200   -3.490640   -2.141470
  H      1.912400   -0.678310   -2.029910
  H      3.504500   -1.133640   -1.472270
  H      2.085090   -1.756550   -0.665850

 Total Charge           Charge          ....    0
 Multiplicity           Mult            ....    1
 Number of Electrons    NEL             ....   40
 Basis Dimension        Dim             ....  266

ORBITAL ENERGIES
----------------

  NO   OCC          E(Eh)            E(eV)
   0   2.0000     -14.008025      -381.1777
   1   2.0000      -9.920803      -269.9588
   2   2.0000      -9.903003      -269.4744
   3   2.0000      -9.892351      -269.1845
   4   2.0000      -9.834918      -267.6217
   5   2.0000      -0.838476       -22.8161
   6   2.0000      -0.700397       -19.0588
   7   2.0000      -0.649185       -17.6652
   8   2.0000      -0.567600       -15.4452
   9   2.0000      -0.507758       -13.8168
  10   2.0000      -0.470024       -12.7900
  11   2.0000      -0.423005       -11.5106
  12   2.0000      -0.386200       -10.5090
  13   2.0000      -0.380522       -10.3545
  14   2.0000      -0.340223        -9.2579
  15   2.0000      -0.334895        -9.1129
  16   2.0000      -0.309931        -8.4337
  17   2.0000      -0.289171        -7.8687
  18   2.0000      -0.280370        -7.6292
  19   2.0000      -0.162042        -4.4094
  20   0.0000      -0.016892        -0.4597
  21   0.0000       0.005087         0.1384
  22   0.0000       0.018640         0.5072
  23   0.0000       0.023482         0.6390
  24   0.0000       0.033802         0.9198

MULLIKEN ATOMIC CHARGES
-----------------------
   0 C :   -0.378287
   1 C :    0.611927
   2 C :   -1.011398
   3 N :   -0.342447
   4 H :    0.138587
   5 H :    0.133322
   6 H :    0.273759
   7 H :    0.308312
   8 C :   -1.149617
   9 H :    0.202884
  10 H :    0.264120
  11 H :    0.330518
  12 H :    0.304941
  13 H :    0.313379
Sum of atomic charges:   -0.0000000

LOEWDIN ATOMIC CHARGES
----------------------
   0 C :   -0.192389
   1 C :   -0.495600
   2 C :    0.014121
   3 N :    0.118931
   4 H :    0.097406
   5 H :    0.104379
   6 H :    0.024060
   7 H :    0.020403
   8 C :   -0.083835
   9 H :    0.104203
  10 H :    0.108842
  11 H :    0.068469
  12 H :    0.051307
  13 H :    0.059704

  Mayer bond orders larger than 0.100000
B(  0-C ,  1-C ) :   0.7432 B(  0-C ,  8-C ) :   0.5731 B(  0-C ,  9-H ) :   1.0146
B(  0-C , 10-H ) :   0.9233 B(  1-C ,  2-C ) :   1.3300 B(  1-C ,  3-N ) :   0.9644
B(  1-C ,  7-H ) :  -0.1031 B(  2-C ,  3-N ) :   0.1129 B(  2-C ,  6-H ) :   0.9686
B(  2-C ,  7-H ) :   1.0473 B(  3-N ,  4-H ) :   1.0215 B(  3-N ,  5-H ) :   1.0189
B(  8-C , 11-H ) :   0.9804 B(  8-C , 12-H ) :   0.9438 B(  8-C , 13-H ) :   0.9728

Dispersion correction           -0.021443501
FINAL SINGLE POINT ENERGY      -212.549269641025

DIPOLE MOMENT
-------------
                                X             Y             Z
Electronic contribution:      1.53333      -0.88663      -2.14272
Nuclear contribution   :     -0.99743       1.27863       2.57190
                        -----------------------------------------
Total Dipole Moment    :      0.53590       0.39199       0.42918
                        -----------------------------------------
Magnitude (a.u.)       :      0.79059
Magnitude (Debye)      :      2.00953

Rotational constants in cm-1:     0.274050     0.130114     0.100964
Rotational constants in MHz :  8215.815505  3900.722919  3026.834930

                             ****ORCA TERMINATED NORMALLY****
TOTAL RUN TIME: 0 days 0 hours 0 minutes 14 seconds 923 msec
