                         Program Version 5.0.0 -  RELEASE  -
|  1> !BLYP D3BJ RIJCOSX def2-TZVPD def2/J TightSCF
|  2> *xyz 0 1
|  3> C         -0.87096        0.24804       -2.66280
|  4> C         -0.47749        0.60819       -4.10105
|  5> H          0.20677        1.45830       -4.11875
|  6> H         -1.36844        0.92942       -4.64785
|  7> C          0.18467       -0.50664       -4.91676
|  8> O         -0.15869       -1.70109       -4.65798
|  9> F          1.05594       -0.17441       -5.74037
| 10> H         -1.54056       -0.58646       -2.67455
| 11> H         -1.35339        1.08600       -2.20455
| 12> H          0.00660       -0.00662       -2.10609
| 13> *
| 14>
| 15> %MaxCore 64000
| 16>
| 17> %pal nprocs 4
| 18> end
| 19>
| 20> %scf
| 21>   MaxIter 150
| 22> end
| 23>
| 24>
| 25>                          ****END OF INPUT****

CARTESIAN COORDINATES (ANGSTROEM)
---------------------------------
  C     -0.870960    0.248040   -2.662800
  C     -0.477490    0.608190   -4.101050
  H      0.206770    1.458300   -4.118750
  H     -1.368440    0.929420   -4.647850
  C      0.184670   -0.506640   -4.916760
  O     -0.158690   -1.701090   -4.657980
  F      1.055940   -0.174410   -5.740370
  H     -1.540560   -0.586460   -2.674550
  H     -1.353390    1.086000   -2.204550
  H      0.006600   -0.006620   -2.106090

 Total Charge           Charge          ....    0
 Multiplicity           Mult            ....    1
 Number of Electrons    NEL             ....   40
 Basis Dimension        Dim             ....  236

ORBITAL ENERGIES
----------------

  NO   OCC          E(Eh)            E(eV)
   0   2.0000     -24.358317      -662.8235
   1   2.0000     -18.775664      -510.9118
   2   2.0000     -10.076608      -274.1984
   3   2.0000      -9.937182      -270.4045
   4   2.0000      -9.905686      -269.5474
   5   2.0000      -1.217593       -33.1324
   6   2.0000      -0.930925       -25.3318
   7   2.0000      -0.718963       -19.5640
   8   2.0000      -0.622451       -16.9378
   9   2.0000      -0.572818       -15.5872
  10   2.0000      -0.489432       -13.3181
  11   2.0000      -0.474150       -12.9023
  12   2.0000      -0.446057       -12.1378
  13   2.0000      -0.413564       -11.2536
  14   2.0000      -0.378896       -10.3103
  15   2.0000      -0.347491        -9.4557
  16   2.0000      -0.329602        -8.9689
  17   2.0000      -0.325941        -8.8693
  18   2.0000      -0.302240        -8.2244
  19   2.0000      -0.239247        -6.5102
  20   0.0000      -0.065377        -1.7790
  21   0.0000      -0.015889        -0.4324
  22   0.0000       0.011327         0.3082
  23   0.0000       0.024830         0.6757
  24   0.0000       0.032535         0.8853

MULLIKEN ATOMIC CHARGES
-----------------------
   0 C :   -1.068894
   1 C :   -0.183202
   2 H :    0.258772
   3 H :    0.245785
   4 C :    0.526458
   5 O :   -0.494058
   6 F :   -0.206752
   7 H :    0.285956
   8 H :    0.325716
   9 H :    0.310219
Sum of atomic charges:   -0.0000000

LOEWDIN ATOMIC CHARGES
----------------------
   0 C :   -0.080557
   1 C :   -0.155177
   2 H :    0.104952
   3 H :    0.117673
   4 C :   -0.505790
   5 O :    0.083135
   6 F :    0.233598
   7 H :    0.066925
   8 H :    0.064783
   9 H :    0.070458

  Mayer bond orders larger than 0.100000
B(  0-C ,  1-C ) :   0.6297 B(  0-C ,  7-H ) :   0.9940 B(  0-C ,  8-H ) :   0.9331
B(  0-C ,  9-H ) :   0.9426 B(  1-C ,  2-H ) :   0.9601 B(  1-C ,  3-H ) :   0.9228
B(  1-C ,  4-C ) :   0.9418 B(  4-C ,  5-O ) :   1.7039 B(  4-C ,  6-F ) :   1.0106

Dispersion correction           -0.012792130
FINAL SINGLE POINT ENERGY      -292.451518288544

DIPOLE MOMENT
-------------
                                X             Y             Z
Electronic contribution:      4.64973      -2.87217      -7.12564
Nuclear contribution   :     -4.75269       4.00281       7.35060
                        -----------------------------------------
Total Dipole Moment    :     -0.10296       1.13064       0.22496
                        -----------------------------------------
Magnitude (a.u.)       :      1.15739
Magnitude (Debye)      :      2.94185

Rotational constants in cm-1:     0.323805     0.124913     0.096140
Rotational constants in MHz :  9707.430323  3744.789513  2882.191141

                             ****ORCA TERMINATED NORMALLY****
TOTAL RUN TIME: 0 days 0 hours 0 minutes 12 seconds 720 msec
