                         Program Version 5.0.0 -  RELEASE  -
|  1> !BLYP D3BJ RIJCOSX def2-TZVPD def2/J TightSCF
|  2> *xyz 0 1
|  3> C          2.48645       -2.67712       -2.56345
|  4> C          3.03764       -2.36672       -3.92351
|  5> N          2.28036       -2.45441       -4.96769
|  6> C          4.32174       -2.01793       -4.01664
|  7> H          4.87994       -1.91167       -3.17382
|  8> H          4.71015       -1.67088       -4.88356
|  9> H          1.27042       -2.41265       -4.86614
| 10> H          2.58183       -2.05528       -5.84688
| 11> C          2.49799       -1.46946       -1.61030
| 12> H          1.47259       -3.05153       -2.69437
| 13> H          3.08320       -3.49064       -2.14147
| 14> H          1.91240       -0.67831       -2.02991
| 15> H          3.50450       -1.13364       -1.47227
| 16> H          2.08509       -1.75655       -0.66585
| 17> *
| 18>
| 19> %MaxCore 64000
| 20>
| 21> %pal nprocs 4
| 22> end
| 23>
| 24> %scf
| 25>   MaxIter 150
| 26> end
| 27>
| 28>
| 29>                          ****END OF INPUT****

CARTESIAN COORDINATES (ANGSTROEM)
---------------------------------
  C      2.486450   -2.677120   -2.563450
  C      3.037640   -2.366720   -3.923510
  N      2.280360   -2.454410   -4.967690
  C      4.321740   -2.017930   -4.016640
  H      4.879940   -1.911670   -3.173820
  H      4.710150   -1.670880   -4.883560
  H      1.270420   -2.412650   -4.866140
  H      2.581830   -2.055280   -5.846880
  C      2.497990   -1.469460   -1.610300
  H      1.472590   -3.051530   -2.694370
  H      3.083200   -3.490640   -2.141470
  H      1.912400   -0.678310   -2.029910
  H      3.504500   -1.133640   -1.472270
  H      2.085090   -1.756550   -0.665850

 Total Charge           Charge          ....    0
 Multiplicity           Mult            ....    1
 Number of Electrons    NEL             ....   40
 Basis Dimension        Dim             ....  266

ORBITAL ENERGIES
----------------

  NO   OCC          E(Eh)            E(eV)
   0   2.0000     -14.011694      -381.2776
   1   2.0000      -9.920890      -269.9611
   2   2.0000      -9.903807      -269.4963
   3   2.0000      -9.888503      -269.0798
   4   2.0000      -9.836058      -267.6527
   5   2.0000      -0.853247       -23.2180
   6   2.0000      -0.701374       -19.0854
   7   2.0000      -0.634607       -17.2685
   8   2.0000      -0.572553       -15.5799
   9   2.0000      -0.511252       -13.9119
  10   2.0000      -0.466704       -12.6997
  11   2.0000      -0.426961       -11.6182
  12   2.0000      -0.393620       -10.7109
  13   2.0000      -0.359375        -9.7791
  14   2.0000      -0.345620        -9.4048
  15   2.0000      -0.331395        -9.0177
  16   2.0000      -0.307639        -8.3713
  17   2.0000      -0.292929        -7.9710
  18   2.0000      -0.288576        -7.8526
  19   2.0000      -0.153683        -4.1819
  20   0.0000      -0.015792        -0.4297
  21   0.0000       0.001424         0.0388
  22   0.0000       0.018345         0.4992
  23   0.0000       0.023026         0.6266
  24   0.0000       0.035129         0.9559

MULLIKEN ATOMIC CHARGES
-----------------------
   0 C :   -0.331770
   1 C :    0.724079
   2 N :   -0.296645
   3 C :   -1.274272
   4 H :    0.296428
   5 H :    0.296975
   6 H :    0.173331
   7 H :    0.153632
   8 C :   -1.140481
   9 H :    0.236571
  10 H :    0.225767
  11 H :    0.317678
  12 H :    0.311224
  13 H :    0.307482
Sum of atomic charges:   -0.0000000

LOEWDIN ATOMIC CHARGES
----------------------
   0 C :   -0.192528
   1 C :   -0.502216
   2 N :    0.115811
   3 C :    0.026448
   4 H :    0.017102
   5 H :    0.013136
   6 H :    0.103715
   7 H :    0.109075
   8 C :   -0.082938
   9 H :    0.097409
  10 H :    0.112016
  11 H :    0.066447
  12 H :    0.057927
  13 H :    0.058593

  Mayer bond orders larger than 0.100000
B(  0-C ,  1-C ) :   0.6632 B(  0-C ,  8-C ) :   0.5371 B(  0-C ,  9-H ) :   1.0546
B(  0-C , 10-H ) :   0.9508 B(  1-C ,  2-N ) :   1.0768 B(  1-C ,  3-C ) :   1.1701
B(  1-C ,  9-H ) :  -0.1187 B(  2-N ,  3-C ) :   0.1141 B(  2-N ,  6-H ) :   0.9830
B(  2-N ,  7-H ) :   0.9806 B(  3-C ,  4-H ) :   0.9315 B(  3-C ,  5-H ) :   1.0383
B(  8-C , 11-H ) :   0.9536 B(  8-C , 12-H ) :   0.9693 B(  8-C , 13-H ) :   0.9579

Dispersion correction           -0.021504495
FINAL SINGLE POINT ENERGY      -212.549834789104

DIPOLE MOMENT
-------------
                                X             Y             Z
Electronic contribution:     -0.23909      -1.20651      -2.97970
Nuclear contribution   :     -0.52463       1.37972       2.79217
                        -----------------------------------------
Total Dipole Moment    :     -0.76372       0.17321      -0.18753
                        -----------------------------------------
Magnitude (a.u.)       :      0.80526
Magnitude (Debye)      :      2.04680

Rotational constants in cm-1:     0.281086     0.127387     0.100311
Rotational constants in MHz :  8426.743103  3818.969834  3007.238026

                             ****ORCA TERMINATED NORMALLY****
TOTAL RUN TIME: 0 days 0 hours 0 minutes 14 seconds 638 msec
