                         Program Version 5.0.0 -  RELEASE  -
|  1> !BLYP D3BJ RIJCOSX def2-TZVPD def2/J TightSCF xyzfile
|  2>
|  3> *xyzfile 0 1 D1.xyz
|  4>
|  5> %MaxCore 64000
|  6>
|  7> %pal nprocs 4
|  8> end
|  9>
| 10> %scf
| 11>   MaxIter 150
| 12> end
| 13>
| 14>
| 15>                          ****END OF INPUT****

CARTESIAN COORDINATES (ANGSTROEM)
---------------------------------
  C      2.486452   -2.677121   -2.563447
  C     -0.870963    0.248043   -2.662804
  C     -0.477492    0.608191   -4.101052
  H      0.206773    1.458299   -4.118748
  H     -1.368442    0.929419   -4.647855
  C      0.184673   -0.506640   -4.916760
  C      3.037640   -2.366715   -3.923509
  C      2.280360   -2.454408   -4.967692
  N      4.321736   -2.017932   -4.016641
  H      4.879940   -1.911668   -3.173823
  H      4.710148   -1.670882   -4.883561
  H      1.270423   -2.412650   -4.866143
  H      2.581829   -2.055282   -5.846878
  F     -0.158685   -1.701088   -4.657981
  O      1.055938   -0.174410   -5.740373
  C      2.497991   -1.469464   -1.610303
  C      1.582841   -0.321986   -2.042619
  H      2.193083   -1.833912   -0.625420
  H      3.523356   -1.103982   -1.490392
  C      0.100160   -0.673551   -1.915815
  H      1.822311   -0.040361   -3.072834
  H      1.813180    0.557019   -1.433266
  H     -0.063284   -1.679120   -2.301112
  H     -0.168820   -0.691680   -0.853831
  H     -1.001048    1.181040   -2.104071
  H     -1.844645   -0.246592   -2.663281
  H      1.472592   -3.051527   -2.694366
  H      3.083201   -3.490638   -2.141472

 Total Charge           Charge          ....    0
 Multiplicity           Mult            ....    1
 Number of Electrons    NEL             ....   94
 Basis Dimension        Dim             ....  594

ORBITAL ENERGIES
----------------

  NO   OCC          E(Eh)            E(eV)
   0   2.0000     -24.349621      -662.5869
   1   2.0000     -18.774773      -510.8875
   2   2.0000     -13.996058      -380.8521
   3   2.0000     -10.072444      -274.0851
   4   2.0000      -9.931566      -270.2517
   5   2.0000      -9.916762      -269.8488
   6   2.0000      -9.905952      -269.5547
   7   2.0000      -9.905460      -269.5413
   8   2.0000      -9.902757      -269.4677
   9   2.0000      -9.901596      -269.4361
  10   2.0000      -9.897028      -269.3118
  11   2.0000      -9.813497      -267.0388
  12   2.0000      -1.206645       -32.8345
  13   2.0000      -0.944110       -25.6905
  14   2.0000      -0.827016       -22.5043
  15   2.0000      -0.744284       -20.2530
  16   2.0000      -0.712047       -19.3758
  17   2.0000      -0.666962       -18.1490
  18   2.0000      -0.645219       -17.5573
  19   2.0000      -0.604613       -16.4524
  20   2.0000      -0.587197       -15.9785
  21   2.0000      -0.550042       -14.9674
  22   2.0000      -0.517017       -14.0688
  23   2.0000      -0.507549       -13.8111
  24   2.0000      -0.483812       -13.1652
  25   2.0000      -0.475093       -12.9279
  26   2.0000      -0.453850       -12.3499
  27   2.0000      -0.434073       -11.8117
  28   2.0000      -0.425044       -11.5660
  29   2.0000      -0.415376       -11.3029
  30   2.0000      -0.404506       -11.0072
  31   2.0000      -0.390232       -10.6187
  32   2.0000      -0.379011       -10.3134
  33   2.0000      -0.358299        -9.7498
  34   2.0000      -0.354706        -9.6520
  35   2.0000      -0.339661        -9.2427
  36   2.0000      -0.328220        -8.9313
  37   2.0000      -0.325837        -8.8665
  38   2.0000      -0.310632        -8.4527
  39   2.0000      -0.305427        -8.3111
  40   2.0000      -0.295643        -8.0449
  41   2.0000      -0.289738        -7.8842
  42   2.0000      -0.276678        -7.5288
  43   2.0000      -0.269094        -7.3224
  44   2.0000      -0.266705        -7.2574
  45   2.0000      -0.237248        -6.4559
  46   2.0000      -0.147419        -4.0115
  47   0.0000      -0.062448        -1.6993
  48   0.0000      -0.017171        -0.4673
  49   0.0000      -0.008731        -0.2376
  50   0.0000       0.002963         0.0806
  51   0.0000       0.007104         0.1933

MULLIKEN ATOMIC CHARGES
-----------------------
   0 C :   -0.611286
   1 C :   -0.509672
   2 C :   -0.464684
   3 H :    0.231173
   4 H :    0.299969
   5 C :    0.591863
   6 C :    0.420480
   7 C :   -1.109828
   8 N :   -0.377401
   9 H :    0.125386
  10 H :    0.128768
  11 H :    0.670812
  12 H :    0.237648
  13 F :   -0.306680
  14 O :   -0.542029
  15 C :   -0.528758
  16 C :   -0.382390
  17 H :    0.259042
  18 H :    0.287268
  19 C :   -0.506913
  20 H :    0.279109
  21 H :    0.259852
  22 H :    0.212506
  23 H :    0.352755
  24 H :    0.252101
  25 H :    0.269555
  26 H :    0.145496
  27 H :    0.315857
Sum of atomic charges:   -0.0000000

LOEWDIN ATOMIC CHARGES
----------------------
   0 C :   -0.137535
   1 C :   -0.187409
   2 C :   -0.094373
   3 H :    0.119723
   4 H :    0.122215
   5 C :   -0.494977
   6 C :   -0.468256
   7 C :    0.014106
   8 N :    0.123597
   9 H :    0.094152
  10 H :    0.105051
  11 H :   -0.003034
  12 H :    0.035097
  13 F :    0.178673
  14 O :    0.111437
  15 C :   -0.188280
  16 C :   -0.188773
  17 H :    0.106548
  18 H :    0.097967
  19 C :   -0.202013
  20 H :    0.103190
  21 H :    0.114000
  22 H :    0.091321
  23 H :    0.115272
  24 H :    0.109376
  25 H :    0.106249
  26 H :    0.102538
  27 H :    0.114139

  Mayer bond orders larger than 0.100000
B(  0-C ,  6-C ) :   0.6776 B(  0-C ,  8-N ) :   0.1246 B(  0-C , 15-C ) :   0.8129
B(  0-C , 16-C ) :  -0.1092 B(  0-C , 26-H ) :   1.0264 B(  0-C , 27-H ) :   0.9006
B(  1-C ,  2-C ) :   0.7681 B(  1-C , 19-C ) :   0.8992 B(  1-C , 24-H ) :   0.9638
B(  1-C , 25-H ) :   0.9625 B(  2-C ,  3-H ) :   1.0338 B(  2-C ,  4-H ) :   0.8916
B(  2-C ,  5-C ) :   0.8613 B(  2-C , 16-C ) :   0.1120 B(  5-C , 13-F ) :   0.9445
B(  5-C , 14-O ) :   1.6281 B(  6-C ,  7-C ) :   1.4746 B(  6-C ,  8-N ) :   0.8405
B(  6-C , 11-H ) :  -0.2133 B(  6-C , 12-H ) :  -0.1325 B(  7-C , 11-H ) :   0.6200
B(  7-C , 12-H ) :   1.1534 B(  8-N ,  9-H ) :   1.0536 B(  8-N , 10-H ) :   1.0058
B( 15-C , 16-C ) :   0.9253 B( 15-C , 17-H ) :   0.9493 B( 15-C , 18-H ) :   0.8683
B( 15-C , 19-C ) :   0.2421 B( 16-C , 19-C ) :   0.3522 B( 16-C , 20-H ) :   0.9182
B( 16-C , 21-H ) :   0.9556 B( 19-C , 22-H ) :   1.0203 B( 19-C , 23-H ) :   0.8505

Dispersion correction           -0.062651078
FINAL SINGLE POINT ENERGY      -582.397728993175

DIPOLE MOMENT
-------------
                                X             Y             Z
Electronic contribution:     -3.67271      -1.65229     -10.28973
Nuclear contribution   :      3.32973       2.37270      11.37738
                        -----------------------------------------
Total Dipole Moment    :     -0.34298       0.72041       1.08765
                        -----------------------------------------
Magnitude (a.u.)       :      1.34893
Magnitude (Debye)      :      3.42870

Rotational constants in cm-1:     0.040902     0.025807     0.019036
Rotational constants in MHz :  1226.202138   773.670450   570.681201

                             ****ORCA TERMINATED NORMALLY****
TOTAL RUN TIME: 0 days 0 hours 1 minutes 28 seconds 58 msec
