                         Program Version 5.0.0 -  RELEASE  -
|  1> !BLYP D3BJ RIJCOSX def2-TZVPD def2/J TightSCF xyzfile
|  2>
|  3> *xyzfile 0 1 D2.xyz
|  4>
|  5> %MaxCore 64000
|  6>
|  7> %pal nprocs 4
|  8> end
|  9>
| 10> %scf
| 11>   MaxIter 150
| 12> end
| 13>
| 14>
| 15>                          ****END OF INPUT****

CARTESIAN COORDINATES (ANGSTROEM)
---------------------------------
  C      2.486452   -2.677121   -2.563447
  C     -0.870963    0.248043   -2.662804
  C     -0.477492    0.608191   -4.101052
  H      0.206773    1.458299   -4.118748
  H     -1.368442    0.929419   -4.647855
  C      0.184673   -0.506640   -4.916760
  C      3.037640   -2.366715   -3.923509
  N      2.280360   -2.454408   -4.967692
  C      4.321736   -2.017932   -4.016641
  H      4.879940   -1.911668   -3.173823
  H      4.710148   -1.670882   -4.883561
  H      1.270423   -2.412650   -4.866143
  H      2.581829   -2.055282   -5.846878
  F     -0.158685   -1.701088   -4.657981
  O      1.055938   -0.174410   -5.740373
  C      2.497991   -1.469464   -1.610303
  C      1.582841   -0.321986   -2.042619
  H      2.193083   -1.833912   -0.625420
  H      3.523356   -1.103982   -1.490392
  C      0.100160   -0.673551   -1.915815
  H      1.822311   -0.040361   -3.072834
  H      1.813180    0.557019   -1.433266
  H     -0.063284   -1.679120   -2.301112
  H     -0.168820   -0.691680   -0.853831
  H     -1.001048    1.181040   -2.104071
  H     -1.844645   -0.246592   -2.663281
  H      1.472592   -3.051527   -2.694366
  H      3.083201   -3.490638   -2.141472

 Total Charge           Charge          ....    0
 Multiplicity           Mult            ....    1
 Number of Electrons    NEL             ....   94
 Basis Dimension        Dim             ....  594

ORBITAL ENERGIES
----------------

  NO   OCC          E(Eh)            E(eV)
   0   2.0000     -24.377478      -663.3449
   1   2.0000     -18.794574      -511.4264
   2   2.0000     -13.984371      -380.5341
   3   2.0000     -10.091301      -274.5982
   4   2.0000      -9.943230      -270.5691
   5   2.0000      -9.924286      -270.0535
   6   2.0000      -9.910533      -269.6793
   7   2.0000      -9.908549      -269.6253
   8   2.0000      -9.903748      -269.4947
   9   2.0000      -9.900223      -269.3988
  10   2.0000      -9.897890      -269.3353
  11   2.0000      -9.823110      -267.3004
  12   2.0000      -1.233230       -33.5579
  13   2.0000      -0.963808       -26.2265
  14   2.0000      -0.836197       -22.7541
  15   2.0000      -0.752070       -20.4649
  16   2.0000      -0.714530       -19.4434
  17   2.0000      -0.676639       -18.4123
  18   2.0000      -0.634693       -17.2709
  19   2.0000      -0.618705       -16.8358
  20   2.0000      -0.596345       -16.2274
  21   2.0000      -0.558936       -15.2094
  22   2.0000      -0.526696       -14.3321
  23   2.0000      -0.520852       -14.1731
  24   2.0000      -0.501792       -13.6545
  25   2.0000      -0.479488       -13.0475
  26   2.0000      -0.453467       -12.3395
  27   2.0000      -0.441823       -12.0226
  28   2.0000      -0.427397       -11.6301
  29   2.0000      -0.421415       -11.4673
  30   2.0000      -0.417080       -11.3493
  31   2.0000      -0.392143       -10.6708
  32   2.0000      -0.376825       -10.2539
  33   2.0000      -0.368285       -10.0215
  34   2.0000      -0.360665        -9.8142
  35   2.0000      -0.344451        -9.3730
  36   2.0000      -0.339918        -9.2496
  37   2.0000      -0.328224        -8.9314
  38   2.0000      -0.320560        -8.7229
  39   2.0000      -0.313044        -8.5183
  40   2.0000      -0.301531        -8.2051
  41   2.0000      -0.294043        -8.0013
  42   2.0000      -0.281434        -7.6582
  43   2.0000      -0.277883        -7.5616
  44   2.0000      -0.271911        -7.3991
  45   2.0000      -0.253937        -6.9100
  46   2.0000      -0.138587        -3.7712
  47   0.0000      -0.080495        -2.1904
  48   0.0000      -0.023427        -0.6375
  49   0.0000      -0.002149        -0.0585
  50   0.0000       0.001037         0.0282
  51   0.0000       0.004580         0.1246

MULLIKEN ATOMIC CHARGES
-----------------------
   0 C :   -0.473568
   1 C :   -0.525268
   2 C :   -0.451691
   3 H :    0.235743
   4 H :    0.304783
   5 C :    0.631801
   6 C :    0.528208
   7 N :   -0.439106
   8 C :   -1.357708
   9 H :    0.327552
  10 H :    0.311439
  11 H :    0.439621
  12 H :    0.129828
  13 F :   -0.348382
  14 O :   -0.541852
  15 C :   -0.474597
  16 C :   -0.583435
  17 H :    0.259011
  18 H :    0.308305
  19 C :   -0.428669
  20 H :    0.301562
  21 H :    0.271456
  22 H :    0.189927
  23 H :    0.361008
  24 H :    0.255602
  25 H :    0.275388
  26 H :    0.233820
  27 H :    0.259225
Sum of atomic charges:   -0.0000000

LOEWDIN ATOMIC CHARGES
----------------------
   0 C :   -0.137356
   1 C :   -0.186866
   2 C :   -0.093192
   3 H :    0.122226
   4 H :    0.123977
   5 C :   -0.490081
   6 C :   -0.482650
   7 N :    0.130407
   8 C :    0.029714
   9 H :    0.014393
  10 H :    0.014270
  11 H :    0.054017
  12 H :    0.110091
  13 F :    0.187804
  14 O :    0.115033
  15 C :   -0.184045
  16 C :   -0.188616
  17 H :    0.106799
  18 H :    0.104690
  19 C :   -0.204409
  20 H :    0.101605
  21 H :    0.115614
  22 H :    0.088388
  23 H :    0.116343
  24 H :    0.111128
  25 H :    0.106566
  26 H :    0.096301
  27 H :    0.117849

  Mayer bond orders larger than 0.100000
B(  0-C ,  6-C ) :   0.6131 B(  0-C , 15-C ) :   0.7733 B(  0-C , 26-H ) :   1.0083
B(  0-C , 27-H ) :   0.9099 B(  1-C ,  2-C ) :   0.7657 B(  1-C , 19-C ) :   0.8588
B(  1-C , 24-H ) :   0.9581 B(  1-C , 25-H ) :   0.9640 B(  2-C ,  3-H ) :   1.0235
B(  2-C ,  4-H ) :   0.8901 B(  2-C ,  5-C ) :   0.8752 B(  2-C , 16-C ) :   0.1098
B(  5-C , 13-F ) :   0.8142 B(  5-C , 14-O ) :   1.6624 B(  6-C ,  7-N ) :   1.0283
B(  6-C ,  8-C ) :   1.1703 B(  7-N ,  8-C ) :   0.2143 B(  7-N , 11-H ) :   0.6457
B(  7-N , 12-H ) :   0.9355 B(  8-C ,  9-H ) :   0.9687 B(  8-C , 10-H ) :   1.0108
B( 15-C , 16-C ) :   0.9470 B( 15-C , 17-H ) :   0.9224 B( 15-C , 18-H ) :   0.8954
B( 15-C , 19-C ) :   0.2154 B( 16-C , 19-C ) :   0.3252 B( 16-C , 20-H ) :   0.9453
B( 16-C , 21-H ) :   0.9388 B( 16-C , 22-H ) :  -0.1078 B( 19-C , 22-H ) :   1.0488
B( 19-C , 23-H ) :   0.8339

Dispersion correction           -0.062388789
FINAL SINGLE POINT ENERGY      -582.409594852535

DIPOLE MOMENT
-------------
                                X             Y             Z
Electronic contribution:     -5.31545      -1.80696     -10.92129
Nuclear contribution   :      3.65024       2.44123      11.52670
                        -----------------------------------------
Total Dipole Moment    :     -1.66521       0.63427       0.60542
                        -----------------------------------------
Magnitude (a.u.)       :      1.88196
Magnitude (Debye)      :      4.78355

Rotational constants in cm-1:     0.040600     0.026409     0.019262
Rotational constants in MHz :  1217.142957   791.712481   577.449390

                             ****ORCA TERMINATED NORMALLY****
TOTAL RUN TIME: 0 days 0 hours 1 minutes 7 seconds 176 msec
