                         Program Version 5.0.0 -  RELEASE  -
|  1> !BLYP D3BJ RIJCOSX def2-TZVPD def2/J TightSCF xyzfile
|  2>
|  3> *xyzfile 0 1 D3.xyz
|  4>
|  5> %MaxCore 64000
|  6>
|  7> %pal nprocs 4
|  8> end
|  9>
| 10> %scf
| 11>   MaxIter 150
| 12> end
| 13>
| 14>
| 15>                          ****END OF INPUT****

CARTESIAN COORDINATES (ANGSTROEM)
---------------------------------
  C      2.486452   -2.677121   -2.563447
  C     -0.870963    0.248043   -2.662804
  C     -0.477492    0.608191   -4.101052
  H      0.206773    1.458299   -4.118748
  H     -1.368442    0.929419   -4.647855
  C      0.184673   -0.506640   -4.916760
  C      3.037640   -2.366715   -3.923509
  C      2.280360   -2.454408   -4.967692
  N      4.321736   -2.017932   -4.016641
  H      4.879940   -1.911668   -3.173823
  H      4.710148   -1.670882   -4.883561
  H      1.270423   -2.412650   -4.866143
  H      2.581829   -2.055282   -5.846878
  O     -0.158685   -1.701088   -4.657981
  F      1.055938   -0.174410   -5.740373
  C      2.497991   -1.469464   -1.610303
  C      1.582841   -0.321986   -2.042619
  H      2.193083   -1.833912   -0.625420
  H      3.523356   -1.103982   -1.490392
  C      0.100160   -0.673551   -1.915815
  H      1.822311   -0.040361   -3.072834
  H      1.813180    0.557019   -1.433266
  H     -0.063284   -1.679120   -2.301112
  H     -0.168820   -0.691680   -0.853831
  H     -1.001048    1.181040   -2.104071
  H     -1.844645   -0.246592   -2.663281
  H      1.472592   -3.051527   -2.694366
  H      3.083201   -3.490638   -2.141472

 Total Charge           Charge          ....    0
 Multiplicity           Mult            ....    1
 Number of Electrons    NEL             ....   94
 Basis Dimension        Dim             ....  594

ORBITAL ENERGIES
----------------

  NO   OCC          E(Eh)            E(eV)
   0   2.0000     -24.356110      -662.7634
   1   2.0000     -18.773812      -510.8614
   2   2.0000     -13.994996      -380.8232
   3   2.0000     -10.076724      -274.2016
   4   2.0000      -9.933768      -270.3116
   5   2.0000      -9.914183      -269.7786
   6   2.0000      -9.903784      -269.4957
   7   2.0000      -9.899986      -269.3923
   8   2.0000      -9.899867      -269.3891
   9   2.0000      -9.897206      -269.3167
  10   2.0000      -9.892274      -269.1825
  11   2.0000      -9.806606      -266.8513
  12   2.0000      -1.216796       -33.1107
  13   2.0000      -0.939043       -25.5527
  14   2.0000      -0.825769       -22.4703
  15   2.0000      -0.739294       -20.1172
  16   2.0000      -0.709550       -19.3078
  17   2.0000      -0.665205       -18.1012
  18   2.0000      -0.643076       -17.4990
  19   2.0000      -0.606974       -16.5166
  20   2.0000      -0.583764       -15.8850
  21   2.0000      -0.546201       -14.8629
  22   2.0000      -0.513089       -13.9619
  23   2.0000      -0.500331       -13.6147
  24   2.0000      -0.486293       -13.2327
  25   2.0000      -0.465218       -12.6592
  26   2.0000      -0.459480       -12.5031
  27   2.0000      -0.449831       -12.2405
  28   2.0000      -0.422527       -11.4976
  29   2.0000      -0.414801       -11.2873
  30   2.0000      -0.400492       -10.8979
  31   2.0000      -0.388181       -10.5629
  32   2.0000      -0.380317       -10.3489
  33   2.0000      -0.353103        -9.6084
  34   2.0000      -0.347903        -9.4669
  35   2.0000      -0.341418        -9.2905
  36   2.0000      -0.330853        -9.0030
  37   2.0000      -0.319017        -8.6809
  38   2.0000      -0.312482        -8.5031
  39   2.0000      -0.306800        -8.3484
  40   2.0000      -0.290831        -7.9139
  41   2.0000      -0.284357        -7.7378
  42   2.0000      -0.274283        -7.4636
  43   2.0000      -0.268182        -7.2976
  44   2.0000      -0.265822        -7.2334
  45   2.0000      -0.218975        -5.9586
  46   2.0000      -0.146374        -3.9830
  47   0.0000      -0.066861        -1.8194
  48   0.0000      -0.015994        -0.4352
  49   0.0000      -0.007034        -0.1914
  50   0.0000       0.001643         0.0447
  51   0.0000       0.010063         0.2738

MULLIKEN ATOMIC CHARGES
-----------------------
   0 C :   -0.604045
   1 C :   -0.516222
   2 C :   -0.537693
   3 H :    0.298075
   4 H :    0.282340
   5 C :    0.628755
   6 C :    0.480937
   7 C :   -1.356013
   8 N :   -0.379845
   9 H :    0.124430
  10 H :    0.124932
  11 H :    0.861909
  12 H :    0.236642
  13 O :   -0.567492
  14 F :   -0.279237
  15 C :   -0.544855
  16 C :   -0.340718
  17 H :    0.256217
  18 H :    0.283346
  19 C :   -0.526745
  20 H :    0.211586
  21 H :    0.261597
  22 H :    0.237209
  23 H :    0.353605
  24 H :    0.258179
  25 H :    0.273456
  26 H :    0.159923
  27 H :    0.319731
Sum of atomic charges:   -0.0000000

LOEWDIN ATOMIC CHARGES
----------------------
   0 C :   -0.134222
   1 C :   -0.179267
   2 C :   -0.099473
   3 H :    0.111760
   4 H :    0.122527
   5 C :   -0.482729
   6 C :   -0.470051
   7 C :    0.011898
   8 N :    0.118387
   9 H :    0.093011
  10 H :    0.101903
  11 H :   -0.023413
  12 H :    0.033450
  13 O :    0.069052
  14 F :    0.243317
  15 C :   -0.187692
  16 C :   -0.190525
  17 H :    0.107217
  18 H :    0.096792
  19 C :   -0.200960
  20 H :    0.099896
  21 H :    0.112527
  22 H :    0.091937
  23 H :    0.115102
  24 H :    0.109695
  25 H :    0.109580
  26 H :    0.106326
  27 H :    0.113952

  Mayer bond orders larger than 0.100000
B(  0-C ,  6-C ) :   0.6698 B(  0-C ,  8-N ) :   0.1239 B(  0-C , 15-C ) :   0.8043
B(  0-C , 16-C ) :  -0.1068 B(  0-C , 26-H ) :   1.0137 B(  0-C , 27-H ) :   0.9028
B(  1-C ,  2-C ) :   0.8364 B(  1-C , 19-C ) :   0.9769 B(  1-C , 24-H ) :   0.9693
B(  1-C , 25-H ) :   0.9216 B(  2-C ,  3-H ) :   0.9521 B(  2-C ,  4-H ) :   0.9097
B(  2-C ,  5-C ) :   0.8997 B(  2-C , 16-C ) :   0.1206 B(  5-C , 13-O ) :   1.7328
B(  5-C , 14-F ) :   0.8623 B(  6-C ,  7-C ) :   1.3908 B(  6-C ,  8-N ) :   0.8386
B(  6-C , 11-H ) :  -0.2046 B(  6-C , 12-H ) :  -0.1870 B(  7-C , 11-H ) :   0.5037
B(  7-C , 12-H ) :   1.2615 B(  8-N ,  9-H ) :   1.0577 B(  8-N , 10-H ) :   1.0112
B( 11-H , 13-O ) :  -0.2322 B( 13-O , 14-F ) :   0.1143 B( 15-C , 16-C ) :   0.9554
B( 15-C , 17-H ) :   0.9458 B( 15-C , 18-H ) :   0.8714 B( 15-C , 19-C ) :   0.2315
B( 16-C , 19-C ) :   0.3702 B( 16-C , 20-H ) :   0.9316 B( 16-C , 21-H ) :   0.9571
B( 19-C , 21-H ) :  -0.1045 B( 19-C , 22-H ) :   1.0038 B( 19-C , 23-H ) :   0.8453

Dispersion correction           -0.062979504
FINAL SINGLE POINT ENERGY      -582.393136060837

DIPOLE MOMENT
-------------
                                X             Y             Z
Electronic contribution:     -1.74640       0.85083     -12.12559
Nuclear contribution   :      1.88979       0.56282      12.66056
                        -----------------------------------------
Total Dipole Moment    :      0.14339       1.41365       0.53497
                        -----------------------------------------
Magnitude (a.u.)       :      1.51827
Magnitude (Debye)      :      3.85915

Rotational constants in cm-1:     0.040271     0.025954     0.018866
Rotational constants in MHz :  1207.302496   778.083475   565.600538

                             ****ORCA TERMINATED NORMALLY****
TOTAL RUN TIME: 0 days 0 hours 1 minutes 15 seconds 210 msec
