                         Program Version 5.0.0 -  RELEASE  -
|  1> !BLYP D3BJ RIJCOSX def2-TZVPD def2/J TightSCF xyzfile
|  2>
|  3> *xyzfile 0 1 D4.xyz
|  4>
|  5> %MaxCore 64000
|  6>
|  7> %pal nprocs 4
|  8> end
|  9>
| 10> %scf
| 11>   MaxIter 150
| 12> end
| 13>
| 14>
| 15>                          ****END OF INPUT****

CARTESIAN COORDINATES (ANGSTROEM)
---------------------------------
  C      2.486452   -2.677121   -2.563447
  C     -0.870963    0.248043   -2.662804
  C     -0.477492    0.608191   -4.101052
  H      0.206773    1.458299   -4.118748
  H     -1.368442    0.929419   -4.647855
  C      0.184673   -0.506640   -4.916760
  C      3.037640   -2.366715   -3.923509
  N      2.280360   -2.454408   -4.967692
  C      4.321736   -2.017932   -4.016641
  H      4.879940   -1.911668   -3.173823
  H      4.710148   -1.670882   -4.883561
  H      1.270423   -2.412650   -4.866143
  H      2.581829   -2.055282   -5.846878
  O     -0.158685   -1.701088   -4.657981
  F      1.055938   -0.174410   -5.740373
  C      2.497991   -1.469464   -1.610303
  C      1.582841   -0.321986   -2.042619
  H      2.193083   -1.833912   -0.625420
  H      3.523356   -1.103982   -1.490392
  C      0.100160   -0.673551   -1.915815
  H      1.822311   -0.040361   -3.072834
  H      1.813180    0.557019   -1.433266
  H     -0.063284   -1.679120   -2.301112
  H     -0.168820   -0.691680   -0.853831
  H     -1.001048    1.181040   -2.104071
  H     -1.844645   -0.246592   -2.663281
  H      1.472592   -3.051527   -2.694366
  H      3.083201   -3.490638   -2.141472

 Total Charge           Charge          ....    0
 Multiplicity           Mult            ....    1
 Number of Electrons    NEL             ....   94
 Basis Dimension        Dim             ....  594

ORBITAL ENERGIES
----------------

  NO   OCC          E(Eh)            E(eV)
   0   2.0000     -24.377755      -663.3524
   1   2.0000     -18.799945      -511.5725
   2   2.0000     -13.975729      -380.2989
   3   2.0000     -10.099429      -274.8194
   4   2.0000      -9.946840      -270.6673
   5   2.0000      -9.922580      -270.0071
   6   2.0000      -9.905733      -269.5487
   7   2.0000      -9.902706      -269.4663
   8   2.0000      -9.902365      -269.4570
   9   2.0000      -9.897137      -269.3148
  10   2.0000      -9.892410      -269.1862
  11   2.0000      -9.821064      -267.2447
  12   2.0000      -1.238316       -33.6963
  13   2.0000      -0.964523       -26.2460
  14   2.0000      -0.830535       -22.6000
  15   2.0000      -0.748250       -20.3609
  16   2.0000      -0.712404       -19.3855
  17   2.0000      -0.674633       -18.3577
  18   2.0000      -0.636631       -17.3236
  19   2.0000      -0.612511       -16.6673
  20   2.0000      -0.593773       -16.1574
  21   2.0000      -0.554675       -15.0935
  22   2.0000      -0.520940       -14.1755
  23   2.0000      -0.512596       -13.9484
  24   2.0000      -0.495122       -13.4730
  25   2.0000      -0.482394       -13.1266
  26   2.0000      -0.469232       -12.7684
  27   2.0000      -0.441848       -12.0233
  28   2.0000      -0.427427       -11.6309
  29   2.0000      -0.423026       -11.5111
  30   2.0000      -0.416026       -11.3206
  31   2.0000      -0.391299       -10.6478
  32   2.0000      -0.374666       -10.1952
  33   2.0000      -0.360973        -9.8226
  34   2.0000      -0.357245        -9.7211
  35   2.0000      -0.344763        -9.3815
  36   2.0000      -0.333688        -9.0801
  37   2.0000      -0.325758        -8.8643
  38   2.0000      -0.315763        -8.5923
  39   2.0000      -0.314208        -8.5500
  40   2.0000      -0.297094        -8.0843
  41   2.0000      -0.290721        -7.9109
  42   2.0000      -0.280347        -7.6286
  43   2.0000      -0.274331        -7.4649
  44   2.0000      -0.270467        -7.3598
  45   2.0000      -0.252903        -6.8818
  46   2.0000      -0.136314        -3.7093
  47   0.0000      -0.087877        -2.3912
  48   0.0000      -0.021492        -0.5848
  49   0.0000      -0.002993        -0.0814
  50   0.0000       0.003226         0.0878
  51   0.0000       0.004889         0.1330

MULLIKEN ATOMIC CHARGES
-----------------------
   0 C :   -0.457756
   1 C :   -0.532185
   2 C :   -0.524734
   3 H :    0.301787
   4 H :    0.286874
   5 C :    0.708999
   6 C :    0.498183
   7 N :   -0.446427
   8 C :   -1.350414
   9 H :    0.329790
  10 H :    0.313818
  11 H :    0.448156
  12 H :    0.116656
  13 O :   -0.627024
  14 F :   -0.284094
  15 C :   -0.498180
  16 C :   -0.544386
  17 H :    0.257110
  18 H :    0.309110
  19 C :   -0.436887
  20 H :    0.236946
  21 H :    0.270959
  22 H :    0.214107
  23 H :    0.363612
  24 H :    0.261288
  25 H :    0.279176
  26 H :    0.240854
  27 H :    0.264660
Sum of atomic charges:   -0.0000000

LOEWDIN ATOMIC CHARGES
----------------------
   0 C :   -0.134616
   1 C :   -0.178192
   2 C :   -0.096566
   3 H :    0.115141
   4 H :    0.124938
   5 C :   -0.473177
   6 C :   -0.484621
   7 N :    0.125990
   8 C :    0.023227
   9 H :    0.012856
  10 H :    0.010531
  11 H :    0.029544
  12 H :    0.108533
  13 O :    0.076288
  14 F :    0.247928
  15 C :   -0.183557
  16 C :   -0.190094
  17 H :    0.107402
  18 H :    0.103505
  19 C :   -0.202756
  20 H :    0.098228
  21 H :    0.114195
  22 H :    0.089535
  23 H :    0.116331
  24 H :    0.111636
  25 H :    0.110134
  26 H :    0.099976
  27 H :    0.117661

  Mayer bond orders larger than 0.100000
B(  0-C ,  6-C ) :   0.6219 B(  0-C , 15-C ) :   0.7634 B(  0-C , 26-H ) :   1.0073
B(  0-C , 27-H ) :   0.9089 B(  1-C ,  2-C ) :   0.8359 B(  1-C , 19-C ) :   0.9367
B(  1-C , 24-H ) :   0.9611 B(  1-C , 25-H ) :   0.9254 B(  2-C ,  3-H ) :   0.9468
B(  2-C ,  4-H ) :   0.9051 B(  2-C ,  5-C ) :   0.9217 B(  2-C , 16-C ) :   0.1129
B(  5-C , 13-O ) :   1.5422 B(  5-C , 14-F ) :   0.8812 B(  6-C ,  7-N ) :   1.0277
B(  6-C ,  8-C ) :   1.1944 B(  7-N ,  8-C ) :   0.2112 B(  7-N , 11-H ) :   0.6262
B(  7-N , 12-H ) :   0.9521 B(  8-C ,  9-H ) :   0.9734 B(  8-C , 10-H ) :   1.0096
B( 15-C , 16-C ) :   0.9779 B( 15-C , 17-H ) :   0.9176 B( 15-C , 18-H ) :   0.8984
B( 15-C , 19-C ) :   0.2031 B( 16-C , 19-C ) :   0.3380 B( 16-C , 20-H ) :   0.9599
B( 16-C , 21-H ) :   0.9366 B( 19-C , 21-H ) :  -0.1002 B( 19-C , 22-H ) :   1.0300
B( 19-C , 23-H ) :   0.8254

Dispersion correction           -0.062712339
FINAL SINGLE POINT ENERGY      -582.411820165136

DIPOLE MOMENT
-------------
                                X             Y             Z
Electronic contribution:     -3.42867       0.74248     -12.75477
Nuclear contribution   :      2.21030       0.63135      12.80988
                        -----------------------------------------
Total Dipole Moment    :     -1.21837       1.37383       0.05511
                        -----------------------------------------
Magnitude (a.u.)       :      1.83708
Magnitude (Debye)      :      4.66949

Rotational constants in cm-1:     0.039980     0.026547     0.019089
Rotational constants in MHz :  1198.568620   795.867393   572.288555

                             ****ORCA TERMINATED NORMALLY****
TOTAL RUN TIME: 0 days 0 hours 1 minutes 7 seconds 555 msec
