                         Program Version 5.0.0 -  RELEASE  -
|  1> !PBE D3BJ RIJCOSX def2-TZVPD def2/J TightSCF
|  2> *xyz -1 1
|  3> C         -0.91495        0.61511        2.50554
|  4> C         -0.05915        1.50352        3.41058
|  5> H          0.36536        2.34431        2.86116
|  6> H         -0.69226        1.92021        4.19898
|  7> C          1.08303        0.74964        4.08571
|  8> O          2.22817        1.26348        4.01983
|  9> O          0.81003       -0.34541        4.63627
| 10> H         -0.30401        0.20228        1.73015
| 11> H         -1.69811        1.19946        2.06954
| 12> H         -1.34124       -0.17772        3.08397
| 13> *
| 14>
| 15> %MaxCore 64000
| 16>
| 17> %pal nprocs 4
| 18> end
| 19>
| 20> %scf
| 21>   MaxIter 150
| 22> end
| 23>
| 24>
| 25>                          ****END OF INPUT****

CARTESIAN COORDINATES (ANGSTROEM)
---------------------------------
  C     -0.914950    0.615110    2.505540
  C     -0.059150    1.503520    3.410580
  H      0.365360    2.344310    2.861160
  H     -0.692260    1.920210    4.198980
  C      1.083030    0.749640    4.085710
  O      2.228170    1.263480    4.019830
  O      0.810030   -0.345410    4.636270
  H     -0.304010    0.202280    1.730150
  H     -1.698110    1.199460    2.069540
  H     -1.341240   -0.177720    3.083970

 Total Charge           Charge          ....   -1
 Multiplicity           Mult            ....    1
 Number of Electrons    NEL             ....   40
 Basis Dimension        Dim             ....  236

ORBITAL ENERGIES
----------------

  NO   OCC          E(Eh)            E(eV)
   0   2.0000     -18.488993      -503.1111
   1   2.0000     -18.487994      -503.0839
   2   2.0000      -9.754435      -265.4317
   3   2.0000      -9.714716      -264.3509
   4   2.0000      -9.705836      -264.1092
   5   2.0000      -0.733549       -19.9609
   6   2.0000      -0.645530       -17.5658
   7   2.0000      -0.532902       -14.5010
   8   2.0000      -0.409944       -11.1551
   9   2.0000      -0.266520        -7.2524
  10   2.0000      -0.243469        -6.6251
  11   2.0000      -0.209475        -5.7001
  12   2.0000      -0.183346        -4.9891
  13   2.0000      -0.167590        -4.5604
  14   2.0000      -0.158399        -4.3102
  15   2.0000      -0.131674        -3.5830
  16   2.0000      -0.118231        -3.2172
  17   2.0000      -0.012929        -0.3518
  18   2.0000       0.001243         0.0338
  19   2.0000       0.017838         0.4854
  20   0.0000       0.120068         3.2672
  21   0.0000       0.146413         3.9841
  22   0.0000       0.159315         4.3352
  23   0.0000       0.168223         4.5776
  24   0.0000       0.191753         5.2179

MULLIKEN ATOMIC CHARGES
-----------------------
   0 C :   -0.826692
   1 C :    0.056300
   2 H :    0.126238
   3 H :    0.105042
   4 C :    0.241829
   5 O :   -0.669238
   6 O :   -0.663982
   7 H :    0.219951
   8 H :    0.208655
   9 H :    0.201897
Sum of atomic charges:   -1.0000000

LOEWDIN ATOMIC CHARGES
----------------------
   0 C :   -0.137560
   1 C :   -0.218534
   2 H :    0.084034
   3 H :    0.093096
   4 C :   -0.797697
   5 O :   -0.092253
   6 O :   -0.081540
   7 H :    0.059177
   8 H :    0.039346
   9 H :    0.051930

  Mayer bond orders larger than 0.100000
B(  0-C ,  1-C ) :   0.7073 B(  0-C ,  4-C ) :   0.1448 B(  0-C ,  7-H ) :   0.9760
B(  0-C ,  8-H ) :   0.9759 B(  0-C ,  9-H ) :   1.0205 B(  1-C ,  2-H ) :   1.0209
B(  1-C ,  3-H ) :   0.9343 B(  1-C ,  4-C ) :   0.9721 B(  4-C ,  5-O ) :   1.4512
B(  4-C ,  6-O ) :   1.4728

Dispersion correction           -0.006536227
FINAL SINGLE POINT ENERGY      -267.643460077724

DIPOLE MOMENT
-------------
                                X             Y             Z
Electronic contribution:      4.82555      -1.05386       3.42235
Nuclear contribution   :     -6.38408       1.63097      -4.40540
                        -----------------------------------------
Total Dipole Moment    :     -1.55853       0.57711      -0.98305
                        -----------------------------------------
Magnitude (a.u.)       :      1.93092
Magnitude (Debye)      :      4.90801

Rotational constants in cm-1:     0.319732     0.134414     0.104753
Rotational constants in MHz :  9585.336550  4029.633034  3140.404334

                             ****ORCA TERMINATED NORMALLY****
TOTAL RUN TIME: 0 days 0 hours 0 minutes 16 seconds 529 msec
