                         Program Version 5.0.0 -  RELEASE  -
|  1> !PBE D3BJ RIJCOSX def2-TZVPD def2/J TightSCF
|  2> *xyz 1 1
|  3> C          4.60295       -2.44010        2.63478
|  4> C          3.86085       -1.59157        3.62289
|  5> N          2.75650       -2.04616        4.16633
|  6> N          4.25433       -0.36291        3.86046
|  7> H          3.56526        0.31099        4.16898
|  8> H          5.05429       -0.01606        3.33784
|  9> H          2.43970       -2.97389        3.89740
| 10> H          2.06687       -1.41253        4.54981
| 11> C          3.74469       -2.58056        1.36188
| 12> H          5.56156       -1.97135        2.40708
| 13> H          4.81050       -3.42255        3.06310
| 14> H          4.26314       -3.18477        0.64702
| 15> H          3.56325       -1.61180        0.94535
| 16> H          2.81197       -3.04259        1.60980
| 17> *
| 18>
| 19> %MaxCore 64000
| 20>
| 21> %pal nprocs 4
| 22> end
| 23>
| 24> %scf
| 25>   MaxIter 150
| 26> end
| 27>
| 28>
| 29>                          ****END OF INPUT****

CARTESIAN COORDINATES (ANGSTROEM)
---------------------------------
  C      4.602950   -2.440100    2.634780
  C      3.860850   -1.591570    3.622890
  N      2.756500   -2.046160    4.166330
  N      4.254330   -0.362910    3.860460
  H      3.565260    0.310990    4.168980
  H      5.054290   -0.016060    3.337840
  H      2.439700   -2.973890    3.897400
  H      2.066870   -1.412530    4.549810
  C      3.744690   -2.580560    1.361880
  H      5.561560   -1.971350    2.407080
  H      4.810500   -3.422550    3.063100
  H      4.263140   -3.184770    0.647020
  H      3.563250   -1.611800    0.945350
  H      2.811970   -3.042590    1.609800

 Total Charge           Charge          ....    1
 Multiplicity           Mult            ....    1
 Number of Electrons    NEL             ....   40
 Basis Dimension        Dim             ....  266

ORBITAL ENERGIES
----------------

  NO   OCC          E(Eh)            E(eV)
   0   2.0000     -14.229523      -387.2050
   1   2.0000     -14.228609      -387.1801
   2   2.0000     -10.194596      -277.4091
   3   2.0000     -10.083879      -274.3963
   4   2.0000     -10.041917      -273.2544
   5   2.0000      -1.125739       -30.6329
   6   2.0000      -1.034566       -28.1520
   7   2.0000      -0.901052       -24.5189
   8   2.0000      -0.800312       -21.7776
   9   2.0000      -0.759053       -20.6549
  10   2.0000      -0.720735       -19.6122
  11   2.0000      -0.699943       -19.0464
  12   2.0000      -0.649852       -17.6834
  13   2.0000      -0.616077       -16.7643
  14   2.0000      -0.579205       -15.7610
  15   2.0000      -0.556920       -15.1546
  16   2.0000      -0.509724       -13.8703
  17   2.0000      -0.501224       -13.6390
  18   2.0000      -0.489086       -13.3087
  19   2.0000      -0.457848       -12.4587
  20   0.0000      -0.251489        -6.8434
  21   0.0000      -0.190068        -5.1720
  22   0.0000      -0.148219        -4.0333
  23   0.0000      -0.144748        -3.9388
  24   0.0000      -0.117115        -3.1869

MULLIKEN ATOMIC CHARGES
-----------------------
   0 C :   -0.153673
   1 C :    0.414205
   2 N :   -0.198379
   3 N :   -0.154465
   4 H :    0.201393
   5 H :    0.215911
   6 H :    0.218951
   7 H :    0.177959
   8 C :   -0.864581
   9 H :    0.172905
  10 H :    0.188114
  11 H :    0.210265
  12 H :    0.285802
  13 H :    0.285594
Sum of atomic charges:    1.0000000

LOEWDIN ATOMIC CHARGES
----------------------
   0 C :   -0.140361
   1 C :   -0.388542
   2 N :    0.239550
   3 N :    0.241910
   4 H :    0.146151
   5 H :    0.148421
   6 H :    0.147809
   7 H :    0.148151
   8 C :   -0.049275
   9 H :    0.125378
  10 H :    0.135100
  11 H :    0.088378
  12 H :    0.085085
  13 H :    0.072244

  Mayer bond orders larger than 0.100000
B(  0-C ,  1-C ) :   0.9625 B(  0-C ,  8-C ) :   0.7537 B(  0-C ,  9-H ) :   0.9604
B(  0-C , 10-H ) :   0.9591 B(  1-C ,  2-N ) :   1.3090 B(  1-C ,  3-N ) :   1.3401
B(  1-C ,  8-C ) :   0.1445 B(  2-N ,  3-N ) :   0.1060 B(  2-N ,  6-H ) :   0.9251
B(  2-N ,  7-H ) :   0.9871 B(  3-N ,  4-H ) :   0.9500 B(  3-N ,  5-H ) :   0.9358
B(  8-C , 11-H ) :   1.0014 B(  8-C , 12-H ) :   0.9715 B(  8-C , 13-H ) :   0.9049

Dispersion correction           -0.010285024
FINAL SINGLE POINT ENERGY      -228.825401141146

DIPOLE MOMENT
-------------
                                X             Y             Z
Electronic contribution:     -0.23757       1.78536       3.72960
Nuclear contribution   :     -0.22400      -1.16268      -3.30447
                        -----------------------------------------
Total Dipole Moment    :     -0.46157       0.62268       0.42513
                        -----------------------------------------
Magnitude (a.u.)       :      0.88404
Magnitude (Debye)      :      2.24704

Rotational constants in cm-1:     0.258103     0.130571     0.102508
Rotational constants in MHz :  7737.732062  3914.431392  3073.119154

                             ****ORCA TERMINATED NORMALLY****
TOTAL RUN TIME: 0 days 0 hours 0 minutes 16 seconds 115 msec
