                         Program Version 5.0.0 -  RELEASE  -
|  1> !PBE D3BJ RIJCOSX def2-TZVPD def2/J TightSCF xyzfile
|  2>
|  3> *xyzfile 0 1 B.xyz
|  4>
|  5> %MaxCore 64000
|  6>
|  7> %pal nprocs 4
|  8> end
|  9>
| 10> %scf
| 11>   MaxIter 150
| 12> end
| 13>
| 14>
| 15>                          ****END OF INPUT****

CARTESIAN COORDINATES (ANGSTROEM)
---------------------------------
  C      4.602954   -2.440100    2.634780
  C     -0.914947    0.615112    2.505538
  C     -0.059146    1.503524    3.410578
  H      0.365364    2.344315    2.861161
  H     -0.692261    1.920207    4.198985
  C      1.083027    0.749640    4.085705
  C      3.860851   -1.591565    3.622893
  N      2.756502   -2.046159    4.166333
  N      4.254325   -0.362905    3.860455
  H      3.565256    0.310994    4.168983
  H      5.054292   -0.016059    3.337838
  H      2.439696   -2.973894    3.897395
  H      2.066869   -1.412532    4.549813
  O      2.228167    1.263475    4.019826
  O      0.810034   -0.345411    4.636269
  C      3.744685   -2.580557    1.361882
  C      0.772139    0.636882    0.562129
  C     -0.130740   -0.193985    1.470763
  H     -0.840563   -0.760165    0.856377
  H      0.466691   -0.938942    2.006959
  H     -1.647961    1.245963    1.991076
  H     -1.478180   -0.081046    3.130424
  C      3.203721   -1.256004    0.826211
  H      2.898939   -3.239289    1.583074
  H      4.334962   -3.095523    0.600188
  C      2.107815   -1.442385   -0.216865
  H      2.786775   -0.672760    1.650711
  H      4.021008   -0.652993    0.414046
  C      1.390662   -0.145912   -0.602422
  H      1.372179   -2.152184    0.176151
  H      2.523302   -1.906787   -1.117115
  H      1.561361    1.100094    1.161831
  H      0.195516    1.468325    0.142758
  H      0.602893   -0.398214   -1.319716
  H      2.087247    0.508272   -1.137335
  H      5.561557   -1.971347    2.407084
  H      4.810498   -3.422552    3.063099

 Total Charge           Charge          ....    0
 Multiplicity           Mult            ....    1
 Number of Electrons    NEL             ....  118
 Basis Dimension        Dim             ....  759

ORBITAL ENERGIES
----------------

  NO   OCC          E(Eh)            E(eV)
   0   2.0000     -18.677298      -508.2351
   1   2.0000     -18.675519      -508.1867
   2   2.0000     -14.025102      -381.6424
   3   2.0000     -14.025099      -381.6423
   4   2.0000     -10.007795      -272.3259
   5   2.0000      -9.936501      -270.3859
   6   2.0000      -9.930756      -270.2296
   7   2.0000      -9.913506      -269.7602
   8   2.0000      -9.890575      -269.1362
   9   2.0000      -9.882206      -268.9085
  10   2.0000      -9.874569      -268.7007
  11   2.0000      -9.864220      -268.4191
  12   2.0000      -9.861007      -268.3316
  13   2.0000      -9.857093      -268.2251
  14   2.0000      -9.848114      -267.9808
  15   2.0000      -0.936742       -25.4901
  16   2.0000      -0.921935       -25.0871
  17   2.0000      -0.846526       -23.0351
  18   2.0000      -0.831332       -22.6217
  19   2.0000      -0.763468       -20.7750
  20   2.0000      -0.730666       -19.8824
  21   2.0000      -0.702259       -19.1094
  22   2.0000      -0.665176       -18.1004
  23   2.0000      -0.629752       -17.1364
  24   2.0000      -0.597680       -16.2637
  25   2.0000      -0.581184       -15.8148
  26   2.0000      -0.560205       -15.2440
  27   2.0000      -0.528421       -14.3791
  28   2.0000      -0.522817       -14.2266
  29   2.0000      -0.515504       -14.0276
  30   2.0000      -0.489581       -13.3222
  31   2.0000      -0.462570       -12.5872
  32   2.0000      -0.458214       -12.4686
  33   2.0000      -0.435647       -11.8546
  34   2.0000      -0.422979       -11.5098
  35   2.0000      -0.413686       -11.2570
  36   2.0000      -0.407497       -11.0886
  37   2.0000      -0.396198       -10.7811
  38   2.0000      -0.384701       -10.4682
  39   2.0000      -0.373307       -10.1582
  40   2.0000      -0.365352        -9.9417
  41   2.0000      -0.361031        -9.8241
  42   2.0000      -0.353841        -9.6285
  43   2.0000      -0.349042        -9.4979
  44   2.0000      -0.332148        -9.0382
  45   2.0000      -0.329090        -8.9550
  46   2.0000      -0.324369        -8.8265
  47   2.0000      -0.318173        -8.6579
  48   2.0000      -0.308545        -8.3959
  49   2.0000      -0.293856        -7.9962
  50   2.0000      -0.290083        -7.8936
  51   2.0000      -0.283021        -7.7014
  52   2.0000      -0.269595        -7.3361
  53   2.0000      -0.265459        -7.2235
  54   2.0000      -0.263515        -7.1706
  55   2.0000      -0.255934        -6.9643
  56   2.0000      -0.200573        -5.4579
  57   2.0000      -0.185522        -5.0483
  58   2.0000      -0.175181        -4.7669
  59   0.0000      -0.068866        -1.8739
  60   0.0000      -0.034466        -0.9379
  61   0.0000      -0.017636        -0.4799
  62   0.0000      -0.006401        -0.1742
  63   0.0000       0.001585         0.0431

MULLIKEN ATOMIC CHARGES
-----------------------
   0 C :   -0.204707
   1 C :   -0.325275
   2 C :   -0.226412
   3 H :    0.180717
   4 H :    0.138975
   5 C :    0.573498
   6 C :   -0.107818
   7 N :   -0.043727
   8 N :   -0.061549
   9 H :    0.258585
  10 H :    0.187713
  11 H :    0.199974
  12 H :    0.205041
  13 O :   -0.774663
  14 O :   -0.797172
  15 C :   -0.419964
  16 C :   -0.204509
  17 C :   -0.298945
  18 H :    0.178090
  19 H :    0.143098
  20 H :    0.113625
  21 H :    0.164283
  22 C :    0.325382
  23 H :    0.166005
  24 H :    0.146403
  25 C :   -0.401293
  26 H :   -0.208849
  27 H :    0.112311
  28 C :   -0.420882
  29 H :    0.217488
  30 H :    0.159931
  31 H :    0.241464
  32 H :    0.145628
  33 H :    0.167278
  34 H :    0.161123
  35 H :    0.178640
  36 H :    0.130513
Sum of atomic charges:    0.0000000

LOEWDIN ATOMIC CHARGES
----------------------
   0 C :   -0.115491
   1 C :   -0.206532
   2 C :   -0.130213
   3 H :    0.105638
   4 H :    0.117585
   5 C :   -0.676804
   6 C :   -0.414124
   7 N :    0.241422
   8 N :    0.227579
   9 H :    0.049083
  10 H :    0.133296
  11 H :    0.135320
  12 H :    0.048339
  13 O :   -0.024802
  14 O :   -0.020709
  15 C :   -0.189378
  16 C :   -0.213752
  17 C :   -0.214748
  18 H :    0.117057
  19 H :    0.100095
  20 H :    0.108525
  21 H :    0.108266
  22 C :   -0.212084
  23 H :    0.109984
  24 H :    0.118798
  25 C :   -0.217877
  26 H :    0.092035
  27 H :    0.129129
  28 C :   -0.209930
  29 H :    0.108552
  30 H :    0.114028
  31 H :    0.105431
  32 H :    0.117708
  33 H :    0.109227
  34 H :    0.109205
  35 H :    0.117596
  36 H :    0.122543

  Mayer bond orders larger than 0.100000
B(  0-C ,  6-C ) :   0.9445 B(  0-C , 15-C ) :   0.8454 B(  0-C , 35-H ) :   0.8991
B(  0-C , 36-H ) :   1.0028 B(  1-C ,  2-C ) :   0.9386 B(  1-C ,  5-C ) :   0.1246
B(  1-C , 16-C ) :   0.2039 B(  1-C , 17-C ) :   1.1118 B(  1-C , 19-H ) :   0.1141
B(  1-C , 20-H ) :   0.9389 B(  1-C , 21-H ) :   0.8711 B(  2-C ,  3-H ) :   0.9648
B(  2-C ,  4-H ) :   0.8673 B(  2-C ,  5-C ) :   1.0524 B(  2-C , 16-C ) :   0.1793
B(  5-C , 13-O ) :   1.2360 B(  5-C , 14-O ) :   1.2443 B(  5-C , 17-C ) :   0.1111
B(  6-C ,  7-N ) :   1.4058 B(  6-C ,  8-N ) :   1.5113 B(  6-C , 15-C ) :   0.1388
B(  6-C , 22-C ) :   0.1047 B(  7-N , 11-H ) :   0.9049 B(  7-N , 12-H ) :   0.7682
B(  8-N ,  9-H ) :   0.7766 B(  8-N , 10-H ) :   0.9038 B( 12-H , 14-O ) :   0.1586
B( 13-O , 14-O ) :   0.1623 B( 15-C , 22-C ) :   0.6883 B( 15-C , 23-H ) :   0.8664
B( 15-C , 24-H ) :   0.9703 B( 15-C , 25-C ) :   0.4771 B( 15-C , 27-H ) :  -0.1313
B( 16-C , 17-C ) :   0.5996 B( 16-C , 19-H ) :  -0.1357 B( 16-C , 22-C ) :   0.1226
B( 16-C , 26-H ) :   0.1058 B( 16-C , 28-C ) :   0.9586 B( 16-C , 31-H ) :   1.0136
B( 16-C , 32-H ) :   0.8679 B( 17-C , 18-H ) :   0.8405 B( 17-C , 19-H ) :   1.1230
B( 17-C , 25-C ) :   0.1641 B( 17-C , 28-C ) :   0.2430 B( 17-C , 29-H ) :   0.1064
B( 17-C , 31-H ) :  -0.1176 B( 22-C , 25-C ) :   0.6304 B( 22-C , 26-H ) :   1.5835
B( 22-C , 27-H ) :   0.7804 B( 22-C , 28-C ) :   0.1950 B( 23-H , 25-C ) :   0.1023
B( 25-C , 27-H ) :  -0.1170 B( 25-C , 28-C ) :   1.0762 B( 25-C , 29-H ) :   0.8540
B( 25-C , 30-H ) :   0.9477 B( 26-H , 27-H ) :   0.1539 B( 28-C , 33-H ) :   0.9166
B( 28-C , 34-H ) :   0.9384

Dispersion correction           -0.043205529
FINAL SINGLE POINT ENERGY      -691.844454871076

DIPOLE MOMENT
-------------
                                X             Y             Z
Electronic contribution:      3.37869       1.68088      13.07191
Nuclear contribution   :     -1.50655      -3.48027     -14.35034
                        -----------------------------------------
Total Dipole Moment    :      1.87214      -1.79939      -1.27843
                        -----------------------------------------
Magnitude (a.u.)       :      2.89432
Magnitude (Debye)      :      7.35678

Rotational constants in cm-1:     0.021781     0.017296     0.011403
Rotational constants in MHz :   652.971749   518.510612   341.853154

                             ****ORCA TERMINATED NORMALLY****
TOTAL RUN TIME: 0 days 0 hours 2 minutes 7 seconds 225 msec
