                         Program Version 5.0.0 -  RELEASE  -
|  1> !PBE D3BJ RIJCOSX def2-TZVPD def2/J TightSCF
|  2> *xyz 0 1
|  3> C         -0.91495        0.61511        2.50554
|  4> C         -0.05915        1.50352        3.41058
|  5> H          0.36536        2.34431        2.86116
|  6> H         -0.69226        1.92021        4.19898
|  7> C          1.08303        0.74964        4.08571
|  8> F          2.22817        1.26348        4.01983
|  9> O          0.81003       -0.34541        4.63627
| 10> H         -0.30401        0.20228        1.73015
| 11> H         -1.69811        1.19946        2.06954
| 12> H         -1.34124       -0.17772        3.08397
| 13> *
| 14>
| 15> %MaxCore 64000
| 16>
| 17> %pal nprocs 4
| 18> end
| 19>
| 20> %scf
| 21>   MaxIter 150
| 22> end
| 23>
| 24>
| 25>                          ****END OF INPUT****

CARTESIAN COORDINATES (ANGSTROEM)
---------------------------------
  C     -0.914950    0.615110    2.505540
  C     -0.059150    1.503520    3.410580
  H      0.365360    2.344310    2.861160
  H     -0.692260    1.920210    4.198980
  C      1.083030    0.749640    4.085710
  F      2.228170    1.263480    4.019830
  O      0.810030   -0.345410    4.636270
  H     -0.304010    0.202280    1.730150
  H     -1.698110    1.199460    2.069540
  H     -1.341240   -0.177720    3.083970

 Total Charge           Charge          ....    0
 Multiplicity           Mult            ....    1
 Number of Electrons    NEL             ....   40
 Basis Dimension        Dim             ....  236

ORBITAL ENERGIES
----------------

  NO   OCC          E(Eh)            E(eV)
   0   2.0000     -24.326365      -661.9540
   1   2.0000     -18.754546      -510.3371
   2   2.0000     -10.048025      -273.4207
   3   2.0000      -9.912785      -269.7406
   4   2.0000      -9.883386      -268.9406
   5   2.0000      -1.215068       -33.0637
   6   2.0000      -0.946160       -25.7463
   7   2.0000      -0.728238       -19.8164
   8   2.0000      -0.625066       -17.0089
   9   2.0000      -0.575186       -15.6516
  10   2.0000      -0.488881       -13.3031
  11   2.0000      -0.474414       -12.9095
  12   2.0000      -0.451278       -12.2799
  13   2.0000      -0.416558       -11.3351
  14   2.0000      -0.384253       -10.4561
  15   2.0000      -0.354115        -9.6360
  16   2.0000      -0.332860        -9.0576
  17   2.0000      -0.329182        -8.9575
  18   2.0000      -0.307754        -8.3744
  19   2.0000      -0.245508        -6.6806
  20   0.0000      -0.068630        -1.8675
  21   0.0000      -0.013600        -0.3701
  22   0.0000       0.014115         0.3841
  23   0.0000       0.024855         0.6763
  24   0.0000       0.033404         0.9090

MULLIKEN ATOMIC CHARGES
-----------------------
   0 C :   -0.823822
   1 C :    0.058275
   2 H :    0.159871
   3 H :    0.149136
   4 C :    0.351912
   5 F :   -0.153243
   6 O :   -0.431485
   7 H :    0.250256
   8 H :    0.205210
   9 H :    0.233891
Sum of atomic charges:    0.0000000

LOEWDIN ATOMIC CHARGES
----------------------
   0 C :   -0.088086
   1 C :   -0.162794
   2 H :    0.107200
   3 H :    0.122686
   4 C :   -0.517518
   5 F :    0.224213
   6 O :    0.099946
   7 H :    0.074402
   8 H :    0.068541
   9 H :    0.071409

  Mayer bond orders larger than 0.100000
B(  0-C ,  1-C ) :   0.7937 B(  0-C ,  4-C ) :   0.1383 B(  0-C ,  7-H ) :   0.9436
B(  0-C ,  8-H ) :   0.9795 B(  0-C ,  9-H ) :   0.9968 B(  1-C ,  2-H ) :   0.9742
B(  1-C ,  3-H ) :   0.9126 B(  1-C ,  4-C ) :   0.9497 B(  4-C ,  5-F ) :   1.0670
B(  4-C ,  6-O ) :   1.7981

Dispersion correction           -0.006216165
FINAL SINGLE POINT ENERGY      -292.194440084205

DIPOLE MOMENT
-------------
                                X             Y             Z
Electronic contribution:      7.74907      -0.20448       4.11615
Nuclear contribution   :     -8.12386       1.06915      -4.71960
                        -----------------------------------------
Total Dipole Moment    :     -0.37479       0.86467      -0.60344
                        -----------------------------------------
Magnitude (a.u.)       :      1.11904
Magnitude (Debye)      :      2.84438

Rotational constants in cm-1:     0.309513     0.127560     0.099675
Rotational constants in MHz :  9278.979128  3824.146597  2988.174827

                             ****ORCA TERMINATED NORMALLY****
TOTAL RUN TIME: 0 days 0 hours 0 minutes 21 seconds 796 msec
