                         Program Version 5.0.0 -  RELEASE  -
|  1> !PBE D3BJ RIJCOSX def2-TZVPD def2/J TightSCF
|  2> *xyz 0 1
|  3> C          4.60295       -2.44010        2.63478
|  4> C          3.86085       -1.59157        3.62289
|  5> C          2.75650       -2.04616        4.16633
|  6> N          4.25433       -0.36291        3.86046
|  7> H          3.56526        0.31099        4.16898
|  8> H          5.05429       -0.01606        3.33784
|  9> H          2.43970       -2.97389        3.89740
| 10> H          2.06687       -1.41253        4.54981
| 11> C          3.74469       -2.58056        1.36188
| 12> H          5.56156       -1.97135        2.40708
| 13> H          4.81050       -3.42255        3.06310
| 14> H          4.26314       -3.18477        0.64702
| 15> H          3.56325       -1.61180        0.94535
| 16> H          2.81197       -3.04259        1.60980
| 17> *
| 18>
| 19> %MaxCore 64000
| 20>
| 21> %pal nprocs 4
| 22> end
| 23>
| 24> %scf
| 25>   MaxIter 150
| 26> end
| 27>
| 28>
| 29>                          ****END OF INPUT****

CARTESIAN COORDINATES (ANGSTROEM)
---------------------------------
  C      4.602950   -2.440100    2.634780
  C      3.860850   -1.591570    3.622890
  C      2.756500   -2.046160    4.166330
  N      4.254330   -0.362910    3.860460
  H      3.565260    0.310990    4.168980
  H      5.054290   -0.016060    3.337840
  H      2.439700   -2.973890    3.897400
  H      2.066870   -1.412530    4.549810
  C      3.744690   -2.580560    1.361880
  H      5.561560   -1.971350    2.407080
  H      4.810500   -3.422550    3.063100
  H      4.263140   -3.184770    0.647020
  H      3.563250   -1.611800    0.945350
  H      2.811970   -3.042590    1.609800

 Total Charge           Charge          ....    0
 Multiplicity           Mult            ....    1
 Number of Electrons    NEL             ....   40
 Basis Dimension        Dim             ....  266

ORBITAL ENERGIES
----------------

  NO   OCC          E(Eh)            E(eV)
   0   2.0000     -13.988064      -380.6346
   1   2.0000      -9.896236      -269.2903
   2   2.0000      -9.884303      -268.9655
   3   2.0000      -9.865614      -268.4570
   4   2.0000      -9.810438      -266.9556
   5   2.0000      -0.855274       -23.2732
   6   2.0000      -0.710681       -19.3386
   7   2.0000      -0.644003       -17.5242
   8   2.0000      -0.577810       -15.7230
   9   2.0000      -0.508824       -13.8458
  10   2.0000      -0.474782       -12.9195
  11   2.0000      -0.432463       -11.7679
  12   2.0000      -0.400691       -10.9034
  13   2.0000      -0.366375        -9.9696
  14   2.0000      -0.344579        -9.3765
  15   2.0000      -0.333956        -9.0874
  16   2.0000      -0.311173        -8.4675
  17   2.0000      -0.300740        -8.1836
  18   2.0000      -0.286950        -7.8083
  19   2.0000      -0.160475        -4.3667
  20   0.0000      -0.014919        -0.4060
  21   0.0000      -0.000152        -0.0041
  22   0.0000       0.017465         0.4753
  23   0.0000       0.024492         0.6665
  24   0.0000       0.032367         0.8807

MULLIKEN ATOMIC CHARGES
-----------------------
   0 C :   -0.127896
   1 C :    0.546732
   2 C :   -1.069462
   3 N :   -0.248934
   4 H :    0.147685
   5 H :    0.161214
   6 H :    0.267694
   7 H :    0.189334
   8 C :   -0.874660
   9 H :    0.152344
  10 H :    0.154348
  11 H :    0.200416
  12 H :    0.233864
  13 H :    0.267320
Sum of atomic charges:    0.0000000

LOEWDIN ATOMIC CHARGES
----------------------
   0 C :   -0.192736
   1 C :   -0.515363
   2 C :    0.009720
   3 N :    0.115835
   4 H :    0.110026
   5 H :    0.102511
   6 H :    0.026191
   7 H :    0.023863
   8 C :   -0.089972
   9 H :    0.101460
  10 H :    0.113855
  11 H :    0.060850
  12 H :    0.071012
  13 H :    0.062749

  Mayer bond orders larger than 0.100000
B(  0-C ,  1-C ) :   0.8786 B(  0-C ,  8-C ) :   0.7207 B(  0-C ,  9-H ) :   1.0345
B(  0-C , 10-H ) :   0.9325 B(  1-C ,  2-C ) :   1.3968 B(  1-C ,  3-N ) :   1.0898
B(  1-C ,  8-C ) :   0.1453 B(  2-C ,  3-N ) :   0.1243 B(  2-C ,  6-H ) :   0.9355
B(  2-C ,  7-H ) :   1.0867 B(  3-N ,  4-H ) :   0.9739 B(  3-N ,  5-H ) :   0.9894
B(  8-C , 11-H ) :   0.9814 B(  8-C , 12-H ) :   0.9866 B(  8-C , 13-H ) :   0.9628

Dispersion correction           -0.010672689
FINAL SINGLE POINT ENERGY      -212.355427984638

DIPOLE MOMENT
-------------
                                X             Y             Z
Electronic contribution:      0.80435       1.78271       2.56894
Nuclear contribution   :     -0.47010      -1.22282      -3.06417
                        -----------------------------------------
Total Dipole Moment    :      0.33425       0.55989      -0.49522
                        -----------------------------------------
Magnitude (a.u.)       :      0.81881
Magnitude (Debye)      :      2.08125

Rotational constants in cm-1:     0.271862     0.131962     0.105499
Rotational constants in MHz :  8150.219120  3956.123671  3162.785522

                             ****ORCA TERMINATED NORMALLY****
TOTAL RUN TIME: 0 days 0 hours 0 minutes 16 seconds 499 msec
