                         Program Version 5.0.0 -  RELEASE  -
|  1> !PBE D3BJ RIJCOSX def2-TZVPD def2/J TightSCF
|  2> *xyz 0 1
|  3> C         -0.91495        0.61511        2.50554
|  4> C         -0.05915        1.50352        3.41058
|  5> H          0.36536        2.34431        2.86116
|  6> H         -0.69226        1.92021        4.19898
|  7> C          1.08303        0.74964        4.08571
|  8> O          2.22817        1.26348        4.01983
|  9> F          0.81003       -0.34541        4.63627
| 10> H         -0.30401        0.20228        1.73015
| 11> H         -1.69811        1.19946        2.06954
| 12> H         -1.34124       -0.17772        3.08397
| 13> *
| 14>
| 15> %MaxCore 64000
| 16>
| 17> %pal nprocs 4
| 18> end
| 19>
| 20> %scf
| 21>   MaxIter 150
| 22> end
| 23>
| 24>
| 25>                          ****END OF INPUT****

CARTESIAN COORDINATES (ANGSTROEM)
---------------------------------
  C     -0.914950    0.615110    2.505540
  C     -0.059150    1.503520    3.410580
  H      0.365360    2.344310    2.861160
  H     -0.692260    1.920210    4.198980
  C      1.083030    0.749640    4.085710
  O      2.228170    1.263480    4.019830
  F      0.810030   -0.345410    4.636270
  H     -0.304010    0.202280    1.730150
  H     -1.698110    1.199460    2.069540
  H     -1.341240   -0.177720    3.083970

 Total Charge           Charge          ....    0
 Multiplicity           Mult            ....    1
 Number of Electrons    NEL             ....   40
 Basis Dimension        Dim             ....  236

ORBITAL ENERGIES
----------------

  NO   OCC          E(Eh)            E(eV)
   0   2.0000     -24.327391      -661.9820
   1   2.0000     -18.753352      -510.3047
   2   2.0000     -10.047520      -273.4069
   3   2.0000      -9.912213      -269.7250
   4   2.0000      -9.888567      -269.0816
   5   2.0000      -1.216479       -33.1021
   6   2.0000      -0.944197       -25.6929
   7   2.0000      -0.732259       -19.9258
   8   2.0000      -0.621257       -16.9053
   9   2.0000      -0.581738       -15.8299
  10   2.0000      -0.491132       -13.3644
  11   2.0000      -0.480230       -13.0677
  12   2.0000      -0.444137       -12.0856
  13   2.0000      -0.417148       -11.3512
  14   2.0000      -0.385911       -10.5012
  15   2.0000      -0.357659        -9.7324
  16   2.0000      -0.337942        -9.1959
  17   2.0000      -0.333369        -9.0714
  18   2.0000      -0.309861        -8.4317
  19   2.0000      -0.240307        -6.5391
  20   0.0000      -0.066370        -1.8060
  21   0.0000      -0.016281        -0.4430
  22   0.0000       0.014922         0.4060
  23   0.0000       0.023313         0.6344
  24   0.0000       0.033594         0.9141

MULLIKEN ATOMIC CHARGES
-----------------------
   0 C :   -0.857619
   1 C :    0.114853
   2 H :    0.126387
   3 H :    0.163830
   4 C :    0.339250
   5 O :   -0.430593
   6 F :   -0.160537
   7 H :    0.263955
   8 H :    0.200265
   9 H :    0.240209
Sum of atomic charges:    0.0000000

LOEWDIN ATOMIC CHARGES
----------------------
   0 C :   -0.092555
   1 C :   -0.157801
   2 H :    0.116926
   3 H :    0.120455
   4 C :   -0.522265
   5 O :    0.095562
   6 F :    0.228429
   7 H :    0.074699
   8 H :    0.068804
   9 H :    0.067747

  Mayer bond orders larger than 0.100000
B(  0-C ,  1-C ) :   0.7391 B(  0-C ,  4-C ) :   0.1309 B(  0-C ,  7-H ) :   0.9605
B(  0-C ,  8-H ) :   0.9945 B(  0-C ,  9-H ) :   0.9781 B(  1-C ,  2-H ) :   1.0022
B(  1-C ,  3-H ) :   0.9057 B(  1-C ,  4-C ) :   0.9489 B(  4-C ,  5-O ) :   1.7845
B(  4-C ,  6-F ) :   1.0690

Dispersion correction           -0.006172295
FINAL SINGLE POINT ENERGY      -292.193411137003

DIPOLE MOMENT
-------------
                                X             Y             Z
Electronic contribution:      5.38495      -2.84427       5.11495
Nuclear contribution   :     -6.57765       2.82334      -5.39171
                        -----------------------------------------
Total Dipole Moment    :     -1.19270      -0.02093      -0.27676
                        -----------------------------------------
Magnitude (a.u.)       :      1.22457
Magnitude (Debye)      :      3.11260

Rotational constants in cm-1:     0.294245     0.132994     0.101060
Rotational constants in MHz :  8821.228602  3987.049251  3029.696815

                             ****ORCA TERMINATED NORMALLY****
TOTAL RUN TIME: 0 days 0 hours 0 minutes 11 seconds 550 msec
