                         Program Version 5.0.0 -  RELEASE  -
|  1> !PBE D3BJ RIJCOSX def2-TZVPD def2/J TightSCF
|  2> *xyz 0 1
|  3> C          4.60295       -2.44010        2.63478
|  4> C          3.86085       -1.59157        3.62289
|  5> N          2.75650       -2.04616        4.16633
|  6> C          4.25433       -0.36291        3.86046
|  7> H          3.56526        0.31099        4.16898
|  8> H          5.05429       -0.01606        3.33784
|  9> H          2.43970       -2.97389        3.89740
| 10> H          2.06687       -1.41253        4.54981
| 11> C          3.74469       -2.58056        1.36188
| 12> H          5.56156       -1.97135        2.40708
| 13> H          4.81050       -3.42255        3.06310
| 14> H          4.26314       -3.18477        0.64702
| 15> H          3.56325       -1.61180        0.94535
| 16> H          2.81197       -3.04259        1.60980
| 17> *
| 18>
| 19> %MaxCore 64000
| 20>
| 21> %pal nprocs 4
| 22> end
| 23>
| 24> %scf
| 25>   MaxIter 150
| 26> end
| 27>
| 28>
| 29>                          ****END OF INPUT****

CARTESIAN COORDINATES (ANGSTROEM)
---------------------------------
  C      4.602950   -2.440100    2.634780
  C      3.860850   -1.591570    3.622890
  N      2.756500   -2.046160    4.166330
  C      4.254330   -0.362910    3.860460
  H      3.565260    0.310990    4.168980
  H      5.054290   -0.016060    3.337840
  H      2.439700   -2.973890    3.897400
  H      2.066870   -1.412530    4.549810
  C      3.744690   -2.580560    1.361880
  H      5.561560   -1.971350    2.407080
  H      4.810500   -3.422550    3.063100
  H      4.263140   -3.184770    0.647020
  H      3.563250   -1.611800    0.945350
  H      2.811970   -3.042590    1.609800

 Total Charge           Charge          ....    0
 Multiplicity           Mult            ....    1
 Number of Electrons    NEL             ....   40
 Basis Dimension        Dim             ....  266

ORBITAL ENERGIES
----------------

  NO   OCC          E(Eh)            E(eV)
   0   2.0000     -13.987798      -380.6273
   1   2.0000      -9.897195      -269.3164
   2   2.0000      -9.883661      -268.9481
   3   2.0000      -9.869431      -268.5609
   4   2.0000      -9.811703      -266.9900
   5   2.0000      -0.854838       -23.2613
   6   2.0000      -0.709027       -19.2936
   7   2.0000      -0.651573       -17.7302
   8   2.0000      -0.573330       -15.6011
   9   2.0000      -0.515481       -14.0269
  10   2.0000      -0.475882       -12.9494
  11   2.0000      -0.427714       -11.6387
  12   2.0000      -0.392597       -10.6831
  13   2.0000      -0.382677       -10.4132
  14   2.0000      -0.343322        -9.3423
  15   2.0000      -0.336666        -9.1612
  16   2.0000      -0.314298        -8.5525
  17   2.0000      -0.298898        -8.1334
  18   2.0000      -0.283132        -7.7044
  19   2.0000      -0.163085        -4.4378
  20   0.0000      -0.016595        -0.4516
  21   0.0000       0.001599         0.0435
  22   0.0000       0.020641         0.5617
  23   0.0000       0.022724         0.6183
  24   0.0000       0.030017         0.8168

MULLIKEN ATOMIC CHARGES
-----------------------
   0 C :   -0.185258
   1 C :    0.531566
   2 N :   -0.285156
   3 C :   -0.955418
   4 H :    0.213133
   5 H :    0.221918
   6 H :    0.158787
   7 H :    0.130279
   8 C :   -0.822952
   9 H :    0.121996
  10 H :    0.170868
  11 H :    0.192480
  12 H :    0.260891
  13 H :    0.246868
Sum of atomic charges:   -0.0000000

LOEWDIN ATOMIC CHARGES
----------------------
   0 C :   -0.194299
   1 C :   -0.518714
   2 N :    0.116189
   3 C :    0.015927
   4 H :    0.022583
   5 H :    0.022339
   6 H :    0.104737
   7 H :    0.112152
   8 C :   -0.090181
   9 H :    0.109122
  10 H :    0.107972
  11 H :    0.062547
  12 H :    0.073432
  13 H :    0.056194

  Mayer bond orders larger than 0.100000
B(  0-C ,  1-C ) :   0.9228 B(  0-C ,  8-C ) :   0.7734 B(  0-C ,  9-H ) :   0.9643
B(  0-C , 10-H ) :   0.9719 B(  1-C ,  2-N ) :   1.0764 B(  1-C ,  3-C ) :   1.4368
B(  2-N ,  3-C ) :   0.1278 B(  2-N ,  6-H ) :   0.9686 B(  2-N ,  7-H ) :   1.0012
B(  3-C ,  4-H ) :   1.0458 B(  3-C ,  5-H ) :   1.0083 B(  8-C , 11-H ) :   0.9960
B(  8-C , 12-H ) :   1.0059 B(  8-C , 13-H ) :   0.9406

Dispersion correction           -0.010656315
FINAL SINGLE POINT ENERGY      -212.355860670682

DIPOLE MOMENT
-------------
                                X             Y             Z
Electronic contribution:     -0.49168       0.31789       2.84136
Nuclear contribution   :     -0.12319      -0.83296      -3.13501
                        -----------------------------------------
Total Dipole Moment    :     -0.61487      -0.51508      -0.29365
                        -----------------------------------------
Magnitude (a.u.)       :      0.85417
Magnitude (Debye)      :      2.17112

Rotational constants in cm-1:     0.266453     0.134423     0.106086
Rotational constants in MHz :  7988.053142  4029.892766  3180.375228

                             ****ORCA TERMINATED NORMALLY****
TOTAL RUN TIME: 0 days 0 hours 0 minutes 21 seconds 107 msec
