                         Program Version 5.0.0 -  RELEASE  -
|  1> !PBE D3BJ RIJCOSX def2-TZVPD def2/J TightSCF xyzfile
|  2>
|  3> *xyzfile 0 1 D1.xyz
|  4>
|  5> %MaxCore 64000
|  6>
|  7> %pal nprocs 4
|  8> end
|  9>
| 10> %scf
| 11>   MaxIter 150
| 12> end
| 13>
| 14>
| 15>                          ****END OF INPUT****

CARTESIAN COORDINATES (ANGSTROEM)
---------------------------------
  C      4.602954   -2.440100    2.634780
  C     -0.914947    0.615112    2.505538
  C     -0.059146    1.503524    3.410578
  H      0.365364    2.344315    2.861161
  H     -0.692261    1.920207    4.198985
  C      1.083027    0.749640    4.085705
  C      3.860851   -1.591565    3.622893
  C      2.756502   -2.046159    4.166333
  N      4.254325   -0.362905    3.860455
  H      3.565256    0.310994    4.168983
  H      5.054292   -0.016059    3.337838
  H      2.439696   -2.973894    3.897395
  H      2.066869   -1.412532    4.549813
  F      2.228167    1.263475    4.019826
  O      0.810034   -0.345411    4.636269
  C      3.744685   -2.580557    1.361882
  C      0.772139    0.636882    0.562129
  C     -0.130740   -0.193985    1.470763
  H     -0.840563   -0.760165    0.856377
  H      0.466691   -0.938942    2.006959
  H     -1.647961    1.245963    1.991076
  H     -1.478180   -0.081046    3.130424
  C      3.203721   -1.256004    0.826211
  H      2.898939   -3.239289    1.583074
  H      4.334962   -3.095523    0.600188
  C      2.107815   -1.442385   -0.216865
  H      2.786775   -0.672760    1.650711
  H      4.021008   -0.652993    0.414046
  C      1.390662   -0.145912   -0.602422
  H      1.372179   -2.152184    0.176151
  H      2.523302   -1.906787   -1.117115
  H      1.561361    1.100094    1.161831
  H      0.195516    1.468325    0.142758
  H      0.602893   -0.398214   -1.319716
  H      2.087247    0.508272   -1.137335
  H      5.561557   -1.971347    2.407084
  H      4.810498   -3.422552    3.063099

 Total Charge           Charge          ....    0
 Multiplicity           Mult            ....    1
 Number of Electrons    NEL             ....  118
 Basis Dimension        Dim             ....  759

ORBITAL ENERGIES
----------------

  NO   OCC          E(Eh)            E(eV)
   0   2.0000     -24.351251      -662.6312
   1   2.0000     -18.767546      -510.6909
   2   2.0000     -13.965387      -380.0175
   3   2.0000     -10.062510      -273.8148
   4   2.0000      -9.917820      -269.8776
   5   2.0000      -9.897821      -269.3334
   6   2.0000      -9.882704      -268.9221
   7   2.0000      -9.882530      -268.9173
   8   2.0000      -9.877945      -268.7926
   9   2.0000      -9.876877      -268.7635
  10   2.0000      -9.871751      -268.6240
  11   2.0000      -9.870159      -268.5807
  12   2.0000      -9.869882      -268.5732
  13   2.0000      -9.867932      -268.5201
  14   2.0000      -9.780376      -266.1376
  15   2.0000      -1.243182       -33.8287
  16   2.0000      -0.965131       -26.2626
  17   2.0000      -0.838468       -22.8159
  18   2.0000      -0.756788       -20.5933
  19   2.0000      -0.732988       -19.9456
  20   2.0000      -0.709799       -19.3146
  21   2.0000      -0.675270       -18.3750
  22   2.0000      -0.653065       -17.7708
  23   2.0000      -0.625057       -17.0087
  24   2.0000      -0.612678       -16.6718
  25   2.0000      -0.584564       -15.9068
  26   2.0000      -0.552156       -15.0249
  27   2.0000      -0.531995       -14.4763
  28   2.0000      -0.514633       -14.0039
  29   2.0000      -0.506456       -13.7814
  30   2.0000      -0.495064       -13.4714
  31   2.0000      -0.484677       -13.1887
  32   2.0000      -0.471754       -12.8371
  33   2.0000      -0.448326       -12.1996
  34   2.0000      -0.432332       -11.7644
  35   2.0000      -0.429869       -11.6973
  36   2.0000      -0.421018       -11.4565
  37   2.0000      -0.403497       -10.9797
  38   2.0000      -0.395392       -10.7592
  39   2.0000      -0.381657       -10.3854
  40   2.0000      -0.378869       -10.3095
  41   2.0000      -0.362386        -9.8610
  42   2.0000      -0.358104        -9.7445
  43   2.0000      -0.347129        -9.4458
  44   2.0000      -0.343963        -9.3597
  45   2.0000      -0.329760        -8.9732
  46   2.0000      -0.326470        -8.8837
  47   2.0000      -0.316739        -8.6189
  48   2.0000      -0.311793        -8.4843
  49   2.0000      -0.303233        -8.2514
  50   2.0000      -0.300490        -8.1767
  51   2.0000      -0.292519        -7.9599
  52   2.0000      -0.283379        -7.7111
  53   2.0000      -0.280356        -7.6289
  54   2.0000      -0.273173        -7.4334
  55   2.0000      -0.269806        -7.3418
  56   2.0000      -0.263946        -7.1823
  57   2.0000      -0.232632        -6.3302
  58   2.0000      -0.142001        -3.8641
  59   0.0000      -0.084080        -2.2879
  60   0.0000      -0.020151        -0.5483
  61   0.0000      -0.005096        -0.1387
  62   0.0000      -0.002726        -0.0742
  63   0.0000       0.001379         0.0375

MULLIKEN ATOMIC CHARGES
-----------------------
   0 C :   -0.353735
   1 C :   -0.302503
   2 C :   -0.288371
   3 H :    0.240139
   4 H :    0.139281
   5 C :    0.570233
   6 C :    0.008607
   7 C :   -1.378980
   8 N :   -0.141612
   9 H :    0.275898
  10 H :    0.190752
  11 H :    0.303802
  12 H :    0.690755
  13 F :   -0.263239
  14 O :   -0.489074
  15 C :   -0.460803
  16 C :   -0.193630
  17 C :   -0.324253
  18 H :    0.182677
  19 H :    0.183527
  20 H :    0.119839
  21 H :    0.188498
  22 C :    0.380961
  23 H :    0.182684
  24 H :    0.157580
  25 C :   -0.382538
  26 H :   -0.261800
  27 H :    0.108906
  28 C :   -0.447289
  29 H :    0.181697
  30 H :    0.173054
  31 H :    0.236337
  32 H :    0.130761
  33 H :    0.164445
  34 H :    0.163956
  35 H :    0.218354
  36 H :    0.095086
Sum of atomic charges:   -0.0000000

LOEWDIN ATOMIC CHARGES
----------------------
   0 C :   -0.143340
   1 C :   -0.192794
   2 C :   -0.103907
   3 H :    0.112268
   4 H :    0.129338
   5 C :   -0.468238
   6 C :   -0.504391
   7 C :    0.028065
   8 N :    0.129670
   9 H :    0.066133
  10 H :    0.107290
  11 H :    0.039029
  12 H :   -0.023225
  13 F :    0.210965
  14 O :    0.102637
  15 C :   -0.196208
  16 C :   -0.217533
  17 C :   -0.207700
  18 H :    0.123491
  19 H :    0.108025
  20 H :    0.116728
  21 H :    0.115591
  22 C :   -0.216830
  23 H :    0.109939
  24 H :    0.110311
  25 C :   -0.218320
  26 H :    0.085585
  27 H :    0.124408
  28 C :   -0.209693
  29 H :    0.109063
  30 H :    0.114323
  31 H :    0.101582
  32 H :    0.116362
  33 H :    0.109229
  34 H :    0.109795
  35 H :    0.106095
  36 H :    0.116260

  Mayer bond orders larger than 0.100000
B(  0-C ,  6-C ) :   0.9837 B(  0-C , 15-C ) :   0.8953 B(  0-C , 35-H ) :   0.9206
B(  0-C , 36-H ) :   0.9765 B(  1-C ,  2-C ) :   0.9342 B(  1-C ,  5-C ) :   0.1459
B(  1-C , 16-C ) :   0.1776 B(  1-C , 17-C ) :   1.0790 B(  1-C , 19-H ) :   0.1143
B(  1-C , 20-H ) :   0.9454 B(  1-C , 21-H ) :   0.8824 B(  2-C ,  3-H ) :   0.9419
B(  2-C ,  4-H ) :   0.8773 B(  2-C ,  5-C ) :   1.0143 B(  2-C , 16-C ) :   0.1951
B(  5-C , 13-F ) :   0.8562 B(  5-C , 14-O ) :   1.7086 B(  5-C , 17-C ) :   0.1051
B(  6-C ,  7-C ) :   1.5342 B(  6-C ,  8-N ) :   1.2046 B(  6-C , 15-C ) :   0.1438
B(  7-C , 11-H ) :   1.0324 B(  7-C , 12-H ) :   0.7181 B(  7-C , 14-O ) :   0.1207
B(  7-C , 15-C ) :   0.1021 B(  8-N ,  9-H ) :   0.7712 B(  8-N , 10-H ) :   0.8750
B( 12-H , 14-O ) :  -0.2235 B( 13-F , 14-O ) :   0.1216 B( 15-C , 22-C ) :   0.7084
B( 15-C , 23-H ) :   0.8350 B( 15-C , 24-H ) :   0.9633 B( 15-C , 25-C ) :   0.4927
B( 15-C , 26-H ) :   0.1028 B( 15-C , 27-H ) :  -0.1415 B( 16-C , 17-C ) :   0.5851
B( 16-C , 19-H ) :  -0.1405 B( 16-C , 22-C ) :   0.1645 B( 16-C , 28-C ) :   1.0249
B( 16-C , 31-H ) :   1.0037 B( 16-C , 32-H ) :   0.8831 B( 17-C , 18-H ) :   0.8284
B( 17-C , 19-H ) :   1.1686 B( 17-C , 25-C ) :   0.1673 B( 17-C , 28-C ) :   0.2436
B( 17-C , 29-H ) :   0.1153 B( 17-C , 31-H ) :  -0.1215 B( 22-C , 25-C ) :   0.6048
B( 22-C , 26-H ) :   1.6577 B( 22-C , 27-H ) :   0.8003 B( 22-C , 28-C ) :   0.1637
B( 23-H , 25-C ) :   0.1254 B( 25-C , 27-H ) :  -0.1270 B( 25-C , 28-C ) :   1.0555
B( 25-C , 29-H ) :   0.8778 B( 25-C , 30-H ) :   0.9350 B( 26-H , 27-H ) :   0.1148
B( 28-C , 33-H ) :   0.9205 B( 28-C , 34-H ) :   0.9396

Dispersion correction           -0.043108638
FINAL SINGLE POINT ENERGY      -699.699309745083

DIPOLE MOMENT
-------------
                                X             Y             Z
Electronic contribution:      1.20703       7.34659      15.01558
Nuclear contribution   :     -1.66567      -5.90236     -15.95042
                        -----------------------------------------
Total Dipole Moment    :     -0.45863       1.44422      -0.93484
                        -----------------------------------------
Magnitude (a.u.)       :      1.78046
Magnitude (Debye)      :      4.52558

Rotational constants in cm-1:     0.021600     0.017292     0.011381
Rotational constants in MHz :   647.565282   518.410024   341.193038

                             ****ORCA TERMINATED NORMALLY****
TOTAL RUN TIME: 0 days 0 hours 2 minutes 8 seconds 348 msec
