                         Program Version 5.0.0 -  RELEASE  -
|  1> !PBE D3BJ RIJCOSX def2-TZVPD def2/J TightSCF xyzfile
|  2>
|  3> *xyzfile 0 1 D2.xyz
|  4>
|  5> %MaxCore 64000
|  6>
|  7> %pal nprocs 4
|  8> end
|  9>
| 10> %scf
| 11>   MaxIter 150
| 12> end
| 13>
| 14>
| 15>                          ****END OF INPUT****

CARTESIAN COORDINATES (ANGSTROEM)
---------------------------------
  C      4.602954   -2.440100    2.634780
  C     -0.914947    0.615112    2.505538
  C     -0.059146    1.503524    3.410578
  H      0.365364    2.344315    2.861161
  H     -0.692261    1.920207    4.198985
  C      1.083027    0.749640    4.085705
  C      3.860851   -1.591565    3.622893
  N      2.756502   -2.046159    4.166333
  C      4.254325   -0.362905    3.860455
  H      3.565256    0.310994    4.168983
  H      5.054292   -0.016059    3.337838
  H      2.439696   -2.973894    3.897395
  H      2.066869   -1.412532    4.549813
  F      2.228167    1.263475    4.019826
  O      0.810034   -0.345411    4.636269
  C      3.744685   -2.580557    1.361882
  C      0.772139    0.636882    0.562129
  C     -0.130740   -0.193985    1.470763
  H     -0.840563   -0.760165    0.856377
  H      0.466691   -0.938942    2.006959
  H     -1.647961    1.245963    1.991076
  H     -1.478180   -0.081046    3.130424
  C      3.203721   -1.256004    0.826211
  H      2.898939   -3.239289    1.583074
  H      4.334962   -3.095523    0.600188
  C      2.107815   -1.442385   -0.216865
  H      2.786775   -0.672760    1.650711
  H      4.021008   -0.652993    0.414046
  C      1.390662   -0.145912   -0.602422
  H      1.372179   -2.152184    0.176151
  H      2.523302   -1.906787   -1.117115
  H      1.561361    1.100094    1.161831
  H      0.195516    1.468325    0.142758
  H      0.602893   -0.398214   -1.319716
  H      2.087247    0.508272   -1.137335
  H      5.561557   -1.971347    2.407084
  H      4.810498   -3.422552    3.063099

 Total Charge           Charge          ....    0
 Multiplicity           Mult            ....    1
 Number of Electrons    NEL             ....  118
 Basis Dimension        Dim             ....  759

ORBITAL ENERGIES
----------------

  NO   OCC          E(Eh)            E(eV)
   0   2.0000     -24.342028      -662.3802
   1   2.0000     -18.778753      -510.9959
   2   2.0000     -13.954022      -379.7082
   3   2.0000     -10.069741      -274.0116
   4   2.0000      -9.920791      -269.9585
   5   2.0000      -9.901415      -269.4312
   6   2.0000      -9.886423      -269.0233
   7   2.0000      -9.883645      -268.9477
   8   2.0000      -9.878474      -268.8069
   9   2.0000      -9.878375      -268.8043
  10   2.0000      -9.873366      -268.6679
  11   2.0000      -9.872240      -268.6373
  12   2.0000      -9.868582      -268.5378
  13   2.0000      -9.866213      -268.4733
  14   2.0000      -9.788459      -266.3575
  15   2.0000      -1.235466       -33.6187
  16   2.0000      -0.975492       -26.5445
  17   2.0000      -0.830747       -22.6058
  18   2.0000      -0.759629       -20.6706
  19   2.0000      -0.733687       -19.9646
  20   2.0000      -0.709002       -19.2929
  21   2.0000      -0.676908       -18.4196
  22   2.0000      -0.648063       -17.6347
  23   2.0000      -0.635881       -17.3032
  24   2.0000      -0.606281       -16.4977
  25   2.0000      -0.585841       -15.9415
  26   2.0000      -0.551707       -15.0127
  27   2.0000      -0.527537       -14.3550
  28   2.0000      -0.510263       -13.8850
  29   2.0000      -0.504556       -13.7297
  30   2.0000      -0.498088       -13.5537
  31   2.0000      -0.488770       -13.3001
  32   2.0000      -0.473567       -12.8864
  33   2.0000      -0.449141       -12.2217
  34   2.0000      -0.435648       -11.8546
  35   2.0000      -0.430077       -11.7030
  36   2.0000      -0.414065       -11.2673
  37   2.0000      -0.405497       -11.0341
  38   2.0000      -0.394273       -10.7287
  39   2.0000      -0.388432       -10.5698
  40   2.0000      -0.379124       -10.3165
  41   2.0000      -0.366243        -9.9660
  42   2.0000      -0.359093        -9.7714
  43   2.0000      -0.351532        -9.5657
  44   2.0000      -0.338237        -9.2039
  45   2.0000      -0.332681        -9.0527
  46   2.0000      -0.327319        -8.9068
  47   2.0000      -0.324033        -8.8174
  48   2.0000      -0.311180        -8.4676
  49   2.0000      -0.307466        -8.3666
  50   2.0000      -0.301441        -8.2026
  51   2.0000      -0.286477        -7.7954
  52   2.0000      -0.284541        -7.7428
  53   2.0000      -0.280423        -7.6307
  54   2.0000      -0.273956        -7.4547
  55   2.0000      -0.271156        -7.3785
  56   2.0000      -0.264050        -7.1852
  57   2.0000      -0.252427        -6.8689
  58   2.0000      -0.143300        -3.8994
  59   0.0000      -0.089633        -2.4390
  60   0.0000      -0.018945        -0.5155
  61   0.0000      -0.008128        -0.2212
  62   0.0000      -0.001965        -0.0535
  63   0.0000       0.000786         0.0214

MULLIKEN ATOMIC CHARGES
-----------------------
   0 C :   -0.364141
   1 C :   -0.309496
   2 C :   -0.254212
   3 H :    0.241719
   4 H :    0.146300
   5 C :    0.559541
   6 C :    0.138646
   7 N :   -0.124596
   8 C :   -1.231140
   9 H :    0.513617
  10 H :    0.246270
  11 H :    0.190694
  12 H :    0.216112
  13 F :   -0.204794
  14 O :   -0.585848
  15 C :   -0.406033
  16 C :   -0.209635
  17 C :   -0.331640
  18 H :    0.194428
  19 H :    0.173164
  20 H :    0.127393
  21 H :    0.179066
  22 C :    0.449752
  23 H :    0.186601
  24 H :    0.102131
  25 C :   -0.365608
  26 H :   -0.318309
  27 H :    0.118861
  28 C :   -0.421729
  29 H :    0.187022
  30 H :    0.138906
  31 H :    0.242474
  32 H :    0.138005
  33 H :    0.165878
  34 H :    0.166237
  35 H :    0.172227
  36 H :    0.132138
Sum of atomic charges:   -0.0000000

LOEWDIN ATOMIC CHARGES
----------------------
   0 C :   -0.144322
   1 C :   -0.193603
   2 C :   -0.100565
   3 H :    0.114849
   4 H :    0.130420
   5 C :   -0.462472
   6 C :   -0.507893
   7 N :    0.144348
   8 C :    0.017789
   9 H :   -0.003743
  10 H :    0.031823
  11 H :    0.110127
  12 H :    0.038882
  13 F :    0.209471
  14 O :    0.102623
  15 C :   -0.196414
  16 C :   -0.216043
  17 C :   -0.209718
  18 H :    0.123303
  19 H :    0.105324
  20 H :    0.117372
  21 H :    0.114743
  22 C :   -0.212850
  23 H :    0.103428
  24 H :    0.112137
  25 C :   -0.220900
  26 H :    0.086177
  27 H :    0.129419
  28 C :   -0.208947
  29 H :    0.106832
  30 H :    0.113754
  31 H :    0.103831
  32 H :    0.116801
  33 H :    0.109010
  34 H :    0.110753
  35 H :    0.113238
  36 H :    0.111016

  Mayer bond orders larger than 0.100000
B(  0-C ,  6-C ) :   1.0055 B(  0-C , 15-C ) :   0.9175 B(  0-C , 24-H ) :   0.1139
B(  0-C , 35-H ) :   0.8382 B(  0-C , 36-H ) :   1.0383 B(  1-C ,  2-C ) :   0.9554
B(  1-C ,  5-C ) :   0.1461 B(  1-C , 16-C ) :   0.1781 B(  1-C , 17-C ) :   1.0895
B(  1-C , 19-H ) :   0.1203 B(  1-C , 20-H ) :   0.9315 B(  1-C , 21-H ) :   0.8833
B(  2-C ,  3-H ) :   0.9316 B(  2-C ,  4-H ) :   0.8621 B(  2-C ,  5-C ) :   1.0248
B(  2-C , 16-C ) :   0.1953 B(  5-C , 13-F ) :   0.9194 B(  5-C , 14-O ) :   1.5907
B(  5-C , 17-C ) :   0.1122 B(  6-C ,  7-N ) :   1.0727 B(  6-C ,  8-C ) :   1.7288
B(  6-C , 10-H ) :  -0.1318 B(  7-N , 11-H ) :   0.8846 B(  7-N , 12-H ) :   0.7973
B(  8-C ,  9-H ) :   0.8118 B(  8-C , 10-H ) :   1.0993 B( 13-F , 14-O ) :   0.1246
B( 15-C , 22-C ) :   0.7049 B( 15-C , 23-H ) :   0.8436 B( 15-C , 24-H ) :   0.9731
B( 15-C , 25-C ) :   0.4896 B( 15-C , 26-H ) :   0.1536 B( 15-C , 27-H ) :  -0.1404
B( 16-C , 17-C ) :   0.5869 B( 16-C , 19-H ) :  -0.1397 B( 16-C , 22-C ) :   0.1602
B( 16-C , 28-C ) :   1.0293 B( 16-C , 31-H ) :   1.0125 B( 16-C , 32-H ) :   0.8806
B( 17-C , 18-H ) :   0.8129 B( 17-C , 19-H ) :   1.1675 B( 17-C , 25-C ) :   0.1683
B( 17-C , 28-C ) :   0.2431 B( 17-C , 29-H ) :   0.1190 B( 17-C , 31-H ) :  -0.1317
B( 22-C , 25-C ) :   0.6363 B( 22-C , 26-H ) :   1.6419 B( 22-C , 27-H ) :   0.7664
B( 22-C , 28-C ) :   0.1514 B( 23-H , 25-C ) :   0.1014 B( 25-C , 27-H ) :  -0.1283
B( 25-C , 28-C ) :   1.0431 B( 25-C , 29-H ) :   0.8696 B( 25-C , 30-H ) :   0.9666
B( 26-H , 27-H ) :   0.1855 B( 28-C , 33-H ) :   0.9249 B( 28-C , 34-H ) :   0.9376

Dispersion correction           -0.043062111
FINAL SINGLE POINT ENERGY      -699.709213045993

DIPOLE MOMENT
-------------
                                X             Y             Z
Electronic contribution:      0.08712       6.22305      15.18211
Nuclear contribution   :     -1.39991      -5.60370     -16.00470
                        -----------------------------------------
Total Dipole Moment    :     -1.31278       0.61935      -0.82259
                        -----------------------------------------
Magnitude (a.u.)       :      1.66843
Magnitude (Debye)      :      4.24081

Rotational constants in cm-1:     0.021622     0.017313     0.011402
Rotational constants in MHz :   648.226014   519.043632   341.814105

                             ****ORCA TERMINATED NORMALLY****
TOTAL RUN TIME: 0 days 0 hours 2 minutes 5 seconds 135 msec
