                         Program Version 5.0.0 -  RELEASE  -
|  1> !PBE D3BJ RIJCOSX def2-TZVPD def2/J TightSCF xyzfile
|  2>
|  3> *xyzfile 0 1 D3.xyz
|  4>
|  5> %MaxCore 64000
|  6>
|  7> %pal nprocs 4
|  8> end
|  9>
| 10> %scf
| 11>   MaxIter 150
| 12> end
| 13>
| 14>
| 15>                          ****END OF INPUT****

CARTESIAN COORDINATES (ANGSTROEM)
---------------------------------
  C      4.602954   -2.440100    2.634780
  C     -0.914947    0.615112    2.505538
  C     -0.059146    1.503524    3.410578
  H      0.365364    2.344315    2.861161
  H     -0.692261    1.920207    4.198985
  C      1.083027    0.749640    4.085705
  C      3.860851   -1.591565    3.622893
  C      2.756502   -2.046159    4.166333
  N      4.254325   -0.362905    3.860455
  H      3.565256    0.310994    4.168983
  H      5.054292   -0.016059    3.337838
  H      2.439696   -2.973894    3.897395
  H      2.066869   -1.412532    4.549813
  O      2.228167    1.263475    4.019826
  F      0.810034   -0.345411    4.636269
  C      3.744685   -2.580557    1.361882
  C      0.772139    0.636882    0.562129
  C     -0.130740   -0.193985    1.470763
  H     -0.840563   -0.760165    0.856377
  H      0.466691   -0.938942    2.006959
  H     -1.647961    1.245963    1.991076
  H     -1.478180   -0.081046    3.130424
  C      3.203721   -1.256004    0.826211
  H      2.898939   -3.239289    1.583074
  H      4.334962   -3.095523    0.600188
  C      2.107815   -1.442385   -0.216865
  H      2.786775   -0.672760    1.650711
  H      4.021008   -0.652993    0.414046
  C      1.390662   -0.145912   -0.602422
  H      1.372179   -2.152184    0.176151
  H      2.523302   -1.906787   -1.117115
  H      1.561361    1.100094    1.161831
  H      0.195516    1.468325    0.142758
  H      0.602893   -0.398214   -1.319716
  H      2.087247    0.508272   -1.137335
  H      5.561557   -1.971347    2.407084
  H      4.810498   -3.422552    3.063099

 Total Charge           Charge          ....    0
 Multiplicity           Mult            ....    1
 Number of Electrons    NEL             ....  118
 Basis Dimension        Dim             ....  759

ORBITAL ENERGIES
----------------

  NO   OCC          E(Eh)            E(eV)
   0   2.0000     -24.340711      -662.3444
   1   2.0000     -18.776398      -510.9318
   2   2.0000     -13.952886      -379.6773
   3   2.0000     -10.067449      -273.9492
   4   2.0000      -9.918576      -269.8982
   5   2.0000      -9.902134      -269.4508
   6   2.0000      -9.886596      -269.0280
   7   2.0000      -9.880773      -268.8695
   8   2.0000      -9.878780      -268.8153
   9   2.0000      -9.876789      -268.7611
  10   2.0000      -9.870930      -268.6017
  11   2.0000      -9.869832      -268.5718
  12   2.0000      -9.869303      -268.5574
  13   2.0000      -9.865568      -268.4557
  14   2.0000      -9.788919      -266.3700
  15   2.0000      -1.234642       -33.5963
  16   2.0000      -0.971950       -26.4481
  17   2.0000      -0.830228       -22.5917
  18   2.0000      -0.760133       -20.6843
  19   2.0000      -0.732993       -19.9458
  20   2.0000      -0.708419       -19.2770
  21   2.0000      -0.675694       -18.3866
  22   2.0000      -0.645339       -17.5606
  23   2.0000      -0.629135       -17.1196
  24   2.0000      -0.606123       -16.4935
  25   2.0000      -0.585863       -15.9421
  26   2.0000      -0.553785       -15.0693
  27   2.0000      -0.530735       -14.4420
  28   2.0000      -0.509014       -13.8510
  29   2.0000      -0.505936       -13.7672
  30   2.0000      -0.495925       -13.4948
  31   2.0000      -0.487112       -13.2550
  32   2.0000      -0.468840       -12.7578
  33   2.0000      -0.442890       -12.0516
  34   2.0000      -0.433983       -11.8093
  35   2.0000      -0.429409       -11.6848
  36   2.0000      -0.418534       -11.3889
  37   2.0000      -0.400668       -10.9027
  38   2.0000      -0.396199       -10.7811
  39   2.0000      -0.382985       -10.4215
  40   2.0000      -0.378269       -10.2932
  41   2.0000      -0.364164        -9.9094
  42   2.0000      -0.360801        -9.8179
  43   2.0000      -0.347482        -9.4555
  44   2.0000      -0.342367        -9.3163
  45   2.0000      -0.333562        -9.0767
  46   2.0000      -0.328871        -8.9490
  47   2.0000      -0.323172        -8.7940
  48   2.0000      -0.310933        -8.4609
  49   2.0000      -0.302017        -8.2183
  50   2.0000      -0.298015        -8.1094
  51   2.0000      -0.292363        -7.9556
  52   2.0000      -0.282748        -7.6940
  53   2.0000      -0.278894        -7.5891
  54   2.0000      -0.272617        -7.4183
  55   2.0000      -0.268843        -7.3156
  56   2.0000      -0.260955        -7.1009
  57   2.0000      -0.251552        -6.8451
  58   2.0000      -0.142632        -3.8812
  59   0.0000      -0.085056        -2.3145
  60   0.0000      -0.019721        -0.5366
  61   0.0000      -0.003149        -0.0857
  62   0.0000      -0.002085        -0.0567
  63   0.0000       0.001144         0.0311

MULLIKEN ATOMIC CHARGES
-----------------------
   0 C :   -0.335566
   1 C :   -0.370550
   2 C :   -0.191582
   3 H :    0.199147
   4 H :    0.162092
   5 C :    0.530664
   6 C :    0.062517
   7 C :   -1.316062
   8 N :   -0.126912
   9 H :    0.261450
  10 H :    0.182980
  11 H :    0.309496
  12 H :    0.577430
  13 O :   -0.558881
  14 F :   -0.231132
  15 C :   -0.470407
  16 C :   -0.214890
  17 C :   -0.248077
  18 H :    0.175852
  19 H :    0.146016
  20 H :    0.124303
  21 H :    0.193974
  22 C :    0.366229
  23 H :    0.180734
  24 H :    0.152797
  25 C :   -0.383092
  26 H :   -0.223113
  27 H :    0.100518
  28 C :   -0.435606
  29 H :    0.177795
  30 H :    0.168710
  31 H :    0.256857
  32 H :    0.133082
  33 H :    0.161134
  34 H :    0.164501
  35 H :    0.215195
  36 H :    0.102396
Sum of atomic charges:    0.0000000

LOEWDIN ATOMIC CHARGES
----------------------
   0 C :   -0.141978
   1 C :   -0.198288
   2 C :   -0.097093
   3 H :    0.121602
   4 H :    0.128257
   5 C :   -0.466380
   6 C :   -0.502564
   7 C :    0.023450
   8 N :    0.134909
   9 H :    0.039329
  10 H :    0.108264
  11 H :    0.035145
  12 H :   -0.004667
  13 O :    0.097649
  14 F :    0.211125
  15 C :   -0.196890
  16 C :   -0.214480
  17 C :   -0.209633
  18 H :    0.122915
  19 H :    0.106371
  20 H :    0.116729
  21 H :    0.112478
  22 C :   -0.215476
  23 H :    0.108730
  24 H :    0.110308
  25 C :   -0.219102
  26 H :    0.086961
  27 H :    0.125539
  28 C :   -0.209395
  29 H :    0.107910
  30 H :    0.114065
  31 H :    0.104984
  32 H :    0.116885
  33 H :    0.108542
  34 H :    0.110464
  35 H :    0.107308
  36 H :    0.116029

  Mayer bond orders larger than 0.100000
B(  0-C ,  6-C ) :   0.9924 B(  0-C , 15-C ) :   0.8952 B(  0-C , 35-H ) :   0.9118
B(  0-C , 36-H ) :   0.9822 B(  1-C ,  2-C ) :   0.9048 B(  1-C ,  5-C ) :   0.1421
B(  1-C , 16-C ) :   0.1846 B(  1-C , 17-C ) :   1.0243 B(  1-C , 19-H ) :   0.1129
B(  1-C , 20-H ) :   0.9339 B(  1-C , 21-H ) :   0.9200 B(  2-C ,  3-H ) :   0.9630
B(  2-C ,  4-H ) :   0.8829 B(  2-C ,  5-C ) :   1.0058 B(  2-C , 16-C ) :   0.1965
B(  5-C , 13-O ) :   1.6125 B(  5-C , 14-F ) :   0.9250 B(  6-C ,  7-C ) :   1.5407
B(  6-C ,  8-N ) :   1.1926 B(  6-C , 15-C ) :   0.1434 B(  7-C , 11-H ) :   1.0168
B(  7-C , 12-H ) :   0.7578 B(  7-C , 15-C ) :   0.1027 B(  8-N ,  9-H ) :   0.7896
B(  8-N , 10-H ) :   0.8683 B( 13-O , 14-F ) :   0.1092 B( 15-C , 22-C ) :   0.6996
B( 15-C , 23-H ) :   0.8373 B( 15-C , 24-H ) :   0.9622 B( 15-C , 25-C ) :   0.4918
B( 15-C , 26-H ) :   0.1181 B( 15-C , 27-H ) :  -0.1421 B( 16-C , 17-C ) :   0.6181
B( 16-C , 19-H ) :  -0.1241 B( 16-C , 22-C ) :   0.1531 B( 16-C , 26-H ) :   0.1057
B( 16-C , 28-C ) :   1.0098 B( 16-C , 31-H ) :   0.9924 B( 16-C , 32-H ) :   0.8812
B( 17-C , 18-H ) :   0.8556 B( 17-C , 19-H ) :   1.1461 B( 17-C , 25-C ) :   0.1729
B( 17-C , 28-C ) :   0.2353 B( 17-C , 29-H ) :   0.1199 B( 17-C , 31-H ) :  -0.1058
B( 22-C , 25-C ) :   0.5892 B( 22-C , 26-H ) :   1.6842 B( 22-C , 27-H ) :   0.7796
B( 22-C , 28-C ) :   0.1580 B( 23-H , 25-C ) :   0.1263 B( 25-C , 27-H ) :  -0.1245
B( 25-C , 28-C ) :   1.0526 B( 25-C , 29-H ) :   0.8802 B( 25-C , 30-H ) :   0.9381
B( 26-H , 27-H ) :   0.1411 B( 28-C , 33-H ) :   0.9237 B( 28-C , 34-H ) :   0.9362

Dispersion correction           -0.043106111
FINAL SINGLE POINT ENERGY      -699.710281240334

DIPOLE MOMENT
-------------
                                X             Y             Z
Electronic contribution:     -1.15986       4.74133      16.01241
Nuclear contribution   :      0.05905      -3.94566     -16.70013
                        -----------------------------------------
Total Dipole Moment    :     -1.10082       0.79567      -0.68773
                        -----------------------------------------
Magnitude (a.u.)       :      1.52245
Magnitude (Debye)      :      3.86976

Rotational constants in cm-1:     0.021602     0.017295     0.011353
Rotational constants in MHz :   647.614981   518.478934   340.359556

                             ****ORCA TERMINATED NORMALLY****
TOTAL RUN TIME: 0 days 0 hours 2 minutes 11 seconds 539 msec
