                         Program Version 5.0.0 -  RELEASE  -
|  1> !PBE D3BJ RIJCOSX def2-TZVPD def2/J TightSCF xyzfile
|  2>
|  3> *xyzfile 0 1 D4.xyz
|  4>
|  5> %MaxCore 64000
|  6>
|  7> %pal nprocs 4
|  8> end
|  9>
| 10> %scf
| 11>   MaxIter 150
| 12> end
| 13>
| 14>
| 15>                          ****END OF INPUT****

CARTESIAN COORDINATES (ANGSTROEM)
---------------------------------
  C      4.602954   -2.440100    2.634780
  C     -0.914947    0.615112    2.505538
  C     -0.059146    1.503524    3.410578
  H      0.365364    2.344315    2.861161
  H     -0.692261    1.920207    4.198985
  C      1.083027    0.749640    4.085705
  C      3.860851   -1.591565    3.622893
  N      2.756502   -2.046159    4.166333
  C      4.254325   -0.362905    3.860455
  H      3.565256    0.310994    4.168983
  H      5.054292   -0.016059    3.337838
  H      2.439696   -2.973894    3.897395
  H      2.066869   -1.412532    4.549813
  O      2.228167    1.263475    4.019826
  F      0.810034   -0.345411    4.636269
  C      3.744685   -2.580557    1.361882
  C      0.772139    0.636882    0.562129
  C     -0.130740   -0.193985    1.470763
  H     -0.840563   -0.760165    0.856377
  H      0.466691   -0.938942    2.006959
  H     -1.647961    1.245963    1.991076
  H     -1.478180   -0.081046    3.130424
  C      3.203721   -1.256004    0.826211
  H      2.898939   -3.239289    1.583074
  H      4.334962   -3.095523    0.600188
  C      2.107815   -1.442385   -0.216865
  H      2.786775   -0.672760    1.650711
  H      4.021008   -0.652993    0.414046
  C      1.390662   -0.145912   -0.602422
  H      1.372179   -2.152184    0.176151
  H      2.523302   -1.906787   -1.117115
  H      1.561361    1.100094    1.161831
  H      0.195516    1.468325    0.142758
  H      0.602893   -0.398214   -1.319716
  H      2.087247    0.508272   -1.137335
  H      5.561557   -1.971347    2.407084
  H      4.810498   -3.422552    3.063099

 Total Charge           Charge          ....    0
 Multiplicity           Mult            ....    1
 Number of Electrons    NEL             ....  118
 Basis Dimension        Dim             ....  759

ORBITAL ENERGIES
----------------

  NO   OCC          E(Eh)            E(eV)
   0   2.0000     -24.352509      -662.6655
   1   2.0000     -18.767813      -510.6981
   2   2.0000     -13.966910      -380.0589
   3   2.0000     -10.063148      -273.8322
   4   2.0000      -9.918040      -269.8836
   5   2.0000      -9.903159      -269.4787
   6   2.0000      -9.889436      -269.1052
   7   2.0000      -9.880940      -268.8741
   8   2.0000      -9.876848      -268.7627
   9   2.0000      -9.875642      -268.7299
  10   2.0000      -9.872425      -268.6424
  11   2.0000      -9.871231      -268.6098
  12   2.0000      -9.867666      -268.5129
  13   2.0000      -9.864051      -268.4145
  14   2.0000      -9.779173      -266.1048
  15   2.0000      -1.245217       -33.8841
  16   2.0000      -0.964548       -26.2467
  17   2.0000      -0.838160       -22.8075
  18   2.0000      -0.760976       -20.7072
  19   2.0000      -0.733039       -19.9470
  20   2.0000      -0.709134       -19.2965
  21   2.0000      -0.674713       -18.3599
  22   2.0000      -0.650826       -17.7099
  23   2.0000      -0.627699       -17.0806
  24   2.0000      -0.615564       -16.7503
  25   2.0000      -0.584279       -15.8990
  26   2.0000      -0.554024       -15.0758
  27   2.0000      -0.528594       -14.3838
  28   2.0000      -0.520655       -14.1677
  29   2.0000      -0.510606       -13.8943
  30   2.0000      -0.496878       -13.5207
  31   2.0000      -0.488747       -13.2995
  32   2.0000      -0.465480       -12.6664
  33   2.0000      -0.451414       -12.2836
  34   2.0000      -0.435954       -11.8629
  35   2.0000      -0.432913       -11.7802
  36   2.0000      -0.412507       -11.2249
  37   2.0000      -0.399542       -10.8721
  38   2.0000      -0.392459       -10.6794
  39   2.0000      -0.389399       -10.5961
  40   2.0000      -0.375141       -10.2081
  41   2.0000      -0.367846       -10.0096
  42   2.0000      -0.361206        -9.8289
  43   2.0000      -0.346694        -9.4340
  44   2.0000      -0.339778        -9.2458
  45   2.0000      -0.333365        -9.0713
  46   2.0000      -0.330251        -8.9866
  47   2.0000      -0.317362        -8.6359
  48   2.0000      -0.314212        -8.5501
  49   2.0000      -0.307351        -8.3634
  50   2.0000      -0.303359        -8.2548
  51   2.0000      -0.287396        -7.8204
  52   2.0000      -0.284485        -7.7412
  53   2.0000      -0.281748        -7.6667
  54   2.0000      -0.272799        -7.4232
  55   2.0000      -0.268540        -7.3074
  56   2.0000      -0.263103        -7.1594
  57   2.0000      -0.227574        -6.1926
  58   2.0000      -0.142730        -3.8839
  59   0.0000      -0.082844        -2.2543
  60   0.0000      -0.023718        -0.6454
  61   0.0000      -0.009203        -0.2504
  62   0.0000      -0.002739        -0.0745
  63   0.0000       0.001620         0.0441

MULLIKEN ATOMIC CHARGES
-----------------------
   0 C :   -0.379854
   1 C :   -0.374970
   2 C :   -0.182381
   3 H :    0.197739
   4 H :    0.160745
   5 C :    0.497266
   6 C :    0.084214
   7 N :   -0.148611
   8 C :   -1.252890
   9 H :    0.610179
  10 H :    0.227664
  11 H :    0.197953
  12 H :    0.261806
  13 O :   -0.468248
  14 F :   -0.299448
  15 C :   -0.399679
  16 C :   -0.233189
  17 C :   -0.244887
  18 H :    0.187623
  19 H :    0.124628
  20 H :    0.130786
  21 H :    0.191785
  22 C :    0.411371
  23 H :    0.180005
  24 H :    0.097290
  25 C :   -0.372159
  26 H :   -0.262476
  27 H :    0.119458
  28 C :   -0.411377
  29 H :    0.184170
  30 H :    0.136588
  31 H :    0.261543
  32 H :    0.139841
  33 H :    0.161875
  34 H :    0.167035
  35 H :    0.167720
  36 H :    0.130885
Sum of atomic charges:   -0.0000000

LOEWDIN ATOMIC CHARGES
----------------------
   0 C :   -0.145543
   1 C :   -0.200896
   2 C :   -0.098110
   3 H :    0.122611
   4 H :    0.127485
   5 C :   -0.470608
   6 C :   -0.507693
   7 N :    0.142327
   8 C :    0.022954
   9 H :   -0.024135
  10 H :    0.035519
  11 H :    0.109466
  12 H :    0.064916
  13 O :    0.099772
  14 F :    0.214029
  15 C :   -0.197872
  16 C :   -0.213056
  17 C :   -0.211957
  18 H :    0.122450
  19 H :    0.103330
  20 H :    0.116696
  21 H :    0.110975
  22 C :   -0.211220
  23 H :    0.101934
  24 H :    0.111816
  25 C :   -0.221744
  26 H :    0.088085
  27 H :    0.130451
  28 C :   -0.208810
  29 H :    0.105618
  30 H :    0.113506
  31 H :    0.107057
  32 H :    0.117392
  33 H :    0.108301
  34 H :    0.111317
  35 H :    0.113908
  36 H :    0.109732

  Mayer bond orders larger than 0.100000
B(  0-C ,  6-C ) :   0.9999 B(  0-C , 15-C ) :   0.9150 B(  0-C , 24-H ) :   0.1153
B(  0-C , 35-H ) :   0.8370 B(  0-C , 36-H ) :   1.0537 B(  1-C ,  2-C ) :   0.9031
B(  1-C ,  5-C ) :   0.1350 B(  1-C , 16-C ) :   0.1890 B(  1-C , 17-C ) :   1.0305
B(  1-C , 19-H ) :   0.1132 B(  1-C , 20-H ) :   0.9281 B(  1-C , 21-H ) :   0.9168
B(  2-C ,  3-H ) :   0.9550 B(  2-C ,  4-H ) :   0.8758 B(  2-C ,  5-C ) :   1.0308
B(  2-C , 16-C ) :   0.1989 B(  5-C , 13-O ) :   1.6916 B(  5-C , 14-F ) :   0.8198
B(  5-C , 17-C ) :   0.1103 B(  6-C ,  7-N ) :   1.1005 B(  6-C ,  8-C ) :   1.7016
B(  6-C ,  9-H ) :  -0.1098 B(  6-C , 10-H ) :  -0.1323 B(  7-N , 11-H ) :   0.8915
B(  7-N , 12-H ) :   0.7756 B(  8-C ,  9-H ) :   0.8034 B(  8-C , 10-H ) :   1.1277
B(  8-C , 13-O ) :   0.1120 B(  9-H , 13-O ) :  -0.2152 B( 13-O , 14-F ) :   0.1309
B( 15-C , 22-C ) :   0.6856 B( 15-C , 23-H ) :   0.8497 B( 15-C , 24-H ) :   0.9733
B( 15-C , 25-C ) :   0.4879 B( 15-C , 26-H ) :   0.1552 B( 15-C , 27-H ) :  -0.1383
B( 16-C , 17-C ) :   0.6211 B( 16-C , 19-H ) :  -0.1249 B( 16-C , 22-C ) :   0.1493
B( 16-C , 28-C ) :   1.0113 B( 16-C , 31-H ) :   1.0022 B( 16-C , 32-H ) :   0.8769
B( 17-C , 18-H ) :   0.8348 B( 17-C , 19-H ) :   1.1544 B( 17-C , 25-C ) :   0.1749
B( 17-C , 28-C ) :   0.2350 B( 17-C , 29-H ) :   0.1210 B( 17-C , 31-H ) :  -0.1146
B( 22-C , 25-C ) :   0.6196 B( 22-C , 26-H ) :   1.6710 B( 22-C , 27-H ) :   0.7519
B( 22-C , 28-C ) :   0.1508 B( 23-H , 25-C ) :   0.1013 B( 25-C , 27-H ) :  -0.1253
B( 25-C , 28-C ) :   1.0413 B( 25-C , 29-H ) :   0.8715 B( 25-C , 30-H ) :   0.9671
B( 26-H , 27-H ) :   0.1987 B( 28-C , 33-H ) :   0.9278 B( 28-C , 34-H ) :   0.9332

Dispersion correction           -0.043065502
FINAL SINGLE POINT ENERGY      -699.697883500563

DIPOLE MOMENT
-------------
                                X             Y             Z
Electronic contribution:     -2.19974       3.57255      16.24101
Nuclear contribution   :      0.32481      -3.64700     -16.75441
                        -----------------------------------------
Total Dipole Moment    :     -1.87493      -0.07445      -0.51339
                        -----------------------------------------
Magnitude (a.u.)       :      1.94537
Magnitude (Debye)      :      4.94475

Rotational constants in cm-1:     0.021629     0.017327     0.011372
Rotational constants in MHz :   648.414821   519.443407   340.925013

                             ****ORCA TERMINATED NORMALLY****
TOTAL RUN TIME: 0 days 0 hours 2 minutes 2 seconds 255 msec
