                         Program Version 5.0.0 -  RELEASE  -
|  1> !CAM-B3LYP RIJCOSX def2-SVP def2/J TightSCF
|  2> *xyz -1 1
|  3> C          3.76678       -2.26611       -6.51175
|  4> C          2.49670       -1.84416       -5.73570
|  5> H          1.62642       -2.21743       -6.30895
|  6> H          2.48182       -2.45607       -4.79341
|  7> O          2.45973       -0.50920       -5.50576
|  8> H          3.82914       -1.70941       -7.42340
|  9> H          3.71764       -3.31144       -6.73483
| 10> H          4.63199       -2.06931       -5.91377
| 11> *
| 12>
| 13> %MaxCore 64000
| 14>
| 15> %pal nprocs 4
| 16> end
| 17>
| 18> %scf
| 19>   MaxIter 150
| 20> end
| 21>
| 22>
| 23>                          ****END OF INPUT****

CARTESIAN COORDINATES (ANGSTROEM)
---------------------------------
  C      3.766780   -2.266110   -6.511750
  C      2.496700   -1.844160   -5.735700
  H      1.626420   -2.217430   -6.308950
  H      2.481820   -2.456070   -4.793410
  O      2.459730   -0.509200   -5.505760
  H      3.829140   -1.709410   -7.423400
  H      3.717640   -3.311440   -6.734830
  H      4.631990   -2.069310   -5.913770

 Total Charge           Charge          ....   -1
 Multiplicity           Mult            ....    1
 Number of Electrons    NEL             ....   26
 Basis Dimension        Dim             ....   67

ORBITAL ENERGIES
----------------

  NO   OCC          E(Eh)            E(eV)
   0   2.0000     -18.815915      -512.0071
   1   2.0000     -10.047708      -273.4120
   2   2.0000     -10.033456      -273.0242
   3   2.0000      -0.710792       -19.3416
   4   2.0000      -0.576870       -15.6974
   5   2.0000      -0.418750       -11.3948
   6   2.0000      -0.300477        -8.1764
   7   2.0000      -0.276703        -7.5295
   8   2.0000      -0.218343        -5.9414
   9   2.0000      -0.201205        -5.4751
  10   2.0000      -0.135965        -3.6998
  11   2.0000       0.014881         0.4049
  12   2.0000       0.016578         0.4511
  13   0.0000       0.294788         8.0216
  14   0.0000       0.339245         9.2313
  15   0.0000       0.353418         9.6170
  16   0.0000       0.363285         9.8855
  17   0.0000       0.407093        11.0776

MULLIKEN ATOMIC CHARGES
-----------------------
   0 C :    0.066824
   1 C :    0.269171
   2 H :   -0.184502
   3 H :   -0.191075
   4 O :   -0.694812
   5 H :   -0.071178
   6 H :   -0.124946
   7 H :   -0.069483
Sum of atomic charges:   -1.0000000

LOEWDIN ATOMIC CHARGES
----------------------
   0 C :   -0.109491
   1 C :    0.008425
   2 H :   -0.086491
   3 H :   -0.089070
   4 O :   -0.657071
   5 H :   -0.015620
   6 H :   -0.035894
   7 H :   -0.014787

  Mayer bond orders larger than 0.100000
B(  0-C ,  1-C ) :   1.0001 B(  0-C ,  5-H ) :   0.9561 B(  0-C ,  6-H ) :   0.9199
B(  0-C ,  7-H ) :   0.9602 B(  1-C ,  2-H ) :   0.8657 B(  1-C ,  3-H ) :   0.8546
B(  1-C ,  4-O ) :   1.5323

FINAL SINGLE POINT ENERGY      -154.200018133329

DIPOLE MOMENT
-------------
                                X             Y             Z
Electronic contribution:     -1.06315       2.84884       1.00563
Nuclear contribution   :      1.63615      -3.79938      -1.48621
                        -----------------------------------------
Total Dipole Moment    :      0.57300      -0.95054      -0.48057
                        -----------------------------------------
Magnitude (a.u.)       :      1.20947
Magnitude (Debye)      :      3.07423

Rotational constants in cm-1:     1.265582     0.329289     0.289024
Rotational constants in MHz : 37941.194363  9871.829581  8664.719106

                             ****ORCA TERMINATED NORMALLY****
TOTAL RUN TIME: 0 days 0 hours 0 minutes 9 seconds 815 msec
