                         Program Version 5.0.0 -  RELEASE  -
|  1> !CAM-B3LYP RIJCOSX def2-SVP def2/J TightSCF
|  2> *xyz 1 1
|  3> C          4.99986       -1.59613       -5.92488
|  4> N          5.28156       -1.97413       -4.53576
|  5> C          3.76678       -2.26611       -6.51175
|  6> C          4.79250       -1.36132       -3.45730
|  7> N          3.93990       -0.37492       -3.55736
|  8> N          5.25986       -1.75422       -2.23913
|  9> H          5.92282       -2.52145       -2.18672
| 10> H          4.65468       -1.64040       -1.44202
| 11> H          5.70914       -2.87560       -4.38702
| 12> H          3.33010       -0.31764       -4.36125
| 13> H          3.69849        0.11447       -2.70833
| 14> H          4.84333       -0.51793       -5.94302
| 15> H          5.90170       -1.82250       -6.49647
| 16> H          3.63046       -1.94025       -7.52177
| 17> H          2.90710       -2.00116       -5.93240
| 18> H          3.89538       -3.32820       -6.49392
| 19> *
| 20>
| 21> %MaxCore 64000
| 22>
| 23> %pal nprocs 4
| 24> end
| 25>
| 26> %scf
| 27>   MaxIter 150
| 28> end
| 29>
| 30>
| 31>                          ****END OF INPUT****

CARTESIAN COORDINATES (ANGSTROEM)
---------------------------------
  C      4.999860   -1.596130   -5.924880
  N      5.281560   -1.974130   -4.535760
  C      3.766780   -2.266110   -6.511750
  C      4.792500   -1.361320   -3.457300
  N      3.939900   -0.374920   -3.557360
  N      5.259860   -1.754220   -2.239130
  H      5.922820   -2.521450   -2.186720
  H      4.654680   -1.640400   -1.442020
  H      5.709140   -2.875600   -4.387020
  H      3.330100   -0.317640   -4.361250
  H      3.698490    0.114470   -2.708330
  H      4.843330   -0.517930   -5.943020
  H      5.901700   -1.822500   -6.496470
  H      3.630460   -1.940250   -7.521770
  H      2.907100   -2.001160   -5.932400
  H      3.895380   -3.328200   -6.493920

 Total Charge           Charge          ....    1
 Multiplicity           Mult            ....    1
 Number of Electrons    NEL             ....   48
 Basis Dimension        Dim             ....  134

ORBITAL ENERGIES
----------------

  NO   OCC          E(Eh)            E(eV)
   0   2.0000     -14.631751      -398.1502
   1   2.0000     -14.624722      -397.9589
   2   2.0000     -14.621319      -397.8663
   3   2.0000     -10.596938      -288.3573
   4   2.0000     -10.462960      -284.7116
   5   2.0000     -10.397942      -282.9424
   6   2.0000      -1.290397       -35.1135
   7   2.0000      -1.178192       -32.0602
   8   2.0000      -1.162247       -31.6263
   9   2.0000      -1.005186       -27.3525
  10   2.0000      -0.912040       -24.8179
  11   2.0000      -0.874614       -23.7995
  12   2.0000      -0.860239       -23.4083
  13   2.0000      -0.809652       -22.0318
  14   2.0000      -0.764746       -20.8098
  15   2.0000      -0.761145       -20.7118
  16   2.0000      -0.709812       -19.3150
  17   2.0000      -0.700603       -19.0644
  18   2.0000      -0.674293       -18.3485
  19   2.0000      -0.627782       -17.0828
  20   2.0000      -0.598309       -16.2808
  21   2.0000      -0.578819       -15.7505
  22   2.0000      -0.542643       -14.7661
  23   2.0000      -0.512273       -13.9397
  24   0.0000      -0.118825        -3.2334
  25   0.0000      -0.090243        -2.4556
  26   0.0000      -0.060618        -1.6495
  27   0.0000      -0.048355        -1.3158
  28   0.0000      -0.030467        -0.8290

MULLIKEN ATOMIC CHARGES
-----------------------
   0 C :    0.020806
   1 N :   -0.120711
   2 C :    0.026794
   3 C :    0.020467
   4 N :    0.002987
   5 N :   -0.048776
   6 H :    0.167846
   7 H :    0.169751
   8 H :    0.163131
   9 H :    0.177595
  10 H :    0.173705
  11 H :    0.049923
  12 H :    0.074087
  13 H :    0.068050
  14 H :    0.011223
  15 H :    0.043122
Sum of atomic charges:    1.0000000

LOEWDIN ATOMIC CHARGES
----------------------
   0 C :    0.042054
   1 N :    0.027995
   2 C :   -0.047461
   3 C :    0.151552
   4 N :    0.065048
   5 N :    0.024487
   6 H :    0.110086
   7 H :    0.104527
   8 H :    0.103336
   9 H :    0.112441
  10 H :    0.115167
  11 H :    0.034362
  12 H :    0.049715
  13 H :    0.050531
  14 H :    0.020472
  15 H :    0.035688

  Mayer bond orders larger than 0.100000
B(  0-C ,  1-N ) :   0.9317 B(  0-C ,  2-C ) :   1.0988 B(  0-C , 11-H ) :   0.9550
B(  0-C , 12-H ) :   0.9502 B(  1-N ,  3-C ) :   1.3818 B(  1-N ,  8-H ) :   0.9125
B(  2-C , 13-H ) :   0.9633 B(  2-C , 14-H ) :   0.9645 B(  2-C , 15-H ) :   0.9671
B(  3-C ,  4-N ) :   1.4242 B(  3-C ,  5-N ) :   1.3581 B(  4-N ,  9-H ) :   0.9196
B(  4-N , 10-H ) :   0.9230 B(  5-N ,  6-H ) :   0.9272 B(  5-N ,  7-H ) :   0.9320

FINAL SINGLE POINT ENERGY      -284.041322189830

DIPOLE MOMENT
-------------
                                X             Y             Z
Electronic contribution:      1.73628       1.08567       4.83113
Nuclear contribution   :     -1.95709      -1.20097      -3.70214
                        -----------------------------------------
Total Dipole Moment    :     -0.22081      -0.11530       1.12900
                        -----------------------------------------
Magnitude (a.u.)       :      1.15615
Magnitude (Debye)      :      2.93871

Rotational constants in cm-1:     0.241661     0.071598     0.061743
Rotational constants in MHz :  7244.800091  2146.442409  1851.001864

                             ****ORCA TERMINATED NORMALLY****
TOTAL RUN TIME: 0 days 0 hours 0 minutes 24 seconds 375 msec
