                         Program Version 5.0.0 -  RELEASE  -
|  1> !CAM-B3LYP RIJCOSX def2-TZVP def2/J TightSCF xyzfile
|  2>
|  3> *xyzfile 0 1 B.xyz
|  4>
|  5> %MaxCore 64000
|  6>
|  7> %pal nprocs 18
|  8> end
|  9>
| 10> %scf
| 11>   MaxIter 150
| 12> end
| 13>
| 14>
| 15>                          ****END OF INPUT****

CARTESIAN COORDINATES (ANGSTROEM)
---------------------------------
  C      4.999862   -1.596133   -5.924876
  N      5.281560   -1.974132   -4.535764
  C      3.766779   -2.266110   -6.511752
  C      2.496702   -1.844161   -5.735704
  H      1.626416   -2.217434   -6.308950
  H      2.481824   -2.456069   -4.793414
  O      2.459729   -0.509204   -5.505757
  C      4.792500   -1.361316   -3.457295
  N      3.939898   -0.374925   -3.557359
  N      5.259860   -1.754224   -2.239133
  H      5.922824   -2.521451   -2.186720
  H      4.654678   -1.640404   -1.442016
  H      5.709139   -2.875599   -4.387021
  H      3.330101   -0.317639   -4.361247
  H      3.698494    0.114468   -2.708333
  H      4.843333   -0.517930   -5.943019
  H      5.901695   -1.822503   -6.496467
  H      3.886191   -3.357076   -6.533604
  H      3.685602   -1.922168   -7.547128

 Total Charge           Charge          ....    0
 Multiplicity           Mult            ....    1
 Number of Electrons    NEL             ....   64
 Basis Dimension        Dim             ....  314

ORBITAL ENERGIES
----------------

  NO   OCC          E(Eh)            E(eV)
   0   2.0000     -19.043458      -518.1988
   1   2.0000     -14.452651      -393.2766
   2   2.0000     -14.444051      -393.0426
   3   2.0000     -14.401338      -391.8803
   4   2.0000     -10.406198      -283.1671
   5   2.0000     -10.275407      -279.6080
   6   2.0000     -10.223353      -278.1916
   7   2.0000     -10.209790      -277.8225
   8   2.0000      -1.125811       -30.6349
   9   2.0000      -1.017662       -27.6920
  10   2.0000      -1.000058       -27.2130
  11   2.0000      -0.957654       -26.0591
  12   2.0000      -0.836612       -22.7654
  13   2.0000      -0.753650       -20.5079
  14   2.0000      -0.708063       -19.2674
  15   2.0000      -0.684702       -18.6317
  16   2.0000      -0.658235       -17.9115
  17   2.0000      -0.614648       -16.7254
  18   2.0000      -0.590842       -16.0776
  19   2.0000      -0.574496       -15.6328
  20   2.0000      -0.538205       -14.6453
  21   2.0000      -0.529623       -14.4118
  22   2.0000      -0.503512       -13.7013
  23   2.0000      -0.472233       -12.8501
  24   2.0000      -0.427290       -11.6272
  25   2.0000      -0.406285       -11.0556
  26   2.0000      -0.394751       -10.7417
  27   2.0000      -0.372696       -10.1416
  28   2.0000      -0.360028        -9.7969
  29   2.0000      -0.339041        -9.2258
  30   2.0000      -0.225100        -6.1253
  31   2.0000      -0.220633        -6.0037
  32   0.0000       0.019689         0.5358
  33   0.0000       0.052328         1.4239
  34   0.0000       0.059759         1.6261
  35   0.0000       0.080152         2.1810
  36   0.0000       0.113154         3.0791

MULLIKEN ATOMIC CHARGES
-----------------------
   0 C :   -0.163759
   1 N :   -0.290035
   2 C :   -0.103891
   3 C :   -0.020081
   4 H :    0.051250
   5 H :    0.001198
   6 O :   -0.672800
   7 C :    0.411309
   8 N :   -0.377400
   9 N :   -0.462873
  10 H :    0.241018
  11 H :    0.253360
  12 H :    0.214205
  13 H :    0.297947
  14 H :    0.214276
  15 H :    0.155871
  16 H :    0.116997
  17 H :    0.053593
  18 H :    0.079816
Sum of atomic charges:   -0.0000000

LOEWDIN ATOMIC CHARGES
----------------------
   0 C :   -0.275120
   1 N :    0.149386
   2 C :   -0.290376
   3 C :   -0.499373
   4 H :    0.102981
   5 H :    0.079614
   6 O :   -0.284085
   7 C :   -0.424189
   8 N :    0.093067
   9 N :   -0.010854
  10 H :    0.175211
  11 H :    0.176248
  12 H :    0.187937
  13 H :    0.110921
  14 H :    0.175022
  15 H :    0.149318
  16 H :    0.129110
  17 H :    0.118606
  18 H :    0.136575

  Mayer bond orders larger than 0.100000
B(  0-C ,  1-N ) :   0.8465 B(  0-C ,  2-C ) :   0.9597 B(  0-C , 15-H ) :   0.9605
B(  0-C , 16-H ) :   0.9757 B(  1-N ,  7-C ) :   1.3284 B(  1-N , 12-H ) :   0.9241
B(  2-C ,  3-C ) :   0.9058 B(  2-C ,  6-O ) :  -0.1183 B(  2-C , 17-H ) :   0.9554
B(  2-C , 18-H ) :   0.9559 B(  3-C ,  4-H ) :   0.9682 B(  3-C ,  5-H ) :   0.9618
B(  3-C ,  6-O ) :   1.3013 B(  6-O , 13-H ) :   0.3683 B(  7-C ,  8-N ) :   1.5049
B(  7-C ,  9-N ) :   1.1895 B(  8-N , 13-H ) :   0.6479 B(  8-N , 14-H ) :   0.9241
B(  9-N , 10-H ) :   0.9195 B(  9-N , 11-H ) :   0.9137

FINAL SINGLE POINT ENERGY      -398.461368933413

DIPOLE MOMENT
-------------
                                X             Y             Z
Electronic contribution:      1.90715       1.95935       3.73073
Nuclear contribution   :      0.51577      -3.31768      -1.36804
                        -----------------------------------------
Total Dipole Moment    :      2.42292      -1.35833       2.36270
                        -----------------------------------------
Magnitude (a.u.)       :      3.64663
Magnitude (Debye)      :      9.26900

Rotational constants in cm-1:     0.111492     0.050787     0.040163
Rotational constants in MHz :  3342.457536  1522.560798  1204.057148

                             ****ORCA TERMINATED NORMALLY****
TOTAL RUN TIME: 0 days 0 hours 0 minutes 31 seconds 600 msec
