                         Program Version 5.0.0 -  RELEASE  -
|  1> !CAM-B3LYP RIJCOSX def2-SVP def2/J TightSCF
|  2> *xyz 0 1
|  3> C          3.76678       -2.26611       -6.51175
|  4> C          2.49670       -1.84416       -5.73570
|  5> H          1.62642       -2.21743       -6.30895
|  6> H          2.48182       -2.45607       -4.79341
|  7> F          2.45973       -0.50920       -5.50576
|  8> H          3.82914       -1.70941       -7.42340
|  9> H          3.71764       -3.31144       -6.73483
| 10> H          4.63199       -2.06931       -5.91377
| 11> *
| 12>
| 13> %MaxCore 64000
| 14>
| 15> %pal nprocs 4
| 16> end
| 17>
| 18> %scf
| 19>   MaxIter 150
| 20> end
| 21>
| 22>
| 23>                          ****END OF INPUT****

CARTESIAN COORDINATES (ANGSTROEM)
---------------------------------
  C      3.766780   -2.266110   -6.511750
  C      2.496700   -1.844160   -5.735700
  H      1.626420   -2.217430   -6.308950
  H      2.481820   -2.456070   -4.793410
  F      2.459730   -0.509200   -5.505760
  H      3.829140   -1.709410   -7.423400
  H      3.717640   -3.311440   -6.734830
  H      4.631990   -2.069310   -5.913770

 Total Charge           Charge          ....    0
 Multiplicity           Mult            ....    1
 Number of Electrons    NEL             ....   26
 Basis Dimension        Dim             ....   67

ORBITAL ENERGIES
----------------

  NO   OCC          E(Eh)            E(eV)
   0   2.0000     -24.740432      -673.2214
   1   2.0000     -10.334176      -281.2072
   2   2.0000     -10.252239      -278.9776
   3   2.0000      -1.255980       -34.1770
   4   2.0000      -0.833158       -22.6714
   5   2.0000      -0.698206       -18.9992
   6   2.0000      -0.574994       -15.6464
   7   2.0000      -0.563395       -15.3308
   8   2.0000      -0.524360       -14.2686
   9   2.0000      -0.468637       -12.7523
  10   2.0000      -0.464947       -12.6518
  11   2.0000      -0.393551       -10.7091
  12   2.0000      -0.389328       -10.5942
  13   0.0000       0.105639         2.8746
  14   0.0000       0.151717         4.1284
  15   0.0000       0.160319         4.3625
  16   0.0000       0.181553         4.9403
  17   0.0000       0.199719         5.4346

MULLIKEN ATOMIC CHARGES
-----------------------
   0 C :   -0.036678
   1 C :    0.221202
   2 H :    0.003673
   3 H :    0.004477
   4 F :   -0.250260
   5 H :    0.023480
   6 H :    0.011028
   7 H :    0.023079
Sum of atomic charges:    0.0000000

LOEWDIN ATOMIC CHARGES
----------------------
   0 C :   -0.072923
   1 C :    0.101629
   2 H :    0.007768
   3 H :    0.010071
   4 F :   -0.123458
   5 H :    0.024796
   6 H :    0.027978
   7 H :    0.024138

  Mayer bond orders larger than 0.100000
B(  0-C ,  1-C ) :   1.0926 B(  0-C ,  5-H ) :   0.9719 B(  0-C ,  6-H ) :   0.9626
B(  0-C ,  7-H ) :   0.9737 B(  1-C ,  2-H ) :   0.9596 B(  1-C ,  3-H ) :   0.9571
B(  1-C ,  4-F ) :   1.0196

FINAL SINGLE POINT ENERGY      -178.843413517257

DIPOLE MOMENT
-------------
                                X             Y             Z
Electronic contribution:     -2.09139       4.37698       1.82572
Nuclear contribution   :      2.16248      -5.01128      -1.96962
                        -----------------------------------------
Total Dipole Moment    :      0.07109      -0.63430      -0.14390
                        -----------------------------------------
Magnitude (a.u.)       :      0.65429
Magnitude (Debye)      :      1.66308

Rotational constants in cm-1:     1.244010     0.306580     0.270375
Rotational constants in MHz : 37294.476802  9191.037795  8105.639967

                             ****ORCA TERMINATED NORMALLY****
TOTAL RUN TIME: 0 days 0 hours 0 minutes 10 seconds 30 msec
