                         Program Version 5.0.0 -  RELEASE  -
|  1> !CAM-B3LYP RIJCOSX def2-SVP def2/J TightSCF
|  2> *xyz 0 1
|  3> C          4.99986       -1.59613       -5.92488
|  4> C          5.28156       -1.97413       -4.53576
|  5> C          3.76678       -2.26611       -6.51175
|  6> C          4.79250       -1.36132       -3.45730
|  7> N          3.93990       -0.37492       -3.55736
|  8> N          5.25986       -1.75422       -2.23913
|  9> H          5.92282       -2.52145       -2.18672
| 10> H          4.65468       -1.64040       -1.44202
| 11> H          5.70914       -2.87560       -4.38702
| 12> H          3.33010       -0.31764       -4.36125
| 13> H          3.69849        0.11447       -2.70833
| 14> H          4.84333       -0.51793       -5.94302
| 15> H          5.90170       -1.82250       -6.49647
| 16> H          3.63046       -1.94025       -7.52177
| 17> H          2.90710       -2.00116       -5.93240
| 18> H          3.89538       -3.32820       -6.49392
| 19> *
| 20>
| 21> %MaxCore 64000
| 22>
| 23> %pal nprocs 4
| 24> end
| 25>
| 26> %scf
| 27>   MaxIter 150
| 28> end
| 29>
| 30>
| 31>                          ****END OF INPUT****

CARTESIAN COORDINATES (ANGSTROEM)
---------------------------------
  C      4.999860   -1.596130   -5.924880
  C      5.281560   -1.974130   -4.535760
  C      3.766780   -2.266110   -6.511750
  C      4.792500   -1.361320   -3.457300
  N      3.939900   -0.374920   -3.557360
  N      5.259860   -1.754220   -2.239130
  H      5.922820   -2.521450   -2.186720
  H      4.654680   -1.640400   -1.442020
  H      5.709140   -2.875600   -4.387020
  H      3.330100   -0.317640   -4.361250
  H      3.698490    0.114470   -2.708330
  H      4.843330   -0.517930   -5.943020
  H      5.901700   -1.822500   -6.496470
  H      3.630460   -1.940250   -7.521770
  H      2.907100   -2.001160   -5.932400
  H      3.895380   -3.328200   -6.493920

 Total Charge           Charge          ....    0
 Multiplicity           Mult            ....    1
 Number of Electrons    NEL             ....   48
 Basis Dimension        Dim             ....  134

ORBITAL ENERGIES
----------------

  NO   OCC          E(Eh)            E(eV)
   0   2.0000     -14.400096      -391.8465
   1   2.0000     -14.390269      -391.5791
   2   2.0000     -10.294890      -280.1382
   3   2.0000     -10.224467      -278.2219
   4   2.0000     -10.223636      -278.1993
   5   2.0000     -10.171311      -276.7754
   6   2.0000      -1.028291       -27.9812
   7   2.0000      -0.933974       -25.4147
   8   2.0000      -0.841473       -22.8977
   9   2.0000      -0.760566       -20.6961
  10   2.0000      -0.679683       -18.4951
  11   2.0000      -0.641837       -17.4653
  12   2.0000      -0.609335       -16.5808
  13   2.0000      -0.566235       -15.4080
  14   2.0000      -0.539032       -14.6678
  15   2.0000      -0.506130       -13.7725
  16   2.0000      -0.478087       -13.0094
  17   2.0000      -0.456461       -12.4209
  18   2.0000      -0.443965       -12.0809
  19   2.0000      -0.411576       -11.1995
  20   2.0000      -0.385029       -10.4772
  21   2.0000      -0.376810       -10.2535
  22   2.0000      -0.321193        -8.7401
  23   2.0000      -0.208801        -5.6818
  24   0.0000       0.085099         2.3157
  25   0.0000       0.117096         3.1864
  26   0.0000       0.135921         3.6986
  27   0.0000       0.148931         4.0526
  28   0.0000       0.156783         4.2663

MULLIKEN ATOMIC CHARGES
-----------------------
   0 C :    0.054703
   1 C :   -0.176998
   2 C :    0.068868
   3 C :   -0.068935
   4 N :   -0.037109
   5 N :   -0.084006
   6 H :    0.112400
   7 H :    0.090173
   8 H :   -0.102185
   9 H :    0.126573
  10 H :    0.100665
  11 H :   -0.028986
  12 H :   -0.014766
  13 H :   -0.007167
  14 H :   -0.025615
  15 H :   -0.007616
Sum of atomic charges:   -0.0000000

LOEWDIN ATOMIC CHARGES
----------------------
   0 C :   -0.041013
   1 C :   -0.213358
   2 C :   -0.054095
   3 C :    0.023066
   4 N :   -0.006060
   5 N :   -0.043574
   6 H :    0.080691
   7 H :    0.053978
   8 H :   -0.015077
   9 H :    0.081531
  10 H :    0.067700
  11 H :    0.008859
  12 H :    0.020923
  13 H :    0.012504
  14 H :    0.007119
  15 H :    0.016806

  Mayer bond orders larger than 0.100000
B(  0-C ,  1-C ) :   1.0734 B(  0-C ,  2-C ) :   1.0925 B(  0-C , 11-H ) :   0.9371
B(  0-C , 12-H ) :   0.9232 B(  1-C ,  3-C ) :   1.6991 B(  1-C ,  8-H ) :   0.9454
B(  2-C , 13-H ) :   0.9645 B(  2-C , 14-H ) :   0.9677 B(  2-C , 15-H ) :   0.9660
B(  3-C ,  4-N ) :   1.2586 B(  3-C ,  5-N ) :   1.2139 B(  4-N ,  9-H ) :   0.9380
B(  4-N , 10-H ) :   0.9463 B(  5-N ,  6-H ) :   0.9448 B(  5-N ,  7-H ) :   0.9495

FINAL SINGLE POINT ENERGY      -267.566233095646

DIPOLE MOMENT
-------------
                                X             Y             Z
Electronic contribution:      1.16904       1.44511       4.66610
Nuclear contribution   :     -1.82485      -1.28952      -3.74132
                        -----------------------------------------
Total Dipole Moment    :     -0.65581       0.15559       0.92478
                        -----------------------------------------
Magnitude (a.u.)       :      1.14434
Magnitude (Debye)      :      2.90868

Rotational constants in cm-1:     0.245790     0.071632     0.062004
Rotational constants in MHz :  7368.599517  2147.482078  1858.844841

                             ****ORCA TERMINATED NORMALLY****
TOTAL RUN TIME: 0 days 0 hours 0 minutes 25 seconds 814 msec
