                         Program Version 5.0.0 -  RELEASE  -
|  1> !CAM-B3LYP RIJCOSX def2-SVP def2/J TightSCF
|  2> *xyz 0 1
|  3> C          4.99986       -1.59613       -5.92488
|  4> N          5.28156       -1.97413       -4.53576
|  5> C          3.76678       -2.26611       -6.51175
|  6> C          4.79250       -1.36132       -3.45730
|  7> C          3.93990       -0.37492       -3.55736
|  8> N          5.25986       -1.75422       -2.23913
|  9> H          5.92282       -2.52145       -2.18672
| 10> H          4.65468       -1.64040       -1.44202
| 11> H          5.70914       -2.87560       -4.38702
| 12> H          3.33010       -0.31764       -4.36125
| 13> H          3.69849        0.11447       -2.70833
| 14> H          4.84333       -0.51793       -5.94302
| 15> H          5.90170       -1.82250       -6.49647
| 16> H          3.63046       -1.94025       -7.52177
| 17> H          2.90710       -2.00116       -5.93240
| 18> H          3.89538       -3.32820       -6.49392
| 19> *
| 20>
| 21> %MaxCore 64000
| 22>
| 23> %pal nprocs 4
| 24> end
| 25>
| 26> %scf
| 27>   MaxIter 150
| 28> end
| 29>
| 30>
| 31>                          ****END OF INPUT****

CARTESIAN COORDINATES (ANGSTROEM)
---------------------------------
  C      4.999860   -1.596130   -5.924880
  N      5.281560   -1.974130   -4.535760
  C      3.766780   -2.266110   -6.511750
  C      4.792500   -1.361320   -3.457300
  C      3.939900   -0.374920   -3.557360
  N      5.259860   -1.754220   -2.239130
  H      5.922820   -2.521450   -2.186720
  H      4.654680   -1.640400   -1.442020
  H      5.709140   -2.875600   -4.387020
  H      3.330100   -0.317640   -4.361250
  H      3.698490    0.114470   -2.708330
  H      4.843330   -0.517930   -5.943020
  H      5.901700   -1.822500   -6.496470
  H      3.630460   -1.940250   -7.521770
  H      2.907100   -2.001160   -5.932400
  H      3.895380   -3.328200   -6.493920

 Total Charge           Charge          ....    0
 Multiplicity           Mult            ....    1
 Number of Electrons    NEL             ....   48
 Basis Dimension        Dim             ....  134

ORBITAL ENERGIES
----------------

  NO   OCC          E(Eh)            E(eV)
   0   2.0000     -14.395453      -391.7202
   1   2.0000     -14.392145      -391.6302
   2   2.0000     -10.297202      -280.2011
   3   2.0000     -10.284810      -279.8639
   4   2.0000     -10.241465      -278.6844
   5   2.0000     -10.164652      -276.5942
   6   2.0000      -1.029155       -28.0047
   7   2.0000      -0.943982       -25.6871
   8   2.0000      -0.825655       -22.4672
   9   2.0000      -0.782636       -21.2966
  10   2.0000      -0.704797       -19.1785
  11   2.0000      -0.628166       -17.0933
  12   2.0000      -0.607258       -16.5243
  13   2.0000      -0.574312       -15.6278
  14   2.0000      -0.520407       -14.1610
  15   2.0000      -0.510730       -13.8977
  16   2.0000      -0.489102       -13.3091
  17   2.0000      -0.460653       -12.5350
  18   2.0000      -0.444543       -12.0966
  19   2.0000      -0.432565       -11.7707
  20   2.0000      -0.414446       -11.2776
  21   2.0000      -0.406582       -11.0637
  22   2.0000      -0.305890        -8.3237
  23   2.0000      -0.221424        -6.0253
  24   0.0000       0.088769         2.4155
  25   0.0000       0.118261         3.2180
  26   0.0000       0.131220         3.5707
  27   0.0000       0.150793         4.1033
  28   0.0000       0.159693         4.3455

MULLIKEN ATOMIC CHARGES
-----------------------
   0 C :    0.085927
   1 N :   -0.162705
   2 C :    0.039380
   3 C :    0.005880
   4 C :   -0.095235
   5 N :   -0.104825
   6 H :    0.092750
   7 H :    0.120429
   8 H :    0.091914
   9 H :   -0.049898
  10 H :   -0.071373
  11 H :    0.024147
  12 H :    0.003055
  13 H :    0.007047
  14 H :    0.018317
  15 H :   -0.004810
Sum of atomic charges:   -0.0000000

LOEWDIN ATOMIC CHARGES
----------------------
   0 C :    0.042653
   1 N :   -0.034157
   2 C :   -0.061120
   3 C :    0.045990
   4 C :   -0.245272
   5 N :   -0.040582
   6 H :    0.061986
   7 H :    0.075319
   8 H :    0.059236
   9 H :   -0.006831
  10 H :   -0.007688
  11 H :    0.028717
  12 H :    0.017723
  13 H :    0.023520
  14 H :    0.024856
  15 H :    0.015650

  Mayer bond orders larger than 0.100000
B(  0-C ,  1-N ) :   1.0006 B(  0-C ,  2-C ) :   1.1047 B(  0-C , 11-H ) :   0.9384
B(  0-C , 12-H ) :   0.9591 B(  1-N ,  3-C ) :   1.1739 B(  1-N ,  8-H ) :   0.9346
B(  2-C , 13-H ) :   0.9635 B(  2-C , 14-H ) :   0.9670 B(  2-C , 15-H ) :   0.9657
B(  3-C ,  4-C ) :   1.7905 B(  3-C ,  5-N ) :   1.1922 B(  4-C ,  9-H ) :   0.9289
B(  4-C , 10-H ) :   0.9318 B(  5-N ,  6-H ) :   0.9549 B(  5-N ,  7-H ) :   0.9529

FINAL SINGLE POINT ENERGY      -267.560422245149

DIPOLE MOMENT
-------------
                                X             Y             Z
Electronic contribution:      2.46723      -0.16775       3.58173
Nuclear contribution   :     -2.10948      -0.95026      -3.53375
                        -----------------------------------------
Total Dipole Moment    :      0.35775      -1.11801       0.04797
                        -----------------------------------------
Magnitude (a.u.)       :      1.17483
Magnitude (Debye)      :      2.98618

Rotational constants in cm-1:     0.255209     0.072067     0.062929
Rotational constants in MHz :  7650.964615  2160.525743  1886.569524

                             ****ORCA TERMINATED NORMALLY****
TOTAL RUN TIME: 0 days 0 hours 0 minutes 25 seconds 813 msec
