                         Program Version 5.0.0 -  RELEASE  -
|  1> !CAM-B3LYP RIJCOSX def2-SVP def2/J TightSCF
|  2> *xyz 0 1
|  3> C          4.99986       -1.59613       -5.92488
|  4> N          5.28156       -1.97413       -4.53576
|  5> C          3.76678       -2.26611       -6.51175
|  6> C          4.79250       -1.36132       -3.45730
|  7> N          3.93990       -0.37492       -3.55736
|  8> C          5.25986       -1.75422       -2.23913
|  9> H          5.92282       -2.52145       -2.18672
| 10> H          4.65468       -1.64040       -1.44202
| 11> H          5.70914       -2.87560       -4.38702
| 12> H          3.33010       -0.31764       -4.36125
| 13> H          3.69849        0.11447       -2.70833
| 14> H          4.84333       -0.51793       -5.94302
| 15> H          5.90170       -1.82250       -6.49647
| 16> H          3.63046       -1.94025       -7.52177
| 17> H          2.90710       -2.00116       -5.93240
| 18> H          3.89538       -3.32820       -6.49392
| 19> *
| 20>
| 21> %MaxCore 64000
| 22>
| 23> %pal nprocs 4
| 24> end
| 25>
| 26> %scf
| 27>   MaxIter 150
| 28> end
| 29>
| 30>
| 31>                          ****END OF INPUT****

CARTESIAN COORDINATES (ANGSTROEM)
---------------------------------
  C      4.999860   -1.596130   -5.924880
  N      5.281560   -1.974130   -4.535760
  C      3.766780   -2.266110   -6.511750
  C      4.792500   -1.361320   -3.457300
  N      3.939900   -0.374920   -3.557360
  C      5.259860   -1.754220   -2.239130
  H      5.922820   -2.521450   -2.186720
  H      4.654680   -1.640400   -1.442020
  H      5.709140   -2.875600   -4.387020
  H      3.330100   -0.317640   -4.361250
  H      3.698490    0.114470   -2.708330
  H      4.843330   -0.517930   -5.943020
  H      5.901700   -1.822500   -6.496470
  H      3.630460   -1.940250   -7.521770
  H      2.907100   -2.001160   -5.932400
  H      3.895380   -3.328200   -6.493920

 Total Charge           Charge          ....    0
 Multiplicity           Mult            ....    1
 Number of Electrons    NEL             ....   48
 Basis Dimension        Dim             ....  134

ORBITAL ENERGIES
----------------

  NO   OCC          E(Eh)            E(eV)
   0   2.0000     -14.401540      -391.8858
   1   2.0000     -14.395866      -391.7314
   2   2.0000     -10.301406      -280.3155
   3   2.0000     -10.295051      -280.1426
   4   2.0000     -10.253619      -279.0151
   5   2.0000     -10.160227      -276.4738
   6   2.0000      -1.040016       -28.3003
   7   2.0000      -0.955563       -26.0022
   8   2.0000      -0.844301       -22.9746
   9   2.0000      -0.763793       -20.7839
  10   2.0000      -0.696212       -18.9449
  11   2.0000      -0.669026       -18.2051
  12   2.0000      -0.610729       -16.6188
  13   2.0000      -0.564476       -15.3602
  14   2.0000      -0.547218       -14.8906
  15   2.0000      -0.510809       -13.8998
  16   2.0000      -0.495952       -13.4955
  17   2.0000      -0.468366       -12.7449
  18   2.0000      -0.448241       -12.1973
  19   2.0000      -0.428658       -11.6644
  20   2.0000      -0.426438       -11.6040
  21   2.0000      -0.407939       -11.1006
  22   2.0000      -0.313265        -8.5244
  23   2.0000      -0.207888        -5.6569
  24   0.0000       0.081723         2.2238
  25   0.0000       0.118226         3.2171
  26   0.0000       0.128393         3.4938
  27   0.0000       0.142212         3.8698
  28   0.0000       0.152260         4.1432

MULLIKEN ATOMIC CHARGES
-----------------------
   0 C :    0.059561
   1 N :   -0.150339
   2 C :    0.044844
   3 C :   -0.064224
   4 N :   -0.042801
   5 C :   -0.092012
   6 H :   -0.076107
   7 H :   -0.061396
   8 H :    0.119710
   9 H :    0.103686
  10 H :    0.122552
  11 H :    0.008244
  12 H :    0.013006
  13 H :    0.009857
  14 H :   -0.002828
  15 H :    0.008246
Sum of atomic charges:    0.0000000

LOEWDIN ATOMIC CHARGES
----------------------
   0 C :    0.029914
   1 N :   -0.028256
   2 C :   -0.063496
   3 C :    0.039894
   4 N :   -0.003241
   5 C :   -0.278202
   6 H :   -0.014286
   7 H :   -0.015957
   8 H :    0.079895
   9 H :    0.065015
  10 H :    0.087020
  11 H :    0.018761
  12 H :    0.022487
  13 H :    0.023997
  14 H :    0.015228
  15 H :    0.021226

  Mayer bond orders larger than 0.100000
B(  0-C ,  1-N ) :   1.0141 B(  0-C ,  2-C ) :   1.0916 B(  0-C , 11-H ) :   0.9517
B(  0-C , 12-H ) :   0.9565 B(  1-N ,  3-C ) :   1.1922 B(  1-N ,  8-H ) :   0.9324
B(  2-C , 13-H ) :   0.9622 B(  2-C , 14-H ) :   0.9647 B(  2-C , 15-H ) :   0.9660
B(  3-C ,  4-N ) :   1.2582 B(  3-C ,  5-C ) :   1.7152 B(  4-N ,  9-H ) :   0.9438
B(  4-N , 10-H ) :   0.9414 B(  5-C ,  6-H ) :   0.9378 B(  5-C ,  7-H ) :   0.9434

FINAL SINGLE POINT ENERGY      -267.555830036805

DIPOLE MOMENT
-------------
                                X             Y             Z
Electronic contribution:      1.11316       1.29682       2.15175
Nuclear contribution   :     -1.82946      -1.24287      -3.25410
                        -----------------------------------------
Total Dipole Moment    :     -0.71630       0.05395      -1.10235
                        -----------------------------------------
Magnitude (a.u.)       :      1.31573
Magnitude (Debye)      :      3.34433

Rotational constants in cm-1:     0.244672     0.074506     0.064043
Rotational constants in MHz :  7335.067153  2233.624025  1919.970379

                             ****ORCA TERMINATED NORMALLY****
TOTAL RUN TIME: 0 days 0 hours 0 minutes 26 seconds 10 msec
