                         Program Version 5.0.0 -  RELEASE  -
|  1> !BLYP D3BJ RIJCOSX def2-SVPD def2/J TightSCF
|  2> *xyz -1 1
|  3> C          3.34350        3.35457       -3.59200
|  4> C          2.95263        1.86308       -3.57485
|  5> C          4.12921        0.89839       -3.41895
|  6> H          3.73369       -0.10060       -3.23763
|  7> H          4.71910        0.86256       -4.33901
|  8> C          5.01734        1.31521       -2.22130
|  9> H          2.27894        1.73525       -2.72550
| 10> H          2.37747        1.62579       -4.47587
| 11> O          4.73706        0.85411       -1.12283
| 12> O          5.92815        2.16811       -2.49136
| 13> H          4.00801        3.53975       -4.40994
| 14> H          3.83025        3.60631       -2.67298
| 15> H          2.46347        3.95263       -3.70497
| 16> *
| 17> %MaxCore 64000
| 18>
| 19> %pal nprocs 4
| 20> end
| 21>
| 22> %scf
| 23>   MaxIter 150
| 24> end
| 25>
| 26>
| 27>                          ****END OF INPUT****

CARTESIAN COORDINATES (ANGSTROEM)
---------------------------------
  C      3.343500    3.354570   -3.592000
  C      2.952630    1.863080   -3.574850
  C      4.129210    0.898390   -3.418950
  H      3.733690   -0.100600   -3.237630
  H      4.719100    0.862560   -4.339010
  C      5.017340    1.315210   -2.221300
  H      2.278940    1.735250   -2.725500
  H      2.377470    1.625790   -4.475870
  O      4.737060    0.854110   -1.122830
  O      5.928150    2.168110   -2.491360
  H      4.008010    3.539750   -4.409940
  H      3.830250    3.606310   -2.672980
  H      2.463470    3.952630   -3.704970

 Total Charge           Charge          ....   -1
 Multiplicity           Mult            ....    1
 Number of Electrons    NEL             ....   48
 Basis Dimension        Dim             ....  182

ORBITAL ENERGIES
----------------

  NO   OCC          E(Eh)            E(eV)
   0   2.0000     -18.541184      -504.5313
   1   2.0000     -18.530612      -504.2436
   2   2.0000      -9.805743      -266.8278
   3   2.0000      -9.774691      -265.9829
   4   2.0000      -9.761126      -265.6137
   5   2.0000      -9.746722      -265.2218
   6   2.0000      -0.727154       -19.7869
   7   2.0000      -0.635928       -17.3045
   8   2.0000      -0.547746       -14.9049
   9   2.0000      -0.458320       -12.4715
  10   2.0000      -0.370688       -10.0869
  11   2.0000      -0.271331        -7.3833
  12   2.0000      -0.244475        -6.6525
  13   2.0000      -0.231179        -6.2907
  14   2.0000      -0.199775        -5.4361
  15   2.0000      -0.178199        -4.8490
  16   2.0000      -0.164931        -4.4880
  17   2.0000      -0.154344        -4.1999
  18   2.0000      -0.149341        -4.0638
  19   2.0000      -0.129068        -3.5121
  20   2.0000      -0.123294        -3.3550
  21   2.0000      -0.014555        -0.3960
  22   2.0000       0.000943         0.0257
  23   2.0000       0.015469         0.4209
  24   0.0000       0.130441         3.5495
  25   0.0000       0.156263         4.2521
  26   0.0000       0.170442         4.6380
  27   0.0000       0.182015         4.9529
  28   0.0000       0.205866         5.6019

MULLIKEN ATOMIC CHARGES
-----------------------
   0 C :    1.091180
   1 C :   -0.183775
   2 C :    0.490926
   3 H :   -0.170057
   4 H :   -0.162243
   5 C :    0.141987
   6 H :   -0.151452
   7 H :   -0.348941
   8 O :   -0.503107
   9 O :   -0.605471
  10 H :   -0.163148
  11 H :   -0.123205
  12 H :   -0.312693
Sum of atomic charges:   -1.0000000

LOEWDIN ATOMIC CHARGES
----------------------
   0 C :    0.123902
   1 C :   -0.075510
   2 C :    0.006110
   3 H :   -0.010225
   4 H :   -0.003654
   5 C :   -0.329776
   6 H :    0.005340
   7 H :   -0.009559
   8 O :   -0.279782
   9 O :   -0.317502
  10 H :   -0.028893
  11 H :   -0.031609
  12 H :   -0.048843

  Mayer bond orders larger than 0.100000
B(  0-C ,  1-C ) :   1.2829 B(  0-C ,  6-H ) :   0.1285 B(  0-C ,  7-H ) :   0.1266
B(  0-C , 10-H ) :   0.6852 B(  0-C , 11-H ) :   0.7072 B(  0-C , 12-H ) :   0.6429
B(  1-C ,  2-C ) :   1.2252 B(  1-C ,  3-H ) :   0.1957 B(  1-C ,  4-H ) :   0.1860
B(  1-C ,  6-H ) :   0.8206 B(  1-C ,  7-H ) :   0.8716 B(  1-C , 10-H ) :   0.2574
B(  1-C , 11-H ) :   0.2886 B(  1-C , 12-H ) :   0.2835 B(  2-C ,  3-H ) :   0.7677
B(  2-C ,  4-H ) :   0.8180 B(  2-C ,  5-C ) :   0.9943 B(  2-C ,  6-H ) :   0.1543
B(  2-C ,  7-H ) :   0.1017 B(  3-H ,  5-C ) :   0.1726 B(  4-H ,  5-C ) :   0.1229
B(  5-C ,  8-O ) :   1.6042 B(  5-C ,  9-O ) :   1.5473 B(  5-C , 11-H ) :   0.1099
B( 10-H , 11-H ) :   0.1018

Dispersion correction           -0.020514210
FINAL SINGLE POINT ENERGY      -306.855583641533

DIPOLE MOMENT
-------------
                                X             Y             Z
Electronic contribution:      4.98154      -2.54298       4.51167
Nuclear contribution   :     -6.63819       2.74067      -6.05656
                        -----------------------------------------
Total Dipole Moment    :     -1.65665       0.19769      -1.54489
                        -----------------------------------------
Magnitude (a.u.)       :      2.27382
Magnitude (Debye)      :      5.77959

Rotational constants in cm-1:     0.190880     0.089683     0.076466
Rotational constants in MHz :  5722.446013  2688.617255  2292.390699

                             ****ORCA TERMINATED NORMALLY****
TOTAL RUN TIME: 0 days 0 hours 0 minutes 6 seconds 413 msec
