                         Program Version 5.0.0 -  RELEASE  -
|  1> !BLYP D3BJ RIJCOSX def2-SVPD def2/J TightSCF
|  2> *xyz 1 1
|  3> C          3.34350        3.35457       -3.59200
|  4> C          2.95263        1.86308       -3.57485
|  5> C          4.12921        0.89839       -3.41895
|  6> C          4.25587        3.70385       -4.72605
|  7> N          3.73403        4.29378       -5.80077
|  8> N          5.51504        3.40725       -4.63718
|  9> H          6.14919        3.60120       -5.39905
| 10> H          5.81358        2.89950       -3.80879
| 11> H          2.74138        4.51311       -5.82470
| 12> H          4.28755        4.52126       -6.61434
| 13> H          2.27894        1.73525       -2.72550
| 14> H          2.37747        1.62579       -4.47587
| 15> H          3.86125        3.59725       -2.66298
| 16> H          2.44649        3.97346       -3.65656
| 17> H          4.79753        1.01430       -4.24649
| 18> H          3.76482       -0.10731       -3.39293
| 19> H          4.64840        1.11330       -2.50837
| 20> *
| 21> %MaxCore 64000
| 22>
| 23> %pal nprocs 4
| 24> end
| 25>
| 26> %scf
| 27>   MaxIter 150
| 28> end
| 29>
| 30>
| 31>                          ****END OF INPUT****

CARTESIAN COORDINATES (ANGSTROEM)
---------------------------------
  C      3.343500    3.354570   -3.592000
  C      2.952630    1.863080   -3.574850
  C      4.129210    0.898390   -3.418950
  C      4.255870    3.703850   -4.726050
  N      3.734030    4.293780   -5.800770
  N      5.515040    3.407250   -4.637180
  H      6.149190    3.601200   -5.399050
  H      5.813580    2.899500   -3.808790
  H      2.741380    4.513110   -5.824700
  H      4.287550    4.521260   -6.614340
  H      2.278940    1.735250   -2.725500
  H      2.377470    1.625790   -4.475870
  H      3.861250    3.597250   -2.662980
  H      2.446490    3.973460   -3.656560
  H      4.797530    1.014300   -4.246490
  H      3.764820   -0.107310   -3.392930
  H      4.648400    1.113300   -2.508370

 Total Charge           Charge          ....    1
 Multiplicity           Mult            ....    1
 Number of Electrons    NEL             ....   48
 Basis Dimension        Dim             ....  208

ORBITAL ENERGIES
----------------

  NO   OCC          E(Eh)            E(eV)
   0   2.0000     -14.267890      -388.2490
   1   2.0000     -14.264437      -388.1551
   2   2.0000     -10.231179      -278.4045
   3   2.0000     -10.114777      -275.2371
   4   2.0000     -10.084383      -274.4100
   5   2.0000     -10.055689      -273.6292
   6   2.0000      -1.102786       -30.0083
   7   2.0000      -1.015147       -27.6236
   8   2.0000      -0.887870       -24.1602
   9   2.0000      -0.811795       -22.0901
  10   2.0000      -0.763424       -20.7738
  11   2.0000      -0.725705       -19.7474
  12   2.0000      -0.712926       -19.3997
  13   2.0000      -0.668804       -18.1991
  14   2.0000      -0.648503       -17.6467
  15   2.0000      -0.598517       -16.2865
  16   2.0000      -0.569111       -15.4863
  17   2.0000      -0.557739       -15.1769
  18   2.0000      -0.525216       -14.2919
  19   2.0000      -0.512576       -13.9479
  20   2.0000      -0.465991       -12.6803
  21   2.0000      -0.458767       -12.4837
  22   2.0000      -0.455030       -12.3820
  23   2.0000      -0.442231       -12.0337
  24   0.0000      -0.236899        -6.4463
  25   0.0000      -0.179692        -4.8897
  26   0.0000      -0.138566        -3.7706
  27   0.0000      -0.135157        -3.6778
  28   0.0000      -0.112465        -3.0603

MULLIKEN ATOMIC CHARGES
-----------------------
   0 C :    0.359087
   1 C :    0.006105
   2 C :    1.169265
   3 C :    0.558772
   4 N :    0.250318
   5 N :    0.362160
   6 H :   -0.217335
   7 H :    0.019807
   8 H :   -0.027668
   9 H :   -0.200710
  10 H :   -0.168945
  11 H :   -0.211998
  12 H :   -0.074582
  13 H :   -0.209848
  14 H :   -0.190547
  15 H :   -0.312484
  16 H :   -0.111397
Sum of atomic charges:    1.0000000

LOEWDIN ATOMIC CHARGES
----------------------
   0 C :    0.053730
   1 C :   -0.022934
   2 C :    0.150215
   3 C :   -0.060201
   4 N :    0.302367
   5 N :    0.307854
   6 H :    0.051300
   7 H :    0.040582
   8 H :    0.046750
   9 H :    0.037981
  10 H :    0.036133
  11 H :    0.029612
  12 H :    0.042605
  13 H :    0.034133
  14 H :   -0.038832
  15 H :   -0.001517
  16 H :   -0.009780

  Mayer bond orders larger than 0.100000
B(  0-C ,  1-C ) :   1.1924 B(  0-C ,  3-C ) :   1.0570 B(  0-C ,  4-N ) :   0.1270
B(  0-C ,  5-N ) :   0.1511 B(  0-C , 10-H ) :   0.1604 B(  0-C , 11-H ) :   0.1217
B(  0-C , 12-H ) :   0.7519 B(  0-C , 13-H ) :   0.8135 B(  1-C ,  2-C ) :   1.2860
B(  1-C , 10-H ) :   0.7995 B(  1-C , 11-H ) :   0.8943 B(  1-C , 12-H ) :   0.1525
B(  1-C , 13-H ) :   0.1315 B(  1-C , 14-H ) :   0.2601 B(  1-C , 15-H ) :   0.2717
B(  1-C , 16-H ) :   0.2661 B(  2-C , 10-H ) :   0.1214 B(  2-C , 11-H ) :   0.1051
B(  2-C , 14-H ) :   0.7052 B(  2-C , 15-H ) :   0.6836 B(  2-C , 16-H ) :   0.6855
B(  3-C ,  4-N ) :   1.1035 B(  3-C ,  5-N ) :   1.2254 B(  3-C ,  6-H ) :  -0.1979
B(  3-C ,  8-H ) :  -0.1103 B(  3-C ,  9-H ) :  -0.1755 B(  3-C , 13-H ) :   0.1397
B(  4-N ,  5-N ) :   0.1852 B(  4-N ,  8-H ) :   1.1176 B(  4-N ,  9-H ) :   1.2964
B(  5-N ,  6-H ) :   1.3403 B(  5-N ,  7-H ) :   1.0272 B(  6-H ,  7-H ) :  -0.2100
B(  8-H ,  9-H ) :  -0.1956

Dispersion correction           -0.028006620
FINAL SINGLE POINT ENERGY      -268.055756014306

DIPOLE MOMENT
-------------
                                X             Y             Z
Electronic contribution:      1.42228       4.41080      -2.93665
Nuclear contribution   :     -0.87169      -3.40560       1.97790
                        -----------------------------------------
Total Dipole Moment    :      0.55059       1.00520      -0.95874
                        -----------------------------------------
Magnitude (a.u.)       :      1.49424
Magnitude (Debye)      :      3.79806

Rotational constants in cm-1:     0.188632     0.081113     0.066356
Rotational constants in MHz :  5655.057814  2431.708101  1989.304146

                             ****ORCA TERMINATED NORMALLY****
TOTAL RUN TIME: 0 days 0 hours 0 minutes 7 seconds 758 msec
