                         Program Version 5.0.0 -  RELEASE  -
|  1> !BLYP D3BJ RIJCOSX def2-SVPD def2/J TightSCF
|  2> *xyz 0 1
|  3> C          3.34350        3.35457       -3.59200
|  4> C          2.95263        1.86308       -3.57485
|  5> C          4.12921        0.89839       -3.41895
|  6> H          3.73369       -0.10060       -3.23763
|  7> H          4.71910        0.86256       -4.33901
|  8> C          5.01734        1.31521       -2.22130
|  9> H          2.27894        1.73525       -2.72550
| 10> H          2.37747        1.62579       -4.47587
| 11> F          4.73706        0.85411       -1.12283
| 12> O          5.92815        2.16811       -2.49136
| 13> H          4.00801        3.53975       -4.40994
| 14> H          3.83025        3.60631       -2.67298
| 15> H          2.46347        3.95263       -3.70497
| 16> *
| 17> %MaxCore 64000
| 18>
| 19> %pal nprocs 4
| 20> end
| 21>
| 22> %scf
| 23>   MaxIter 150
| 24> end
| 25>
| 26>
| 27>                          ****END OF INPUT****

CARTESIAN COORDINATES (ANGSTROEM)
---------------------------------
  C      3.343500    3.354570   -3.592000
  C      2.952630    1.863080   -3.574850
  C      4.129210    0.898390   -3.418950
  H      3.733690   -0.100600   -3.237630
  H      4.719100    0.862560   -4.339010
  C      5.017340    1.315210   -2.221300
  H      2.278940    1.735250   -2.725500
  H      2.377470    1.625790   -4.475870
  F      4.737060    0.854110   -1.122830
  O      5.928150    2.168110   -2.491360
  H      4.008010    3.539750   -4.409940
  H      3.830250    3.606310   -2.672980
  H      2.463470    3.952630   -3.704970

 Total Charge           Charge          ....    0
 Multiplicity           Mult            ....    1
 Number of Electrons    NEL             ....   48
 Basis Dimension        Dim             ....  182

ORBITAL ENERGIES
----------------

  NO   OCC          E(Eh)            E(eV)
   0   2.0000     -24.388903      -663.6558
   1   2.0000     -18.795601      -511.4543
   2   2.0000     -10.098706      -274.7998
   3   2.0000      -9.950628      -270.7704
   4   2.0000      -9.940117      -270.4843
   5   2.0000      -9.911478      -269.7050
   6   2.0000      -1.222337       -33.2615
   7   2.0000      -0.920167       -25.0390
   8   2.0000      -0.726563       -19.7708
   9   2.0000      -0.646355       -17.5882
  10   2.0000      -0.601125       -16.3574
  11   2.0000      -0.544944       -14.8287
  12   2.0000      -0.502861       -13.6836
  13   2.0000      -0.482410       -13.1270
  14   2.0000      -0.441030       -12.0010
  15   2.0000      -0.415812       -11.3148
  16   2.0000      -0.402347       -10.9484
  17   2.0000      -0.366299        -9.9675
  18   2.0000      -0.344809        -9.3827
  19   2.0000      -0.321748        -8.7552
  20   2.0000      -0.315983        -8.5983
  21   2.0000      -0.307195        -8.3592
  22   2.0000      -0.296235        -8.0610
  23   2.0000      -0.235898        -6.4191
  24   0.0000      -0.069174        -1.8823
  25   0.0000      -0.005412        -0.1473
  26   0.0000       0.025871         0.7040
  27   0.0000       0.031136         0.8472
  28   0.0000       0.037164         1.0113

MULLIKEN ATOMIC CHARGES
-----------------------
   0 C :    1.115996
   1 C :   -0.139029
   2 C :    0.468489
   3 H :   -0.150609
   4 H :   -0.139174
   5 C :    0.574795
   6 H :   -0.158114
   7 H :   -0.309412
   8 F :   -0.268597
   9 O :   -0.413475
  10 H :   -0.154991
  11 H :   -0.137184
  12 H :   -0.288694
Sum of atomic charges:    0.0000000

LOEWDIN ATOMIC CHARGES
----------------------
   0 C :    0.145201
   1 C :   -0.051617
   2 C :    0.051974
   3 H :    0.014403
   4 H :    0.031682
   5 C :   -0.046087
   6 H :    0.015949
   7 H :    0.019885
   8 F :    0.014653
   9 O :   -0.127722
  10 H :   -0.014376
  11 H :   -0.030457
  12 H :   -0.023486

  Mayer bond orders larger than 0.100000
B(  0-C ,  1-C ) :   1.3063 B(  0-C ,  6-H ) :   0.1201 B(  0-C ,  7-H ) :   0.1153
B(  0-C , 10-H ) :   0.6911 B(  0-C , 11-H ) :   0.7141 B(  0-C , 12-H ) :   0.6502
B(  1-C ,  2-C ) :   1.2193 B(  1-C ,  3-H ) :   0.1879 B(  1-C ,  4-H ) :   0.1815
B(  1-C ,  5-C ) :   0.1014 B(  1-C ,  6-H ) :   0.8167 B(  1-C ,  7-H ) :   0.8694
B(  1-C , 10-H ) :   0.2467 B(  1-C , 11-H ) :   0.2714 B(  1-C , 12-H ) :   0.2691
B(  2-C ,  3-H ) :   0.7714 B(  2-C ,  4-H ) :   0.8145 B(  2-C ,  5-C ) :   1.0167
B(  2-C ,  6-H ) :   0.1365 B(  4-H ,  5-C ) :   0.1019 B(  5-C ,  8-F ) :   0.8248
B(  5-C ,  9-O ) :   1.8366 B(  8-F ,  9-O ) :   0.1367

Dispersion correction           -0.019694966
FINAL SINGLE POINT ENERGY      -331.380362366569

DIPOLE MOMENT
-------------
                                X             Y             Z
Electronic contribution:      6.09730      -4.34383       7.58878
Nuclear contribution   :     -7.06456       3.75953      -7.86734
                        -----------------------------------------
Total Dipole Moment    :     -0.96726      -0.58429      -0.27856
                        -----------------------------------------
Magnitude (a.u.)       :      1.16386
Magnitude (Debye)      :      2.95831

Rotational constants in cm-1:     0.185871     0.085512     0.073500
Rotational constants in MHz :  5572.269993  2563.593529  2203.466497

                             ****ORCA TERMINATED NORMALLY****
TOTAL RUN TIME: 0 days 0 hours 0 minutes 6 seconds 727 msec
