                         Program Version 5.0.0 -  RELEASE  -
|  1> !BLYP D3BJ RIJCOSX def2-SVPD def2/J TightSCF
|  2> *xyz 0 1
|  3> C          3.34350        3.35457       -3.59200
|  4> C          2.95263        1.86308       -3.57485
|  5> C          4.12921        0.89839       -3.41895
|  6> C          4.25587        3.70385       -4.72605
|  7> C          3.73403        4.29378       -5.80077
|  8> N          5.51504        3.40725       -4.63718
|  9> H          6.14919        3.60120       -5.39905
| 10> H          5.81358        2.89950       -3.80879
| 11> H          2.74138        4.51311       -5.82470
| 12> H          4.28755        4.52126       -6.61434
| 13> H          2.27894        1.73525       -2.72550
| 14> H          2.37747        1.62579       -4.47587
| 15> H          3.86125        3.59725       -2.66298
| 16> H          2.44649        3.97346       -3.65656
| 17> H          4.79753        1.01430       -4.24649
| 18> H          3.76482       -0.10731       -3.39293
| 19> H          4.64840        1.11330       -2.50837
| 20> *
| 21> %MaxCore 64000
| 22>
| 23> %pal nprocs 4
| 24> end
| 25>
| 26> %scf
| 27>   MaxIter 150
| 28> end
| 29>
| 30>
| 31>                          ****END OF INPUT****

CARTESIAN COORDINATES (ANGSTROEM)
---------------------------------
  C      3.343500    3.354570   -3.592000
  C      2.952630    1.863080   -3.574850
  C      4.129210    0.898390   -3.418950
  C      4.255870    3.703850   -4.726050
  C      3.734030    4.293780   -5.800770
  N      5.515040    3.407250   -4.637180
  H      6.149190    3.601200   -5.399050
  H      5.813580    2.899500   -3.808790
  H      2.741380    4.513110   -5.824700
  H      4.287550    4.521260   -6.614340
  H      2.278940    1.735250   -2.725500
  H      2.377470    1.625790   -4.475870
  H      3.861250    3.597250   -2.662980
  H      2.446490    3.973460   -3.656560
  H      4.797530    1.014300   -4.246490
  H      3.764820   -0.107310   -3.392930
  H      4.648400    1.113300   -2.508370

 Total Charge           Charge          ....    0
 Multiplicity           Mult            ....    1
 Number of Electrons    NEL             ....   48
 Basis Dimension        Dim             ....  208

ORBITAL ENERGIES
----------------

  NO   OCC          E(Eh)            E(eV)
   0   2.0000     -14.028385      -381.7318
   1   2.0000      -9.936327      -270.3812
   2   2.0000      -9.919112      -269.9128
   3   2.0000      -9.918840      -269.9053
   4   2.0000      -9.908926      -269.6356
   5   2.0000      -9.854637      -268.1583
   6   2.0000      -0.842596       -22.9282
   7   2.0000      -0.706770       -19.2322
   8   2.0000      -0.653018       -17.7695
   9   2.0000      -0.601770       -16.3750
  10   2.0000      -0.539241       -14.6735
  11   2.0000      -0.503118       -13.6905
  12   2.0000      -0.472056       -12.8453
  13   2.0000      -0.428914       -11.6713
  14   2.0000      -0.397938       -10.8284
  15   2.0000      -0.382458       -10.4072
  16   2.0000      -0.362041        -9.8516
  17   2.0000      -0.342207        -9.3119
  18   2.0000      -0.326252        -8.8778
  19   2.0000      -0.314273        -8.5518
  20   2.0000      -0.296734        -8.0746
  21   2.0000      -0.281642        -7.6639
  22   2.0000      -0.279660        -7.6099
  23   2.0000      -0.152045        -4.1374
  24   0.0000      -0.004341        -0.1181
  25   0.0000       0.015263         0.4153
  26   0.0000       0.027254         0.7416
  27   0.0000       0.030737         0.8364
  28   0.0000       0.046672         1.2700

MULLIKEN ATOMIC CHARGES
-----------------------
   0 C :    0.587593
   1 C :   -0.025526
   2 C :    1.150341
   3 C :   -0.178121
   4 C :    0.698349
   5 N :    0.523165
   6 H :   -0.275080
   7 H :   -0.147134
   8 H :   -0.275581
   9 H :   -0.672575
  10 H :   -0.194913
  11 H :   -0.252099
  12 H :   -0.182705
  13 H :   -0.121660
  14 H :   -0.175681
  15 H :   -0.337629
  16 H :   -0.120745
Sum of atomic charges:   -0.0000000

LOEWDIN ATOMIC CHARGES
----------------------
   0 C :    0.013010
   1 C :   -0.047231
   2 C :    0.128507
   3 C :   -0.268141
   4 C :    0.192153
   5 N :    0.196519
   6 H :    0.011295
   7 H :   -0.007738
   8 H :   -0.091341
   9 H :   -0.098457
  10 H :    0.010299
  11 H :    0.018980
  12 H :    0.014711
  13 H :    0.017761
  14 H :   -0.041830
  15 H :   -0.024810
  16 H :   -0.023686

  Mayer bond orders larger than 0.100000
B(  0-C ,  1-C ) :   1.1453 B(  0-C ,  3-C ) :   1.1111 B(  0-C ,  4-C ) :   0.2121
B(  0-C ,  5-N ) :   0.1502 B(  0-C , 10-H ) :   0.1397 B(  0-C , 11-H ) :   0.1508
B(  0-C , 12-H ) :   0.6070 B(  0-C , 13-H ) :   0.7687 B(  1-C ,  2-C ) :   1.2661
B(  1-C , 10-H ) :   0.7938 B(  1-C , 11-H ) :   0.9009 B(  1-C , 12-H ) :   0.1782
B(  1-C , 13-H ) :   0.1495 B(  1-C , 14-H ) :   0.2665 B(  1-C , 15-H ) :   0.2841
B(  1-C , 16-H ) :   0.2779 B(  2-C , 10-H ) :   0.1224 B(  2-C , 11-H ) :   0.1001
B(  2-C , 14-H ) :   0.7333 B(  2-C , 15-H ) :   0.6525 B(  2-C , 16-H ) :   0.6783
B(  3-C ,  4-C ) :   1.4191 B(  3-C ,  5-N ) :   1.2789 B(  3-C ,  9-H ) :   0.1960
B(  3-C , 12-H ) :   0.2273 B(  3-C , 13-H ) :   0.2089 B(  4-C ,  5-N ) :   0.3335
B(  4-C ,  8-H ) :   0.8859 B(  4-C ,  9-H ) :   0.4684 B(  5-N ,  6-H ) :   1.2782
B(  5-N ,  7-H ) :   0.9728 B(  6-H ,  7-H ) :  -0.1798

Dispersion correction           -0.028949568
FINAL SINGLE POINT ENERGY      -251.585401020485

DIPOLE MOMENT
-------------
                                X             Y             Z
Electronic contribution:      1.45119       2.66806      -1.23281
Nuclear contribution   :     -0.93682      -3.08083       1.62582
                        -----------------------------------------
Total Dipole Moment    :      0.51437      -0.41277       0.39300
                        -----------------------------------------
Magnitude (a.u.)       :      0.76772
Magnitude (Debye)      :      1.95140

Rotational constants in cm-1:     0.191400     0.084268     0.068511
Rotational constants in MHz :  5738.038424  2526.291061  2053.912421

                             ****ORCA TERMINATED NORMALLY****
TOTAL RUN TIME: 0 days 0 hours 0 minutes 9 seconds 149 msec
