                         Program Version 5.0.0 -  RELEASE  -
|  1> !BLYP D3BJ RIJCOSX def2-SVPD def2/J TightSCF
|  2> *xyz 0 1
|  3> C          3.34350        3.35457       -3.59200
|  4> C          2.95263        1.86308       -3.57485
|  5> C          4.12921        0.89839       -3.41895
|  6> H          3.73369       -0.10060       -3.23763
|  7> H          4.71910        0.86256       -4.33901
|  8> C          5.01734        1.31521       -2.22130
|  9> H          2.27894        1.73525       -2.72550
| 10> H          2.37747        1.62579       -4.47587
| 11> O          4.73706        0.85411       -1.12283
| 12> F          5.92815        2.16811       -2.49136
| 13> H          4.00801        3.53975       -4.40994
| 14> H          3.83025        3.60631       -2.67298
| 15> H          2.46347        3.95263       -3.70497
| 16> *
| 17> %MaxCore 64000
| 18>
| 19> %pal nprocs 4
| 20> end
| 21>
| 22> %scf
| 23>   MaxIter 150
| 24> end
| 25>
| 26>
| 27>                          ****END OF INPUT****

CARTESIAN COORDINATES (ANGSTROEM)
---------------------------------
  C      3.343500    3.354570   -3.592000
  C      2.952630    1.863080   -3.574850
  C      4.129210    0.898390   -3.418950
  H      3.733690   -0.100600   -3.237630
  H      4.719100    0.862560   -4.339010
  C      5.017340    1.315210   -2.221300
  H      2.278940    1.735250   -2.725500
  H      2.377470    1.625790   -4.475870
  O      4.737060    0.854110   -1.122830
  F      5.928150    2.168110   -2.491360
  H      4.008010    3.539750   -4.409940
  H      3.830250    3.606310   -2.672980
  H      2.463470    3.952630   -3.704970

 Total Charge           Charge          ....    0
 Multiplicity           Mult            ....    1
 Number of Electrons    NEL             ....   48
 Basis Dimension        Dim             ....  182

ORBITAL ENERGIES
----------------

  NO   OCC          E(Eh)            E(eV)
   0   2.0000     -24.367863      -663.0833
   1   2.0000     -18.805033      -511.7110
   2   2.0000     -10.094808      -274.6937
   3   2.0000      -9.950168      -270.7578
   4   2.0000      -9.940579      -270.4969
   5   2.0000      -9.919945      -269.9354
   6   2.0000      -1.182297       -32.1719
   7   2.0000      -0.951747       -25.8984
   8   2.0000      -0.728556       -19.8250
   9   2.0000      -0.646116       -17.5817
  10   2.0000      -0.586163       -15.9503
  11   2.0000      -0.543444       -14.7879
  12   2.0000      -0.483429       -13.1548
  13   2.0000      -0.464572       -12.6417
  14   2.0000      -0.445133       -12.1127
  15   2.0000      -0.410417       -11.1680
  16   2.0000      -0.402197       -10.9444
  17   2.0000      -0.370994       -10.0953
  18   2.0000      -0.356536        -9.7018
  19   2.0000      -0.339141        -9.2285
  20   2.0000      -0.315102        -8.5744
  21   2.0000      -0.310969        -8.4619
  22   2.0000      -0.304628        -8.2893
  23   2.0000      -0.248193        -6.7537
  24   0.0000      -0.063821        -1.7367
  25   0.0000      -0.003465        -0.0943
  26   0.0000       0.025093         0.6828
  27   0.0000       0.028467         0.7746
  28   0.0000       0.039959         1.0873

MULLIKEN ATOMIC CHARGES
-----------------------
   0 C :    1.098762
   1 C :   -0.104997
   2 C :    0.455526
   3 H :   -0.143505
   4 H :   -0.138347
   5 C :    0.562404
   6 H :   -0.140524
   7 H :   -0.313388
   8 O :   -0.339251
   9 F :   -0.329252
  10 H :   -0.166883
  11 H :   -0.162068
  12 H :   -0.278476
Sum of atomic charges:    0.0000000

LOEWDIN ATOMIC CHARGES
----------------------
   0 C :    0.143444
   1 C :   -0.049222
   2 C :    0.053287
   3 H :    0.025417
   4 H :    0.021661
   5 C :   -0.048972
   6 H :    0.022227
   7 H :    0.019551
   8 O :   -0.090324
   9 F :   -0.028836
  10 H :   -0.018465
  11 H :   -0.028365
  12 H :   -0.021404

  Mayer bond orders larger than 0.100000
B(  0-C ,  1-C ) :   1.3144 B(  0-C ,  6-H ) :   0.1216 B(  0-C ,  7-H ) :   0.1183
B(  0-C , 10-H ) :   0.6843 B(  0-C , 11-H ) :   0.7124 B(  0-C , 12-H ) :   0.6592
B(  1-C ,  2-C ) :   1.2334 B(  1-C ,  3-H ) :   0.1809 B(  1-C ,  4-H ) :   0.1800
B(  1-C ,  6-H ) :   0.8234 B(  1-C ,  7-H ) :   0.8672 B(  1-C , 10-H ) :   0.2418
B(  1-C , 11-H ) :   0.2668 B(  1-C , 12-H ) :   0.2663 B(  2-C ,  3-H ) :   0.7690
B(  2-C ,  4-H ) :   0.8217 B(  2-C ,  5-C ) :   0.9979 B(  2-C ,  6-H ) :   0.1408
B(  3-H ,  5-C ) :   0.1485 B(  5-C ,  8-O ) :   1.9101 B(  5-C ,  9-F ) :   0.7469
B(  8-O ,  9-F ) :   0.1457

Dispersion correction           -0.019587378
FINAL SINGLE POINT ENERGY      -331.396319969517

DIPOLE MOMENT
-------------
                                X             Y             Z
Electronic contribution:      8.06559      -2.12746       5.26643
Nuclear contribution   :     -8.40998       2.27527      -6.32148
                        -----------------------------------------
Total Dipole Moment    :     -0.34439       0.14781      -1.05506
                        -----------------------------------------
Magnitude (a.u.)       :      1.11964
Magnitude (Debye)      :      2.84590

Rotational constants in cm-1:     0.181105     0.088112     0.073966
Rotational constants in MHz :  5429.384816  2641.525058  2217.445966

                             ****ORCA TERMINATED NORMALLY****
TOTAL RUN TIME: 0 days 0 hours 0 minutes 6 seconds 508 msec
