                         Program Version 5.0.0 -  RELEASE  -
|  1> !BLYP D3BJ RIJCOSX def2-SVPD def2/J TightSCF
|  2> *xyz 0 1
|  3> C          3.34350        3.35457       -3.59200
|  4> C          2.95263        1.86308       -3.57485
|  5> C          4.12921        0.89839       -3.41895
|  6> C          4.25587        3.70385       -4.72605
|  7> N          3.73403        4.29378       -5.80077
|  8> C          5.51504        3.40725       -4.63718
|  9> H          6.14919        3.60120       -5.39905
| 10> H          5.81358        2.89950       -3.80879
| 11> H          2.74138        4.51311       -5.82470
| 12> H          4.28755        4.52126       -6.61434
| 13> H          2.27894        1.73525       -2.72550
| 14> H          2.37747        1.62579       -4.47587
| 15> H          3.86125        3.59725       -2.66298
| 16> H          2.44649        3.97346       -3.65656
| 17> H          4.79753        1.01430       -4.24649
| 18> H          3.76482       -0.10731       -3.39293
| 19> H          4.64840        1.11330       -2.50837
| 20> *
| 21> %MaxCore 64000
| 22>
| 23> %pal nprocs 4
| 24> end
| 25>
| 26> %scf
| 27>   MaxIter 150
| 28> end
| 29>
| 30>
| 31>                          ****END OF INPUT****

CARTESIAN COORDINATES (ANGSTROEM)
---------------------------------
  C      3.343500    3.354570   -3.592000
  C      2.952630    1.863080   -3.574850
  C      4.129210    0.898390   -3.418950
  C      4.255870    3.703850   -4.726050
  N      3.734030    4.293780   -5.800770
  C      5.515040    3.407250   -4.637180
  H      6.149190    3.601200   -5.399050
  H      5.813580    2.899500   -3.808790
  H      2.741380    4.513110   -5.824700
  H      4.287550    4.521260   -6.614340
  H      2.278940    1.735250   -2.725500
  H      2.377470    1.625790   -4.475870
  H      3.861250    3.597250   -2.662980
  H      2.446490    3.973460   -3.656560
  H      4.797530    1.014300   -4.246490
  H      3.764820   -0.107310   -3.392930
  H      4.648400    1.113300   -2.508370

 Total Charge           Charge          ....    0
 Multiplicity           Mult            ....    1
 Number of Electrons    NEL             ....   48
 Basis Dimension        Dim             ....  208

ORBITAL ENERGIES
----------------

  NO   OCC          E(Eh)            E(eV)
   0   2.0000     -14.025380      -381.6500
   1   2.0000      -9.934006      -270.3181
   2   2.0000      -9.918435      -269.8943
   3   2.0000      -9.917104      -269.8581
   4   2.0000      -9.897197      -269.3164
   5   2.0000      -9.853392      -268.1244
   6   2.0000      -0.828312       -22.5395
   7   2.0000      -0.707402       -19.2494
   8   2.0000      -0.649050       -17.6615
   9   2.0000      -0.607675       -16.5357
  10   2.0000      -0.528378       -14.3779
  11   2.0000      -0.501465       -13.6455
  12   2.0000      -0.463933       -12.6242
  13   2.0000      -0.423762       -11.5311
  14   2.0000      -0.398948       -10.8559
  15   2.0000      -0.382489       -10.4081
  16   2.0000      -0.345462        -9.4005
  17   2.0000      -0.344086        -9.3631
  18   2.0000      -0.327213        -8.9039
  19   2.0000      -0.311870        -8.4864
  20   2.0000      -0.291103        -7.9213
  21   2.0000      -0.278937        -7.5903
  22   2.0000      -0.274544        -7.4707
  23   2.0000      -0.156307        -4.2533
  24   0.0000      -0.004083        -0.1111
  25   0.0000       0.015377         0.4184
  26   0.0000       0.027106         0.7376
  27   0.0000       0.033551         0.9130
  28   0.0000       0.048795         1.3278

MULLIKEN ATOMIC CHARGES
-----------------------
   0 C :    0.573521
   1 C :   -0.008069
   2 C :    1.106610
   3 C :   -0.004261
   4 N :    0.345785
   5 C :    0.673163
   6 H :   -0.817493
   7 H :   -0.030740
   8 H :   -0.176777
   9 H :   -0.250134
  10 H :   -0.203637
  11 H :   -0.244982
  12 H :   -0.035528
  13 H :   -0.303653
  14 H :   -0.131659
  15 H :   -0.386017
  16 H :   -0.106128
Sum of atomic charges:    0.0000000

LOEWDIN ATOMIC CHARGES
----------------------
   0 C :    0.013213
   1 C :   -0.048662
   2 C :    0.131341
   3 C :   -0.253372
   4 N :    0.193847
   5 C :    0.177526
   6 H :   -0.084294
   7 H :   -0.082034
   8 H :   -0.010188
   9 H :   -0.003890
  10 H :    0.009992
  11 H :    0.014933
  12 H :    0.022233
  13 H :    0.006758
  14 H :   -0.041126
  15 H :   -0.027077
  16 H :   -0.019199

  Mayer bond orders larger than 0.100000
B(  0-C ,  1-C ) :   1.1601 B(  0-C ,  3-C ) :   0.9967 B(  0-C ,  4-N ) :   0.1523
B(  0-C ,  5-C ) :   0.2668 B(  0-C , 10-H ) :   0.1657 B(  0-C , 11-H ) :   0.1383
B(  0-C , 12-H ) :   0.7059 B(  0-C , 13-H ) :   0.7057 B(  1-C ,  2-C ) :   1.2834
B(  1-C , 10-H ) :   0.7536 B(  1-C , 11-H ) :   0.8759 B(  1-C , 12-H ) :   0.1759
B(  1-C , 13-H ) :   0.1637 B(  1-C , 14-H ) :   0.2643 B(  1-C , 15-H ) :   0.2902
B(  1-C , 16-H ) :   0.2717 B(  2-C , 10-H ) :   0.1334 B(  2-C , 11-H ) :   0.1025
B(  2-C , 14-H ) :   0.7280 B(  2-C , 15-H ) :   0.6790 B(  2-C , 16-H ) :   0.6840
B(  3-C ,  4-N ) :   1.2132 B(  3-C ,  5-C ) :   1.6605 B(  3-C ,  6-H ) :   0.2578
B(  3-C ,  7-H ) :   0.2582 B(  3-C , 12-H ) :   0.1345 B(  3-C , 13-H ) :   0.1889
B(  4-N ,  5-C ) :   0.2986 B(  4-N ,  8-H ) :   1.1124 B(  4-N ,  9-H ) :   1.2682
B(  5-C ,  6-H ) :   0.5368 B(  5-C ,  7-H ) :   0.5918 B(  6-H ,  7-H ) :  -0.2186
B(  8-H ,  9-H ) :  -0.1744

Dispersion correction           -0.029092017
FINAL SINGLE POINT ENERGY      -251.584861298772

DIPOLE MOMENT
-------------
                                X             Y             Z
Electronic contribution:     -0.06633       3.48553      -2.24939
Nuclear contribution   :     -0.51555      -3.29052       1.90104
                        -----------------------------------------
Total Dipole Moment    :     -0.58188       0.19501      -0.34835
                        -----------------------------------------
Magnitude (a.u.)       :      0.70567
Magnitude (Debye)      :      1.79366

Rotational constants in cm-1:     0.197086     0.081749     0.067746
Rotational constants in MHz :  5908.486274  2450.769911  2030.963952

                             ****ORCA TERMINATED NORMALLY****
TOTAL RUN TIME: 0 days 0 hours 0 minutes 8 seconds 626 msec
