                         Program Version 5.0.0 -  RELEASE  -
|  1> !BLYP D3BJ RIJCOSX def2-SVPD def2/J TightSCF xyzfile
|  2>
|  3> *xyzfile 0 1 D2.xyz
|  4>
|  5> %MaxCore 64000
|  6>
|  7> %pal nprocs 4
|  8> end
|  9>
| 10> %scf
| 11>   MaxIter 150
| 12> end
| 13>
| 14>
| 15>                          ****END OF INPUT****

CARTESIAN COORDINATES (ANGSTROEM)
---------------------------------
  C      3.343500    3.354571   -3.591998
  C      2.952633    1.863077   -3.574849
  C      4.129209    0.898394   -3.418950
  H      3.733687   -0.100605   -3.237633
  H      4.719095    0.862556   -4.339005
  C      5.017344    1.315212   -2.221305
  C      4.255868    3.703851   -4.726054
  N      3.734032    4.293783   -5.800770
  C      5.515039    3.407255   -4.637185
  H      6.149187    3.601203   -5.399053
  H      5.813584    2.899504   -3.808785
  H      2.741380    4.513109   -5.824701
  H      4.287548    4.521260   -6.614341
  H      2.278938    1.735250   -2.725496
  H      2.377466    1.625787   -4.475869
  F      4.737055    0.854112   -1.122825
  O      5.928146    2.168108   -2.491365
  H      3.861246    3.597252   -2.662979
  H      2.446493    3.973461   -3.656556

 Total Charge           Charge          ....    0
 Multiplicity           Mult            ....    1
 Number of Electrons    NEL             ....   70
 Basis Dimension        Dim             ....  266

ORBITAL ENERGIES
----------------

  NO   OCC          E(Eh)            E(eV)
   0   2.0000     -24.391651      -663.7306
   1   2.0000     -18.796421      -511.4766
   2   2.0000     -14.017498      -381.4355
   3   2.0000     -10.102933      -274.9148
   4   2.0000      -9.948351      -270.7084
   5   2.0000      -9.940861      -270.5046
   6   2.0000      -9.923724      -270.0383
   7   2.0000      -9.922942      -270.0170
   8   2.0000      -9.824137      -267.3284
   9   2.0000      -1.224672       -33.3250
  10   2.0000      -0.931533       -25.3483
  11   2.0000      -0.820905       -22.3380
  12   2.0000      -0.730557       -19.8795
  13   2.0000      -0.666846       -18.1458
  14   2.0000      -0.622367       -16.9355
  15   2.0000      -0.605091       -16.4654
  16   2.0000      -0.551816       -15.0157
  17   2.0000      -0.510573       -13.8934
  18   2.0000      -0.500052       -13.6071
  19   2.0000      -0.481057       -13.0902
  20   2.0000      -0.470469       -12.8021
  21   2.0000      -0.440526       -11.9873
  22   2.0000      -0.423144       -11.5143
  23   2.0000      -0.411315       -11.1925
  24   2.0000      -0.394953       -10.7472
  25   2.0000      -0.364495        -9.9184
  26   2.0000      -0.343866        -9.3571
  27   2.0000      -0.342079        -9.3084
  28   2.0000      -0.318033        -8.6541
  29   2.0000      -0.310427        -8.4471
  30   2.0000      -0.304145        -8.2762
  31   2.0000      -0.281448        -7.6586
  32   2.0000      -0.274709        -7.4752
  33   2.0000      -0.220004        -5.9866
  34   2.0000      -0.145170        -3.9503
  35   0.0000      -0.073986        -2.0133
  36   0.0000      -0.007718        -0.2100
  37   0.0000       0.011105         0.3022
  38   0.0000       0.018292         0.4978
  39   0.0000       0.028717         0.7814

MULLIKEN ATOMIC CHARGES
-----------------------
   0 C :    0.638476
   1 C :    0.276171
   2 C :    0.449998
   3 H :   -0.382383
   4 H :    0.069593
   5 C :    0.665471
   6 C :    0.007368
   7 N :    0.325482
   8 C :    1.129268
   9 H :   -0.863768
  10 H :   -0.388194
  11 H :   -0.204701
  12 H :   -0.267980
  13 H :   -0.122161
  14 H :   -0.308634
  15 F :   -0.289686
  16 O :   -0.403150
  17 H :    0.093403
  18 H :   -0.424573
Sum of atomic charges:   -0.0000000

LOEWDIN ATOMIC CHARGES
----------------------
   0 C :    0.028714
   1 C :    0.004688
   2 C :    0.070148
   3 H :    0.014928
   4 H :    0.026814
   5 C :    0.009479
   6 C :   -0.236875
   7 N :    0.186370
   8 C :    0.210732
   9 H :   -0.078024
  10 H :   -0.196108
  11 H :   -0.016177
  12 H :   -0.005702
  13 H :    0.017258
  14 H :    0.024362
  15 F :    0.023484
  16 O :   -0.111774
  17 H :    0.017479
  18 H :    0.010205

  Mayer bond orders larger than 0.100000
B(  0-C ,  1-C ) :   1.1107 B(  0-C ,  6-C ) :   1.0640 B(  0-C ,  7-N ) :   0.1598
B(  0-C ,  8-C ) :   0.2429 B(  0-C , 13-H ) :   0.1520 B(  0-C , 14-H ) :   0.1580
B(  0-C , 17-H ) :   0.6520 B(  0-C , 18-H ) :   0.7018 B(  1-C ,  2-C ) :   1.2369
B(  1-C ,  3-H ) :   0.2453 B(  1-C ,  4-H ) :   0.1967 B(  1-C ,  5-C ) :   0.1206
B(  1-C , 13-H ) :   0.7073 B(  1-C , 14-H ) :   0.8192 B(  1-C , 17-H ) :   0.2040
B(  1-C , 18-H ) :   0.2207 B(  2-C ,  3-H ) :   0.7099 B(  2-C ,  4-H ) :   0.7711
B(  2-C ,  5-C ) :   1.0294 B(  2-C , 10-H ) :   0.1326 B(  2-C , 13-H ) :   0.1763
B(  2-C , 16-O ) :   0.1157 B(  3-H ,  5-C ) :   0.1240 B(  3-H , 10-H ) :  -0.1486
B(  4-H ,  5-C ) :   0.1003 B(  4-H , 10-H ) :   0.1336 B(  5-C , 15-F ) :   0.8123
B(  5-C , 16-O ) :   1.6856 B(  6-C ,  7-N ) :   1.1089 B(  6-C ,  8-C ) :   1.7623
B(  6-C ,  9-H ) :   0.3630 B(  6-C , 10-H ) :   0.3466 B(  6-C , 12-H ) :  -0.1224
B(  6-C , 17-H ) :   0.1575 B(  6-C , 18-H ) :   0.1806 B(  7-N ,  8-C ) :   0.3598
B(  7-N , 11-H ) :   1.1514 B(  7-N , 12-H ) :   1.3157 B(  8-C ,  9-H ) :   0.4125
B(  8-C , 10-H ) :   0.3844 B(  9-H , 10-H ) :  -0.2942 B( 10-H , 16-O ) :   0.1799
B( 11-H , 12-H ) :  -0.1692 B( 15-F , 16-O ) :   0.1327

Dispersion correction           -0.038743619
FINAL SINGLE POINT ENERGY      -463.960147923324

DIPOLE MOMENT
-------------
                                X             Y             Z
Electronic contribution:      4.33163      -5.08566       9.53017
Nuclear contribution   :     -5.64491       4.57111      -9.93176
                        -----------------------------------------
Total Dipole Moment    :     -1.31328      -0.51455      -0.40160
                        -----------------------------------------
Magnitude (a.u.)       :      1.46654
Magnitude (Debye)      :      3.72766

Rotational constants in cm-1:     0.109825     0.034347     0.029470
Rotational constants in MHz :  3292.465653  1029.684117   883.494260

                             ****ORCA TERMINATED NORMALLY****
TOTAL RUN TIME: 0 days 0 hours 0 minutes 16 seconds 831 msec
