                         Program Version 5.0.0 -  RELEASE  -
|  1> !PBE D3BJ RIJCOSX def2-SVPD def2/J TightSCF
|  2> *xyz -1 1
|  3> C         -0.81136       -2.90878       -4.60763
|  4> C         -1.91658       -2.48508       -3.64367
|  5> H         -2.55452       -1.71243       -4.09199
|  6> C         -1.36353       -1.98134       -2.29361
|  7> H         -2.55345       -3.35567       -3.45881
|  8> O         -0.35039       -2.74969       -1.79601
|  9> H         -2.22622       -1.90839       -1.60204
| 10> H         -1.05135       -0.91567       -2.44333
| 11> H         -1.24783       -3.24801       -5.52377
| 12> H         -0.24047       -3.70079       -4.16978
| 13> H         -0.17107       -2.07453       -4.80501
| 14> *
| 15>
| 16> %MaxCore 64000
| 17> %pal nprocs 4
| 18> end
| 19>
| 20> %scf
| 21>   MaxIter 150
| 22> end
| 23>
| 24>
| 25>                          ****END OF INPUT****

CARTESIAN COORDINATES (ANGSTROEM)
---------------------------------
  C     -0.811360   -2.908780   -4.607630
  C     -1.916580   -2.485080   -3.643670
  H     -2.554520   -1.712430   -4.091990
  C     -1.363530   -1.981340   -2.293610
  H     -2.553450   -3.355670   -3.458810
  O     -0.350390   -2.749690   -1.796010
  H     -2.226220   -1.908390   -1.602040
  H     -1.051350   -0.915670   -2.443330
  H     -1.247830   -3.248010   -5.523770
  H     -0.240470   -3.700790   -4.169780
  H     -0.171070   -2.074530   -4.805010

 Total Charge           Charge          ....   -1
 Multiplicity           Mult            ....    1
 Number of Electrons    NEL             ....   34
 Basis Dimension        Dim             ....  139

ORBITAL ENERGIES
----------------

  NO   OCC          E(Eh)            E(eV)
   0   2.0000     -18.448384      -502.0061
   1   2.0000      -9.713418      -264.3155
   2   2.0000      -9.709848      -264.2184
   3   2.0000      -9.705780      -264.1077
   4   2.0000      -0.601970       -16.3804
   5   2.0000      -0.504593       -13.7307
   6   2.0000      -0.398159       -10.8345
   7   2.0000      -0.300929        -8.1887
   8   2.0000      -0.226968        -6.1761
   9   2.0000      -0.216962        -5.9038
  10   2.0000      -0.168760        -4.5922
  11   2.0000      -0.146075        -3.9749
  12   2.0000      -0.120639        -3.2828
  13   2.0000      -0.107799        -2.9334
  14   2.0000      -0.075625        -2.0579
  15   2.0000       0.059896         1.6299
  16   2.0000       0.065201         1.7742
  17   0.0000       0.150257         4.0887
  18   0.0000       0.174428         4.7464
  19   0.0000       0.190817         5.1924
  20   0.0000       0.211130         5.7451
  21   0.0000       0.231481         6.2989

MULLIKEN ATOMIC CHARGES
-----------------------
   0 C :    0.620062
   1 C :   -0.618814
   2 H :   -0.062810
   3 C :    0.400787
   4 H :   -0.036316
   5 O :   -0.833946
   6 H :   -0.171909
   7 H :   -0.099597
   8 H :   -0.113291
   9 H :   -0.012525
  10 H :   -0.071643
Sum of atomic charges:   -1.0000000

LOEWDIN ATOMIC CHARGES
----------------------
   0 C :    0.077427
   1 C :   -0.120492
   2 H :   -0.015784
   3 C :   -0.227797
   4 H :   -0.005572
   5 O :   -0.512916
   6 H :   -0.039993
   7 H :   -0.033373
   8 H :   -0.052134
   9 H :   -0.036977
  10 H :   -0.032388

  Mayer bond orders larger than 0.100000
B(  0-C ,  1-C ) :   1.3106 B(  0-C ,  4-H ) :   0.1025 B(  0-C ,  8-H ) :   0.7917
B(  0-C ,  9-H ) :   0.8097 B(  0-C , 10-H ) :   0.8212 B(  1-C ,  2-H ) :   1.0155
B(  1-C ,  3-C ) :   1.0722 B(  1-C ,  4-H ) :   0.9543 B(  1-C ,  5-O ) :   0.1934
B(  1-C ,  6-H ) :   0.1721 B(  1-C ,  7-H ) :   0.1748 B(  1-C ,  8-H ) :   0.2206
B(  1-C ,  9-H ) :   0.2195 B(  1-C , 10-H ) :   0.2227 B(  2-H ,  3-C ) :   0.1128
B(  3-C ,  4-H ) :   0.1112 B(  3-C ,  5-O ) :   1.1286 B(  3-C ,  6-H ) :   0.9521
B(  3-C ,  7-H ) :   0.9400 B(  6-H ,  7-H ) :   0.1131

Dispersion correction           -0.006638040
FINAL SINGLE POINT ENERGY      -193.369562303210

DIPOLE MOMENT
-------------
                                X             Y             Z
Electronic contribution:      1.38751      -0.60596       2.64287
Nuclear contribution   :     -2.20255       0.75707      -4.26861
                        -----------------------------------------
Total Dipole Moment    :     -0.81504       0.15111      -1.62575
                        -----------------------------------------
Magnitude (a.u.)       :      1.82488
Magnitude (Debye)      :      4.63847

Rotational constants in cm-1:     0.480704     0.187939     0.150770
Rotational constants in MHz : 14411.155440  5634.276828  4519.982802

                             ****ORCA TERMINATED NORMALLY****
TOTAL RUN TIME: 0 days 0 hours 0 minutes 4 seconds 773 msec
