                         Program Version 5.0.0 -  RELEASE  -
|  1> !PBE D3BJ RIJCOSX def2-SVPD def2/J TightSCF
|  2> *xyz 1 1
|  3> C          1.64703       -2.34528       -5.02041
|  4> C          0.21763       -1.81402       -4.92439
|  5> C          2.20996       -2.81239       -3.66571
|  6> H          2.30838       -1.58870       -5.45713
|  7> H          1.67429       -3.20348       -5.69739
|  8> C          2.48901       -1.66851       -2.73754
|  9> N          3.59631       -0.94761       -2.95225
| 10> N          1.66394       -1.41369       -1.77781
| 11> H          0.81164       -1.96318       -1.70275
| 12> H          1.84550       -0.63508       -1.15875
| 13> H          4.20535       -1.17600       -3.73383
| 14> H          3.81723       -0.12585       -2.40604
| 15> H          3.14311       -3.36280       -3.81152
| 16> H          1.48768       -3.45893       -3.16521
| 17> H         -0.11459       -1.50684       -5.89401
| 18> H          0.19193       -0.97796       -4.25713
| 19> H         -0.42543       -2.58523       -4.55479
| 20> *
| 21>
| 22> %MaxCore 64000
| 23> %pal nprocs 4
| 24> end
| 25>
| 26> %scf
| 27>   MaxIter 150
| 28> end
| 29>
| 30>
| 31>                          ****END OF INPUT****

CARTESIAN COORDINATES (ANGSTROEM)
---------------------------------
  C      1.647030   -2.345280   -5.020410
  C      0.217630   -1.814020   -4.924390
  C      2.209960   -2.812390   -3.665710
  H      2.308380   -1.588700   -5.457130
  H      1.674290   -3.203480   -5.697390
  C      2.489010   -1.668510   -2.737540
  N      3.596310   -0.947610   -2.952250
  N      1.663940   -1.413690   -1.777810
  H      0.811640   -1.963180   -1.702750
  H      1.845500   -0.635080   -1.158750
  H      4.205350   -1.176000   -3.733830
  H      3.817230   -0.125850   -2.406040
  H      3.143110   -3.362800   -3.811520
  H      1.487680   -3.458930   -3.165210
  H     -0.114590   -1.506840   -5.894010
  H      0.191930   -0.977960   -4.257130
  H     -0.425430   -2.585230   -4.554790

 Total Charge           Charge          ....    1
 Multiplicity           Mult            ....    1
 Number of Electrons    NEL             ....   48
 Basis Dimension        Dim             ....  208

ORBITAL ENERGIES
----------------

  NO   OCC          E(Eh)            E(eV)
   0   2.0000     -14.248026      -387.7085
   1   2.0000     -14.239703      -387.4820
   2   2.0000     -10.205189      -277.6973
   3   2.0000     -10.089294      -274.5437
   4   2.0000     -10.058774      -273.7132
   5   2.0000     -10.023331      -272.7487
   6   2.0000      -1.112439       -30.2710
   7   2.0000      -1.022669       -27.8282
   8   2.0000      -0.895453       -24.3665
   9   2.0000      -0.815830       -22.1999
  10   2.0000      -0.771444       -20.9920
  11   2.0000      -0.729470       -19.8499
  12   2.0000      -0.713890       -19.4259
  13   2.0000      -0.675752       -18.3881
  14   2.0000      -0.654698       -17.8152
  15   2.0000      -0.603610       -16.4251
  16   2.0000      -0.577401       -15.7119
  17   2.0000      -0.553225       -15.0540
  18   2.0000      -0.526770       -14.3341
  19   2.0000      -0.516318       -14.0497
  20   2.0000      -0.466159       -12.6848
  21   2.0000      -0.460015       -12.5177
  22   2.0000      -0.455719       -12.4007
  23   2.0000      -0.446145       -12.1402
  24   0.0000      -0.241654        -6.5757
  25   0.0000      -0.180398        -4.9089
  26   0.0000      -0.139893        -3.8067
  27   0.0000      -0.136290        -3.7086
  28   0.0000      -0.109542        -2.9808

MULLIKEN ATOMIC CHARGES
-----------------------
   0 C :   -0.294163
   1 C :    0.775235
   2 C :    0.037349
   3 H :   -0.027789
   4 H :   -0.052409
   5 C :    0.777515
   6 N :    0.037525
   7 N :    0.075340
   8 H :    0.065109
   9 H :   -0.111591
  10 H :    0.027354
  11 H :   -0.146769
  12 H :   -0.049022
  13 H :    0.045757
  14 H :   -0.082398
  15 H :   -0.110506
  16 H :    0.033462
Sum of atomic charges:    1.0000000

LOEWDIN ATOMIC CHARGES
----------------------
   0 C :   -0.045426
   1 C :    0.142316
   2 C :    0.042690
   3 H :    0.027823
   4 H :    0.041308
   5 C :   -0.066136
   6 N :    0.295735
   7 N :    0.300305
   8 H :    0.058982
   9 H :    0.052867
  10 H :    0.050094
  11 H :    0.040556
  12 H :    0.048306
  13 H :    0.037996
  14 H :    0.001256
  15 H :   -0.023758
  16 H :   -0.004912

  Mayer bond orders larger than 0.100000
B(  0-C ,  1-C ) :   1.3796 B(  0-C ,  2-C ) :   1.1911 B(  0-C ,  3-H ) :   0.8860
B(  0-C ,  4-H ) :   0.9503 B(  0-C , 13-H ) :   0.1149 B(  0-C , 14-H ) :   0.2220
B(  0-C , 15-H ) :   0.2327 B(  0-C , 16-H ) :   0.2101 B(  1-C , 14-H ) :   0.7710
B(  1-C , 15-H ) :   0.8030 B(  1-C , 16-H ) :   0.7616 B(  2-C ,  3-H ) :   0.1285
B(  2-C ,  4-H ) :   0.1003 B(  2-C ,  5-C ) :   1.0822 B(  2-C ,  6-N ) :   0.1364
B(  2-C ,  7-N ) :   0.1258 B(  2-C , 12-H ) :   0.8984 B(  2-C , 13-H ) :   0.8177
B(  5-C ,  6-N ) :   1.0544 B(  5-C ,  7-N ) :   1.0845 B(  5-C ,  9-H ) :  -0.1773
B(  5-C , 10-H ) :  -0.1020 B(  5-C , 11-H ) :  -0.1676 B(  5-C , 13-H ) :   0.1281
B(  6-N ,  7-N ) :   0.2044 B(  6-N , 10-H ) :   1.0978 B(  6-N , 11-H ) :   1.2920
B(  7-N ,  8-H ) :   1.0682 B(  7-N ,  9-H ) :   1.2982 B(  8-H ,  9-H ) :  -0.1711
B( 10-H , 11-H ) :  -0.1786

Dispersion correction           -0.013698344
FINAL SINGLE POINT ENERGY      -267.828664884670

DIPOLE MOMENT
-------------
                                X             Y             Z
Electronic contribution:      3.26918       1.28744       4.36022
Nuclear contribution   :     -2.54148      -0.64126      -3.14660
                        -----------------------------------------
Total Dipole Moment    :      0.72770       0.64618       1.21362
                        -----------------------------------------
Magnitude (a.u.)       :      1.55562
Magnitude (Debye)      :      3.95408

Rotational constants in cm-1:     0.179759     0.078784     0.067518
Rotational constants in MHz :  5389.046501  2361.884510  2024.132984

                             ****ORCA TERMINATED NORMALLY****
TOTAL RUN TIME: 0 days 0 hours 0 minutes 7 seconds 653 msec
