                         Program Version 5.0.0 -  RELEASE  -
|  1> !PBE D3BJ RIJCOSX def2-SVPD def2/J TightSCF xyzfile
|  2>
|  3> *xyzfile 0 1 B.xyz
|  4>
|  5> %MaxCore 64000
|  6>
|  7> %pal nprocs 4
|  8> end
|  9>
| 10> %scf
| 11>   MaxIter 150
| 12> end
| 13>
| 14>
| 15>                          ****END OF INPUT****

CARTESIAN COORDINATES (ANGSTROEM)
---------------------------------
  C      1.647032   -2.345276   -5.020411
  C      0.217628   -1.814022   -4.924389
  C      2.209964   -2.812388   -3.665708
  C     -0.811356   -2.908780   -4.607625
  C     -1.916579   -2.485081   -3.643665
  H     -2.554525   -1.712428   -4.091993
  C     -1.363531   -1.981337   -2.293608
  H     -2.553448   -3.355667   -3.458815
  O     -0.350395   -2.749689   -1.796006
  H      2.308385   -1.588704   -5.457128
  H      1.674286   -3.203478   -5.697392
  C      2.489007   -1.668510   -2.737538
  N      3.596314   -0.947608   -2.952247
  N      1.663936   -1.413685   -1.777806
  H      0.811642   -1.963178   -1.702755
  H      1.845503   -0.635078   -1.158749
  H      4.205351   -1.176003   -3.733825
  H      3.817230   -0.125845   -2.406041
  H     -1.244829   -3.280884   -5.541040
  H     -0.306331   -3.757746   -4.142734
  H     -0.036244   -1.318555   -5.865303
  H      0.175004   -1.035382   -4.158095
  H      3.143106   -3.362803   -3.811524
  H      1.487683   -3.458935   -3.165211
  H     -2.226220   -1.908386   -1.602039
  H     -1.051353   -0.915671   -2.443331

 Total Charge           Charge          ....    0
 Multiplicity           Mult            ....    1
 Number of Electrons    NEL             ....   80
 Basis Dimension        Dim             ....  331

ORBITAL ENERGIES
----------------

  NO   OCC          E(Eh)            E(eV)
   0   2.0000     -18.631103      -506.9781
   1   2.0000     -14.077677      -383.0731
   2   2.0000     -14.031572      -381.8185
   3   2.0000     -10.026220      -272.8273
   4   2.0000      -9.920972      -269.9634
   5   2.0000      -9.910053      -269.6662
   6   2.0000      -9.880913      -268.8733
   7   2.0000      -9.871992      -268.6306
   8   2.0000      -9.862047      -268.3599
   9   2.0000      -9.845252      -267.9029
  10   2.0000      -0.932366       -25.3710
  11   2.0000      -0.844722       -22.9861
  12   2.0000      -0.790469       -21.5097
  13   2.0000      -0.738014       -20.0824
  14   2.0000      -0.679464       -18.4891
  15   2.0000      -0.633944       -17.2505
  16   2.0000      -0.589153       -16.0317
  17   2.0000      -0.566904       -15.4262
  18   2.0000      -0.546652       -14.8752
  19   2.0000      -0.530094       -14.4246
  20   2.0000      -0.503747       -13.7076
  21   2.0000      -0.470787       -12.8108
  22   2.0000      -0.444099       -12.0845
  23   2.0000      -0.437230       -11.8976
  24   2.0000      -0.415887       -11.3169
  25   2.0000      -0.395125       -10.7519
  26   2.0000      -0.383128       -10.4254
  27   2.0000      -0.357919        -9.7395
  28   2.0000      -0.347030        -9.4432
  29   2.0000      -0.343365        -9.3434
  30   2.0000      -0.315337        -8.5808
  31   2.0000      -0.306452        -8.3390
  32   2.0000      -0.296520        -8.0687
  33   2.0000      -0.278649        -7.5824
  34   2.0000      -0.274609        -7.4725
  35   2.0000      -0.259517        -7.0618
  36   2.0000      -0.252025        -6.8579
  37   2.0000      -0.244875        -6.6634
  38   2.0000      -0.131378        -3.5750
  39   2.0000      -0.122529        -3.3342
  40   0.0000      -0.068674        -1.8687
  41   0.0000      -0.039461        -1.0738
  42   0.0000      -0.003883        -0.1057
  43   0.0000       0.017792         0.4841
  44   0.0000       0.025738         0.7004

MULLIKEN ATOMIC CHARGES
-----------------------
   0 C :    0.288950
   1 C :    0.146967
   2 C :    0.135057
   3 C :    0.050190
   4 C :    0.223372
   5 H :   -0.150032
   6 C :    0.470833
   7 H :    0.040923
   8 O :   -0.702751
   9 H :   -0.077641
  10 H :   -0.089703
  11 C :    0.741023
  12 N :    0.027716
  13 N :    0.438378
  14 H :   -0.351645
  15 H :   -0.155404
  16 H :   -0.063547
  17 H :   -0.177443
  18 H :   -0.244625
  19 H :    0.059599
  20 H :   -0.195304
  21 H :   -0.048694
  22 H :   -0.127177
  23 H :    0.021353
  24 H :   -0.413508
  25 H :    0.153115
Sum of atomic charges:    0.0000000

LOEWDIN ATOMIC CHARGES
----------------------
   0 C :   -0.018458
   1 C :   -0.017719
   2 C :    0.049505
   3 C :   -0.033106
   4 C :   -0.034110
   5 H :    0.015068
   6 C :   -0.096768
   7 H :    0.018534
   8 O :   -0.368470
   9 H :    0.011237
  10 H :    0.028909
  11 C :   -0.064669
  12 N :    0.249750
  13 N :    0.318853
  14 H :   -0.197720
  15 H :    0.033223
  16 H :    0.021271
  17 H :    0.015146
  18 H :    0.015723
  19 H :    0.003315
  20 H :    0.020367
  21 H :   -0.002571
  22 H :    0.029733
  23 H :    0.009485
  24 H :    0.002575
  25 H :   -0.009104

  Mayer bond orders larger than 0.100000
B(  0-C ,  1-C ) :   1.2502 B(  0-C ,  2-C ) :   1.1689 B(  0-C ,  9-H ) :   0.7060
B(  0-C , 10-H ) :   0.8380 B(  0-C , 21-H ) :   0.1659 B(  0-C , 22-H ) :   0.1133
B(  0-C , 23-H ) :   0.1098 B(  1-C ,  2-C ) :   0.1297 B(  1-C ,  3-C ) :   1.1869
B(  1-C ,  9-H ) :   0.1970 B(  1-C , 10-H ) :   0.1200 B(  1-C , 18-H ) :   0.2251
B(  1-C , 19-H ) :   0.1066 B(  1-C , 20-H ) :   0.8284 B(  1-C , 21-H ) :   0.7754
B(  2-C ,  9-H ) :   0.1582 B(  2-C , 10-H ) :   0.1343 B(  2-C , 11-C ) :   1.0778
B(  2-C , 12-N ) :   0.1245 B(  2-C , 22-H ) :   0.7917 B(  2-C , 23-H ) :   0.8096
B(  3-C ,  4-C ) :   1.2726 B(  3-C ,  5-H ) :   0.1524 B(  3-C ,  7-H ) :   0.2203
B(  3-C , 18-H ) :   0.8567 B(  3-C , 19-H ) :   0.7716 B(  3-C , 20-H ) :   0.1268
B(  3-C , 21-H ) :   0.1673 B(  4-C ,  5-H ) :   0.9025 B(  4-C ,  6-C ) :   1.1323
B(  4-C ,  7-H ) :   0.6589 B(  4-C , 19-H ) :   0.1013 B(  4-C , 24-H ) :   0.1567
B(  4-C , 25-H ) :   0.1106 B(  5-H ,  6-C ) :   0.1218 B(  6-C ,  7-H ) :   0.1251
B(  6-C ,  8-O ) :   0.9694 B(  6-C , 24-H ) :   1.0385 B(  6-C , 25-H ) :   0.7594
B(  8-O , 14-H ) :   0.4800 B(  9-H , 10-H ) :  -0.1005 B( 11-C , 12-N ) :   0.9412
B( 11-C , 13-N ) :   1.1763 B( 11-C , 15-H ) :  -0.2332 B( 11-C , 16-H ) :  -0.1639
B( 11-C , 17-H ) :  -0.1370 B( 11-C , 22-H ) :   0.1297 B( 11-C , 23-H ) :   0.1772
B( 12-N , 13-N ) :   0.2074 B( 12-N , 16-H ) :   1.2134 B( 12-N , 17-H ) :   1.2890
B( 13-N , 14-H ) :   0.9174 B( 13-N , 15-H ) :   1.2919 B( 14-H , 15-H ) :  -0.2216
B( 16-H , 17-H ) :  -0.1778 B( 19-H , 23-H ) :   0.1283

Dispersion correction           -0.026822833
FINAL SINGLE POINT ENERGY      -460.209788702957

DIPOLE MOMENT
-------------
                                X             Y             Z
Electronic contribution:      5.53747       0.85210       4.35177
Nuclear contribution   :     -2.25948       0.71378      -5.15247
                        -----------------------------------------
Total Dipole Moment    :      3.27799       1.56588      -0.80070
                        -----------------------------------------
Magnitude (a.u.)       :      3.71999
Magnitude (Debye)      :      9.45546

Rotational constants in cm-1:     0.063973     0.031829     0.024059
Rotational constants in MHz :  1917.874550   954.201145   721.285252

                             ****ORCA TERMINATED NORMALLY****
TOTAL RUN TIME: 0 days 0 hours 0 minutes 25 seconds 883 msec
