                         Program Version 5.0.0 -  RELEASE  -
|  1> !PBE D3BJ RIJCOSX def2-SVPD def2/J TightSCF
|  2> *xyz 0 1
|  3> C         -0.81136       -2.90878       -4.60763
|  4> C         -1.91658       -2.48508       -3.64367
|  5> H         -2.55452       -1.71243       -4.09199
|  6> C         -1.36353       -1.98134       -2.29361
|  7> H         -2.55345       -3.35567       -3.45881
|  8> F         -0.35039       -2.74969       -1.79601
|  9> H         -2.22622       -1.90839       -1.60204
| 10> H         -1.05135       -0.91567       -2.44333
| 11> H         -1.24783       -3.24801       -5.52377
| 12> H         -0.24047       -3.70079       -4.16978
| 13> H         -0.17107       -2.07453       -4.80501
| 14> *
| 15>
| 16> %MaxCore 64000
| 17> %pal nprocs 4
| 18> end
| 19>
| 20> %scf
| 21>   MaxIter 150
| 22> end
| 23>
| 24>
| 25>                          ****END OF INPUT****

CARTESIAN COORDINATES (ANGSTROEM)
---------------------------------
  C     -0.811360   -2.908780   -4.607630
  C     -1.916580   -2.485080   -3.643670
  H     -2.554520   -1.712430   -4.091990
  C     -1.363530   -1.981340   -2.293610
  H     -2.553450   -3.355670   -3.458810
  F     -0.350390   -2.749690   -1.796010
  H     -2.226220   -1.908390   -1.602040
  H     -1.051350   -0.915670   -2.443330
  H     -1.247830   -3.248010   -5.523770
  H     -0.240470   -3.700790   -4.169780
  H     -0.171070   -2.074530   -4.805010

 Total Charge           Charge          ....    0
 Multiplicity           Mult            ....    1
 Number of Electrons    NEL             ....   34
 Basis Dimension        Dim             ....  139

ORBITAL ENERGIES
----------------

  NO   OCC          E(Eh)            E(eV)
   0   2.0000     -24.267188      -660.3437
   1   2.0000      -9.971968      -271.3510
   2   2.0000      -9.902982      -269.4738
   3   2.0000      -9.882386      -268.9134
   4   2.0000      -1.089310       -29.6416
   5   2.0000      -0.710557       -19.3352
   6   2.0000      -0.618759       -16.8373
   7   2.0000      -0.531753       -14.4697
   8   2.0000      -0.458132       -12.4664
   9   2.0000      -0.439774       -11.9669
  10   2.0000      -0.422558       -11.4984
  11   2.0000      -0.386730       -10.5235
  12   2.0000      -0.348286        -9.4773
  13   2.0000      -0.328889        -8.9495
  14   2.0000      -0.313285        -8.5249
  15   2.0000      -0.282912        -7.6984
  16   2.0000      -0.277303        -7.5458
  17   0.0000       0.001998         0.0544
  18   0.0000       0.027804         0.7566
  19   0.0000       0.039350         1.0708
  20   0.0000       0.048819         1.3284
  21   0.0000       0.067453         1.8355

MULLIKEN ATOMIC CHARGES
-----------------------
   0 C :    0.652813
   1 C :   -0.519832
   2 H :   -0.074683
   3 C :    0.713034
   4 H :   -0.052575
   5 F :   -0.409954
   6 H :   -0.099357
   7 H :   -0.030263
   8 H :   -0.095984
   9 H :   -0.016855
  10 H :   -0.066343
Sum of atomic charges:   -0.0000000

LOEWDIN ATOMIC CHARGES
----------------------
   0 C :    0.118710
   1 C :   -0.070611
   2 H :    0.027470
   3 C :    0.081285
   4 H :    0.019699
   5 F :   -0.187180
   6 H :    0.026911
   7 H :    0.035616
   8 H :   -0.019057
   9 H :   -0.017829
  10 H :   -0.015015

  Mayer bond orders larger than 0.100000
B(  0-C ,  1-C ) :   1.3592 B(  0-C ,  8-H ) :   0.8053 B(  0-C ,  9-H ) :   0.8091
B(  0-C , 10-H ) :   0.8099 B(  1-C ,  2-H ) :   0.9532 B(  1-C ,  3-C ) :   1.2163
B(  1-C ,  4-H ) :   0.9244 B(  1-C ,  6-H ) :   0.1254 B(  1-C ,  7-H ) :   0.1315
B(  1-C ,  8-H ) :   0.2062 B(  1-C ,  9-H ) :   0.1876 B(  1-C , 10-H ) :   0.1968
B(  3-C ,  5-F ) :   0.7652 B(  3-C ,  6-H ) :   0.9031 B(  3-C ,  7-H ) :   0.8786

Dispersion correction           -0.006269006
FINAL SINGLE POINT ENERGY      -217.958712365719

DIPOLE MOMENT
-------------
                                X             Y             Z
Electronic contribution:      2.61890      -0.72247       5.49194
Nuclear contribution   :     -3.10989       1.02097      -5.82098
                        -----------------------------------------
Total Dipole Moment    :     -0.49099       0.29850      -0.32904
                        -----------------------------------------
Magnitude (a.u.)       :      0.66215
Magnitude (Debye)      :      1.68305

Rotational constants in cm-1:     0.466172     0.177379     0.142652
Rotational constants in MHz : 13975.492374  5317.681709  4276.599690

                             ****ORCA TERMINATED NORMALLY****
TOTAL RUN TIME: 0 days 0 hours 0 minutes 3 seconds 846 msec
