                         Program Version 5.0.0 -  RELEASE  -
|  1> !PBE D3BJ RIJCOSX def2-SVPD def2/J TightSCF
|  2> *xyz 0 1
|  3> C          1.64703       -2.34528       -5.02041
|  4> C          0.21763       -1.81402       -4.92439
|  5> C          2.20996       -2.81239       -3.66571
|  6> H          2.30838       -1.58870       -5.45713
|  7> H          1.67429       -3.20348       -5.69739
|  8> C          2.48901       -1.66851       -2.73754
|  9> C          3.59631       -0.94761       -2.95225
| 10> N          1.66394       -1.41369       -1.77781
| 11> H          0.81164       -1.96318       -1.70275
| 12> H          1.84550       -0.63508       -1.15875
| 13> H          4.20535       -1.17600       -3.73383
| 14> H          3.81723       -0.12585       -2.40604
| 15> H          3.14311       -3.36280       -3.81152
| 16> H          1.48768       -3.45893       -3.16521
| 17> H         -0.11459       -1.50684       -5.89401
| 18> H          0.19193       -0.97796       -4.25713
| 19> H         -0.42543       -2.58523       -4.55479
| 20> *
| 21>
| 22> %MaxCore 64000
| 23> %pal nprocs 4
| 24> end
| 25>
| 26> %scf
| 27>   MaxIter 150
| 28> end
| 29>
| 30>
| 31>                          ****END OF INPUT****

CARTESIAN COORDINATES (ANGSTROEM)
---------------------------------
  C      1.647030   -2.345280   -5.020410
  C      0.217630   -1.814020   -4.924390
  C      2.209960   -2.812390   -3.665710
  H      2.308380   -1.588700   -5.457130
  H      1.674290   -3.203480   -5.697390
  C      2.489010   -1.668510   -2.737540
  C      3.596310   -0.947610   -2.952250
  N      1.663940   -1.413690   -1.777810
  H      0.811640   -1.963180   -1.702750
  H      1.845500   -0.635080   -1.158750
  H      4.205350   -1.176000   -3.733830
  H      3.817230   -0.125850   -2.406040
  H      3.143110   -3.362800   -3.811520
  H      1.487680   -3.458930   -3.165210
  H     -0.114590   -1.506840   -5.894010
  H      0.191930   -0.977960   -4.257130
  H     -0.425430   -2.585230   -4.554790

 Total Charge           Charge          ....    0
 Multiplicity           Mult            ....    1
 Number of Electrons    NEL             ....   48
 Basis Dimension        Dim             ....  208

ORBITAL ENERGIES
----------------

  NO   OCC          E(Eh)            E(eV)
   0   2.0000     -14.007944      -381.1755
   1   2.0000      -9.911610      -269.7086
   2   2.0000      -9.894047      -269.2307
   3   2.0000      -9.891886      -269.1719
   4   2.0000      -9.878385      -268.8045
   5   2.0000      -9.826487      -267.3923
   6   2.0000      -0.852964       -23.2103
   7   2.0000      -0.715066       -19.4579
   8   2.0000      -0.655028       -17.8242
   9   2.0000      -0.607472       -16.5302
  10   2.0000      -0.544820       -14.8253
  11   2.0000      -0.506047       -13.7702
  12   2.0000      -0.478681       -13.0256
  13   2.0000      -0.433502       -11.7962
  14   2.0000      -0.404742       -11.0136
  15   2.0000      -0.382702       -10.4138
  16   2.0000      -0.360078        -9.7982
  17   2.0000      -0.344387        -9.3712
  18   2.0000      -0.328385        -8.9358
  19   2.0000      -0.314523        -8.5586
  20   2.0000      -0.298224        -8.1151
  21   2.0000      -0.286863        -7.8060
  22   2.0000      -0.283374        -7.7110
  23   2.0000      -0.154632        -4.2077
  24   0.0000      -0.005033        -0.1370
  25   0.0000       0.011293         0.3073
  26   0.0000       0.026012         0.7078
  27   0.0000       0.031877         0.8674
  28   0.0000       0.044734         1.2173

MULLIKEN ATOMIC CHARGES
-----------------------
   0 C :   -0.376478
   1 C :    0.735040
   2 C :    0.284370
   3 H :   -0.029281
   4 H :   -0.091036
   5 C :   -0.104237
   6 C :    0.466942
   7 N :    0.203130
   8 H :   -0.063772
   9 H :   -0.155403
  10 H :   -0.125551
  11 H :   -0.510165
  12 H :    0.003519
  13 H :   -0.060503
  14 H :   -0.107182
  15 H :   -0.094781
  16 H :    0.025387
Sum of atomic charges:    0.0000000

LOEWDIN ATOMIC CHARGES
----------------------
   0 C :   -0.066028
   1 C :    0.120349
   2 C :    0.003021
   3 H :    0.021099
   4 H :    0.016663
   5 C :   -0.274780
   6 C :    0.176672
   7 N :    0.185451
   8 H :    0.006032
   9 H :    0.013827
  10 H :   -0.082208
  11 H :   -0.094097
  12 H :    0.027602
  13 H :    0.012397
  14 H :   -0.020224
  15 H :   -0.025656
  16 H :   -0.020119

  Mayer bond orders larger than 0.100000
B(  0-C ,  1-C ) :   1.3595 B(  0-C ,  2-C ) :   1.1962 B(  0-C ,  3-H ) :   0.9242
B(  0-C ,  4-H ) :   0.9606 B(  0-C , 12-H ) :   0.1032 B(  0-C , 13-H ) :   0.1526
B(  0-C , 14-H ) :   0.2307 B(  0-C , 15-H ) :   0.2347 B(  0-C , 16-H ) :   0.2193
B(  1-C , 14-H ) :   0.7624 B(  1-C , 15-H ) :   0.8234 B(  1-C , 16-H ) :   0.7648
B(  2-C ,  3-H ) :   0.1505 B(  2-C ,  5-C ) :   1.0604 B(  2-C ,  6-C ) :   0.2043
B(  2-C ,  7-N ) :   0.1474 B(  2-C , 12-H ) :   0.8343 B(  2-C , 13-H ) :   0.7122
B(  5-C ,  6-C ) :   1.6489 B(  5-C ,  7-N ) :   1.1794 B(  5-C , 11-H ) :   0.1876
B(  5-C , 12-H ) :   0.1296 B(  5-C , 13-H ) :   0.1980 B(  6-C ,  7-N ) :   0.3115
B(  6-C , 10-H ) :   0.8128 B(  6-C , 11-H ) :   0.7412 B(  7-N ,  8-H ) :   1.0558
B(  7-N ,  9-H ) :   1.2438 B(  8-H ,  9-H ) :  -0.1532

Dispersion correction           -0.014112898
FINAL SINGLE POINT ENERGY      -251.371471432318

DIPOLE MOMENT
-------------
                                X             Y             Z
Electronic contribution:      1.45096       0.29576       3.31569
Nuclear contribution   :     -2.15663      -0.43764      -3.01766
                        -----------------------------------------
Total Dipole Moment    :     -0.70568      -0.14188       0.29803
                        -----------------------------------------
Magnitude (a.u.)       :      0.77906
Magnitude (Debye)      :      1.98020

Rotational constants in cm-1:     0.184410     0.080989     0.069427
Rotational constants in MHz :  5528.462717  2427.993314  2081.376031

                             ****ORCA TERMINATED NORMALLY****
TOTAL RUN TIME: 0 days 0 hours 0 minutes 8 seconds 646 msec
