                         Program Version 5.0.0 -  RELEASE  -
|  1> !PBE D3BJ RIJCOSX def2-SVPD def2/J TightSCF
|  2> *xyz 0 1
|  3> C          1.64703       -2.34528       -5.02041
|  4> C          0.21763       -1.81402       -4.92439
|  5> C          2.20996       -2.81239       -3.66571
|  6> H          2.30838       -1.58870       -5.45713
|  7> H          1.67429       -3.20348       -5.69739
|  8> C          2.48901       -1.66851       -2.73754
|  9> N          3.59631       -0.94761       -2.95225
| 10> C          1.66394       -1.41369       -1.77781
| 11> H          0.81164       -1.96318       -1.70275
| 12> H          1.84550       -0.63508       -1.15875
| 13> H          4.20535       -1.17600       -3.73383
| 14> H          3.81723       -0.12585       -2.40604
| 15> H          3.14311       -3.36280       -3.81152
| 16> H          1.48768       -3.45893       -3.16521
| 17> H         -0.11459       -1.50684       -5.89401
| 18> H          0.19193       -0.97796       -4.25713
| 19> H         -0.42543       -2.58523       -4.55479
| 20> *
| 21>
| 22> %MaxCore 64000
| 23> %pal nprocs 4
| 24> end
| 25>
| 26> %scf
| 27>   MaxIter 150
| 28> end
| 29>
| 30>
| 31>                          ****END OF INPUT****

CARTESIAN COORDINATES (ANGSTROEM)
---------------------------------
  C      1.647030   -2.345280   -5.020410
  C      0.217630   -1.814020   -4.924390
  C      2.209960   -2.812390   -3.665710
  H      2.308380   -1.588700   -5.457130
  H      1.674290   -3.203480   -5.697390
  C      2.489010   -1.668510   -2.737540
  N      3.596310   -0.947610   -2.952250
  C      1.663940   -1.413690   -1.777810
  H      0.811640   -1.963180   -1.702750
  H      1.845500   -0.635080   -1.158750
  H      4.205350   -1.176000   -3.733830
  H      3.817230   -0.125850   -2.406040
  H      3.143110   -3.362800   -3.811520
  H      1.487680   -3.458930   -3.165210
  H     -0.114590   -1.506840   -5.894010
  H      0.191930   -0.977960   -4.257130
  H     -0.425430   -2.585230   -4.554790

 Total Charge           Charge          ....    0
 Multiplicity           Mult            ....    1
 Number of Electrons    NEL             ....   48
 Basis Dimension        Dim             ....  208

ORBITAL ENERGIES
----------------

  NO   OCC          E(Eh)            E(eV)
   0   2.0000     -14.001704      -381.0057
   1   2.0000      -9.909244      -269.6443
   2   2.0000      -9.893162      -269.2066
   3   2.0000      -9.892342      -269.1843
   4   2.0000      -9.872993      -268.6578
   5   2.0000      -9.829574      -267.4763
   6   2.0000      -0.835252       -22.7284
   7   2.0000      -0.714284       -19.4367
   8   2.0000      -0.661287       -17.9945
   9   2.0000      -0.611854       -16.6494
  10   2.0000      -0.533056       -14.5052
  11   2.0000      -0.508118       -13.8266
  12   2.0000      -0.470677       -12.8078
  13   2.0000      -0.425819       -11.5871
  14   2.0000      -0.399154       -10.8615
  15   2.0000      -0.394778       -10.7425
  16   2.0000      -0.352384        -9.5888
  17   2.0000      -0.346550        -9.4301
  18   2.0000      -0.328187        -8.9304
  19   2.0000      -0.319722        -8.7001
  20   2.0000      -0.295019        -8.0279
  21   2.0000      -0.281098        -7.6491
  22   2.0000      -0.278174        -7.5695
  23   2.0000      -0.165350        -4.4994
  24   0.0000      -0.003593        -0.0978
  25   0.0000       0.014057         0.3825
  26   0.0000       0.026446         0.7196
  27   0.0000       0.033443         0.9100
  28   0.0000       0.049015         1.3338

MULLIKEN ATOMIC CHARGES
-----------------------
   0 C :   -0.290823
   1 C :    0.752346
   2 C :    0.203867
   3 H :   -0.059522
   4 H :   -0.077175
   5 C :   -0.027174
   6 N :    0.129855
   7 C :    0.424267
   8 H :   -0.053071
   9 H :   -0.457502
  10 H :   -0.128127
  11 H :   -0.196567
  12 H :   -0.126895
  13 H :    0.088901
  14 H :   -0.104194
  15 H :   -0.089042
  16 H :    0.010856
Sum of atomic charges:    0.0000000

LOEWDIN ATOMIC CHARGES
----------------------
   0 C :   -0.070572
   1 C :    0.123824
   2 C :    0.001362
   3 H :    0.014731
   4 H :    0.016124
   5 C :   -0.271500
   6 N :    0.188177
   7 C :    0.170554
   8 H :   -0.070056
   9 H :   -0.078065
  10 H :   -0.004487
  11 H :   -0.000698
  12 H :    0.019981
  13 H :    0.022548
  14 H :   -0.021473
  15 H :   -0.024484
  16 H :   -0.015965

  Mayer bond orders larger than 0.100000
B(  0-C ,  1-C ) :   1.3533 B(  0-C ,  2-C ) :   1.1674 B(  0-C ,  3-H ) :   0.8894
B(  0-C ,  4-H ) :   0.9175 B(  0-C , 13-H ) :   0.1245 B(  0-C , 14-H ) :   0.2337
B(  0-C , 15-H ) :   0.2374 B(  0-C , 16-H ) :   0.2185 B(  1-C , 14-H ) :   0.7606
B(  1-C , 15-H ) :   0.8226 B(  1-C , 16-H ) :   0.7617 B(  2-C ,  3-H ) :   0.1578
B(  2-C ,  4-H ) :   0.1260 B(  2-C ,  5-C ) :   1.0990 B(  2-C ,  6-N ) :   0.1518
B(  2-C ,  7-C ) :   0.1904 B(  2-C , 12-H ) :   0.8864 B(  2-C , 13-H ) :   0.7785
B(  5-C ,  6-N ) :   1.1711 B(  5-C ,  7-C ) :   1.6436 B(  5-C ,  8-H ) :   0.1446
B(  5-C ,  9-H ) :   0.3000 B(  5-C , 12-H ) :   0.1554 B(  5-C , 13-H ) :   0.1393
B(  6-N ,  7-C ) :   0.2825 B(  6-N , 10-H ) :   1.1562 B(  6-N , 11-H ) :   1.2551
B(  7-C ,  8-H ) :   0.9022 B(  7-C ,  9-H ) :   0.5948 B( 10-H , 11-H ) :  -0.1557

Dispersion correction           -0.014129360
FINAL SINGLE POINT ENERGY      -251.374737559357

DIPOLE MOMENT
-------------
                                X             Y             Z
Electronic contribution:      3.14136       0.71565       2.31354
Nuclear contribution   :     -2.61370      -0.54788      -2.73987
                        -----------------------------------------
Total Dipole Moment    :      0.52766       0.16777      -0.42632
                        -----------------------------------------
Magnitude (a.u.)       :      0.69880
Magnitude (Debye)      :      1.77620

Rotational constants in cm-1:     0.186678     0.079942     0.069329
Rotational constants in MHz :  5596.476267  2396.611465  2078.426257

                             ****ORCA TERMINATED NORMALLY****
TOTAL RUN TIME: 0 days 0 hours 0 minutes 7 seconds 962 msec
