                         Program Version 5.0.0 -  RELEASE  -
|  1> !PBE D3BJ RIJCOSX def2-SVPD def2/J TightSCF xyzfile
|  2>
|  3> *xyzfile 0 1 D2.xyz
|  4>
|  5> %MaxCore 64000
|  6>
|  7> %pal nprocs 4
|  8> end
|  9>
| 10> %scf
| 11>   MaxIter 150
| 12> end
| 13>
| 14>
| 15>                          ****END OF INPUT****

CARTESIAN COORDINATES (ANGSTROEM)
---------------------------------
  C      1.647032   -2.345276   -5.020411
  C      0.217628   -1.814022   -4.924389
  C      2.209964   -2.812388   -3.665708
  C     -0.811356   -2.908780   -4.607625
  C     -1.916579   -2.485081   -3.643665
  H     -2.554525   -1.712428   -4.091993
  C     -1.363531   -1.981337   -2.293608
  H     -2.553448   -3.355667   -3.458815
  F     -0.350395   -2.749689   -1.796006
  H      2.308385   -1.588704   -5.457128
  H      1.674286   -3.203478   -5.697392
  C      2.489007   -1.668510   -2.737538
  N      3.596314   -0.947608   -2.952247
  C      1.663936   -1.413685   -1.777806
  H      0.811642   -1.963178   -1.702755
  H      1.845503   -0.635078   -1.158749
  H      4.205351   -1.176003   -3.733825
  H      3.817230   -0.125845   -2.406041
  H     -1.244829   -3.280884   -5.541040
  H     -0.306331   -3.757746   -4.142734
  H     -0.036244   -1.318555   -5.865303
  H      0.175004   -1.035382   -4.158095
  H      3.143106   -3.362803   -3.811524
  H      1.487683   -3.458935   -3.165211
  H     -2.226220   -1.908386   -1.602039
  H     -1.051353   -0.915671   -2.443331

 Total Charge           Charge          ....    0
 Multiplicity           Mult            ....    1
 Number of Electrons    NEL             ....   80
 Basis Dimension        Dim             ....  331

ORBITAL ENERGIES
----------------

  NO   OCC          E(Eh)            E(eV)
   0   2.0000     -24.280126      -660.6958
   1   2.0000     -13.989001      -380.6601
   2   2.0000      -9.974337      -271.4155
   3   2.0000      -9.902865      -269.4707
   4   2.0000      -9.893388      -269.2128
   5   2.0000      -9.891459      -269.1603
   6   2.0000      -9.888415      -269.0774
   7   2.0000      -9.884542      -268.9721
   8   2.0000      -9.882603      -268.9193
   9   2.0000      -9.797419      -266.6013
  10   2.0000      -1.112247       -30.2658
  11   2.0000      -0.822117       -22.3709
  12   2.0000      -0.733271       -19.9533
  13   2.0000      -0.700221       -19.0540
  14   2.0000      -0.652470       -17.7546
  15   2.0000      -0.628493       -17.1022
  16   2.0000      -0.588185       -16.0053
  17   2.0000      -0.540461       -14.7067
  18   2.0000      -0.510228       -13.8840
  19   2.0000      -0.508812       -13.8455
  20   2.0000      -0.472945       -12.8695
  21   2.0000      -0.459550       -12.5050
  22   2.0000      -0.446851       -12.1594
  23   2.0000      -0.436342       -11.8735
  24   2.0000      -0.411933       -11.2093
  25   2.0000      -0.395944       -10.7742
  26   2.0000      -0.392728       -10.6867
  27   2.0000      -0.384001       -10.4492
  28   2.0000      -0.354451        -9.6451
  29   2.0000      -0.339268        -9.2320
  30   2.0000      -0.326197        -8.8763
  31   2.0000      -0.314653        -8.5621
  32   2.0000      -0.306221        -8.3327
  33   2.0000      -0.295363        -8.0372
  34   2.0000      -0.284810        -7.7501
  35   2.0000      -0.281176        -7.6512
  36   2.0000      -0.272851        -7.4247
  37   2.0000      -0.266879        -7.2621
  38   2.0000      -0.250825        -6.8253
  39   2.0000      -0.149969        -4.0809
  40   0.0000       0.001575         0.0429
  41   0.0000       0.008018         0.2182
  42   0.0000       0.014954         0.4069
  43   0.0000       0.028335         0.7710
  44   0.0000       0.035632         0.9696

MULLIKEN ATOMIC CHARGES
-----------------------
   0 C :    0.315175
   1 C :    0.148357
   2 C :    0.277888
   3 C :    0.055799
   4 C :    0.205501
   5 H :   -0.124268
   6 C :    0.590654
   7 H :    0.003620
   8 F :   -0.500681
   9 H :   -0.047912
  10 H :   -0.110821
  11 C :    0.078773
  12 N :    0.092091
  13 C :    1.018208
  14 H :   -0.294541
  15 H :   -0.794718
  16 H :   -0.139104
  17 H :   -0.200747
  18 H :   -0.231624
  19 H :    0.044744
  20 H :   -0.191720
  21 H :   -0.018541
  22 H :   -0.204383
  23 H :    0.031065
  24 H :   -0.332792
  25 H :    0.329977
Sum of atomic charges:   -0.0000000

LOEWDIN ATOMIC CHARGES
----------------------
   0 C :   -0.022036
   1 C :   -0.017225
   2 C :    0.019609
   3 C :   -0.027983
   4 C :   -0.015201
   5 H :    0.033596
   6 C :    0.130067
   7 H :    0.022822
   8 F :   -0.171224
   9 H :    0.016070
  10 H :    0.020216
  11 C :   -0.246536
  12 N :    0.182967
  13 C :    0.200594
  14 H :   -0.184120
  15 H :   -0.072582
  16 H :   -0.009279
  17 H :   -0.003888
  18 H :    0.023442
  19 H :    0.007586
  20 H :    0.020145
  21 H :    0.000086
  22 H :    0.021363
  23 H :    0.002836
  24 H :    0.033824
  25 H :    0.034850

  Mayer bond orders larger than 0.100000
B(  0-C ,  1-C ) :   1.2594 B(  0-C ,  2-C ) :   1.1140 B(  0-C ,  9-H ) :   0.7226
B(  0-C , 10-H ) :   0.8045 B(  0-C , 21-H ) :   0.1813 B(  0-C , 22-H ) :   0.1147
B(  1-C ,  2-C ) :   0.1324 B(  1-C ,  3-C ) :   1.1860 B(  1-C ,  9-H ) :   0.1914
B(  1-C , 10-H ) :   0.1074 B(  1-C , 18-H ) :   0.2046 B(  1-C , 19-H ) :   0.1026
B(  1-C , 20-H ) :   0.8307 B(  1-C , 21-H ) :   0.7913 B(  2-C ,  9-H ) :   0.1444
B(  2-C , 10-H ) :   0.1700 B(  2-C , 11-C ) :   1.1835 B(  2-C , 12-N ) :   0.1780
B(  2-C , 13-C ) :   0.1690 B(  2-C , 21-H ) :  -0.1078 B(  2-C , 22-H ) :   0.8163
B(  2-C , 23-H ) :   0.8174 B(  3-C ,  4-C ) :   1.2743 B(  3-C ,  5-H ) :   0.1414
B(  3-C ,  7-H ) :   0.2145 B(  3-C , 18-H ) :   0.8695 B(  3-C , 19-H ) :   0.7786
B(  3-C , 20-H ) :   0.1264 B(  3-C , 21-H ) :   0.1530 B(  4-C ,  5-H ) :   0.8577
B(  4-C ,  6-C ) :   1.2736 B(  4-C ,  7-H ) :   0.6689 B(  4-C , 24-H ) :   0.1544
B(  5-H ,  6-C ) :   0.1264 B(  6-C ,  8-F ) :   0.6285 B(  6-C , 14-H ) :   0.1228
B(  6-C , 24-H ) :   1.0117 B(  6-C , 25-H ) :   0.6965 B(  8-F , 14-H ) :   0.2167
B( 11-C , 12-N ) :   1.0064 B( 11-C , 13-C ) :   1.7453 B( 11-C , 14-H ) :   0.1384
B( 11-C , 15-H ) :   0.2416 B( 11-C , 22-H ) :   0.2329 B( 11-C , 23-H ) :   0.1209
B( 12-N , 13-C ) :   0.3881 B( 12-N , 16-H ) :   1.1805 B( 12-N , 17-H ) :   1.2865
B( 13-C , 14-H ) :   0.5825 B( 13-C , 15-H ) :   0.5567 B( 13-C , 23-H ) :  -0.1180
B( 14-H , 15-H ) :  -0.3540 B( 15-H , 21-H ) :  -0.1341 B( 16-H , 17-H ) :  -0.1554
B( 19-H , 23-H ) :   0.1341

Dispersion correction           -0.026680553
FINAL SINGLE POINT ENERGY      -468.116750255519

DIPOLE MOMENT
-------------
                                X             Y             Z
Electronic contribution:      0.46176      -1.32075       6.09241
Nuclear contribution   :     -0.73748       1.64619      -6.72655
                        -----------------------------------------
Total Dipole Moment    :     -0.27573       0.32544      -0.63414
                        -----------------------------------------
Magnitude (a.u.)       :      0.76425
Magnitude (Debye)      :      1.94256

Rotational constants in cm-1:     0.063169     0.031711     0.023958
Rotational constants in MHz :  1893.751676   950.657187   718.229932

                             ****ORCA TERMINATED NORMALLY****
TOTAL RUN TIME: 0 days 0 hours 0 minutes 25 seconds 614 msec
