                         Program Version 5.0.0 -  RELEASE  -
|  1> !wB97X-D3 RIJCOSX def2-TZVPD def2/J TightSCF
|  2> *xyz -1 1
|  3> C         -0.77455        2.78833       -0.54394
|  4> C          0.69721        3.22791       -0.52513
|  5> O          1.48929        2.37470        0.19919
|  6> H          0.71600        4.26403       -0.13077
|  7> H          1.03615        3.33092       -1.58367
|  8> H         -1.34746        3.48478       -1.11982
|  9> H         -1.15078        2.75876        0.45729
| 10> H         -0.85058        1.81526       -0.98241
| 11> *
| 12>
| 13> %MaxCore 64000
| 14> %pal nprocs 4
| 15> end
| 16>
| 17> %scf
| 18>   MaxIter 150
| 19> end
| 20>
| 21>
| 22>                          ****END OF INPUT****

CARTESIAN COORDINATES (ANGSTROEM)
---------------------------------
  C     -0.774550    2.788330   -0.543940
  C      0.697210    3.227910   -0.525130
  O      1.489290    2.374700    0.199190
  H      0.716000    4.264030   -0.130770
  H      1.036150    3.330920   -1.583670
  H     -1.347460    3.484780   -1.119820
  H     -1.150780    2.758760    0.457290
  H     -0.850580    1.815260   -0.982410

 Total Charge           Charge          ....   -1
 Multiplicity           Mult            ....    1
 Number of Electrons    NEL             ....   26
 Basis Dimension        Dim             ....  159

ORBITAL ENERGIES
----------------

  NO   OCC          E(Eh)            E(eV)
   0   2.0000     -18.893794      -514.1263
   1   2.0000     -10.088004      -274.5085
   2   2.0000     -10.063540      -273.8428
   3   2.0000      -0.792447       -21.5636
   4   2.0000      -0.640276       -17.4228
   5   2.0000      -0.481497       -13.1022
   6   2.0000      -0.350705        -9.5432
   7   2.0000      -0.327197        -8.9035
   8   2.0000      -0.269220        -7.3258
   9   2.0000      -0.250782        -6.8241
  10   2.0000      -0.206056        -5.6071
  11   2.0000      -0.059818        -1.6277
  12   2.0000      -0.058270        -1.5856
  13   0.0000       0.212771         5.7898
  14   0.0000       0.232989         6.3400
  15   0.0000       0.262334         7.1385
  16   0.0000       0.263899         7.1810
  17   0.0000       0.287612         7.8263

MULLIKEN ATOMIC CHARGES
-----------------------
   0 C :   -0.884760
   1 C :   -0.240399
   2 O :   -0.919233
   3 H :    0.129726
   4 H :    0.131788
   5 H :    0.315119
   6 H :    0.233871
   7 H :    0.233887
Sum of atomic charges:   -1.0000000

LOEWDIN ATOMIC CHARGES
----------------------
   0 C :   -0.171267
   1 C :   -0.619888
   2 O :   -0.432025
   3 H :    0.055419
   4 H :    0.058688
   5 H :    0.028842
   6 H :    0.040285
   7 H :    0.039945

  Mayer bond orders larger than 0.100000
B(  0-C ,  1-C ) :   0.7808 B(  0-C ,  2-O ) :   0.2270 B(  0-C ,  5-H ) :   0.9396
B(  0-C ,  6-H ) :   0.9933 B(  0-C ,  7-H ) :   0.9938 B(  1-C ,  2-O ) :   1.0544
B(  1-C ,  3-H ) :   1.0727 B(  1-C ,  4-H ) :   1.0662

Dispersion correction           -0.000860166
FINAL SINGLE POINT ENERGY      -154.440021934783

DIPOLE MOMENT
-------------
                                X             Y             Z
Electronic contribution:      2.33925      -0.98422       1.13296
Nuclear contribution   :     -3.69910       1.55962      -1.78699
                        -----------------------------------------
Total Dipole Moment    :     -1.35984       0.57541      -0.65403
                        -----------------------------------------
Magnitude (a.u.)       :      1.61494
Magnitude (Debye)      :      4.10485

Rotational constants in cm-1:     1.268893     0.327436     0.287754
Rotational constants in MHz : 38040.440181  9816.269339  8626.646564

                             ****ORCA TERMINATED NORMALLY****
TOTAL RUN TIME: 0 days 0 hours 0 minutes 22 seconds 745 msec
