                         Program Version 5.0.0 -  RELEASE  -
|  1> !wB97X-D3 RIJCOSX def2-TZVPD def2/J TightSCF
|  2> *xyz 1 1
|  3> C          3.95643        0.50147       -0.37910
|  4> H          3.16840        0.02920        0.20738
|  5> N          3.80389        1.96157       -0.15675
|  6> C          3.84232        0.14849       -1.85406
|  7> H          4.92323        0.17798        0.00937
|  8> H          4.20643        2.24441        0.74536
|  9> H          2.80827        2.21132       -0.09610
| 10> H          4.28076        2.50155       -0.89104
| 11> H          4.62951        0.62800       -2.39748
| 12> H          2.89665        0.48102       -2.22825
| 13> H          3.92053       -0.91187       -1.97413
| 14> *
| 15>
| 16> %MaxCore 64000
| 17> %pal nprocs 4
| 18> end
| 19>
| 20> %scf
| 21>   MaxIter 150
| 22> end
| 23>
| 24>
| 25>                          ****END OF INPUT****

CARTESIAN COORDINATES (ANGSTROEM)
---------------------------------
  C      3.956430    0.501470   -0.379100
  H      3.168400    0.029200    0.207380
  N      3.803890    1.961570   -0.156750
  C      3.842320    0.148490   -1.854060
  H      4.923230    0.177980    0.009370
  H      4.206430    2.244410    0.745360
  H      2.808270    2.211320   -0.096100
  H      4.280760    2.501550   -0.891040
  H      4.629510    0.628000   -2.397480
  H      2.896650    0.481020   -2.228250
  H      3.920530   -0.911870   -1.974130

 Total Charge           Charge          ....    1
 Multiplicity           Mult            ....    1
 Number of Electrons    NEL             ....   26
 Basis Dimension        Dim             ....  183

ORBITAL ENERGIES
----------------

  NO   OCC          E(Eh)            E(eV)
   0   2.0000     -14.758083      -401.5879
   1   2.0000     -10.528563      -286.4968
   2   2.0000     -10.447568      -284.2928
   3   2.0000      -1.334210       -36.3057
   4   2.0000      -1.081958       -29.4416
   5   2.0000      -0.955381       -25.9972
   6   2.0000      -0.906221       -24.6595
   7   2.0000      -0.887867       -24.1601
   8   2.0000      -0.797000       -21.6875
   9   2.0000      -0.743005       -20.2182
  10   2.0000      -0.679068       -18.4784
  11   2.0000      -0.663961       -18.0673
  12   2.0000      -0.646178       -17.5834
  13   0.0000      -0.121823        -3.3150
  14   0.0000      -0.066138        -1.7997
  15   0.0000      -0.064354        -1.7512
  16   0.0000      -0.059004        -1.6056
  17   0.0000      -0.028158        -0.7662

MULLIKEN ATOMIC CHARGES
-----------------------
   0 C :   -0.352062
   1 H :    0.318979
   2 N :   -0.319988
   3 C :   -1.170842
   4 H :    0.325721
   5 H :    0.369539
   6 H :    0.382782
   7 H :    0.355933
   8 H :    0.386692
   9 H :    0.370895
  10 H :    0.332352
Sum of atomic charges:    1.0000000

LOEWDIN ATOMIC CHARGES
----------------------
   0 C :   -0.201811
   1 H :    0.136011
   2 N :    0.179585
   3 C :   -0.059791
   4 H :    0.136627
   5 H :    0.181834
   6 H :    0.184786
   7 H :    0.181793
   8 H :    0.083694
   9 H :    0.083942
  10 H :    0.093329

  Mayer bond orders larger than 0.100000
B(  0-C ,  1-H ) :   0.9181 B(  0-C ,  2-N ) :   0.9733 B(  0-C ,  3-C ) :   0.6999
B(  0-C ,  4-H ) :   0.8997 B(  2-N ,  5-H ) :   0.8524 B(  2-N ,  6-H ) :   0.8372
B(  2-N ,  7-H ) :   0.8533 B(  3-C ,  8-H ) :   0.8879 B(  3-C ,  9-H ) :   0.9295
B(  3-C , 10-H ) :   0.9637

Dispersion correction           -0.001507994
FINAL SINGLE POINT ENERGY      -135.550680792051

DIPOLE MOMENT
-------------
                                X             Y             Z
Electronic contribution:     -0.01248       1.33827       1.25113
Nuclear contribution   :     -0.06214      -0.04120      -0.39947
                        -----------------------------------------
Total Dipole Moment    :     -0.07462       1.29707       0.85166
                        -----------------------------------------
Magnitude (a.u.)       :      1.55348
Magnitude (Debye)      :      3.94862

Rotational constants in cm-1:     1.011771     0.281435     0.249812
Rotational constants in MHz : 30332.138762  8437.210602  7489.166323

                             ****ORCA TERMINATED NORMALLY****
TOTAL RUN TIME: 0 days 0 hours 0 minutes 25 seconds 490 msec
