                         Program Version 5.0.0 -  RELEASE  -
|  1> !wB97X-D3 RIJCOSX def2-TZVPD def2/J TightSCF
|  2> *xyz 0 1
|  3> C         -0.77455        2.78833       -0.54394
|  4> C          0.69721        3.22791       -0.52513
|  5> F          1.48929        2.37470        0.19919
|  6> H          0.71600        4.26403       -0.13077
|  7> H          1.03615        3.33092       -1.58367
|  8> H         -1.34746        3.48478       -1.11982
|  9> H         -1.15078        2.75876        0.45729
| 10> H         -0.85058        1.81526       -0.98241
| 11> *
| 12>
| 13> %MaxCore 64000
| 14> %pal nprocs 4
| 15> end
| 16>
| 17> %scf
| 18>   MaxIter 150
| 19> end
| 20>
| 21>
| 22>                          ****END OF INPUT****

CARTESIAN COORDINATES (ANGSTROEM)
---------------------------------
  C     -0.774550    2.788330   -0.543940
  C      0.697210    3.227910   -0.525130
  F      1.489290    2.374700    0.199190
  H      0.716000    4.264030   -0.130770
  H      1.036150    3.330920   -1.583670
  H     -1.347460    3.484780   -1.119820
  H     -1.150780    2.758760    0.457290
  H     -0.850580    1.815260   -0.982410

 Total Charge           Charge          ....    0
 Multiplicity           Mult            ....    1
 Number of Electrons    NEL             ....   26
 Basis Dimension        Dim             ....  159

ORBITAL ENERGIES
----------------

  NO   OCC          E(Eh)            E(eV)
   0   2.0000     -24.771787      -674.0746
   1   2.0000     -10.354676      -281.7650
   2   2.0000     -10.268285      -279.4142
   3   2.0000      -1.313710       -35.7479
   4   2.0000      -0.881205       -23.9788
   5   2.0000      -0.742738       -20.2109
   6   2.0000      -0.610557       -16.6141
   7   2.0000      -0.598516       -16.2864
   8   2.0000      -0.559552       -15.2262
   9   2.0000      -0.504461       -13.7271
  10   2.0000      -0.498216       -13.5572
  11   2.0000      -0.432364       -11.7652
  12   2.0000      -0.426024       -11.5927
  13   0.0000       0.072977         1.9858
  14   0.0000       0.095689         2.6038
  15   0.0000       0.117913         3.2086
  16   0.0000       0.121238         3.2991
  17   0.0000       0.149326         4.0634

MULLIKEN ATOMIC CHARGES
-----------------------
   0 C :   -0.970864
   1 C :   -0.069129
   2 F :   -0.300640
   3 H :    0.215338
   4 H :    0.218744
   5 H :    0.333212
   6 H :    0.287377
   7 H :    0.285961
Sum of atomic charges:   -0.0000000

LOEWDIN ATOMIC CHARGES
----------------------
   0 C :   -0.088160
   1 C :   -0.285456
   2 F :   -0.050282
   3 H :    0.110683
   4 H :    0.114731
   5 H :    0.067531
   6 H :    0.065637
   7 H :    0.065316

  Mayer bond orders larger than 0.100000
B(  0-C ,  1-C ) :   0.8080 B(  0-C ,  5-H ) :   0.9207 B(  0-C ,  6-H ) :   0.9547
B(  0-C ,  7-H ) :   0.9552 B(  1-C ,  2-F ) :   0.7705 B(  1-C ,  3-H ) :   0.9853
B(  1-C ,  4-H ) :   0.9789

Dispersion correction           -0.000875231
FINAL SINGLE POINT ENERGY      -179.087077405185

DIPOLE MOMENT
-------------
                                X             Y             Z
Electronic contribution:      4.41253      -1.64927       1.99777
Nuclear contribution   :     -4.89513       2.05627      -2.36166
                        -----------------------------------------
Total Dipole Moment    :     -0.48261       0.40700      -0.36389
                        -----------------------------------------
Magnitude (a.u.)       :      0.72868
Magnitude (Debye)      :      1.85216

Rotational constants in cm-1:     1.247826     0.304622     0.269019
Rotational constants in MHz : 37408.889506  9132.346906  8064.979146

                             ****ORCA TERMINATED NORMALLY****
TOTAL RUN TIME: 0 days 0 hours 0 minutes 19 seconds 152 msec
