                         Program Version 5.0.0 -  RELEASE  -
|  1> !wB97X-D3 RIJCOSX def2-TZVPD def2/J TightSCF
|  2> *xyz 0 1
|  3> C          3.95643        0.50147       -0.37910
|  4> H          3.16840        0.02920        0.20738
|  5> C          3.80389        1.96157       -0.15675
|  6> C          3.84232        0.14849       -1.85406
|  7> H          4.92323        0.17798        0.00937
|  8> H          4.20643        2.24441        0.74536
|  9> H          2.80827        2.21132       -0.09610
| 10> H          4.28076        2.50155       -0.89104
| 11> H          4.62951        0.62800       -2.39748
| 12> H          2.89665        0.48102       -2.22825
| 13> H          3.92053       -0.91187       -1.97413
| 14> *
| 15>
| 16> %MaxCore 64000
| 17> %pal nprocs 4
| 18> end
| 19>
| 20> %scf
| 21>   MaxIter 150
| 22> end
| 23>
| 24>
| 25>                          ****END OF INPUT****

CARTESIAN COORDINATES (ANGSTROEM)
---------------------------------
  C      3.956430    0.501470   -0.379100
  H      3.168400    0.029200    0.207380
  C      3.803890    1.961570   -0.156750
  C      3.842320    0.148490   -1.854060
  H      4.923230    0.177980    0.009370
  H      4.206430    2.244410    0.745360
  H      2.808270    2.211320   -0.096100
  H      4.280760    2.501550   -0.891040
  H      4.629510    0.628000   -2.397480
  H      2.896650    0.481020   -2.228250
  H      3.920530   -0.911870   -1.974130

 Total Charge           Charge          ....    0
 Multiplicity           Mult            ....    1
 Number of Electrons    NEL             ....   26
 Basis Dimension        Dim             ....  183

ORBITAL ENERGIES
----------------

  NO   OCC          E(Eh)            E(eV)
   0   2.0000     -10.259405      -279.1726
   1   2.0000     -10.249882      -278.9135
   2   2.0000     -10.230849      -278.3956
   3   2.0000      -0.909071       -24.7371
   4   2.0000      -0.803896       -21.8751
   5   2.0000      -0.694865       -18.9082
   6   2.0000      -0.571293       -15.5457
   7   2.0000      -0.546411       -14.8686
   8   2.0000      -0.499308       -13.5869
   9   2.0000      -0.487661       -13.2699
  10   2.0000      -0.430177       -11.7057
  11   2.0000      -0.427957       -11.6453
  12   2.0000      -0.418371       -11.3845
  13   0.0000       0.077753         2.1158
  14   0.0000       0.096609         2.6289
  15   0.0000       0.098953         2.6927
  16   0.0000       0.128025         3.4837
  17   0.0000       0.150245         4.0884

MULLIKEN ATOMIC CHARGES
-----------------------
   0 C :    0.035973
   1 H :    0.225147
   2 C :   -1.352572
   3 C :   -1.178563
   4 H :    0.257911
   5 H :    0.359256
   6 H :    0.359305
   7 H :    0.350064
   8 H :    0.318402
   9 H :    0.318271
  10 H :    0.306806
Sum of atomic charges:   -0.0000000

LOEWDIN ATOMIC CHARGES
----------------------
   0 C :   -0.319096
   1 H :    0.103764
   2 C :   -0.131292
   3 C :   -0.120002
   4 H :    0.103525
   5 H :    0.052250
   6 H :    0.057428
   7 H :    0.056042
   8 H :    0.067091
   9 H :    0.068708
  10 H :    0.061582

  Mayer bond orders larger than 0.100000
B(  0-C ,  1-H ) :   0.9763 B(  0-C ,  2-C ) :   0.6109 B(  0-C ,  3-C ) :   0.6083
B(  0-C ,  4-H ) :   0.9609 B(  2-C ,  3-C ) :   0.2205 B(  2-C ,  5-H ) :   0.9369
B(  2-C ,  6-H ) :   0.9447 B(  2-C ,  7-H ) :   0.9149 B(  3-C ,  8-H ) :   0.9692
B(  3-C ,  9-H ) :   0.9637 B(  3-C , 10-H ) :   0.9683

Dispersion correction           -0.001455677
FINAL SINGLE POINT ENERGY      -119.138890474267

DIPOLE MOMENT
-------------
                                X             Y             Z
Electronic contribution:      0.08063      -0.29552       0.23336
Nuclear contribution   :     -0.08172       0.30475      -0.19303
                        -----------------------------------------
Total Dipole Moment    :     -0.00109       0.00923       0.04033
                        -----------------------------------------
Magnitude (a.u.)       :      0.04138
Magnitude (Debye)      :      0.10519

Rotational constants in cm-1:     1.020248     0.295755     0.261591
Rotational constants in MHz : 30586.266829  8866.511639  7842.297953

                             ****ORCA TERMINATED NORMALLY****
TOTAL RUN TIME: 0 days 0 hours 0 minutes 24 seconds 738 msec
