                         Program Version 5.0.0 -  RELEASE  -
|  1> !DLPNO-CCSD(T) aug-cc-pVTZ aug-cc-pVTZ/C TightSCF TightPNO RIJCOSX def2/J
|  2> *xyz -1 1
|  3> C          1.87218        0.42790       -2.07750
|  4> S          0.57902        0.14047       -3.29794
|  5> O          0.22886       -1.24687       -3.12787
|  6> O         -0.43927        1.11897       -3.01455
|  7> O          1.24788        0.40347       -4.59565
|  8> H          2.66832       -0.27048       -2.23022
|  9> H          1.46951        0.30034       -1.09440
| 10> H          2.24690        1.42458       -2.18288
| 11> *
| 12>
| 13> %MaxCore 64000
| 14>
| 15> %pal nprocs 2
| 16> end
| 17>
| 18> %scf
| 19>   MaxIter 150
| 20> end
| 21>
| 22>
| 23>                          ****END OF INPUT****

CARTESIAN COORDINATES (ANGSTROEM)
---------------------------------
  C      1.872180    0.427900   -2.077500
  S      0.579020    0.140470   -3.297940
  O      0.228860   -1.246870   -3.127870
  O     -0.439270    1.118970   -3.014550
  O      1.247880    0.403470   -4.595650
  H      2.668320   -0.270480   -2.230220
  H      1.469510    0.300340   -1.094400
  H      2.246900    1.424580   -2.182880

 Total Charge           Charge          ....   -1
 Multiplicity           Mult            ....    1
 Number of Electrons    NEL             ....   50
 Basis Dimension        Dim             ....  303

ORBITAL ENERGIES
----------------

  NO   OCC          E(Eh)            E(eV)
   0   2.0000     -91.983454     -2502.9970
   1   2.0000     -20.332909      -553.2866
   2   2.0000     -20.332722      -553.2815
   3   2.0000     -20.318224      -552.8870
   4   2.0000     -11.077885      -301.4446
   5   2.0000      -8.946409      -243.4442
   6   2.0000      -6.632732      -180.4858
   7   2.0000      -6.631328      -180.4476
   8   2.0000      -6.631236      -180.4451
   9   2.0000      -1.274226       -34.6734
  10   2.0000      -1.134307       -30.8661
  11   2.0000      -1.104623       -30.0583
  12   2.0000      -0.840472       -22.8704
  13   2.0000      -0.603293       -16.4164
  14   2.0000      -0.486172       -13.2294
  15   2.0000      -0.468188       -12.7401
  16   2.0000      -0.467014       -12.7081
  17   2.0000      -0.420437       -11.4407
  18   2.0000      -0.417016       -11.3476
  19   2.0000      -0.325311        -8.8522
  20   2.0000      -0.321035        -8.7358
  21   2.0000      -0.281150        -7.6505
  22   2.0000      -0.266357        -7.2480
  23   2.0000      -0.250362        -6.8127
  24   2.0000      -0.229752        -6.2519
  25   0.0000       0.128052         3.4845
  26   0.0000       0.140664         3.8277
  27   0.0000       0.141774         3.8579
  28   0.0000       0.189439         5.1549
  29   0.0000       0.212563         5.7841

MULLIKEN ATOMIC CHARGES
-----------------------
   0 C :   -1.084803
   1 S :    2.198635
   2 O :   -0.997082
   3 O :   -1.005604
   4 O :   -1.014158
   5 H :    0.304946
   6 H :    0.288400
   7 H :    0.309666
Sum of atomic charges:   -1.0000000

LOEWDIN ATOMIC CHARGES
----------------------
   0 C :    0.427176
   1 S :   -0.442845
   2 O :   -0.065357
   3 O :   -0.066132
   4 O :   -0.097248
   5 H :   -0.251125
   6 H :   -0.252966
   7 H :   -0.251503

  Mayer bond orders larger than 0.100000
B(  0-C ,  1-S ) :   0.7557 B(  0-C ,  5-H ) :   0.9028 B(  0-C ,  6-H ) :   0.9188
B(  0-C ,  7-H ) :   0.8981 B(  1-S ,  2-O ) :   1.3958 B(  1-S ,  3-O ) :   1.3776
B(  1-S ,  4-O ) :   1.3086

E(0)                                       ...   -661.878247643
E(0)                                       ...   -661.878247643
E(CORR)(strong-pairs)                      ...     -1.113834121
E(CORR)(weak-pairs)                        ...     -0.000986473
E(CORR)(corrected)                         ...     -1.114820593
E(TOT)                                     ...   -662.993068237
E(CCSD(T))                                 ...   -663.040728318
FINAL SINGLE POINT ENERGY      -663.040728317522

DIPOLE MOMENT
-------------
                                X             Y             Z
Electronic contribution:     -3.11170      -0.70366      -2.73439
Nuclear contribution   :      4.08143       0.90272       3.93680
                        -----------------------------------------
Total Dipole Moment    :      0.96972       0.19906       1.20241
                        -----------------------------------------
Magnitude (a.u.)       :      1.55749
Magnitude (Debye)      :      3.95884

Rotational constants in cm-1:     0.171796     0.158241     0.155560
Rotational constants in MHz :  5150.307583  4743.954688  4663.569252

                             ****ORCA TERMINATED NORMALLY****
TOTAL RUN TIME: 0 days 1 hours 2 minutes 44 seconds 853 msec
