                         Program Version 5.0.0 -  RELEASE  -
|  1> !DLPNO-CCSD(T) aug-cc-pVTZ aug-cc-pVTZ/C TightSCF TightPNO RIJCOSX def2/J
|  2> *xyz 1 1
|  3> C          3.38093        2.08304       -3.35013
|  4> N          4.53592        1.18245       -3.42852
|  5> C          4.67196        0.12227       -4.22060
|  6> N          5.86602       -0.50785       -4.22428
|  7> N          3.69888       -0.31284       -4.98699
|  8> H          2.73141       -0.05009       -4.84900
|  9> H          3.89005       -1.05517       -5.64373
| 10> H          5.25193        1.30346       -2.72101
| 11> H          6.69516       -0.06232       -3.85160
| 12> H          5.97538       -1.39688       -4.69141
| 13> H          2.69962        1.85926       -4.14426
| 14> H          3.71221        3.09654       -3.43937
| 15> H          2.88835        1.95032       -2.40957
| 16> *
| 17>
| 18> %MaxCore 64000
| 19>
| 20> %pal nprocs 2
| 21> end
| 22>
| 23> %scf
| 24>   MaxIter 150
| 25> end
| 26>
| 27>
| 28>                          ****END OF INPUT****

CARTESIAN COORDINATES (ANGSTROEM)
---------------------------------
  C      3.380930    2.083040   -3.350130
  N      4.535920    1.182450   -3.428520
  C      4.671960    0.122270   -4.220600
  N      5.866020   -0.507850   -4.224280
  N      3.698880   -0.312840   -4.986990
  H      2.731410   -0.050090   -4.849000
  H      3.890050   -1.055170   -5.643730
  H      5.251930    1.303460   -2.721010
  H      6.695160   -0.062320   -3.851600
  H      5.975380   -1.396880   -4.691410
  H      2.699620    1.859260   -4.144260
  H      3.712210    3.096540   -3.439370
  H      2.888350    1.950320   -2.409570

 Total Charge           Charge          ....    1
 Multiplicity           Mult            ....    1
 Number of Electrons    NEL             ....   40
 Basis Dimension        Dim             ....  414

ORBITAL ENERGIES
----------------

  NO   OCC          E(Eh)            E(eV)
   0   2.0000     -15.792849      -429.7453
   1   2.0000     -15.787577      -429.6018
   2   2.0000     -15.783827      -429.4998
   3   2.0000     -11.593392      -315.4722
   4   2.0000     -11.429938      -311.0244
   5   2.0000      -1.542254       -41.9669
   6   2.0000      -1.406533       -38.2737
   7   2.0000      -1.388449       -37.7816
   8   2.0000      -1.150390       -31.3037
   9   2.0000      -1.044684       -28.4273
  10   2.0000      -0.978360       -26.6225
  11   2.0000      -0.939085       -25.5538
  12   2.0000      -0.871958       -23.7272
  13   2.0000      -0.867122       -23.5956
  14   2.0000      -0.818618       -22.2757
  15   2.0000      -0.793946       -21.6044
  16   2.0000      -0.750301       -20.4167
  17   2.0000      -0.737738       -20.0749
  18   2.0000      -0.626458       -17.0468
  19   2.0000      -0.590938       -16.0802
  20   0.0000      -0.095512        -2.5990
  21   0.0000      -0.076416        -2.0794
  22   0.0000      -0.071489        -1.9453
  23   0.0000      -0.062252        -1.6940
  24   0.0000      -0.049144        -1.3373

MULLIKEN ATOMIC CHARGES
-----------------------
   0 C :   -0.884497
   1 N :   -0.037437
   2 C :    0.507113
   3 N :   -0.324017
   4 N :   -0.245959
   5 H :    0.199034
   6 H :    0.146207
   7 H :    0.158449
   8 H :    0.165629
   9 H :    0.175538
  10 H :    0.402593
  11 H :    0.360820
  12 H :    0.376526
Sum of atomic charges:    1.0000000

LOEWDIN ATOMIC CHARGES
----------------------
   0 C :    0.597283
   1 N :    0.613773
   2 C :   -0.366527
   3 N :    0.932513
   4 N :    0.935303
   5 H :   -0.249511
   6 H :   -0.236963
   7 H :   -0.240184
   8 H :   -0.242809
   9 H :   -0.248937
  10 H :   -0.187051
  11 H :   -0.151768
  12 H :   -0.155122

  Mayer bond orders larger than 0.100000
B(  0-C ,  1-N ) :   0.8658 B(  0-C ,  2-C ) :  -0.1122 B(  0-C , 10-H ) :   0.8509
B(  0-C , 11-H ) :   0.8976 B(  0-C , 12-H ) :   0.8691 B(  1-N ,  2-C ) :   1.1086
B(  1-N ,  7-H ) :   1.0281 B(  2-C ,  3-N ) :   1.0158 B(  2-C ,  4-N ) :   1.0293
B(  3-N ,  8-H ) :   1.0521 B(  3-N ,  9-H ) :   1.0449 B(  4-N ,  5-H ) :   1.0217
B(  4-N ,  6-H ) :   1.0536

E(0)                                       ...   -243.656049814
E(0)                                       ...   -243.656049814
E(CORR)(strong-pairs)                      ...     -0.995343359
E(CORR)(weak-pairs)                        ...     -0.000985681
E(CORR)(corrected)                         ...     -0.996329040
E(TOT)                                     ...   -244.652378854
E(CCSD(T))                                 ...   -244.692109909
FINAL SINGLE POINT ENERGY      -244.692109908746

DIPOLE MOMENT
-------------
                                X             Y             Z
Electronic contribution:      1.68197      -1.99990      -0.73908
Nuclear contribution   :     -1.49827       1.51766       0.59175
                        -----------------------------------------
Total Dipole Moment    :      0.18369      -0.48224      -0.14732
                        -----------------------------------------
Magnitude (a.u.)       :      0.53665
Magnitude (Debye)      :      1.36407

Rotational constants in cm-1:     0.316446     0.130424     0.094259
Rotational constants in MHz :  9486.821695  3910.013387  2825.801764

                             ****ORCA TERMINATED NORMALLY****
TOTAL RUN TIME: 0 days 1 hours 56 minutes 59 seconds 438 msec
