                         Program Version 5.0.0 -  RELEASE  -
|  1> !DLPNO-CCSD(T) aug-cc-pVTZ aug-cc-pVTZ/C TightSCF TightPNO RIJCOSX def2/J
|  2> *xyz 0 1
|  3> C          1.87218        0.42790       -2.07750
|  4> S          0.57902        0.14047       -3.29794
|  5> F          0.22886       -1.24687       -3.12787
|  6> O         -0.43927        1.11897       -3.01455
|  7> O          1.24788        0.40347       -4.59565
|  8> H          2.66832       -0.27048       -2.23022
|  9> H          1.46951        0.30034       -1.09440
| 10> H          2.24690        1.42458       -2.18288
| 11> *
| 12>
| 13> %MaxCore 64000
| 14>
| 15> %pal nprocs 2
| 16> end
| 17>
| 18> %scf
| 19>   MaxIter 150
| 20> end
| 21>
| 22>
| 23>                          ****END OF INPUT****

CARTESIAN COORDINATES (ANGSTROEM)
---------------------------------
  C      1.872180    0.427900   -2.077500
  S      0.579020    0.140470   -3.297940
  F      0.228860   -1.246870   -3.127870
  O     -0.439270    1.118970   -3.014550
  O      1.247880    0.403470   -4.595650
  H      2.668320   -0.270480   -2.230220
  H      1.469510    0.300340   -1.094400
  H      2.246900    1.424580   -2.182880

 Total Charge           Charge          ....    0
 Multiplicity           Mult            ....    1
 Number of Electrons    NEL             ....   50
 Basis Dimension        Dim             ....  303

ORBITAL ENERGIES
----------------

  NO   OCC          E(Eh)            E(eV)
   0   2.0000     -92.258571     -2510.4833
   1   2.0000     -26.440007      -719.4692
   2   2.0000     -20.574673      -559.8653
   3   2.0000     -20.559485      -559.4520
   4   2.0000     -11.289915      -307.2142
   5   2.0000      -9.221449      -250.9284
   6   2.0000      -6.909129      -188.0070
   7   2.0000      -6.905205      -187.9002
   8   2.0000      -6.904254      -187.8743
   9   2.0000      -1.808897       -49.2226
  10   2.0000      -1.458290       -39.6821
  11   2.0000      -1.344701       -36.5912
  12   2.0000      -1.069951       -29.1149
  13   2.0000      -0.970114       -26.3981
  14   2.0000      -0.841704       -22.9039
  15   2.0000      -0.836410       -22.7599
  16   2.0000      -0.769968       -20.9519
  17   2.0000      -0.664100       -18.0711
  18   2.0000      -0.656997       -17.8778
  19   2.0000      -0.635661       -17.2972
  20   2.0000      -0.613340       -16.6898
  21   2.0000      -0.561818       -15.2879
  22   2.0000      -0.504802       -13.7364
  23   2.0000      -0.486273       -13.2322
  24   2.0000      -0.478911       -13.0318
  25   0.0000       0.021934         0.5969
  26   0.0000       0.041140         1.1195
  27   0.0000       0.044882         1.2213
  28   0.0000       0.062645         1.7047
  29   0.0000       0.090949         2.4749

MULLIKEN ATOMIC CHARGES
-----------------------
   0 C :   -0.994787
   1 S :    2.153560
   2 F :   -0.489004
   3 O :   -0.845251
   4 O :   -0.851268
   5 H :    0.341713
   6 H :    0.326581
   7 H :    0.358456
Sum of atomic charges:    0.0000000

LOEWDIN ATOMIC CHARGES
----------------------
   0 C :    0.511720
   1 S :   -0.143769
   2 F :    0.281974
   3 O :    0.021405
   4 O :   -0.006085
   5 H :   -0.227030
   6 H :   -0.228598
   7 H :   -0.209617

  Mayer bond orders larger than 0.100000
B(  0-C ,  1-S ) :   0.8881 B(  0-C ,  5-H ) :   0.8691 B(  0-C ,  6-H ) :   0.8863
B(  0-C ,  7-H ) :   0.8636 B(  1-S ,  2-F ) :   0.5850 B(  1-S ,  3-O ) :   1.5754
B(  1-S ,  4-O ) :   1.5087

E(0)                                       ...   -686.372689070
E(0)                                       ...   -686.372689070
E(CORR)(strong-pairs)                      ...     -1.119612691
E(CORR)(weak-pairs)                        ...     -0.000969604
E(CORR)(corrected)                         ...     -1.120582295
E(TOT)                                     ...   -687.493271366
E(CCSD(T))                                 ...   -687.538681417
FINAL SINGLE POINT ENERGY      -687.538681416720

DIPOLE MOMENT
-------------
                                X             Y             Z
Electronic contribution:     -3.72442      -3.12472      -2.38779
Nuclear contribution   :      4.52607       2.31146       3.82544
                        -----------------------------------------
Total Dipole Moment    :      0.80165      -0.81327       1.43765
                        -----------------------------------------
Magnitude (a.u.)       :      1.83600
Magnitude (Debye)      :      4.66673

Rotational constants in cm-1:     0.162724     0.156586     0.147157
Rotational constants in MHz :  4878.333818  4694.318771  4411.658495

                             ****ORCA TERMINATED NORMALLY****
TOTAL RUN TIME: 0 days 0 hours 59 minutes 8 seconds 771 msec
