                         Program Version 5.0.0 -  RELEASE  -
|  1> !DLPNO-CCSD(T) aug-cc-pVTZ aug-cc-pVTZ/C TightSCF TightPNO RIJCOSX def2/J
|  2> *xyz 0 1
|  3> C          3.38093        2.08304       -3.35013
|  4> C          4.53592        1.18245       -3.42852
|  5> C          4.67196        0.12227       -4.22060
|  6> N          5.86602       -0.50785       -4.22428
|  7> N          3.69888       -0.31284       -4.98699
|  8> H          2.73141       -0.05009       -4.84900
|  9> H          3.89005       -1.05517       -5.64373
| 10> H          5.25193        1.30346       -2.72101
| 11> H          6.69516       -0.06232       -3.85160
| 12> H          5.97538       -1.39688       -4.69141
| 13> H          2.69962        1.85926       -4.14426
| 14> H          3.71221        3.09654       -3.43937
| 15> H          2.88835        1.95032       -2.40957
| 16> *
| 17>
| 18> %MaxCore 64000
| 19>
| 20> %pal nprocs 2
| 21> end
| 22>
| 23> %scf
| 24>   MaxIter 150
| 25> end
| 26>
| 27>
| 28>                          ****END OF INPUT****

CARTESIAN COORDINATES (ANGSTROEM)
---------------------------------
  C      3.380930    2.083040   -3.350130
  C      4.535920    1.182450   -3.428520
  C      4.671960    0.122270   -4.220600
  N      5.866020   -0.507850   -4.224280
  N      3.698880   -0.312840   -4.986990
  H      2.731410   -0.050090   -4.849000
  H      3.890050   -1.055170   -5.643730
  H      5.251930    1.303460   -2.721010
  H      6.695160   -0.062320   -3.851600
  H      5.975380   -1.396880   -4.691410
  H      2.699620    1.859260   -4.144260
  H      3.712210    3.096540   -3.439370
  H      2.888350    1.950320   -2.409570

 Total Charge           Charge          ....    0
 Multiplicity           Mult            ....    1
 Number of Electrons    NEL             ....   40
 Basis Dimension        Dim             ....  414

ORBITAL ENERGIES
----------------

  NO   OCC          E(Eh)            E(eV)
   0   2.0000     -15.562964      -423.4898
   1   2.0000     -15.555471      -423.2859
   2   2.0000     -11.281449      -306.9838
   3   2.0000     -11.183817      -304.3271
   4   2.0000     -11.139502      -303.1213
   5   2.0000      -1.276544       -34.7365
   6   2.0000      -1.161428       -31.6041
   7   2.0000      -1.018196       -27.7065
   8   2.0000      -0.895173       -24.3589
   9   2.0000      -0.784785       -21.3551
  10   2.0000      -0.723585       -19.6898
  11   2.0000      -0.686552       -18.6820
  12   2.0000      -0.646682       -17.5971
  13   2.0000      -0.591728       -16.1017
  14   2.0000      -0.563547       -15.3349
  15   2.0000      -0.528119       -14.3708
  16   2.0000      -0.511825       -13.9275
  17   2.0000      -0.486048       -13.2260
  18   2.0000      -0.412450       -11.2233
  19   2.0000      -0.254484        -6.9249
  20   0.0000       0.024292         0.6610
  21   0.0000       0.035653         0.9702
  22   0.0000       0.041182         1.1206
  23   0.0000       0.050040         1.3617
  24   0.0000       0.055380         1.5070

MULLIKEN ATOMIC CHARGES
-----------------------
   0 C :   -0.847924
   1 C :   -0.268633
   2 C :    0.494350
   3 N :   -0.474322
   4 N :   -0.376472
   5 H :    0.103665
   6 H :    0.122905
   7 H :    0.266589
   8 H :    0.101234
   9 H :    0.086638
  10 H :    0.293632
  11 H :    0.258276
  12 H :    0.240063
Sum of atomic charges:   -0.0000000

LOEWDIN ATOMIC CHARGES
----------------------
   0 C :    0.544064
   1 C :    0.194994
   2 C :   -0.438471
   3 N :    0.845852
   4 N :    0.853604
   5 H :   -0.278082
   6 H :   -0.279381
   7 H :   -0.280947
   8 H :   -0.275395
   9 H :   -0.293283
  10 H :   -0.214955
  11 H :   -0.188425
  12 H :   -0.189575

  Mayer bond orders larger than 0.100000
B(  0-C ,  1-C ) :   0.7213 B(  0-C ,  2-C ) :   0.1439 B(  0-C , 10-H ) :   0.8912
B(  0-C , 11-H ) :   1.0372 B(  0-C , 12-H ) :   1.0160 B(  1-C ,  2-C ) :   1.2026
B(  1-C ,  3-N ) :  -0.2416 B(  1-C ,  4-N ) :  -0.1889 B(  1-C ,  7-H ) :   1.0028
B(  2-C ,  3-N ) :   0.9187 B(  2-C ,  4-N ) :   0.8468 B(  3-N ,  4-N ) :  -0.1500
B(  3-N ,  8-H ) :   1.1195 B(  3-N ,  9-H ) :   1.1253 B(  4-N ,  5-H ) :   1.1338
B(  4-N ,  6-H ) :   1.0437

E(0)                                       ...   -227.206555140
E(0)                                       ...   -227.206555140
E(CORR)(strong-pairs)                      ...     -0.978401423
E(CORR)(weak-pairs)                        ...     -0.000961453
E(CORR)(corrected)                         ...     -0.979362876
E(TOT)                                     ...   -228.185918016
E(CCSD(T))                                 ...   -228.225978935
FINAL SINGLE POINT ENERGY      -228.225978934629

DIPOLE MOMENT
-------------
                                X             Y             Z
Electronic contribution:      1.56096      -2.49905      -1.24549
Nuclear contribution   :     -1.47697       1.65537       0.71722
                        -----------------------------------------
Total Dipole Moment    :      0.08399      -0.84368      -0.52828
                        -----------------------------------------
Magnitude (a.u.)       :      0.99897
Magnitude (Debye)      :      2.53917

Rotational constants in cm-1:     0.321284     0.131400     0.095192
Rotational constants in MHz :  9631.850868  3939.260061  2853.789421

                             ****ORCA TERMINATED NORMALLY****
TOTAL RUN TIME: 0 days 2 hours 10 minutes 43 seconds 618 msec
