                         Program Version 5.0.0 -  RELEASE  -
|  1> !DLPNO-CCSD(T) aug-cc-pVTZ aug-cc-pVTZ/C TightSCF TightPNO RIJCOSX def2/J
|  2> *xyz 0 1
|  3> C          1.87218        0.42790       -2.07750
|  4> S          0.57902        0.14047       -3.29794
|  5> O          0.22886       -1.24687       -3.12787
|  6> F         -0.43927        1.11897       -3.01455
|  7> O          1.24788        0.40347       -4.59565
|  8> H          2.66832       -0.27048       -2.23022
|  9> H          1.46951        0.30034       -1.09440
| 10> H          2.24690        1.42458       -2.18288
| 11> *
| 12>
| 13> %MaxCore 64000
| 14>
| 15> %pal nprocs 2
| 16> end
| 17>
| 18> %scf
| 19>   MaxIter 150
| 20> end
| 21>
| 22>
| 23>                          ****END OF INPUT****

CARTESIAN COORDINATES (ANGSTROEM)
---------------------------------
  C      1.872180    0.427900   -2.077500
  S      0.579020    0.140470   -3.297940
  O      0.228860   -1.246870   -3.127870
  F     -0.439270    1.118970   -3.014550
  O      1.247880    0.403470   -4.595650
  H      2.668320   -0.270480   -2.230220
  H      1.469510    0.300340   -1.094400
  H      2.246900    1.424580   -2.182880

 Total Charge           Charge          ....    0
 Multiplicity           Mult            ....    1
 Number of Electrons    NEL             ....   50
 Basis Dimension        Dim             ....  303

ORBITAL ENERGIES
----------------

  NO   OCC          E(Eh)            E(eV)
   0   2.0000     -92.258673     -2510.4861
   1   2.0000     -26.439884      -719.4658
   2   2.0000     -20.574885      -559.8711
   3   2.0000     -20.559607      -559.4554
   4   2.0000     -11.289781      -307.2106
   5   2.0000      -9.221534      -250.9307
   6   2.0000      -6.909182      -188.0084
   7   2.0000      -6.905366      -187.9046
   8   2.0000      -6.904283      -187.8751
   9   2.0000      -1.809053       -49.2268
  10   2.0000      -1.457866       -39.6705
  11   2.0000      -1.345619       -36.6162
  12   2.0000      -1.069043       -29.0901
  13   2.0000      -0.970244       -26.4017
  14   2.0000      -0.841752       -22.9052
  15   2.0000      -0.836431       -22.7604
  16   2.0000      -0.770219       -20.9587
  17   2.0000      -0.663461       -18.0537
  18   2.0000      -0.657208       -17.8835
  19   2.0000      -0.636162       -17.3108
  20   2.0000      -0.613411       -16.6918
  21   2.0000      -0.561062       -15.2673
  22   2.0000      -0.505089       -13.7442
  23   2.0000      -0.485665       -13.2156
  24   2.0000      -0.479753       -13.0547
  25   0.0000       0.022005         0.5988
  26   0.0000       0.041278         1.1232
  27   0.0000       0.044925         1.2225
  28   0.0000       0.062659         1.7050
  29   0.0000       0.090926         2.4742

MULLIKEN ATOMIC CHARGES
-----------------------
   0 C :   -0.997703
   1 S :    2.148098
   2 O :   -0.837043
   3 F :   -0.490732
   4 O :   -0.851609
   5 H :    0.355635
   6 H :    0.326016
   7 H :    0.347339
Sum of atomic charges:    0.0000000

LOEWDIN ATOMIC CHARGES
----------------------
   0 C :    0.510831
   1 S :   -0.142755
   2 O :    0.022085
   3 F :    0.281504
   4 O :   -0.006249
   5 H :   -0.209316
   6 H :   -0.228868
   7 H :   -0.227231

  Mayer bond orders larger than 0.100000
B(  0-C ,  1-S ) :   0.8869 B(  0-C ,  5-H ) :   0.8668 B(  0-C ,  6-H ) :   0.8859
B(  0-C ,  7-H ) :   0.8657 B(  1-S ,  2-O ) :   1.5930 B(  1-S ,  3-F ) :   0.5775
B(  1-S ,  4-O ) :   1.5108

E(0)                                       ...   -686.372759172
E(0)                                       ...   -686.372759172
E(CORR)(strong-pairs)                      ...     -1.119606506
E(CORR)(weak-pairs)                        ...     -0.000971606
E(CORR)(corrected)                         ...     -1.120578112
E(TOT)                                     ...   -687.493337284
E(CCSD(T))                                 ...   -687.538744185
FINAL SINGLE POINT ENERGY      -687.538744185257

DIPOLE MOMENT
-------------
                                X             Y             Z
Electronic contribution:     -4.88999       0.99869      -2.18732
Nuclear contribution   :      5.19357      -0.05217       3.71223
                        -----------------------------------------
Total Dipole Moment    :      0.30358       0.94652       1.52491
                        -----------------------------------------
Magnitude (a.u.)       :      1.82028
Magnitude (Debye)      :      4.62678

Rotational constants in cm-1:     0.163837     0.155047     0.147593
Rotational constants in MHz :  4911.724022  4648.196128  4424.713532

                             ****ORCA TERMINATED NORMALLY****
TOTAL RUN TIME: 0 days 0 hours 57 minutes 34 seconds 544 msec
