                         Program Version 5.0.0 -  RELEASE  -
|  1> !DLPNO-CCSD(T) aug-cc-pVTZ aug-cc-pVTZ/C TightSCF TightPNO RIJCOSX def2/J
|  2> *xyz 0 1
|  3> C          3.38093        2.08304       -3.35013
|  4> N          4.53592        1.18245       -3.42852
|  5> C          4.67196        0.12227       -4.22060
|  6> C          5.86602       -0.50785       -4.22428
|  7> N          3.69888       -0.31284       -4.98699
|  8> H          2.73141       -0.05009       -4.84900
|  9> H          3.89005       -1.05517       -5.64373
| 10> H          5.25193        1.30346       -2.72101
| 11> H          6.69516       -0.06232       -3.85160
| 12> H          5.97538       -1.39688       -4.69141
| 13> H          2.69962        1.85926       -4.14426
| 14> H          3.71221        3.09654       -3.43937
| 15> H          2.88835        1.95032       -2.40957
| 16> *
| 17>
| 18> %MaxCore 64000
| 19>
| 20> %pal nprocs 2
| 21> end
| 22>
| 23> %scf
| 24>   MaxIter 150
| 25> end
| 26>
| 27>
| 28>                          ****END OF INPUT****

CARTESIAN COORDINATES (ANGSTROEM)
---------------------------------
  C      3.380930    2.083040   -3.350130
  N      4.535920    1.182450   -3.428520
  C      4.671960    0.122270   -4.220600
  C      5.866020   -0.507850   -4.224280
  N      3.698880   -0.312840   -4.986990
  H      2.731410   -0.050090   -4.849000
  H      3.890050   -1.055170   -5.643730
  H      5.251930    1.303460   -2.721010
  H      6.695160   -0.062320   -3.851600
  H      5.975380   -1.396880   -4.691410
  H      2.699620    1.859260   -4.144260
  H      3.712210    3.096540   -3.439370
  H      2.888350    1.950320   -2.409570

 Total Charge           Charge          ....    0
 Multiplicity           Mult            ....    1
 Number of Electrons    NEL             ....   40
 Basis Dimension        Dim             ....  414

ORBITAL ENERGIES
----------------

  NO   OCC          E(Eh)            E(eV)
   0   2.0000     -15.566048      -423.5737
   1   2.0000     -15.560356      -423.4188
   2   2.0000     -11.291212      -307.2495
   3   2.0000     -11.259628      -306.3901
   4   2.0000     -11.124666      -302.7176
   5   2.0000      -1.287490       -35.0344
   6   2.0000      -1.183913       -32.2159
   7   2.0000      -0.999178       -27.1890
   8   2.0000      -0.908820       -24.7302
   9   2.0000      -0.806494       -21.9458
  10   2.0000      -0.728493       -19.8233
  11   2.0000      -0.668212       -18.1830
  12   2.0000      -0.647216       -17.6117
  13   2.0000      -0.621384       -16.9087
  14   2.0000      -0.564529       -15.3616
  15   2.0000      -0.553799       -15.0696
  16   2.0000      -0.537561       -14.6278
  17   2.0000      -0.511658       -13.9229
  18   2.0000      -0.398896       -10.8545
  19   2.0000      -0.256485        -6.9793
  20   0.0000       0.024652         0.6708
  21   0.0000       0.034594         0.9414
  22   0.0000       0.042981         1.1696
  23   0.0000       0.043549         1.1850
  24   0.0000       0.056085         1.5262

MULLIKEN ATOMIC CHARGES
-----------------------
   0 C :   -0.951447
   1 N :   -0.075768
   2 C :    0.351526
   3 C :   -1.078652
   4 N :   -0.359347
   5 H :    0.140047
   6 H :    0.042225
   7 H :    0.089932
   8 H :    0.334418
   9 H :    0.432552
  10 H :    0.397192
  11 H :    0.330026
  12 H :    0.347296
Sum of atomic charges:    0.0000000

LOEWDIN ATOMIC CHARGES
----------------------
   0 C :    0.543278
   1 N :    0.558694
   2 C :   -0.465084
   3 C :    0.530781
   4 N :    0.853537
   5 H :   -0.290464
   6 H :   -0.266871
   7 H :   -0.264110
   8 H :   -0.316127
   9 H :   -0.323416
  10 H :   -0.203948
  11 H :   -0.177120
  12 H :   -0.179150

  Mayer bond orders larger than 0.100000
B(  0-C ,  1-N ) :   0.9166 B(  0-C , 10-H ) :   0.8467 B(  0-C , 11-H ) :   0.9298
B(  0-C , 12-H ) :   0.8999 B(  1-N ,  2-C ) :   0.8956 B(  1-N ,  3-C ) :  -0.1847
B(  1-N ,  4-N ) :  -0.1780 B(  1-N ,  7-H ) :   1.1039 B(  2-C ,  3-C ) :   1.1608
B(  2-C ,  4-N ) :   0.8920 B(  3-C ,  4-N ) :  -0.2391 B(  3-C ,  8-H ) :   1.0103
B(  3-C ,  9-H ) :   0.8571 B(  4-N ,  5-H ) :   1.0595 B(  4-N ,  6-H ) :   1.1743

E(0)                                       ...   -227.195244548
E(0)                                       ...   -227.195244548
E(CORR)(strong-pairs)                      ...     -0.975351967
E(CORR)(weak-pairs)                        ...     -0.000971435
E(CORR)(corrected)                         ...     -0.976323402
E(TOT)                                     ...   -228.171567950
E(CCSD(T))                                 ...   -228.211554398
FINAL SINGLE POINT ENERGY      -228.211554397807

DIPOLE MOMENT
-------------
                                X             Y             Z
Electronic contribution:      0.05856      -0.75519      -0.45779
Nuclear contribution   :     -1.20756       1.31300       0.55604
                        -----------------------------------------
Total Dipole Moment    :     -1.14901       0.55781       0.09825
                        -----------------------------------------
Magnitude (a.u.)       :      1.28102
Magnitude (Debye)      :      3.25610

Rotational constants in cm-1:     0.323683     0.135884     0.097747
Rotational constants in MHz :  9703.770798  4073.695357  2930.389562

                             ****ORCA TERMINATED NORMALLY****
TOTAL RUN TIME: 0 days 2 hours 10 minutes 2 seconds 294 msec
