                         Program Version 5.0.0 -  RELEASE  -
|  1> !DLPNO-CCSD(T) aug-cc-pVTZ aug-cc-pVTZ/C TightSCF TightPNO RIJCOSX def2/J
|  2> *xyz 0 1
|  3> C          1.87218        0.42790       -2.07750
|  4> S          0.57902        0.14047       -3.29794
|  5> O          0.22886       -1.24687       -3.12787
|  6> O         -0.43927        1.11897       -3.01455
|  7> F          1.24788        0.40347       -4.59565
|  8> H          2.66832       -0.27048       -2.23022
|  9> H          1.46951        0.30034       -1.09440
| 10> H          2.24690        1.42458       -2.18288
| 11> *
| 12>
| 13> %MaxCore 64000
| 14>
| 15> %pal nprocs 8
| 16> end
| 17>
| 18> %scf
| 19>   MaxIter 150
| 20> end
| 21>
| 22>
| 23>                          ****END OF INPUT****

CARTESIAN COORDINATES (ANGSTROEM)
---------------------------------
  C      1.872180    0.427900   -2.077500
  S      0.579020    0.140470   -3.297940
  O      0.228860   -1.246870   -3.127870
  O     -0.439270    1.118970   -3.014550
  F      1.247880    0.403470   -4.595650
  H      2.668320   -0.270480   -2.230220
  H      1.469510    0.300340   -1.094400
  H      2.246900    1.424580   -2.182880

 Total Charge           Charge          ....    0
 Multiplicity           Mult            ....    1
 Number of Electrons    NEL             ....   50
 Basis Dimension        Dim             ....  303

ORBITAL ENERGIES
----------------

  NO   OCC          E(Eh)            E(eV)
   0   2.0000     -92.257345     -2510.4500
   1   2.0000     -26.417298      -718.8512
   2   2.0000     -20.574258      -559.8540
   3   2.0000     -20.574152      -559.8511
   4   2.0000     -11.288819      -307.1844
   5   2.0000      -9.219929      -250.8870
   6   2.0000      -6.907634      -187.9663
   7   2.0000      -6.903920      -187.8652
   8   2.0000      -6.902750      -187.8334
   9   2.0000      -1.769971       -48.1633
  10   2.0000      -1.470812       -40.0228
  11   2.0000      -1.369574       -37.2680
  12   2.0000      -1.065818       -29.0024
  13   2.0000      -0.947873       -25.7929
  14   2.0000      -0.816879       -22.2284
  15   2.0000      -0.808985       -22.0136
  16   2.0000      -0.769616       -20.9423
  17   2.0000      -0.669540       -18.2191
  18   2.0000      -0.662298       -18.0220
  19   2.0000      -0.634866       -17.2756
  20   2.0000      -0.620897       -16.8955
  21   2.0000      -0.568229       -15.4623
  22   2.0000      -0.516100       -14.0438
  23   2.0000      -0.495162       -13.4740
  24   2.0000      -0.494103       -13.4452
  25   0.0000       0.022836         0.6214
  26   0.0000       0.042004         1.1430
  27   0.0000       0.044155         1.2015
  28   0.0000       0.064649         1.7592
  29   0.0000       0.091473         2.4891

MULLIKEN ATOMIC CHARGES
-----------------------
   0 C :   -1.004235
   1 S :    2.172245
   2 O :   -0.841661
   3 O :   -0.852801
   4 F :   -0.498417
   5 H :    0.339363
   6 H :    0.341951
   7 H :    0.343555
Sum of atomic charges:    0.0000000

LOEWDIN ATOMIC CHARGES
----------------------
   0 C :    0.512314
   1 S :   -0.139221
   2 O :    0.022456
   3 O :    0.021525
   4 F :    0.248212
   5 H :   -0.226946
   6 H :   -0.210822
   7 H :   -0.227518

  Mayer bond orders larger than 0.100000
B(  0-C ,  1-S ) :   0.8766 B(  0-C ,  5-H ) :   0.8724 B(  0-C ,  6-H ) :   0.8817
B(  0-C ,  7-H ) :   0.8672 B(  1-S ,  2-O ) :   1.5936 B(  1-S ,  3-O ) :   1.5742
B(  1-S ,  4-F ) :   0.5604

E(0)                                       ...   -686.391041127
E(0)                                       ...   -686.391041127
E(CORR)(strong-pairs)                      ...     -1.118685549
E(CORR)(weak-pairs)                        ...     -0.000963849
E(CORR)(corrected)                         ...     -1.119649398
E(TOT)                                     ...   -687.510690525
E(CCSD(T))                                 ...   -687.555835447
FINAL SINGLE POINT ENERGY      -687.555835447068

DIPOLE MOMENT
-------------
                                X             Y             Z
Electronic contribution:     -1.93018      -0.24415      -4.97073
Nuclear contribution   :      3.50800       0.66266       5.29185
                        -----------------------------------------
Total Dipole Moment    :      1.57783       0.41851       0.32112
                        -----------------------------------------
Magnitude (a.u.)       :      1.66367
Magnitude (Debye)      :      4.22872

Rotational constants in cm-1:     0.163942     0.153101     0.149133
Rotational constants in MHz :  4914.860621  4589.839477  4470.901507

                             ****ORCA TERMINATED NORMALLY****
TOTAL RUN TIME: 0 days 0 hours 5 minutes 0 seconds 770 msec
