                         Program Version 5.0.0 -  RELEASE  -
|  1> !DLPNO-CCSD(T) aug-cc-pVTZ aug-cc-pVTZ/C TightSCF TightPNO RIJCOSX def2/J
|  2> *xyz 0 1
|  3> C          3.38093        2.08304       -3.35013
|  4> N          4.53592        1.18245       -3.42852
|  5> C          4.67196        0.12227       -4.22060
|  6> N          5.86602       -0.50785       -4.22428
|  7> C          3.69888       -0.31284       -4.98699
|  8> H          2.73141       -0.05009       -4.84900
|  9> H          3.89005       -1.05517       -5.64373
| 10> H          5.25193        1.30346       -2.72101
| 11> H          6.69516       -0.06232       -3.85160
| 12> H          5.97538       -1.39688       -4.69141
| 13> H          2.69962        1.85926       -4.14426
| 14> H          3.71221        3.09654       -3.43937
| 15> H          2.88835        1.95032       -2.40957
| 16> *
| 17>
| 18> %MaxCore 64000
| 19>
| 20> %pal nprocs 2
| 21> end
| 22>
| 23> %scf
| 24>   MaxIter 150
| 25> end
| 26>
| 27>
| 28>                          ****END OF INPUT****

CARTESIAN COORDINATES (ANGSTROEM)
---------------------------------
  C      3.380930    2.083040   -3.350130
  N      4.535920    1.182450   -3.428520
  C      4.671960    0.122270   -4.220600
  N      5.866020   -0.507850   -4.224280
  C      3.698880   -0.312840   -4.986990
  H      2.731410   -0.050090   -4.849000
  H      3.890050   -1.055170   -5.643730
  H      5.251930    1.303460   -2.721010
  H      6.695160   -0.062320   -3.851600
  H      5.975380   -1.396880   -4.691410
  H      2.699620    1.859260   -4.144260
  H      3.712210    3.096540   -3.439370
  H      2.888350    1.950320   -2.409570

 Total Charge           Charge          ....    0
 Multiplicity           Mult            ....    1
 Number of Electrons    NEL             ....   40
 Basis Dimension        Dim             ....  414

ORBITAL ENERGIES
----------------

  NO   OCC          E(Eh)            E(eV)
   0   2.0000     -15.559876      -423.4058
   1   2.0000     -15.558240      -423.3612
   2   2.0000     -11.286251      -307.1145
   3   2.0000     -11.250020      -306.1286
   4   2.0000     -11.129283      -302.8432
   5   2.0000      -1.278547       -34.7910
   6   2.0000      -1.171732       -31.8844
   7   2.0000      -0.984620       -26.7929
   8   2.0000      -0.940852       -25.6019
   9   2.0000      -0.769192       -20.9308
  10   2.0000      -0.725298       -19.7364
  11   2.0000      -0.693801       -18.8793
  12   2.0000      -0.621711       -16.9176
  13   2.0000      -0.601269       -16.3614
  14   2.0000      -0.581708       -15.8291
  15   2.0000      -0.544559       -14.8182
  16   2.0000      -0.537194       -14.6178
  17   2.0000      -0.509823       -13.8730
  18   2.0000      -0.390892       -10.6367
  19   2.0000      -0.271168        -7.3789
  20   0.0000       0.024986         0.6799
  21   0.0000       0.035520         0.9665
  22   0.0000       0.041219         1.1216
  23   0.0000       0.045853         1.2477
  24   0.0000       0.056711         1.5432

MULLIKEN ATOMIC CHARGES
-----------------------
   0 C :   -1.018399
   1 N :   -0.105001
   2 C :    0.558343
   3 N :   -0.432706
   4 C :   -1.192352
   5 H :    0.373576
   6 H :    0.361725
   7 H :    0.131765
   8 H :    0.113538
   9 H :    0.087505
  10 H :    0.452864
  11 H :    0.322562
  12 H :    0.346579
Sum of atomic charges:   -0.0000000

LOEWDIN ATOMIC CHARGES
----------------------
   0 C :    0.546047
   1 N :    0.552696
   2 C :   -0.459293
   3 N :    0.852847
   4 C :    0.529121
   5 H :   -0.314152
   6 H :   -0.308643
   7 H :   -0.274712
   8 H :   -0.285853
   9 H :   -0.278923
  10 H :   -0.206648
  11 H :   -0.176492
  12 H :   -0.175996

  Mayer bond orders larger than 0.100000
B(  0-C ,  1-N ) :   0.9570 B(  0-C , 10-H ) :   0.8203 B(  0-C , 11-H ) :   0.9379
B(  0-C , 12-H ) :   0.8959 B(  1-N ,  2-C ) :   0.9106 B(  1-N ,  3-N ) :  -0.1611
B(  1-N ,  4-C ) :  -0.2195 B(  1-N ,  7-H ) :   1.0387 B(  2-C ,  3-N ) :   0.8651
B(  2-C ,  4-C ) :   1.2150 B(  3-N ,  4-C ) :  -0.1833 B(  3-N ,  8-H ) :   1.0806
B(  3-N ,  9-H ) :   1.1350 B(  4-C ,  5-H ) :   0.9555 B(  4-C ,  6-H ) :   0.9339

E(0)                                       ...   -227.200925876
E(0)                                       ...   -227.200925876
E(CORR)(strong-pairs)                      ...     -0.975360847
E(CORR)(weak-pairs)                        ...     -0.000965466
E(CORR)(corrected)                         ...     -0.976326313
E(TOT)                                     ...   -228.177252190
E(CCSD(T))                                 ...   -228.217100805
FINAL SINGLE POINT ENERGY      -228.217100805283

DIPOLE MOMENT
-------------
                                X             Y             Z
Electronic contribution:      2.33014      -0.98723       0.27094
Nuclear contribution   :     -1.64651       1.35250       0.40156
                        -----------------------------------------
Total Dipole Moment    :      0.68363       0.36527       0.67250
                        -----------------------------------------
Magnitude (a.u.)       :      1.02617
Magnitude (Debye)      :      2.60832

Rotational constants in cm-1:     0.339624     0.131069     0.096565
Rotational constants in MHz : 10181.679558  3929.342810  2894.941560

                             ****ORCA TERMINATED NORMALLY****
TOTAL RUN TIME: 0 days 2 hours 11 minutes 30 seconds 741 msec
