                         Program Version 5.0.0 -  RELEASE  -
|  1> !DLPNO-CCSD(T) aug-cc-pVTZ aug-cc-pVTZ/C TightSCF TightPNO RIJCOSX def2/J
|  2>
|  3> *xyzfile 0 1 D1.xyz
|  4>
|  5> %MaxCore 64000
|  6>
|  7> %pal nprocs 18
|  8> end
|  9>
| 10> %scf
| 11>   MaxIter 150
| 12> end
| 13>
| 14>
| 15>                          ****END OF INPUT****

CARTESIAN COORDINATES (ANGSTROEM)
---------------------------------
  C      3.380928    2.083045   -3.350127
  C      4.535924    1.182447   -3.428518
  C      2.495557    1.816150   -2.136364
  C      1.872181    0.427903   -2.077497
  H      2.614270   -0.365825   -2.198894
  H      1.389953    0.273087   -1.112360
  S      0.579024    0.140472   -3.297943
  C      4.671956    0.122273   -4.220598
  N      5.866023   -0.507849   -4.224284
  N      3.698881   -0.312844   -4.986988
  H      2.731405   -0.050091   -4.849000
  H      3.890046   -1.055172   -5.643730
  H      5.251933    1.303459   -2.721014
  H      6.695165   -0.062322   -3.851596
  H      5.975383   -1.396884   -4.691414
  F      0.228860   -1.246868   -3.127871
  O     -0.439269    1.118966   -3.014550
  O      1.247881    0.403474   -4.595647
  H      1.697003    2.561969   -2.141109
  H      3.080787    1.987436   -1.225838
  H      2.806463    1.986511   -4.268484
  H      3.778714    3.098282   -3.307383

 Total Charge           Charge          ....    0
 Multiplicity           Mult            ....    1
 Number of Electrons    NEL             ....   96
 Basis Dimension        Dim             ....  763

ORBITAL ENERGIES
----------------

  NO   OCC          E(Eh)            E(eV)
   0   2.0000     -92.260223     -2510.5283
   1   2.0000     -26.443281      -719.5583
   2   2.0000     -20.577740      -559.9488
   3   2.0000     -20.571020      -559.7659
   4   2.0000     -15.554820      -423.2682
   5   2.0000     -15.535769      -422.7498
   6   2.0000     -11.285353      -307.0901
   7   2.0000     -11.280964      -306.9706
   8   2.0000     -11.235364      -305.7298
   9   2.0000     -11.198358      -304.7228
  10   2.0000     -11.136441      -303.0380
  11   2.0000      -9.224006      -250.9980
  12   2.0000      -6.911416      -188.0692
  13   2.0000      -6.907547      -187.9639
  14   2.0000      -6.906878      -187.9457
  15   2.0000      -1.812256       -49.3140
  16   2.0000      -1.467858       -39.9424
  17   2.0000      -1.362634       -37.0792
  18   2.0000      -1.269113       -34.5343
  19   2.0000      -1.154237       -31.4084
  20   2.0000      -1.105047       -30.0699
  21   2.0000      -1.032791       -28.1037
  22   2.0000      -0.983170       -26.7534
  23   2.0000      -0.925727       -25.1903
  24   2.0000      -0.858384       -23.3578
  25   2.0000      -0.841166       -22.8893
  26   2.0000      -0.812318       -22.1043
  27   2.0000      -0.798441       -21.7267
  28   2.0000      -0.754747       -20.5377
  29   2.0000      -0.721113       -19.6225
  30   2.0000      -0.700110       -19.0510
  31   2.0000      -0.670816       -18.2538
  32   2.0000      -0.664738       -18.0885
  33   2.0000      -0.646009       -17.5788
  34   2.0000      -0.622175       -16.9302
  35   2.0000      -0.609274       -16.5792
  36   2.0000      -0.573958       -15.6182
  37   2.0000      -0.565071       -15.3764
  38   2.0000      -0.554004       -15.0752
  39   2.0000      -0.540457       -14.7066
  40   2.0000      -0.520154       -14.1541
  41   2.0000      -0.504040       -13.7156
  42   2.0000      -0.489651       -13.3241
  43   2.0000      -0.488255       -13.2861
  44   2.0000      -0.474806       -12.9201
  45   2.0000      -0.455713       -12.4006
  46   2.0000      -0.401211       -10.9175
  47   2.0000      -0.256840        -6.9890
  48   0.0000       0.022892         0.6229
  49   0.0000       0.031170         0.8482
  50   0.0000       0.035397         0.9632
  51   0.0000       0.042379         1.1532
  52   0.0000       0.050909         1.3853

MULLIKEN ATOMIC CHARGES
-----------------------
   0 C :   -0.155040
   1 C :   -0.182426
   2 C :   -0.486085
   3 C :   -0.500858
   4 H :    0.239481
   5 H :    0.334517
   6 S :    2.177846
   7 C :    0.577508
   8 N :   -0.698304
   9 N :   -0.504370
  10 H :    0.356052
  11 H :    0.095858
  12 H :   -0.101858
  13 H :    0.087097
  14 H :    0.086411
  15 F :   -0.515200
  16 O :   -0.953978
  17 O :   -0.821510
  18 H :    0.293511
  19 H :    0.215395
  20 H :    0.017489
  21 H :    0.438463
Sum of atomic charges:    0.0000000

LOEWDIN ATOMIC CHARGES
----------------------
   0 C :    0.227499
   1 C :    0.194324
   2 C :    0.263798
   3 C :    0.206424
   4 H :   -0.189975
   5 H :   -0.189555
   6 S :    0.016422
   7 C :   -0.425156
   8 N :    0.852666
   9 N :    0.869271
  10 H :   -0.668988
  11 H :   -0.264752
  12 H :   -0.273831
  13 H :   -0.275808
  14 H :   -0.291665
  15 F :    0.303175
  16 O :    0.056377
  17 O :    0.243932
  18 H :   -0.161405
  19 H :   -0.132384
  20 H :   -0.216956
  21 H :   -0.143412

  Mayer bond orders larger than 0.100000
B(  0-C ,  1-C ) :   0.5357 B(  0-C ,  2-C ) :   0.7826 B(  0-C ,  3-C ) :   0.1005
B(  0-C ,  7-C ) :   0.1728 B(  0-C , 20-H ) :   1.1232 B(  0-C , 21-H ) :   0.9095
B(  1-C ,  2-C ) :   0.1001 B(  1-C ,  7-C ) :   1.1342 B(  1-C ,  8-N ) :  -0.2909
B(  1-C ,  9-N ) :  -0.1590 B(  1-C , 12-H ) :   1.3905 B(  1-C , 20-H ) :   0.1225
B(  1-C , 21-H ) :  -0.2073 B(  2-C ,  3-C ) :   0.8549 B(  2-C , 18-H ) :   0.9521
B(  2-C , 19-H ) :   1.0020 B(  3-C ,  4-H ) :   0.9454 B(  3-C ,  5-H ) :   0.8876
B(  3-C ,  6-S ) :   0.8323 B(  6-S , 15-F ) :   0.3966 B(  6-S , 16-O ) :   1.4842
B(  6-S , 17-O ) :   1.5719 B(  7-C ,  8-N ) :   0.8504 B(  7-C ,  9-N ) :   0.7931
B(  7-C , 10-H ) :  -0.1236 B(  7-C , 14-H ) :  -0.1507 B(  7-C , 20-H ) :   0.1192
B(  8-N ,  9-N ) :  -0.1579 B(  8-N , 13-H ) :   1.1443 B(  8-N , 14-H ) :   1.1431
B(  9-N , 10-H ) :   0.8284 B(  9-N , 11-H ) :   1.1187 B( 12-H , 20-H ) :   0.1139

E(0)                                       ...   -951.458099599
E(0)                                       ...   -951.458099599
E(CORR)(strong-pairs)                      ...     -2.262453663
E(CORR)(weak-pairs)                        ...     -0.003319903
E(CORR)(corrected)                         ...     -2.265773566
E(TOT)                                     ...   -953.723873165
E(CCSD(T))                                 ...   -953.820230330
FINAL SINGLE POINT ENERGY      -953.820230329787

DIPOLE MOMENT
-------------
                                X             Y             Z
Electronic contribution:    -15.23133      -6.81411      -1.05053
Nuclear contribution   :     15.92508       5.34175       1.81950
                        -----------------------------------------
Total Dipole Moment    :      0.69375      -1.47235       0.76897
                        -----------------------------------------
Magnitude (a.u.)       :      1.80012
Magnitude (Debye)      :      4.57553

Rotational constants in cm-1:     0.058561     0.020662     0.017762
Rotational constants in MHz :  1755.621534   619.433801   532.501507

                             ****ORCA TERMINATED NORMALLY****
TOTAL RUN TIME: 0 days 2 hours 1 minutes 12 seconds 442 msec
