                         Program Version 5.0.0 -  RELEASE  -
|  1> !DLPNO-CCSD(T) aug-cc-pVTZ aug-cc-pVTZ/C TightSCF TightPNO RIJCOSX def2/J
|  2>
|  3> *xyzfile 0 1 D2.xyz
|  4>
|  5> %MaxCore 64000
|  6>
|  7> %pal nprocs 18
|  8> end
|  9>
| 10> %scf
| 11>   MaxIter 150
| 12> end
| 13>
| 14>
| 15>                          ****END OF INPUT****

CARTESIAN COORDINATES (ANGSTROEM)
---------------------------------
  C      3.380928    2.083045   -3.350127
  N      4.535924    1.182447   -3.428518
  C      2.495557    1.816150   -2.136364
  C      1.872181    0.427903   -2.077497
  H      2.614270   -0.365825   -2.198894
  H      1.389953    0.273087   -1.112360
  S      0.579024    0.140472   -3.297943
  C      4.671956    0.122273   -4.220598
  C      5.866023   -0.507849   -4.224284
  N      3.698881   -0.312844   -4.986988
  H      2.731405   -0.050091   -4.849000
  H      3.890046   -1.055172   -5.643730
  H      5.251933    1.303459   -2.721014
  H      6.695165   -0.062322   -3.851596
  H      5.975383   -1.396884   -4.691414
  F      0.228860   -1.246868   -3.127871
  O     -0.439269    1.118966   -3.014550
  O      1.247881    0.403474   -4.595647
  H      1.697003    2.561969   -2.141109
  H      3.080787    1.987436   -1.225838
  H      2.806463    1.986511   -4.268484
  H      3.778714    3.098282   -3.307383

 Total Charge           Charge          ....    0
 Multiplicity           Mult            ....    1
 Number of Electrons    NEL             ....   96
 Basis Dimension        Dim             ....  763

ORBITAL ENERGIES
----------------

  NO   OCC          E(Eh)            E(eV)
   0   2.0000     -92.275327     -2510.9393
   1   2.0000     -26.455349      -719.8866
   2   2.0000     -20.591722      -560.3292
   3   2.0000     -20.584033      -560.1200
   4   2.0000     -15.560565      -423.4245
   5   2.0000     -15.533926      -422.6996
   6   2.0000     -11.305855      -307.6480
   7   2.0000     -11.283148      -307.0301
   8   2.0000     -11.272448      -306.7389
   9   2.0000     -11.265461      -306.5488
  10   2.0000     -11.118409      -302.5473
  11   2.0000      -9.238890      -251.4030
  12   2.0000      -6.926290      -188.4739
  13   2.0000      -6.922556      -188.3723
  14   2.0000      -6.921777      -188.3511
  15   2.0000      -1.824003       -49.6336
  16   2.0000      -1.481765       -40.3209
  17   2.0000      -1.376186       -37.4479
  18   2.0000      -1.281766       -34.8786
  19   2.0000      -1.179764       -32.1030
  20   2.0000      -1.115946       -30.3664
  21   2.0000      -1.034681       -28.1551
  22   2.0000      -0.979534       -26.6545
  23   2.0000      -0.937395       -25.5078
  24   2.0000      -0.870616       -23.6907
  25   2.0000      -0.852816       -23.2063
  26   2.0000      -0.828375       -22.5412
  27   2.0000      -0.804976       -21.9045
  28   2.0000      -0.789967       -21.4961
  29   2.0000      -0.738339       -20.0912
  30   2.0000      -0.689983       -18.7754
  31   2.0000      -0.678494       -18.4628
  32   2.0000      -0.665435       -18.1074
  33   2.0000      -0.651333       -17.7237
  34   2.0000      -0.644019       -17.5246
  35   2.0000      -0.615407       -16.7461
  36   2.0000      -0.583464       -15.8769
  37   2.0000      -0.573099       -15.5948
  38   2.0000      -0.568951       -15.4820
  39   2.0000      -0.547603       -14.9010
  40   2.0000      -0.543423       -14.7873
  41   2.0000      -0.523719       -14.2511
  42   2.0000      -0.517521       -14.0825
  43   2.0000      -0.501230       -13.6392
  44   2.0000      -0.489672       -13.3247
  45   2.0000      -0.488032       -13.2800
  46   2.0000      -0.390156       -10.6167
  47   2.0000      -0.250559        -6.8181
  48   0.0000       0.020387         0.5548
  49   0.0000       0.030728         0.8361
  50   0.0000       0.037466         1.0195
  51   0.0000       0.039240         1.0678
  52   0.0000       0.049367         1.3433

MULLIKEN ATOMIC CHARGES
-----------------------
   0 C :   -0.400710
   1 N :   -0.211920
   2 C :   -0.521019
   3 C :   -0.502275
   4 H :    0.267811
   5 H :    0.324406
   6 S :    2.194438
   7 C :    0.656318
   8 C :   -1.394927
   9 N :   -0.542781
  10 H :    0.438699
  11 H :   -0.017962
  12 H :   -0.027174
  13 H :    0.545447
  14 H :    0.206462
  15 F :   -0.510480
  16 O :   -0.952381
  17 O :   -0.822712
  18 H :    0.332469
  19 H :    0.235151
  20 H :    0.246697
  21 H :    0.456442
Sum of atomic charges:    0.0000000

LOEWDIN ATOMIC CHARGES
----------------------
   0 C :    0.220574
   1 N :    0.570536
   2 C :    0.276447
   3 C :    0.211042
   4 H :   -0.183052
   5 H :   -0.186788
   6 S :    0.018638
   7 C :   -0.463879
   8 C :    0.529167
   9 N :    0.866182
  10 H :   -0.680048
  11 H :   -0.253284
  12 H :   -0.259117
  13 H :   -0.319555
  14 H :   -0.324095
  15 F :    0.308123
  16 O :    0.058215
  17 O :    0.243263
  18 H :   -0.157725
  19 H :   -0.133121
  20 H :   -0.207725
  21 H :   -0.133797

  Mayer bond orders larger than 0.100000
B(  0-C ,  1-N ) :   0.8950 B(  0-C ,  2-C ) :   0.8058 B(  0-C ,  3-C ) :   0.1083
B(  0-C ,  7-C ) :  -0.1746 B(  0-C , 20-H ) :   1.0930 B(  0-C , 21-H ) :   0.7929
B(  1-N ,  7-C ) :   0.8733 B(  1-N ,  8-C ) :  -0.2552 B(  1-N ,  9-N ) :  -0.1222
B(  1-N , 12-H ) :   1.2136 B(  2-C ,  3-C ) :   0.8923 B(  2-C ,  6-S ) :   0.1074
B(  2-C , 18-H ) :   0.9023 B(  2-C , 19-H ) :   0.9705 B(  3-C ,  4-H ) :   0.9334
B(  3-C ,  5-H ) :   0.8975 B(  3-C ,  6-S ) :   0.8206 B(  6-S , 15-F ) :   0.4118
B(  6-S , 16-O ) :   1.4819 B(  6-S , 17-O ) :   1.5658 B(  7-C ,  8-C ) :   1.0118
B(  7-C ,  9-N ) :   0.7528 B(  7-C , 10-H ) :  -0.3161 B(  8-C ,  9-N ) :  -0.2115
B(  8-C , 10-H ) :   0.1101 B(  8-C , 13-H ) :   0.6779 B(  8-C , 14-H ) :   1.2736
B(  9-N , 10-H ) :   0.7142 B(  9-N , 11-H ) :   1.2684

E(0)                                       ...   -951.445039231
E(0)                                       ...   -951.445039231
E(CORR)(strong-pairs)                      ...     -2.259253420
E(CORR)(weak-pairs)                        ...     -0.003369521
E(CORR)(corrected)                         ...     -2.262622941
E(TOT)                                     ...   -953.707662172
E(CCSD(T))                                 ...   -953.803852229
FINAL SINGLE POINT ENERGY      -953.803852229258

DIPOLE MOMENT
-------------
                                X             Y             Z
Electronic contribution:    -16.79130      -5.25298      -0.25536
Nuclear contribution   :     16.05479       5.17692       1.74190
                        -----------------------------------------
Total Dipole Moment    :     -0.73651      -0.07606       1.48654
                        -----------------------------------------
Magnitude (a.u.)       :      1.66074
Magnitude (Debye)      :      4.22125

Rotational constants in cm-1:     0.058652     0.021107     0.018077
Rotational constants in MHz :  1758.344290   632.763813   541.920558

                             ****ORCA TERMINATED NORMALLY****
TOTAL RUN TIME: 0 days 1 hours 45 minutes 22 seconds 6 msec
