                         Program Version 5.0.0 -  RELEASE  -
|  1> !DLPNO-CCSD(T) aug-cc-pVTZ aug-cc-pVTZ/C TightSCF TightPNO RIJCOSX def2/J
|  2>
|  3> *xyzfile 0 1 D7.xyz
|  4>
|  5> %MaxCore 64000
|  6>
|  7> %pal nprocs 18
|  8> end
|  9>
| 10> %scf
| 11>   MaxIter 150
| 12> end
| 13>
| 14>
| 15>                          ****END OF INPUT****

CARTESIAN COORDINATES (ANGSTROEM)
---------------------------------
  C      3.380928    2.083045   -3.350127
  C      4.535924    1.182447   -3.428518
  C      2.495557    1.816150   -2.136364
  C      1.872181    0.427903   -2.077497
  H      2.614270   -0.365825   -2.198894
  H      1.389953    0.273087   -1.112360
  S      0.579024    0.140472   -3.297943
  C      4.671956    0.122273   -4.220598
  N      5.866023   -0.507849   -4.224284
  N      3.698881   -0.312844   -4.986988
  H      2.731405   -0.050091   -4.849000
  H      3.890046   -1.055172   -5.643730
  H      5.251933    1.303459   -2.721014
  H      6.695165   -0.062322   -3.851596
  H      5.975383   -1.396884   -4.691414
  O      0.228860   -1.246868   -3.127871
  O     -0.439269    1.118966   -3.014550
  F      1.247881    0.403474   -4.595647
  H      1.697003    2.561969   -2.141109
  H      3.080787    1.987436   -1.225838
  H      2.806463    1.986511   -4.268484
  H      3.778714    3.098282   -3.307383

 Total Charge           Charge          ....    0
 Multiplicity           Mult            ....    1
 Number of Electrons    NEL             ....   96
 Basis Dimension        Dim             ....  763

ORBITAL ENERGIES
----------------

  NO   OCC          E(Eh)            E(eV)
   0   2.0000     -92.251016     -2510.2778
   1   2.0000     -26.428680      -719.1609
   2   2.0000     -20.573302      -559.8280
   3   2.0000     -20.571946      -559.7911
   4   2.0000     -15.568462      -423.6394
   5   2.0000     -15.567955      -423.6256
   6   2.0000     -11.298817      -307.4564
   7   2.0000     -11.281201      -306.9771
   8   2.0000     -11.237983      -305.8011
   9   2.0000     -11.217496      -305.2436
  10   2.0000     -11.153540      -303.5032
  11   2.0000      -9.214893      -250.7500
  12   2.0000      -6.902800      -187.8347
  13   2.0000      -6.898185      -187.7092
  14   2.0000      -6.897501      -187.6905
  15   2.0000      -1.789498       -48.6947
  16   2.0000      -1.470579       -40.0165
  17   2.0000      -1.368041       -37.2263
  18   2.0000      -1.290429       -35.1144
  19   2.0000      -1.175379       -31.9837
  20   2.0000      -1.110188       -30.2098
  21   2.0000      -1.035682       -28.1823
  22   2.0000      -0.984231       -26.7823
  23   2.0000      -0.931266       -25.3410
  24   2.0000      -0.875677       -23.8284
  25   2.0000      -0.833192       -22.6723
  26   2.0000      -0.817102       -22.2345
  27   2.0000      -0.784792       -21.3553
  28   2.0000      -0.759308       -20.6618
  29   2.0000      -0.734602       -19.9895
  30   2.0000      -0.699995       -19.0478
  31   2.0000      -0.676447       -18.4071
  32   2.0000      -0.658027       -17.9058
  33   2.0000      -0.650465       -17.7001
  34   2.0000      -0.637114       -17.3367
  35   2.0000      -0.627617       -17.0783
  36   2.0000      -0.577505       -15.7147
  37   2.0000      -0.575056       -15.6481
  38   2.0000      -0.568717       -15.4756
  39   2.0000      -0.550738       -14.9863
  40   2.0000      -0.519144       -14.1266
  41   2.0000      -0.507594       -13.8123
  42   2.0000      -0.500613       -13.6224
  43   2.0000      -0.492675       -13.4064
  44   2.0000      -0.484714       -13.1897
  45   2.0000      -0.468799       -12.7567
  46   2.0000      -0.422788       -11.5047
  47   2.0000      -0.273712        -7.4481
  48   0.0000       0.020796         0.5659
  49   0.0000       0.031012         0.8439
  50   0.0000       0.036246         0.9863
  51   0.0000       0.037633         1.0241
  52   0.0000       0.049085         1.3357

MULLIKEN ATOMIC CHARGES
-----------------------
   0 C :   -0.139011
   1 C :   -0.178287
   2 C :   -0.518905
   3 C :   -0.465371
   4 H :    0.218901
   5 H :    0.351167
   6 S :    2.264103
   7 C :    0.613755
   8 N :   -0.691476
   9 N :   -0.513356
  10 H :    0.424592
  11 H :    0.101234
  12 H :   -0.073381
  13 H :    0.090918
  14 H :    0.089871
  15 O :   -0.949538
  16 O :   -0.960723
  17 F :   -0.560100
  18 H :    0.279749
  19 H :    0.215443
  20 H :   -0.029020
  21 H :    0.429437
Sum of atomic charges:    0.0000000

LOEWDIN ATOMIC CHARGES
----------------------
   0 C :    0.226440
   1 C :    0.197923
   2 C :    0.252460
   3 C :    0.201204
   4 H :   -0.190046
   5 H :   -0.172664
   6 S :   -0.039318
   7 C :   -0.421486
   8 N :    0.857738
   9 N :    0.871930
  10 H :   -0.589393
  11 H :   -0.260462
  12 H :   -0.268298
  13 H :   -0.272109
  14 H :   -0.288442
  15 O :    0.046235
  16 O :    0.053097
  17 F :    0.439311
  18 H :   -0.164406
  19 H :   -0.133626
  20 H :   -0.205485
  21 H :   -0.140600

  Mayer bond orders larger than 0.100000
B(  0-C ,  1-C ) :   0.5596 B(  0-C ,  2-C ) :   0.7970 B(  0-C ,  7-C ) :   0.1695
B(  0-C , 20-H ) :   1.1249 B(  0-C , 21-H ) :   0.9233 B(  1-C ,  7-C ) :   1.1292
B(  1-C ,  8-N ) :  -0.2789 B(  1-C ,  9-N ) :  -0.1570 B(  1-C , 12-H ) :   1.3716
B(  1-C , 20-H ) :   0.1057 B(  1-C , 21-H ) :  -0.2067 B(  2-C ,  3-C ) :   0.8706
B(  2-C ,  6-S ) :   0.1091 B(  2-C , 18-H ) :   0.9566 B(  2-C , 19-H ) :   1.0100
B(  3-C ,  4-H ) :   0.9728 B(  3-C ,  5-H ) :   0.8719 B(  3-C ,  6-S ) :   0.7778
B(  6-S , 15-O ) :   1.4497 B(  6-S , 16-O ) :   1.4392 B(  6-S , 17-F ) :   0.7076
B(  7-C ,  8-N ) :   0.8379 B(  7-C ,  9-N ) :   0.7815 B(  7-C , 10-H ) :  -0.1046
B(  7-C , 14-H ) :  -0.1478 B(  7-C , 20-H ) :   0.1198 B(  8-N ,  9-N ) :  -0.1646
B(  8-N , 13-H ) :   1.1430 B(  8-N , 14-H ) :   1.1423 B(  9-N , 10-H ) :   0.8330
B(  9-N , 11-H ) :   1.1345 B( 10-H , 17-F ) :  -0.1714 B( 12-H , 20-H ) :   0.1067

E(0)                                       ...   -951.465329114
E(0)                                       ...   -951.465329114
E(CORR)(strong-pairs)                      ...     -2.261229586
E(CORR)(weak-pairs)                        ...     -0.003193655
E(CORR)(corrected)                         ...     -2.264423241
E(TOT)                                     ...   -953.729752355
E(CCSD(T))                                 ...   -953.825672253
FINAL SINGLE POINT ENERGY      -953.825672253415

DIPOLE MOMENT
-------------
                                X             Y             Z
Electronic contribution:    -13.05426      -3.82931      -3.66512
Nuclear contribution   :     14.80811       3.53278       3.42836
                        -----------------------------------------
Total Dipole Moment    :      1.75385      -0.29653      -0.23676
                        -----------------------------------------
Magnitude (a.u.)       :      1.79443
Magnitude (Debye)      :      4.56107

Rotational constants in cm-1:     0.059173     0.020923     0.018056
Rotational constants in MHz :  1773.956621   627.264018   541.303397

                             ****ORCA TERMINATED NORMALLY****
TOTAL RUN TIME: 0 days 1 hours 28 minutes 34 seconds 414 msec
