                         Program Version 5.0.0 -  RELEASE  -
|  1> !DLPNO-CCSD(T) aug-cc-pVTZ aug-cc-pVTZ/C TightSCF TightPNO RIJCOSX def2/J
|  2>
|  3> *xyzfile 0 1 D9.xyz
|  4>
|  5> %MaxCore 64000
|  6>
|  7> %pal nprocs 18
|  8> end
|  9>
| 10> %scf
| 11>   MaxIter 150
| 12> end
| 13>
| 14>
| 15>                          ****END OF INPUT****

CARTESIAN COORDINATES (ANGSTROEM)
---------------------------------
  C      3.380928    2.083045   -3.350127
  N      4.535924    1.182447   -3.428518
  C      2.495557    1.816150   -2.136364
  C      1.872181    0.427903   -2.077497
  H      2.614270   -0.365825   -2.198894
  H      1.389953    0.273087   -1.112360
  S      0.579024    0.140472   -3.297943
  C      4.671956    0.122273   -4.220598
  N      5.866023   -0.507849   -4.224284
  C      3.698881   -0.312844   -4.986988
  H      2.731405   -0.050091   -4.849000
  H      3.890046   -1.055172   -5.643730
  H      5.251933    1.303459   -2.721014
  H      6.695165   -0.062322   -3.851596
  H      5.975383   -1.396884   -4.691414
  O      0.228860   -1.246868   -3.127871
  O     -0.439269    1.118966   -3.014550
  F      1.247881    0.403474   -4.595647
  H      1.697003    2.561969   -2.141109
  H      3.080787    1.987436   -1.225838
  H      2.806463    1.986511   -4.268484
  H      3.778714    3.098282   -3.307383

 Total Charge           Charge          ....    0
 Multiplicity           Mult            ....    1
 Number of Electrons    NEL             ....   96
 Basis Dimension        Dim             ....  763

ORBITAL ENERGIES
----------------

  NO   OCC          E(Eh)            E(eV)
   0   2.0000     -92.246715     -2510.1607
   1   2.0000     -26.408258      -718.6052
   2   2.0000     -20.568172      -559.6884
   3   2.0000     -20.566505      -559.6431
   4   2.0000     -15.575959      -423.8434
   5   2.0000     -15.567935      -423.6250
   6   2.0000     -11.297044      -307.4082
   7   2.0000     -11.286731      -307.1276
   8   2.0000     -11.282722      -307.0185
   9   2.0000     -11.258484      -306.3589
  10   2.0000     -11.132393      -302.9278
  11   2.0000      -9.210046      -250.6181
  12   2.0000      -6.897816      -187.6991
  13   2.0000      -6.893701      -187.5871
  14   2.0000      -6.892800      -187.5626
  15   2.0000      -1.770388       -48.1747
  16   2.0000      -1.464857       -39.8608
  17   2.0000      -1.362980       -37.0886
  18   2.0000      -1.294914       -35.2364
  19   2.0000      -1.190865       -32.4051
  20   2.0000      -1.104469       -30.0541
  21   2.0000      -1.009817       -27.4785
  22   2.0000      -0.992574       -27.0093
  23   2.0000      -0.938953       -25.5502
  24   2.0000      -0.879776       -23.9399
  25   2.0000      -0.817066       -22.2335
  26   2.0000      -0.811565       -22.0838
  27   2.0000      -0.777174       -21.1480
  28   2.0000      -0.757272       -20.6064
  29   2.0000      -0.736252       -20.0344
  30   2.0000      -0.700444       -19.0601
  31   2.0000      -0.679058       -18.4781
  32   2.0000      -0.659668       -17.9505
  33   2.0000      -0.648986       -17.6598
  34   2.0000      -0.633148       -17.2288
  35   2.0000      -0.617830       -16.8120
  36   2.0000      -0.584138       -15.8952
  37   2.0000      -0.578628       -15.7453
  38   2.0000      -0.565762       -15.3952
  39   2.0000      -0.537815       -14.6347
  40   2.0000      -0.535824       -14.5805
  41   2.0000      -0.530651       -14.4397
  42   2.0000      -0.512186       -13.9373
  43   2.0000      -0.504806       -13.7365
  44   2.0000      -0.488859       -13.3025
  45   2.0000      -0.473639       -12.8884
  46   2.0000      -0.404970       -11.0198
  47   2.0000      -0.283115        -7.7040
  48   0.0000       0.016931         0.4607
  49   0.0000       0.028946         0.7877
  50   0.0000       0.032461         0.8833
  51   0.0000       0.039000         1.0612
  52   0.0000       0.050121         1.3639

MULLIKEN ATOMIC CHARGES
-----------------------
   0 C :   -0.437318
   1 N :   -0.161661
   2 C :   -0.530385
   3 C :   -0.461347
   4 H :    0.242193
   5 H :    0.325226
   6 S :    2.313476
   7 C :    0.580877
   8 N :   -0.653129
   9 C :   -1.207961
  10 H :    0.863077
  11 H :    0.200294
  12 H :    0.050451
  13 H :    0.077621
  14 H :    0.059637
  15 O :   -0.955435
  16 O :   -0.972268
  17 F :   -0.562846
  18 H :    0.323272
  19 H :    0.223874
  20 H :    0.291319
  21 H :    0.391032
Sum of atomic charges:   -0.0000000

LOEWDIN ATOMIC CHARGES
----------------------
   0 C :    0.222503
   1 N :    0.569490
   2 C :    0.264772
   3 C :    0.202825
   4 H :   -0.188681
   5 H :   -0.173598
   6 S :   -0.038144
   7 C :   -0.444121
   8 N :    0.859818
   9 C :    0.535983
  10 H :   -0.605425
  11 H :   -0.286569
  12 H :   -0.263794
  13 H :   -0.284066
  14 H :   -0.276053
  15 O :    0.048986
  16 O :    0.048296
  17 F :    0.433078
  18 H :   -0.160605
  19 H :   -0.137744
  20 H :   -0.195519
  21 H :   -0.131431

  Mayer bond orders larger than 0.100000
B(  0-C ,  1-N ) :   0.9985 B(  0-C ,  2-C ) :   0.8007 B(  0-C ,  7-C ) :  -0.1224
B(  0-C , 20-H ) :   1.0598 B(  0-C , 21-H ) :   0.8602 B(  1-N ,  7-C ) :   0.8841
B(  1-N ,  8-N ) :  -0.1708 B(  1-N ,  9-C ) :  -0.1880 B(  1-N , 12-H ) :   1.1468
B(  2-C ,  3-C ) :   0.8906 B(  2-C ,  6-S ) :   0.1285 B(  2-C , 17-F ) :   0.1069
B(  2-C , 18-H ) :   0.9009 B(  2-C , 19-H ) :   0.9914 B(  3-C ,  4-H ) :   0.9828
B(  3-C ,  5-H ) :   0.8820 B(  3-C ,  6-S ) :   0.7625 B(  6-S , 15-O ) :   1.4181
B(  6-S , 16-O ) :   1.4255 B(  6-S , 17-F ) :   0.7324 B(  7-C ,  8-N ) :   0.7150
B(  7-C ,  9-C ) :   1.2010 B(  7-C , 10-H ) :  -0.1709 B(  7-C , 12-H ) :  -0.1332
B(  7-C , 13-H ) :  -0.1027 B(  8-N ,  9-C ) :  -0.2558 B(  8-N , 13-H ) :   1.1811
B(  8-N , 14-H ) :   1.1694 B(  9-C , 10-H ) :   0.3549 B(  9-C , 11-H ) :   1.2129
B( 10-H , 17-F ) :  -0.1714 B( 17-F , 20-H ) :  -0.1077

E(0)                                       ...   -951.448633561
E(0)                                       ...   -951.448633561
E(CORR)(strong-pairs)                      ...     -2.259358946
E(CORR)(weak-pairs)                        ...     -0.003222001
E(CORR)(corrected)                         ...     -2.262580947
E(TOT)                                     ...   -953.711214508
E(CCSD(T))                                 ...   -953.806966384
FINAL SINGLE POINT ENERGY      -953.806966384111

DIPOLE MOMENT
-------------
                                X             Y             Z
Electronic contribution:    -12.47335      -2.56023      -2.38420
Nuclear contribution   :     14.72648       3.38697       3.27638
                        -----------------------------------------
Total Dipole Moment    :      2.25313       0.82673       0.89217
                        -----------------------------------------
Magnitude (a.u.)       :      2.56048
Magnitude (Debye)      :      6.50822

Rotational constants in cm-1:     0.059651     0.020833     0.018010
Rotational constants in MHz :  1788.283887   624.555661   539.921162

                             ****ORCA TERMINATED NORMALLY****
TOTAL RUN TIME: 0 days 1 hours 25 minutes 2 seconds 595 msec
