                         Program Version 5.0.0 -  RELEASE  -
|  1> !TPSS D3BJ RIJCOSX def2-TZVPD def2/J TightSCF
|  2> *xyz -1 1
|  3> C         -7.33044       -2.67899       -3.20681
|  4> S         -6.01966       -2.92697       -4.41913
|  5> O         -5.64583       -1.58838       -4.91931
|  6> O         -4.88196       -3.50370       -3.66724
|  7> O         -6.54927       -3.80515       -5.42507
|  8> C         -7.46900       -1.24615       -2.71383
|  9> H         -7.11825       -3.37982       -2.39805
| 10> H         -8.24184       -3.00474       -3.70651
| 11> H         -7.67580       -0.60214       -3.54292
| 12> H         -6.55749       -0.94096       -2.24382
| 13> H         -8.27114       -1.18777       -2.00810
| 14> *
| 15> %MaxCore 64000
| 16>
| 17> %pal nprocs 4
| 18> end
| 19>
| 20> %scf
| 21>   MaxIter 150
| 22> end
| 23>
| 24>
| 25>                          ****END OF INPUT****

CARTESIAN COORDINATES (ANGSTROEM)
---------------------------------
  C     -7.330440   -2.678990   -3.206810
  S     -6.019660   -2.926970   -4.419130
  O     -5.645830   -1.588380   -4.919310
  O     -4.881960   -3.503700   -3.667240
  O     -6.549270   -3.805150   -5.425070
  C     -7.469000   -1.246150   -2.713830
  H     -7.118250   -3.379820   -2.398050
  H     -8.241840   -3.004740   -3.706510
  H     -7.675800   -0.602140   -3.542920
  H     -6.557490   -0.940960   -2.243820
  H     -8.271140   -1.187770   -2.008100

 Total Charge           Charge          ....   -1
 Multiplicity           Mult            ....    1
 Number of Electrons    NEL             ....   58
 Basis Dimension        Dim             ....  285

ORBITAL ENERGIES
----------------

  NO   OCC          E(Eh)            E(eV)
   0   2.0000     -88.325742     -2403.4656
   1   2.0000     -18.664535      -507.8878
   2   2.0000     -18.654473      -507.6140
   3   2.0000     -18.651089      -507.5219
   4   2.0000      -9.845467      -267.9088
   5   2.0000      -9.840370      -267.7701
   6   2.0000      -7.674629      -208.8373
   7   2.0000      -5.654049      -153.8545
   8   2.0000      -5.653349      -153.8354
   9   2.0000      -5.653157      -153.8302
  10   2.0000      -0.842938       -22.9375
  11   2.0000      -0.719548       -19.5799
  12   2.0000      -0.698391       -19.0042
  13   2.0000      -0.576543       -15.6885
  14   2.0000      -0.455779       -12.4024
  15   2.0000      -0.331909        -9.0317
  16   2.0000      -0.277473        -7.5504
  17   2.0000      -0.265212        -7.2168
  18   2.0000      -0.227994        -6.2040
  19   2.0000      -0.209833        -5.7098
  20   2.0000      -0.207582        -5.6486
  21   2.0000      -0.186095        -5.0639
  22   2.0000      -0.180469        -4.9108
  23   2.0000      -0.102455        -2.7880
  24   2.0000      -0.100303        -2.7294
  25   2.0000      -0.071627        -1.9491
  26   2.0000      -0.064474        -1.7544
  27   2.0000      -0.054417        -1.4808
  28   2.0000      -0.018310        -0.4982
  29   0.0000       0.113675         3.0932
  30   0.0000       0.137150         3.7321
  31   0.0000       0.143521         3.9054
  32   0.0000       0.152558         4.1513
  33   0.0000       0.169370         4.6088

MULLIKEN ATOMIC CHARGES
-----------------------
   0 C :   -0.391264
   1 S :    1.331630
   2 O :   -0.779105
   3 O :   -0.778519
   4 O :   -0.741321
   5 C :   -0.819768
   6 H :    0.229803
   7 H :    0.213361
   8 H :    0.270291
   9 H :    0.250064
  10 H :    0.214828
Sum of atomic charges:   -1.0000000

LOEWDIN ATOMIC CHARGES
----------------------
   0 C :   -0.318709
   1 S :    0.343991
   2 O :   -0.397269
   3 O :   -0.410928
   4 O :   -0.376818
   5 C :   -0.148818
   6 H :    0.075771
   7 H :    0.071472
   8 H :    0.055058
   9 H :    0.061250
  10 H :    0.045000

  Mayer bond orders larger than 0.100000
B(  0-C ,  1-S ) :   0.8662 B(  0-C ,  2-O ) :   0.1230 B(  0-C ,  3-O ) :   0.1474
B(  0-C ,  4-O ) :   0.1614 B(  0-C ,  5-C ) :   0.8631 B(  0-C ,  6-H ) :   0.9429
B(  0-C ,  7-H ) :   0.9600 B(  1-S ,  2-O ) :   1.3763 B(  1-S ,  3-O ) :   1.4005
B(  1-S ,  4-O ) :   1.4179 B(  5-C ,  8-H ) :   0.9428 B(  5-C ,  9-H ) :   0.9530
B(  5-C , 10-H ) :   0.9546

Dispersion correction           -0.012074418
FINAL SINGLE POINT ENERGY      -703.375907848501

DIPOLE MOMENT
-------------
                                X             Y             Z
Electronic contribution:      4.75679      -3.52949      -5.16288
Nuclear contribution   :     -6.18165       4.01759       6.33106
                        -----------------------------------------
Total Dipole Moment    :     -1.42486       0.48810       1.16819
                        -----------------------------------------
Magnitude (a.u.)       :      1.90607
Magnitude (Debye)      :      4.84486

Rotational constants in cm-1:     0.161711     0.082788     0.081165
Rotational constants in MHz :  4847.971521  2481.906910  2433.276832

                             ****ORCA TERMINATED NORMALLY****
TOTAL RUN TIME: 0 days 0 hours 0 minutes 26 seconds 723 msec
