                         Program Version 5.0.0 -  RELEASE  -
|  1> !TPSS D3BJ RIJCOSX def2-TZVPD def2/J TightSCF
|  2> *xyz 1 1
|  3> C         -2.16038       -1.36949       -3.46710
|  4> N         -3.03011       -1.91086       -4.54107
|  5> C         -2.04772        0.14658       -3.51177
|  6> H         -3.47744       -2.79151       -4.25710
|  7> H         -2.53801       -2.01786       -5.43808
|  8> H         -3.89159       -1.37604       -4.71437
|  9> H         -1.18444       -1.84400       -3.56639
| 10> H         -2.59819       -1.70838       -2.52848
| 11> H         -1.61525        0.44478       -4.44395
| 12> H         -1.42718        0.48198       -2.70720
| 13> H         -3.02145        0.57958       -3.41560
| 14> *
| 15> %MaxCore 64000
| 16>
| 17> %pal nprocs 4
| 18> end
| 19>
| 20> %scf
| 21>   MaxIter 150
| 22> end
| 23>
| 24>
| 25>                          ****END OF INPUT****

CARTESIAN COORDINATES (ANGSTROEM)
---------------------------------
  C     -2.160380   -1.369490   -3.467100
  N     -3.030110   -1.910860   -4.541070
  C     -2.047720    0.146580   -3.511770
  H     -3.477440   -2.791510   -4.257100
  H     -2.538010   -2.017860   -5.438080
  H     -3.891590   -1.376040   -4.714370
  H     -1.184440   -1.844000   -3.566390
  H     -2.598190   -1.708380   -2.528480
  H     -1.615250    0.444780   -4.443950
  H     -1.427180    0.481980   -2.707200
  H     -3.021450    0.579580   -3.415600

 Total Charge           Charge          ....    1
 Multiplicity           Mult            ....    1
 Number of Electrons    NEL             ....   26
 Basis Dimension        Dim             ....  183

ORBITAL ENERGIES
----------------

  NO   OCC          E(Eh)            E(eV)
   0   2.0000     -14.435354      -392.8059
   1   2.0000     -10.239418      -278.6287
   2   2.0000     -10.160404      -276.4787
   3   2.0000      -1.156687       -31.4750
   4   2.0000      -0.913835       -24.8667
   5   2.0000      -0.798682       -21.7332
   6   2.0000      -0.764289       -20.7974
   7   2.0000      -0.725177       -19.7331
   8   2.0000      -0.659390       -17.9429
   9   2.0000      -0.604091       -16.4381
  10   2.0000      -0.544993       -14.8300
  11   2.0000      -0.531337       -14.4584
  12   2.0000      -0.516042       -14.0422
  13   0.0000      -0.214694        -5.8421
  14   0.0000      -0.157044        -4.2734
  15   0.0000      -0.155839        -4.2406
  16   0.0000      -0.142990        -3.8910
  17   0.0000      -0.113940        -3.1005

MULLIKEN ATOMIC CHARGES
-----------------------
   0 C :   -0.161299
   1 N :   -0.264348
   2 C :   -0.821895
   3 H :    0.325582
   4 H :    0.330366
   5 H :    0.324310
   6 H :    0.220308
   7 H :    0.223399
   8 H :    0.291132
   9 H :    0.224863
  10 H :    0.307582
Sum of atomic charges:    1.0000000

LOEWDIN ATOMIC CHARGES
----------------------
   0 C :   -0.191545
   1 N :    0.179705
   2 C :   -0.045560
   3 H :    0.178202
   4 H :    0.183652
   5 H :    0.177616
   6 H :    0.134693
   7 H :    0.132066
   8 H :    0.080737
   9 H :    0.090507
  10 H :    0.079927

  Mayer bond orders larger than 0.100000
B(  0-C ,  1-N ) :   0.9730 B(  0-C ,  2-C ) :   0.9514 B(  0-C ,  6-H ) :   0.9321
B(  0-C ,  7-H ) :   0.9045 B(  1-N ,  3-H ) :   0.8723 B(  1-N ,  4-H ) :   0.8677
B(  1-N ,  5-H ) :   0.8745 B(  2-C ,  8-H ) :   0.9364 B(  2-C ,  9-H ) :   0.9818
B(  2-C , 10-H ) :   0.9049

Dispersion correction           -0.007409671
FINAL SINGLE POINT ENERGY      -135.611306462880

DIPOLE MOMENT
-------------
                                X             Y             Z
Electronic contribution:     -0.62784      -1.46359      -0.75643
Nuclear contribution   :     -0.15215       0.37393      -0.04773
                        -----------------------------------------
Total Dipole Moment    :     -0.77999      -1.08966      -0.80416
                        -----------------------------------------
Magnitude (a.u.)       :      1.56282
Magnitude (Debye)      :      3.97237

Rotational constants in cm-1:     1.020762     0.277172     0.247319
Rotational constants in MHz : 30601.664035  8309.399682  7414.438136

                             ****ORCA TERMINATED NORMALLY****
TOTAL RUN TIME: 0 days 0 hours 0 minutes 12 seconds 537 msec
