                         Program Version 5.0.0 -  RELEASE  -
|  1> !TPSS D3BJ RIJCOSX def2-TZVPD def2/J TightSCF xyzfile
|  2>
|  3> *xyzfile 0 1 B.xyz
|  4>
|  5> %MaxCore 64000
|  6>
|  7> %pal nprocs 4
|  8> end
|  9>
| 10> %scf
| 11>   MaxIter 150
| 12> end
| 13>
| 14>
| 15>                          ****END OF INPUT****

CARTESIAN COORDINATES (ANGSTROEM)
---------------------------------
  C     -2.160376   -1.369486   -3.467104
  N     -3.030108   -1.910857   -4.541074
  C     -2.047717    0.146583   -3.511774
  C     -7.330440   -2.678991   -3.206811
  S     -6.019659   -2.926965   -4.419128
  H     -3.477443   -2.791513   -4.257096
  H     -2.538013   -2.017860   -5.438075
  H     -3.891589   -1.376039   -4.714365
  O     -5.645830   -1.588384   -4.919307
  O     -4.881961   -3.503697   -3.667235
  H     -1.184438   -1.843997   -3.566393
  H     -2.598195   -1.708376   -2.528477
  O     -6.549267   -3.805150   -5.425071
  C     -3.328755    0.875037   -3.103669
  H     -1.740034    0.452343   -4.517126
  H     -1.232611    0.434938   -2.842208
  C     -3.628487    0.771601   -1.609363
  H     -4.175106    0.490791   -3.682203
  H     -3.237812    1.928663   -3.381480
  C     -4.975718    1.361432   -1.190644
  H     -2.830700    1.276234   -1.054766
  H     -3.594312   -0.275838   -1.294603
  C     -6.184720    0.784347   -1.926464
  H     -4.956292    2.445725   -1.342200
  H     -5.097256    1.205252   -0.114136
  C     -6.286921   -0.735882   -1.893531
  H     -6.163994    1.100199   -2.974250
  H     -7.094530    1.223459   -1.504509
  C     -7.468999   -1.246153   -2.713833
  H     -6.360641   -1.090347   -0.859176
  H     -5.369848   -1.171853   -2.295982
  H     -7.601914   -0.601349   -3.585329
  H     -8.389791   -1.173436   -2.126922
  H     -7.118254   -3.379818   -2.398055
  H     -8.241838   -3.004745   -3.706513

 Total Charge           Charge          ....    0
 Multiplicity           Mult            ....    1
 Number of Electrons    NEL             ....  122
 Basis Dimension        Dim             ....  725

ORBITAL ENERGIES
----------------

  NO   OCC          E(Eh)            E(eV)
   0   2.0000     -88.494148     -2408.0482
   1   2.0000     -18.835342      -512.5357
   2   2.0000     -18.834978      -512.5258
   3   2.0000     -18.820972      -512.1447
   4   2.0000     -14.202663      -386.4741
   5   2.0000     -10.067925      -273.9622
   6   2.0000     -10.021686      -272.7039
   7   2.0000     -10.001910      -272.1658
   8   2.0000      -9.993659      -271.9413
   9   2.0000      -9.985740      -271.7258
  10   2.0000      -9.984500      -271.6921
  11   2.0000      -9.978027      -271.5159
  12   2.0000      -9.976616      -271.4775
  13   2.0000      -9.974007      -271.4065
  14   2.0000      -7.843961      -213.4450
  15   2.0000      -5.823819      -158.4742
  16   2.0000      -5.822597      -158.4409
  17   2.0000      -5.821875      -158.4213
  18   2.0000      -1.018402       -27.7121
  19   2.0000      -0.943264       -25.6675
  20   2.0000      -0.887809       -24.1585
  21   2.0000      -0.885806       -24.1040
  22   2.0000      -0.779009       -21.1979
  23   2.0000      -0.750235       -20.4149
  24   2.0000      -0.725142       -19.7321
  25   2.0000      -0.684558       -18.6278
  26   2.0000      -0.653070       -17.7709
  27   2.0000      -0.611737       -16.6462
  28   2.0000      -0.576338       -15.6830
  29   2.0000      -0.560603       -15.2548
  30   2.0000      -0.547658       -14.9025
  31   2.0000      -0.523702       -14.2507
  32   2.0000      -0.515840       -14.0367
  33   2.0000      -0.488648       -13.2968
  34   2.0000      -0.472065       -12.8456
  35   2.0000      -0.446963       -12.1625
  36   2.0000      -0.444729       -12.1017
  37   2.0000      -0.428735       -11.6665
  38   2.0000      -0.415144       -11.2966
  39   2.0000      -0.402048       -10.9403
  40   2.0000      -0.398464       -10.8428
  41   2.0000      -0.389704       -10.6044
  42   2.0000      -0.389431       -10.5970
  43   2.0000      -0.374740       -10.1972
  44   2.0000      -0.364848        -9.9280
  45   2.0000      -0.361127        -9.8268
  46   2.0000      -0.348866        -9.4931
  47   2.0000      -0.339190        -9.2298
  48   2.0000      -0.332555        -9.0493
  49   2.0000      -0.318431        -8.6649
  50   2.0000      -0.310873        -8.4593
  51   2.0000      -0.301240        -8.1972
  52   2.0000      -0.287801        -7.8315
  53   2.0000      -0.285745        -7.7755
  54   2.0000      -0.281204        -7.6519
  55   2.0000      -0.274117        -7.4591
  56   2.0000      -0.271637        -7.3916
  57   2.0000      -0.239273        -6.5110
  58   2.0000      -0.235638        -6.4120
  59   2.0000      -0.225810        -6.1446
  60   2.0000      -0.198437        -5.3998
  61   0.0000      -0.036994        -1.0067
  62   0.0000      -0.009691        -0.2637
  63   0.0000      -0.004081        -0.1111
  64   0.0000       0.002515         0.0684
  65   0.0000       0.013558         0.3689

MULLIKEN ATOMIC CHARGES
-----------------------
   0 C :   -0.367467
   1 N :   -0.128721
   2 C :   -0.168593
   3 C :   -0.658381
   4 S :    1.495713
   5 H :    0.391449
   6 H :    0.287939
   7 H :    0.319234
   8 O :   -0.924638
   9 O :   -0.927248
  10 H :    0.148400
  11 H :    0.293114
  12 O :   -0.756023
  13 C :   -0.278607
  14 H :    0.134531
  15 H :    0.150948
  16 C :   -0.406047
  17 H :    0.274430
  18 H :    0.058119
  19 C :   -0.428313
  20 H :    0.122389
  21 H :    0.312392
  22 C :   -0.529303
  23 H :    0.121522
  24 H :    0.169322
  25 C :   -0.147427
  26 H :    0.346826
  27 H :    0.090620
  28 C :   -0.389495
  29 H :    0.163810
  30 H :    0.293067
  31 H :    0.307060
  32 H :    0.204481
  33 H :    0.253080
  34 H :    0.171819
Sum of atomic charges:   -0.0000000

LOEWDIN ATOMIC CHARGES
----------------------
   0 C :   -0.153623
   1 N :    0.149921
   2 C :   -0.179852
   3 C :   -0.230516
   4 S :    0.442188
   5 H :    0.074798
   6 H :    0.171861
   7 H :    0.081609
   8 O :   -0.363421
   9 O :   -0.369244
  10 H :    0.122796
  11 H :    0.120427
  12 O :   -0.305334
  13 C :   -0.195658
  14 H :    0.111809
  15 H :    0.114775
  16 C :   -0.209569
  17 H :    0.095014
  18 H :    0.118373
  19 C :   -0.201001
  20 H :    0.111604
  21 H :    0.097676
  22 C :   -0.209067
  23 H :    0.106557
  24 H :    0.107411
  25 C :   -0.210960
  26 H :    0.107442
  27 H :    0.112669
  28 C :   -0.230699
  29 H :    0.121835
  30 H :    0.081590
  31 H :    0.105697
  32 H :    0.112157
  33 H :    0.098047
  34 H :    0.092688

  Mayer bond orders larger than 0.100000
B(  0-C ,  1-N ) :   0.9691 B(  0-C ,  2-C ) :   1.0764 B(  0-C , 10-H ) :   0.8581
B(  0-C , 11-H ) :   0.8386 B(  0-C , 16-C ) :   0.1518 B(  1-N ,  5-H ) :   0.7740
B(  1-N ,  6-H ) :   0.8489 B(  1-N ,  7-H ) :   0.9123 B(  2-C , 13-C ) :   1.0686
B(  2-C , 14-H ) :   0.8823 B(  2-C , 15-H ) :   0.8811 B(  2-C , 16-C ) :   0.1341
B(  3-C ,  4-S ) :   0.9296 B(  3-C ,  9-O ) :   0.1446 B(  3-C , 12-O ) :   0.2079
B(  3-C , 25-C ) :   0.2234 B(  3-C , 28-C ) :   0.9846 B(  3-C , 33-H ) :   0.8707
B(  3-C , 34-H ) :   0.9990 B(  4-S ,  8-O ) :   1.2946 B(  4-S ,  9-O ) :   1.2028
B(  4-S , 12-O ) :   1.1477 B(  8-O ,  9-O ) :   0.1336 B( 13-C , 16-C ) :   0.6033
B( 13-C , 17-H ) :   0.9821 B( 13-C , 18-H ) :   0.8803 B( 13-C , 19-C ) :   0.1543
B( 13-C , 21-H ) :  -0.1052 B( 13-C , 22-C ) :   0.1603 B( 16-C , 19-C ) :   1.2336
B( 16-C , 20-H ) :   0.9169 B( 16-C , 21-H ) :   0.8521 B( 16-C , 25-C ) :   0.1250
B( 19-C , 22-C ) :   1.0852 B( 19-C , 23-H ) :   0.9217 B( 19-C , 24-H ) :   0.8745
B( 19-C , 25-C ) :   0.1803 B( 22-C , 25-C ) :   0.6496 B( 22-C , 26-H ) :   0.8009
B( 22-C , 27-H ) :   0.9057 B( 22-C , 28-C ) :   0.5141 B( 25-C , 28-C ) :   0.7544
B( 25-C , 29-H ) :   0.6957 B( 25-C , 30-H ) :   1.3023 B( 28-C , 29-H ) :  -0.1078
B( 28-C , 31-H ) :   0.7510 B( 28-C , 32-H ) :   0.9206 B( 29-H , 30-H ) :   0.1565

Dispersion correction           -0.052216094
FINAL SINGLE POINT ENERGY     -1034.662512657087

DIPOLE MOMENT
-------------
                                X             Y             Z
Electronic contribution:     -5.98497     -15.24555     -11.46524
Nuclear contribution   :      8.59301      16.99497      12.41069
                        -----------------------------------------
Total Dipole Moment    :      2.60804       1.74943       0.94545
                        -----------------------------------------
Magnitude (a.u.)       :      3.27967
Magnitude (Debye)      :      8.33627

Rotational constants in cm-1:     0.025617     0.015295     0.010641
Rotational constants in MHz :   767.991150   458.522408   319.013093

                             ****ORCA TERMINATED NORMALLY****
TOTAL RUN TIME: 0 days 0 hours 2 minutes 28 seconds 231 msec
