                         Program Version 5.0.0 -  RELEASE  -
|  1> !TPSS D3BJ RIJCOSX def2-TZVPD def2/J TightSCF
|  2> *xyz 0 1
|  3> C         -7.33044       -2.67899       -3.20681
|  4> S         -6.01966       -2.92697       -4.41913
|  5> F         -5.64583       -1.58838       -4.91931
|  6> O         -4.88196       -3.50370       -3.66724
|  7> O         -6.54927       -3.80515       -5.42507
|  8> C         -7.46900       -1.24615       -2.71383
|  9> H         -7.11825       -3.37982       -2.39805
| 10> H         -8.24184       -3.00474       -3.70651
| 11> H         -7.67580       -0.60214       -3.54292
| 12> H         -6.55749       -0.94096       -2.24382
| 13> H         -8.27114       -1.18777       -2.00810
| 14> *
| 15> %MaxCore 64000
| 16>
| 17> %pal nprocs 4
| 18> end
| 19>
| 20> %scf
| 21>   MaxIter 150
| 22> end
| 23>
| 24>
| 25>                          ****END OF INPUT****

CARTESIAN COORDINATES (ANGSTROEM)
---------------------------------
  C     -7.330440   -2.678990   -3.206810
  S     -6.019660   -2.926970   -4.419130
  F     -5.645830   -1.588380   -4.919310
  O     -4.881960   -3.503700   -3.667240
  O     -6.549270   -3.805150   -5.425070
  C     -7.469000   -1.246150   -2.713830
  H     -7.118250   -3.379820   -2.398050
  H     -8.241840   -3.004740   -3.706510
  H     -7.675800   -0.602140   -3.542920
  H     -6.557490   -0.940960   -2.243820
  H     -8.271140   -1.187770   -2.008100

 Total Charge           Charge          ....    0
 Multiplicity           Mult            ....    1
 Number of Electrons    NEL             ....   58
 Basis Dimension        Dim             ....  285

ORBITAL ENERGIES
----------------

  NO   OCC          E(Eh)            E(eV)
   0   2.0000     -88.582425     -2410.4503
   1   2.0000     -24.509965      -666.9500
   2   2.0000     -18.898147      -514.2447
   3   2.0000     -18.884356      -513.8695
   4   2.0000     -10.046565      -273.3809
   5   2.0000     -10.011849      -272.4363
   6   2.0000      -7.932116      -215.8439
   7   2.0000      -5.915490      -160.9687
   8   2.0000      -5.908538      -160.7795
   9   2.0000      -5.908306      -160.7732
  10   2.0000      -1.272719       -34.6324
  11   2.0000      -1.033475       -28.1223
  12   2.0000      -0.939858       -25.5748
  13   2.0000      -0.770615       -20.9695
  14   2.0000      -0.666915       -18.1477
  15   2.0000      -0.622542       -16.9402
  16   2.0000      -0.530267       -14.4293
  17   2.0000      -0.506952       -13.7949
  18   2.0000      -0.491301       -13.3690
  19   2.0000      -0.456527       -12.4227
  20   2.0000      -0.426444       -11.6041
  21   2.0000      -0.405825       -11.0431
  22   2.0000      -0.397452       -10.8152
  23   2.0000      -0.376436       -10.2434
  24   2.0000      -0.361708        -9.8426
  25   2.0000      -0.341286        -9.2869
  26   2.0000      -0.294996        -8.0272
  27   2.0000      -0.281002        -7.6465
  28   2.0000      -0.267187        -7.2705
  29   0.0000      -0.032031        -0.8716
  30   0.0000       0.005528         0.1504
  31   0.0000       0.012061         0.3282
  32   0.0000       0.015614         0.4249
  33   0.0000       0.021822         0.5938

MULLIKEN ATOMIC CHARGES
-----------------------
   0 C :   -0.201109
   1 S :    1.189550
   2 F :   -0.172485
   3 O :   -0.612667
   4 O :   -0.583228
   5 C :   -0.879698
   6 H :    0.240926
   7 H :    0.232467
   8 H :    0.304521
   9 H :    0.287269
  10 H :    0.194455
Sum of atomic charges:    0.0000000

LOEWDIN ATOMIC CHARGES
----------------------
   0 C :   -0.265835
   1 S :    0.585423
   2 F :   -0.072771
   3 O :   -0.289687
   4 O :   -0.257751
   5 C :   -0.110897
   6 H :    0.103757
   7 H :    0.095242
   8 H :    0.067200
   9 H :    0.073230
  10 H :    0.072089

  Mayer bond orders larger than 0.100000
B(  0-C ,  1-S ) :   0.8330 B(  0-C ,  3-O ) :   0.1043 B(  0-C ,  4-O ) :   0.1240
B(  0-C ,  5-C ) :   0.9050 B(  0-C ,  6-H ) :   0.9241 B(  0-C ,  7-H ) :   0.9397
B(  1-S ,  2-F ) :   0.9871 B(  1-S ,  3-O ) :   1.6210 B(  1-S ,  4-O ) :   1.6519
B(  3-O ,  4-O ) :   0.1208 B(  5-C ,  8-H ) :   0.8980 B(  5-C ,  9-H ) :   0.9321
B(  5-C , 10-H ) :   0.9781

Dispersion correction           -0.011468084
FINAL SINGLE POINT ENERGY      -727.911267223224

DIPOLE MOMENT
-------------
                                X             Y             Z
Electronic contribution:      5.69625      -1.76654      -6.40960
Nuclear contribution   :     -6.81251       2.87933       7.15058
                        -----------------------------------------
Total Dipole Moment    :     -1.11626       1.11279       0.74097
                        -----------------------------------------
Magnitude (a.u.)       :      1.74165
Magnitude (Debye)      :      4.42693

Rotational constants in cm-1:     0.152543     0.082494     0.078987
Rotational constants in MHz :  4573.135887  2473.116216  2367.980829

                             ****ORCA TERMINATED NORMALLY****
TOTAL RUN TIME: 0 days 0 hours 0 minutes 24 seconds 469 msec
