                         Program Version 5.0.0 -  RELEASE  -
|  1> !TPSS D3BJ RIJCOSX def2-TZVPD def2/J TightSCF
|  2> *xyz 0 1
|  3> C         -2.16038       -1.36949       -3.46710
|  4> C         -3.03011       -1.91086       -4.54107
|  5> C         -2.04772        0.14658       -3.51177
|  6> H         -3.47744       -2.79151       -4.25710
|  7> H         -2.53801       -2.01786       -5.43808
|  8> H         -3.89159       -1.37604       -4.71437
|  9> H         -1.18444       -1.84400       -3.56639
| 10> H         -2.59819       -1.70838       -2.52848
| 11> H         -1.61525        0.44478       -4.44395
| 12> H         -1.42718        0.48198       -2.70720
| 13> H         -3.02145        0.57958       -3.41560
| 14> *
| 15> %MaxCore 64000
| 16>
| 17> %pal nprocs 4
| 18> end
| 19>
| 20> %scf
| 21>   MaxIter 150
| 22> end
| 23>
| 24>
| 25>                          ****END OF INPUT****

CARTESIAN COORDINATES (ANGSTROEM)
---------------------------------
  C     -2.160380   -1.369490   -3.467100
  C     -3.030110   -1.910860   -4.541070
  C     -2.047720    0.146580   -3.511770
  H     -3.477440   -2.791510   -4.257100
  H     -2.538010   -2.017860   -5.438080
  H     -3.891590   -1.376040   -4.714370
  H     -1.184440   -1.844000   -3.566390
  H     -2.598190   -1.708380   -2.528480
  H     -1.615250    0.444780   -4.443950
  H     -1.427180    0.481980   -2.707200
  H     -3.021450    0.579580   -3.415600

 Total Charge           Charge          ....    0
 Multiplicity           Mult            ....    1
 Number of Electrons    NEL             ....   26
 Basis Dimension        Dim             ....  183

ORBITAL ENERGIES
----------------

  NO   OCC          E(Eh)            E(eV)
   0   2.0000      -9.971278      -271.3323
   1   2.0000      -9.962972      -271.1063
   2   2.0000      -9.944167      -270.5945
   3   2.0000      -0.733390       -19.9566
   4   2.0000      -0.639940       -17.4137
   5   2.0000      -0.541664       -14.7394
   6   2.0000      -0.427561       -11.6345
   7   2.0000      -0.398025       -10.8308
   8   2.0000      -0.362210        -9.8562
   9   2.0000      -0.355628        -9.6771
  10   2.0000      -0.303212        -8.2508
  11   2.0000      -0.293336        -7.9821
  12   2.0000      -0.290587        -7.9073
  13   0.0000       0.004129         0.1124
  14   0.0000       0.029309         0.7975
  15   0.0000       0.032310         0.8792
  16   0.0000       0.049395         1.3441
  17   0.0000       0.073556         2.0016

MULLIKEN ATOMIC CHARGES
-----------------------
   0 C :    0.170743
   1 C :   -1.116785
   2 C :   -0.882156
   3 H :    0.264444
   4 H :    0.265967
   5 H :    0.299938
   6 H :    0.142277
   7 H :    0.140522
   8 H :    0.248519
   9 H :    0.209455
  10 H :    0.257076
Sum of atomic charges:   -0.0000000

LOEWDIN ATOMIC CHARGES
----------------------
   0 C :   -0.304789
   1 C :   -0.126321
   2 C :   -0.107665
   3 H :    0.048389
   4 H :    0.054623
   5 H :    0.050895
   6 H :    0.100806
   7 H :    0.099135
   8 H :    0.064224
   9 H :    0.057370
  10 H :    0.063330

  Mayer bond orders larger than 0.100000
B(  0-C ,  1-C ) :   0.8434 B(  0-C ,  2-C ) :   0.8078 B(  0-C ,  6-H ) :   0.9492
B(  0-C ,  7-H ) :   0.9546 B(  1-C ,  2-C ) :   0.1896 B(  1-C ,  3-H ) :   0.9641
B(  1-C ,  4-H ) :   0.9539 B(  1-C ,  5-H ) :   0.9514 B(  2-C ,  8-H ) :   0.9673
B(  2-C ,  9-H ) :   0.9944 B(  2-C , 10-H ) :   0.9593

Dispersion correction           -0.007434343
FINAL SINGLE POINT ENERGY      -119.194808295202

DIPOLE MOMENT
-------------
                                X             Y             Z
Electronic contribution:      0.32150      -0.12857       0.27548
Nuclear contribution   :     -0.34625       0.09603      -0.26933
                        -----------------------------------------
Total Dipole Moment    :     -0.02474      -0.03253       0.00615
                        -----------------------------------------
Magnitude (a.u.)       :      0.04133
Magnitude (Debye)      :      0.10506

Rotational constants in cm-1:     1.028617     0.291238     0.258956
Rotational constants in MHz : 30837.159054  8731.095379  7763.318586

                             ****ORCA TERMINATED NORMALLY****
TOTAL RUN TIME: 0 days 0 hours 0 minutes 12 seconds 855 msec
