                         Program Version 5.0.0 -  RELEASE  -
|  1> !TPSS D3BJ RIJCOSX def2-TZVPD def2/J TightSCF
|  2> *xyz 0 1
|  3> C         -7.33044       -2.67899       -3.20681
|  4> S         -6.01966       -2.92697       -4.41913
|  5> O         -5.64583       -1.58838       -4.91931
|  6> F         -4.88196       -3.50370       -3.66724
|  7> O         -6.54927       -3.80515       -5.42507
|  8> C         -7.46900       -1.24615       -2.71383
|  9> H         -7.11825       -3.37982       -2.39805
| 10> H         -8.24184       -3.00474       -3.70651
| 11> H         -7.67580       -0.60214       -3.54292
| 12> H         -6.55749       -0.94096       -2.24382
| 13> H         -8.27114       -1.18777       -2.00810
| 14> *
| 15> %MaxCore 64000
| 16>
| 17> %pal nprocs 4
| 18> end
| 19>
| 20> %scf
| 21>   MaxIter 150
| 22> end
| 23>
| 24>
| 25>                          ****END OF INPUT****

CARTESIAN COORDINATES (ANGSTROEM)
---------------------------------
  C     -7.330440   -2.678990   -3.206810
  S     -6.019660   -2.926970   -4.419130
  O     -5.645830   -1.588380   -4.919310
  F     -4.881960   -3.503700   -3.667240
  O     -6.549270   -3.805150   -5.425070
  C     -7.469000   -1.246150   -2.713830
  H     -7.118250   -3.379820   -2.398050
  H     -8.241840   -3.004740   -3.706510
  H     -7.675800   -0.602140   -3.542920
  H     -6.557490   -0.940960   -2.243820
  H     -8.271140   -1.187770   -2.008100

 Total Charge           Charge          ....    0
 Multiplicity           Mult            ....    1
 Number of Electrons    NEL             ....   58
 Basis Dimension        Dim             ....  285

ORBITAL ENERGIES
----------------

  NO   OCC          E(Eh)            E(eV)
   0   2.0000     -88.582405     -2410.4498
   1   2.0000     -24.507207      -666.8750
   2   2.0000     -18.898141      -514.2446
   3   2.0000     -18.887466      -513.9541
   4   2.0000     -10.046729      -273.3854
   5   2.0000     -10.003659      -272.2134
   6   2.0000      -7.932105      -215.8435
   7   2.0000      -5.915410      -160.9665
   8   2.0000      -5.908588      -160.7808
   9   2.0000      -5.908302      -160.7731
  10   2.0000      -1.269135       -34.5349
  11   2.0000      -1.034455       -28.1490
  12   2.0000      -0.943118       -25.6635
  13   2.0000      -0.766434       -20.8557
  14   2.0000      -0.667850       -18.1731
  15   2.0000      -0.615670       -16.7532
  16   2.0000      -0.522406       -14.2154
  17   2.0000      -0.502960       -13.6862
  18   2.0000      -0.498435       -13.5631
  19   2.0000      -0.451206       -12.2779
  20   2.0000      -0.433625       -11.7995
  21   2.0000      -0.406702       -11.0669
  22   2.0000      -0.386259       -10.5106
  23   2.0000      -0.365965        -9.9584
  24   2.0000      -0.359645        -9.7864
  25   2.0000      -0.341232        -9.2854
  26   2.0000      -0.294673        -8.0185
  27   2.0000      -0.286635        -7.7997
  28   2.0000      -0.269934        -7.3453
  29   0.0000      -0.023558        -0.6411
  30   0.0000      -0.007121        -0.1938
  31   0.0000       0.008692         0.2365
  32   0.0000       0.016314         0.4439
  33   0.0000       0.025301         0.6885

MULLIKEN ATOMIC CHARGES
-----------------------
   0 C :   -0.312680
   1 S :    1.198939
   2 O :   -0.616791
   3 F :   -0.163383
   4 O :   -0.585629
   5 C :   -0.797285
   6 H :    0.283530
   7 H :    0.225162
   8 H :    0.290984
   9 H :    0.277465
  10 H :    0.199687
Sum of atomic charges:   -0.0000000

LOEWDIN ATOMIC CHARGES
----------------------
   0 C :   -0.269721
   1 S :    0.588200
   2 O :   -0.281006
   3 F :   -0.078195
   4 O :   -0.258297
   5 C :   -0.108701
   6 H :    0.093654
   7 H :    0.098717
   8 H :    0.071431
   9 H :    0.072513
  10 H :    0.071405

  Mayer bond orders larger than 0.100000
B(  0-C ,  1-S ) :   0.8610 B(  0-C ,  2-O ) :   0.1034 B(  0-C ,  4-O ) :   0.1299
B(  0-C ,  5-C ) :   0.9519 B(  0-C ,  6-H ) :   0.8718 B(  0-C ,  7-H ) :   0.9457
B(  1-S ,  2-O ) :   1.5984 B(  1-S ,  3-F ) :   0.9861 B(  1-S ,  4-O ) :   1.6477
B(  2-O ,  4-O ) :   0.1281 B(  5-C ,  8-H ) :   0.9293 B(  5-C ,  9-H ) :   0.9155
B(  5-C , 10-H ) :   0.9700

Dispersion correction           -0.011524402
FINAL SINGLE POINT ENERGY      -727.914366123622

DIPOLE MOMENT
-------------
                                X             Y             Z
Electronic contribution:      7.00754      -4.95924      -4.34411
Nuclear contribution   :     -7.60849       4.87515       5.84588
                        -----------------------------------------
Total Dipole Moment    :     -0.60094      -0.08408       1.50177
                        -----------------------------------------
Magnitude (a.u.)       :      1.61973
Magnitude (Debye)      :      4.11703

Rotational constants in cm-1:     0.153704     0.080342     0.079431
Rotational constants in MHz :  4607.928650  2408.599360  2381.267225

                             ****ORCA TERMINATED NORMALLY****
TOTAL RUN TIME: 0 days 0 hours 0 minutes 23 seconds 862 msec
