                         Program Version 5.0.0 -  RELEASE  -
|  1> !TPSS D3BJ RIJCOSX def2-TZVPD def2/J TightSCF
|  2> *xyz 0 1
|  3> C         -7.33044       -2.67899       -3.20681
|  4> S         -6.01966       -2.92697       -4.41913
|  5> O         -5.64583       -1.58838       -4.91931
|  6> O         -4.88196       -3.50370       -3.66724
|  7> F         -6.54927       -3.80515       -5.42507
|  8> C         -7.46900       -1.24615       -2.71383
|  9> H         -7.11825       -3.37982       -2.39805
| 10> H         -8.24184       -3.00474       -3.70651
| 11> H         -7.67580       -0.60214       -3.54292
| 12> H         -6.55749       -0.94096       -2.24382
| 13> H         -8.27114       -1.18777       -2.00810
| 14> *
| 15> %MaxCore 64000
| 16>
| 17> %pal nprocs 4
| 18> end
| 19>
| 20> %scf
| 21>   MaxIter 150
| 22> end
| 23>
| 24>
| 25>                          ****END OF INPUT****

CARTESIAN COORDINATES (ANGSTROEM)
---------------------------------
  C     -7.330440   -2.678990   -3.206810
  S     -6.019660   -2.926970   -4.419130
  O     -5.645830   -1.588380   -4.919310
  O     -4.881960   -3.503700   -3.667240
  F     -6.549270   -3.805150   -5.425070
  C     -7.469000   -1.246150   -2.713830
  H     -7.118250   -3.379820   -2.398050
  H     -8.241840   -3.004740   -3.706510
  H     -7.675800   -0.602140   -3.542920
  H     -6.557490   -0.940960   -2.243820
  H     -8.271140   -1.187770   -2.008100

 Total Charge           Charge          ....    0
 Multiplicity           Mult            ....    1
 Number of Electrons    NEL             ....   58
 Basis Dimension        Dim             ....  285

ORBITAL ENERGIES
----------------

  NO   OCC          E(Eh)            E(eV)
   0   2.0000     -88.584891     -2410.5174
   1   2.0000     -24.528795      -667.4624
   2   2.0000     -18.887781      -513.9626
   3   2.0000     -18.884910      -513.8845
   4   2.0000     -10.047444      -273.4049
   5   2.0000     -10.004105      -272.2255
   6   2.0000      -7.934463      -215.9077
   7   2.0000      -5.917744      -161.0300
   8   2.0000      -5.910965      -160.8455
   9   2.0000      -5.910559      -160.8345
  10   2.0000      -1.304875       -35.5075
  11   2.0000      -1.018938       -27.7267
  12   2.0000      -0.927047       -25.2262
  13   2.0000      -0.766684       -20.8625
  14   2.0000      -0.680320       -18.5124
  15   2.0000      -0.623294       -16.9607
  16   2.0000      -0.534448       -14.5431
  17   2.0000      -0.528480       -14.3807
  18   2.0000      -0.505269       -13.7491
  19   2.0000      -0.453105       -12.3296
  20   2.0000      -0.433273       -11.7900
  21   2.0000      -0.399062       -10.8590
  22   2.0000      -0.383528       -10.4363
  23   2.0000      -0.368357       -10.0235
  24   2.0000      -0.354445        -9.6449
  25   2.0000      -0.334300        -9.0968
  26   2.0000      -0.286700        -7.8015
  27   2.0000      -0.278599        -7.5811
  28   2.0000      -0.256628        -6.9832
  29   0.0000      -0.023492        -0.6392
  30   0.0000      -0.009601        -0.2613
  31   0.0000       0.008094         0.2203
  32   0.0000       0.016525         0.4497
  33   0.0000       0.025043         0.6815

MULLIKEN ATOMIC CHARGES
-----------------------
   0 C :   -0.312173
   1 S :    1.183345
   2 O :   -0.613372
   3 O :   -0.604729
   4 F :   -0.121163
   5 C :   -0.811335
   6 H :    0.247159
   7 H :    0.259745
   8 H :    0.292720
   9 H :    0.278353
  10 H :    0.201450
Sum of atomic charges:    0.0000000

LOEWDIN ATOMIC CHARGES
----------------------
   0 C :   -0.274732
   1 S :    0.586479
   2 O :   -0.282020
   3 O :   -0.288499
   4 F :   -0.044726
   5 C :   -0.103285
   6 H :    0.097809
   7 H :    0.088978
   8 H :    0.069897
   9 H :    0.077355
  10 H :    0.072745

  Mayer bond orders larger than 0.100000
B(  0-C ,  1-S ) :   0.8598 B(  0-C ,  2-O ) :   0.1105 B(  0-C ,  3-O ) :   0.1144
B(  0-C ,  5-C ) :   0.9718 B(  0-C ,  6-H ) :   0.9365 B(  0-C ,  7-H ) :   0.8820
B(  1-S ,  2-O ) :   1.6052 B(  1-S ,  3-O ) :   1.6230 B(  1-S ,  4-F ) :   1.0327
B(  2-O ,  3-O ) :   0.1237 B(  5-C ,  8-H ) :   0.9133 B(  5-C ,  9-H ) :   0.9324
B(  5-C , 10-H ) :   0.9580

Dispersion correction           -0.011543629
FINAL SINGLE POINT ENERGY      -727.896667605952

DIPOLE MOMENT
-------------
                                X             Y             Z
Electronic contribution:      4.22441      -5.44262      -7.27787
Nuclear contribution   :     -5.87110       5.18927       7.67759
                        -----------------------------------------
Total Dipole Moment    :     -1.64669      -0.25334       0.39973
                        -----------------------------------------
Magnitude (a.u.)       :      1.71335
Magnitude (Debye)      :      4.35498

Rotational constants in cm-1:     0.155988     0.080452     0.078187
Rotational constants in MHz :  4676.405251  2411.902056  2343.983816

                             ****ORCA TERMINATED NORMALLY****
TOTAL RUN TIME: 0 days 0 hours 0 minutes 23 seconds 398 msec
