                         Program Version 5.0.0 -  RELEASE  -
|  1> !TPSS D3BJ RIJCOSX def2-TZVPD def2/J TightSCF xyzfile
|  2>
|  3> *xyzfile 0 1 D1.xyz
|  4>
|  5> %MaxCore 64000
|  6>
|  7> %pal nprocs 4
|  8> end
|  9>
| 10> %scf
| 11>   MaxIter 150
| 12> end
| 13>
| 14>
| 15>                          ****END OF INPUT****

CARTESIAN COORDINATES (ANGSTROEM)
---------------------------------
  C     -2.160376   -1.369486   -3.467104
  C     -3.030108   -1.910857   -4.541074
  C     -2.047717    0.146583   -3.511774
  C     -7.330440   -2.678991   -3.206811
  S     -6.019659   -2.926965   -4.419128
  H     -3.477443   -2.791513   -4.257096
  H     -2.538013   -2.017860   -5.438075
  H     -3.891589   -1.376039   -4.714365
  F     -5.645830   -1.588384   -4.919307
  O     -4.881961   -3.503697   -3.667235
  H     -1.184438   -1.843997   -3.566393
  H     -2.598195   -1.708376   -2.528477
  O     -6.549267   -3.805150   -5.425071
  C     -3.328755    0.875037   -3.103669
  H     -1.740034    0.452343   -4.517126
  H     -1.232611    0.434938   -2.842208
  C     -3.628487    0.771601   -1.609363
  H     -4.175106    0.490791   -3.682203
  H     -3.237812    1.928663   -3.381480
  C     -4.975718    1.361432   -1.190644
  H     -2.830700    1.276234   -1.054766
  H     -3.594312   -0.275838   -1.294603
  C     -6.184720    0.784347   -1.926464
  H     -4.956292    2.445725   -1.342200
  H     -5.097256    1.205252   -0.114136
  C     -6.286921   -0.735882   -1.893531
  H     -6.163994    1.100199   -2.974250
  H     -7.094530    1.223459   -1.504509
  C     -7.468999   -1.246153   -2.713833
  H     -6.360641   -1.090347   -0.859176
  H     -5.369848   -1.171853   -2.295982
  H     -7.601914   -0.601349   -3.585329
  H     -8.389791   -1.173436   -2.126922
  H     -7.118254   -3.379818   -2.398055
  H     -8.241838   -3.004745   -3.706513

 Total Charge           Charge          ....    0
 Multiplicity           Mult            ....    1
 Number of Electrons    NEL             ....  122
 Basis Dimension        Dim             ....  725

ORBITAL ENERGIES
----------------

  NO   OCC          E(Eh)            E(eV)
   0   2.0000     -88.586562     -2410.5629
   1   2.0000     -24.513881      -667.0566
   2   2.0000     -18.902038      -514.3506
   3   2.0000     -18.888121      -513.9719
   4   2.0000     -10.045759      -273.3590
   5   2.0000     -10.017163      -272.5809
   6   2.0000      -9.996945      -272.0307
   7   2.0000      -9.989810      -271.8365
   8   2.0000      -9.983278      -271.6588
   9   2.0000      -9.976739      -271.4809
  10   2.0000      -9.974476      -271.4193
  11   2.0000      -9.967169      -271.2205
  12   2.0000      -9.957285      -270.9515
  13   2.0000      -9.911484      -269.7052
  14   2.0000      -7.936576      -215.9652
  15   2.0000      -5.919902      -161.0887
  16   2.0000      -5.913104      -160.9037
  17   2.0000      -5.912610      -160.8903
  18   2.0000      -1.280276       -34.8381
  19   2.0000      -1.039311       -28.2811
  20   2.0000      -0.948823       -25.8188
  21   2.0000      -0.786909       -21.4129
  22   2.0000      -0.757272       -20.6064
  23   2.0000      -0.730477       -19.8773
  24   2.0000      -0.703771       -19.1506
  25   2.0000      -0.665414       -18.1068
  26   2.0000      -0.651255       -17.7216
  27   2.0000      -0.618340       -16.8259
  28   2.0000      -0.587209       -15.9788
  29   2.0000      -0.570996       -15.5376
  30   2.0000      -0.537392       -14.6232
  31   2.0000      -0.527981       -14.3671
  32   2.0000      -0.514405       -13.9977
  33   2.0000      -0.501949       -13.6587
  34   2.0000      -0.499121       -13.5818
  35   2.0000      -0.453311       -12.3352
  36   2.0000      -0.446931       -12.1616
  37   2.0000      -0.431659       -11.7460
  38   2.0000      -0.425691       -11.5836
  39   2.0000      -0.416900       -11.3444
  40   2.0000      -0.406946       -11.0736
  41   2.0000      -0.396520       -10.7899
  42   2.0000      -0.391267       -10.6469
  43   2.0000      -0.387368       -10.5408
  44   2.0000      -0.370318       -10.0769
  45   2.0000      -0.356100        -9.6900
  46   2.0000      -0.352690        -9.5972
  47   2.0000      -0.345661        -9.4059
  48   2.0000      -0.338760        -9.2181
  49   2.0000      -0.328642        -8.9428
  50   2.0000      -0.319696        -8.6994
  51   2.0000      -0.315229        -8.5778
  52   2.0000      -0.302536        -8.2324
  53   2.0000      -0.297344        -8.0911
  54   2.0000      -0.293908        -7.9977
  55   2.0000      -0.287821        -7.8320
  56   2.0000      -0.281120        -7.6497
  57   2.0000      -0.273548        -7.4436
  58   2.0000      -0.270143        -7.3510
  59   2.0000      -0.268351        -7.3022
  60   2.0000      -0.241117        -6.5611
  61   0.0000      -0.031987        -0.8704
  62   0.0000      -0.003791        -0.1031
  63   0.0000      -0.001163        -0.0316
  64   0.0000       0.003905         0.1063
  65   0.0000       0.011452         0.3116

MULLIKEN ATOMIC CHARGES
-----------------------
   0 C :    0.109841
   1 C :   -2.038686
   2 C :   -0.201198
   3 C :   -0.442641
   4 S :    1.324320
   5 H :    0.759326
   6 H :    0.300346
   7 H :    0.665227
   8 F :   -0.206897
   9 O :   -0.669047
  10 H :    0.037316
  11 H :    0.239900
  12 O :   -0.661583
  13 C :   -0.321261
  14 H :    0.132944
  15 H :    0.090515
  16 C :   -0.341508
  17 H :    0.228363
  18 H :    0.078911
  19 C :   -0.438442
  20 H :    0.131774
  21 H :    0.245090
  22 C :   -0.531749
  23 H :    0.122679
  24 H :    0.163020
  25 C :   -0.247259
  26 H :    0.375972
  27 H :    0.086198
  28 C :   -0.472903
  29 H :    0.186088
  30 H :    0.383745
  31 H :    0.283366
  32 H :    0.209998
  33 H :    0.236372
  34 H :    0.181866
Sum of atomic charges:    0.0000000

LOEWDIN ATOMIC CHARGES
----------------------
   0 C :   -0.229591
   1 C :   -0.125519
   2 C :   -0.203220
   3 C :   -0.205571
   4 S :    0.623172
   5 H :    0.001107
   6 H :    0.069814
   7 H :    0.017109
   8 F :   -0.087153
   9 O :   -0.284375
  10 H :    0.107974
  11 H :    0.099420
  12 O :   -0.238566
  13 C :   -0.201783
  14 H :    0.109673
  15 H :    0.103331
  16 C :   -0.209314
  17 H :    0.088775
  18 H :    0.112565
  19 C :   -0.202128
  20 H :    0.112173
  21 H :    0.097566
  22 C :   -0.210454
  23 H :    0.106974
  24 H :    0.106216
  25 C :   -0.205929
  26 H :    0.105308
  27 H :    0.112198
  28 C :   -0.225206
  29 H :    0.126554
  30 H :    0.089116
  31 H :    0.107726
  32 H :    0.119449
  33 H :    0.112377
  34 H :    0.100213

  Mayer bond orders larger than 0.100000
B(  0-C ,  1-C ) :   0.4917 B(  0-C ,  2-C ) :   0.8889 B(  0-C , 10-H ) :   0.9252
B(  0-C , 11-H ) :   0.8951 B(  0-C , 16-C ) :   0.1321 B(  1-C ,  2-C ) :   0.2746
B(  1-C ,  5-H ) :   0.5154 B(  1-C ,  6-H ) :   0.6803 B(  1-C ,  7-H ) :   0.8518
B(  1-C ,  8-F ) :   0.2247 B(  1-C ,  9-O ) :   0.1979 B(  2-C , 13-C ) :   1.1662
B(  2-C , 14-H ) :   0.8726 B(  2-C , 15-H ) :   0.8861 B(  2-C , 16-C ) :   0.1780
B(  3-C ,  4-S ) :   0.8760 B(  3-C ,  9-O ) :   0.1111 B(  3-C , 12-O ) :   0.1900
B(  3-C , 25-C ) :   0.1474 B(  3-C , 28-C ) :   1.0365 B(  3-C , 33-H ) :   0.8816
B(  3-C , 34-H ) :   1.0015 B(  4-S ,  8-F ) :   1.0305 B(  4-S ,  9-O ) :   1.5136
B(  4-S , 12-O ) :   1.2778 B(  4-S , 25-C ) :   0.1042 B(  5-H ,  6-H ) :   0.1061
B(  5-H ,  9-O ) :  -0.2679 B(  6-H ,  7-H ) :   0.1091 B(  7-H ,  8-F ) :  -0.2725
B(  9-O , 12-O ) :   0.1071 B( 13-C , 16-C ) :   0.6096 B( 13-C , 17-H ) :   0.9942
B( 13-C , 18-H ) :   0.8528 B( 13-C , 19-C ) :   0.1562 B( 13-C , 21-H ) :  -0.1183
B( 13-C , 22-C ) :   0.1936 B( 16-C , 19-C ) :   1.1801 B( 16-C , 20-H ) :   0.8774
B( 16-C , 21-H ) :   0.9166 B( 16-C , 25-C ) :   0.1097 B( 19-C , 22-C ) :   1.1340
B( 19-C , 23-H ) :   0.9282 B( 19-C , 24-H ) :   0.8842 B( 19-C , 25-C ) :   0.1739
B( 22-C , 25-C ) :   0.6549 B( 22-C , 26-H ) :   0.7802 B( 22-C , 27-H ) :   0.9173
B( 22-C , 28-C ) :   0.4827 B( 25-C , 28-C ) :   0.5931 B( 25-C , 29-H ) :   0.7128
B( 25-C , 30-H ) :   1.1749 B( 28-C , 29-H ) :  -0.1088 B( 28-C , 31-H ) :   0.8176
B( 28-C , 32-H ) :   0.9052 B( 29-H , 30-H ) :   0.1744

Dispersion correction           -0.051207300
FINAL SINGLE POINT ENERGY     -1042.556708093221

DIPOLE MOMENT
-------------
                                X             Y             Z
Electronic contribution:    -10.78913     -16.24135     -13.21051
Nuclear contribution   :      9.63012      17.20461      14.03552
                        -----------------------------------------
Total Dipole Moment    :     -1.15902       0.96326       0.82501
                        -----------------------------------------
Magnitude (a.u.)       :      1.71809
Magnitude (Debye)      :      4.36703

Rotational constants in cm-1:     0.025899     0.015189     0.010690
Rotational constants in MHz :   776.424978   455.369614   320.488876

                             ****ORCA TERMINATED NORMALLY****
TOTAL RUN TIME: 0 days 0 hours 3 minutes 21 seconds 544 msec
