                         Program Version 5.0.0 -  RELEASE  -
|  1> !TPSS D3BJ RIJCOSX def2-TZVPD def2/J TightSCF xyzfile
|  2>
|  3> *xyzfile 0 1 D2.xyz
|  4>
|  5> %MaxCore 64000
|  6>
|  7> %pal nprocs 4
|  8> end
|  9>
| 10> %scf
| 11>   MaxIter 150
| 12> end
| 13>
| 14>
| 15>                          ****END OF INPUT****

CARTESIAN COORDINATES (ANGSTROEM)
---------------------------------
  C     -2.160376   -1.369486   -3.467104
  C     -3.030108   -1.910857   -4.541074
  C     -2.047717    0.146583   -3.511774
  C     -7.330440   -2.678991   -3.206811
  S     -6.019659   -2.926965   -4.419128
  H     -3.477443   -2.791513   -4.257096
  H     -2.538013   -2.017860   -5.438075
  H     -3.891589   -1.376039   -4.714365
  O     -5.645830   -1.588384   -4.919307
  F     -4.881961   -3.503697   -3.667235
  H     -1.184438   -1.843997   -3.566393
  H     -2.598195   -1.708376   -2.528477
  O     -6.549267   -3.805150   -5.425071
  C     -3.328755    0.875037   -3.103669
  H     -1.740034    0.452343   -4.517126
  H     -1.232611    0.434938   -2.842208
  C     -3.628487    0.771601   -1.609363
  H     -4.175106    0.490791   -3.682203
  H     -3.237812    1.928663   -3.381480
  C     -4.975718    1.361432   -1.190644
  H     -2.830700    1.276234   -1.054766
  H     -3.594312   -0.275838   -1.294603
  C     -6.184720    0.784347   -1.926464
  H     -4.956292    2.445725   -1.342200
  H     -5.097256    1.205252   -0.114136
  C     -6.286921   -0.735882   -1.893531
  H     -6.163994    1.100199   -2.974250
  H     -7.094530    1.223459   -1.504509
  C     -7.468999   -1.246153   -2.713833
  H     -6.360641   -1.090347   -0.859176
  H     -5.369848   -1.171853   -2.295982
  H     -7.601914   -0.601349   -3.585329
  H     -8.389791   -1.173436   -2.126922
  H     -7.118254   -3.379818   -2.398055
  H     -8.241838   -3.004745   -3.706513

 Total Charge           Charge          ....    0
 Multiplicity           Mult            ....    1
 Number of Electrons    NEL             ....  122
 Basis Dimension        Dim             ....  725

ORBITAL ENERGIES
----------------

  NO   OCC          E(Eh)            E(eV)
   0   2.0000     -88.586742     -2410.5678
   1   2.0000     -24.511526      -666.9925
   2   2.0000     -18.902222      -514.3556
   3   2.0000     -18.891438      -514.0622
   4   2.0000     -10.046344      -273.3749
   5   2.0000     -10.010840      -272.4088
   6   2.0000      -9.993899      -271.9478
   7   2.0000      -9.984595      -271.6946
   8   2.0000      -9.979822      -271.5648
   9   2.0000      -9.974181      -271.4113
  10   2.0000      -9.969044      -271.2715
  11   2.0000      -9.966165      -271.1931
  12   2.0000      -9.959723      -271.0178
  13   2.0000      -9.914404      -269.7847
  14   2.0000      -7.936742      -215.9697
  15   2.0000      -5.920015      -161.0918
  16   2.0000      -5.913272      -160.9083
  17   2.0000      -5.912833      -160.8964
  18   2.0000      -1.278263       -34.7833
  19   2.0000      -1.040249       -28.3066
  20   2.0000      -0.951112       -25.8811
  21   2.0000      -0.782329       -21.2883
  22   2.0000      -0.754658       -20.5353
  23   2.0000      -0.729438       -19.8490
  24   2.0000      -0.703929       -19.1549
  25   2.0000      -0.665003       -18.0956
  26   2.0000      -0.650880       -17.7114
  27   2.0000      -0.614722       -16.7274
  28   2.0000      -0.583967       -15.8905
  29   2.0000      -0.569213       -15.4891
  30   2.0000      -0.530114       -14.4251
  31   2.0000      -0.521477       -14.1901
  32   2.0000      -0.517839       -14.0911
  33   2.0000      -0.505434       -13.7536
  34   2.0000      -0.498577       -13.5670
  35   2.0000      -0.456108       -12.4113
  36   2.0000      -0.442553       -12.0425
  37   2.0000      -0.430647       -11.7185
  38   2.0000      -0.426722       -11.6117
  39   2.0000      -0.417248       -11.3539
  40   2.0000      -0.402155       -10.9432
  41   2.0000      -0.391471       -10.6525
  42   2.0000      -0.389911       -10.6100
  43   2.0000      -0.385600       -10.4927
  44   2.0000      -0.366488        -9.9727
  45   2.0000      -0.355559        -9.6753
  46   2.0000      -0.348543        -9.4843
  47   2.0000      -0.342821        -9.3286
  48   2.0000      -0.336061        -9.1447
  49   2.0000      -0.325340        -8.8530
  50   2.0000      -0.319573        -8.6960
  51   2.0000      -0.308607        -8.3976
  52   2.0000      -0.301292        -8.1986
  53   2.0000      -0.295079        -8.0295
  54   2.0000      -0.293986        -7.9998
  55   2.0000      -0.284533        -7.7425
  56   2.0000      -0.281874        -7.6702
  57   2.0000      -0.276348        -7.5198
  58   2.0000      -0.267233        -7.2718
  59   2.0000      -0.266454        -7.2506
  60   2.0000      -0.250024        -6.8035
  61   0.0000      -0.022640        -0.6161
  62   0.0000      -0.010366        -0.2821
  63   0.0000      -0.000885        -0.0241
  64   0.0000       0.003220         0.0876
  65   0.0000       0.013514         0.3677

MULLIKEN ATOMIC CHARGES
-----------------------
   0 C :    0.116116
   1 C :   -2.056460
   2 C :   -0.207559
   3 C :   -0.614418
   4 S :    1.342890
   5 H :    0.634688
   6 H :    0.277742
   7 H :    0.819915
   8 O :   -0.688412
   9 F :   -0.174953
  10 H :    0.029592
  11 H :    0.250712
  12 O :   -0.658301
  13 C :   -0.330658
  14 H :    0.131210
  15 H :    0.096803
  16 C :   -0.369297
  17 H :    0.280045
  18 H :    0.056873
  19 C :   -0.419542
  20 H :    0.129912
  21 H :    0.245128
  22 C :   -0.606097
  23 H :    0.120661
  24 H :    0.164159
  25 C :   -0.149172
  26 H :    0.381779
  27 H :    0.097998
  28 C :   -0.311937
  29 H :    0.193073
  30 H :    0.228656
  31 H :    0.306520
  32 H :    0.218604
  33 H :    0.299315
  34 H :    0.164416
Sum of atomic charges:    0.0000000

LOEWDIN ATOMIC CHARGES
----------------------
   0 C :   -0.233976
   1 C :   -0.120698
   2 C :   -0.200830
   3 C :   -0.209487
   4 S :    0.623863
   5 H :    0.017966
   6 H :    0.071528
   7 H :    0.005320
   8 O :   -0.277269
   9 F :   -0.097760
  10 H :    0.105532
  11 H :    0.095850
  12 O :   -0.239303
  13 C :   -0.198433
  14 H :    0.110902
  15 H :    0.102942
  16 C :   -0.210930
  17 H :    0.093646
  18 H :    0.112900
  19 C :   -0.202563
  20 H :    0.111207
  21 H :    0.095074
  22 C :   -0.206734
  23 H :    0.106943
  24 H :    0.105128
  25 C :   -0.207979
  26 H :    0.109130
  27 H :    0.112270
  28 C :   -0.221882
  29 H :    0.123128
  30 H :    0.086854
  31 H :    0.111340
  32 H :    0.119834
  33 H :    0.103004
  34 H :    0.103482

  Mayer bond orders larger than 0.100000
B(  0-C ,  1-C ) :   0.4010 B(  0-C ,  2-C ) :   0.9381 B(  0-C , 10-H ) :   0.9544
B(  0-C , 11-H ) :   0.8760 B(  0-C , 16-C ) :   0.1356 B(  1-C ,  2-C ) :   0.2760
B(  1-C ,  5-H ) :   0.6234 B(  1-C ,  6-H ) :   0.6972 B(  1-C ,  7-H ) :   0.6175
B(  1-C ,  8-O ) :   0.3085 B(  1-C ,  9-F ) :   0.1506 B(  1-C , 17-H ) :   0.1081
B(  2-C , 13-C ) :   1.1481 B(  2-C , 14-H ) :   0.8612 B(  2-C , 15-H ) :   0.8969
B(  2-C , 16-C ) :   0.1890 B(  3-C ,  4-S ) :   0.9044 B(  3-C , 12-O ) :   0.1922
B(  3-C , 25-C ) :   0.2601 B(  3-C , 28-C ) :   0.9487 B(  3-C , 33-H ) :   0.8359
B(  3-C , 34-H ) :   0.9965 B(  4-S ,  8-O ) :   1.6252 B(  4-S ,  9-F ) :   0.8822
B(  4-S , 12-O ) :   1.3167 B(  5-H ,  9-F ) :  -0.1464 B(  6-H ,  7-H ) :   0.1241
B(  7-H ,  8-O ) :  -0.3468 B( 13-C , 16-C ) :   0.5931 B( 13-C , 17-H ) :   0.9810
B( 13-C , 18-H ) :   0.8523 B( 13-C , 19-C ) :   0.1436 B( 13-C , 21-H ) :  -0.1189
B( 13-C , 22-C ) :   0.2045 B( 16-C , 19-C ) :   1.1709 B( 16-C , 20-H ) :   0.8850
B( 16-C , 21-H ) :   0.9117 B( 16-C , 25-C ) :   0.1215 B( 19-C , 22-C ) :   1.1202
B( 19-C , 23-H ) :   0.9252 B( 19-C , 24-H ) :   0.8827 B( 19-C , 25-C ) :   0.1730
B( 22-C , 25-C ) :   0.7237 B( 22-C , 26-H ) :   0.7714 B( 22-C , 27-H ) :   0.9047
B( 22-C , 28-C ) :   0.5066 B( 25-C , 28-C ) :   0.6797 B( 25-C , 29-H ) :   0.7253
B( 25-C , 30-H ) :   1.2396 B( 28-C , 29-H ) :  -0.1136 B( 28-C , 31-H ) :   0.7740
B( 28-C , 32-H ) :   0.9005 B( 29-H , 30-H ) :   0.1228

Dispersion correction           -0.051358205
FINAL SINGLE POINT ENERGY     -1042.560106145768

DIPOLE MOMENT
-------------
                                X             Y             Z
Electronic contribution:     -9.48519     -19.49259     -11.16512
Nuclear contribution   :      8.71934      19.48829      12.54264
                        -----------------------------------------
Total Dipole Moment    :     -0.76585      -0.00430       1.37752
                        -----------------------------------------
Magnitude (a.u.)       :      1.57611
Magnitude (Debye)      :      4.00615

Rotational constants in cm-1:     0.025810     0.015137     0.010647
Rotational constants in MHz :   773.773140   453.802427   319.195213

                             ****ORCA TERMINATED NORMALLY****
TOTAL RUN TIME: 0 days 0 hours 3 minutes 22 seconds 759 msec
