                         Program Version 5.0.0 -  RELEASE  -
|  1> !TPSS D3BJ RIJCOSX def2-TZVPD def2/J TightSCF xyzfile
|  2>
|  3> *xyzfile 0 1 D3.xyz
|  4>
|  5> %MaxCore 64000
|  6>
|  7> %pal nprocs 4
|  8> end
|  9>
| 10> %scf
| 11>   MaxIter 150
| 12> end
| 13>
| 14>
| 15>                          ****END OF INPUT****

CARTESIAN COORDINATES (ANGSTROEM)
---------------------------------
  C     -2.160376   -1.369486   -3.467104
  C     -3.030108   -1.910857   -4.541074
  C     -2.047717    0.146583   -3.511774
  C     -7.330440   -2.678991   -3.206811
  S     -6.019659   -2.926965   -4.419128
  H     -3.477443   -2.791513   -4.257096
  H     -2.538013   -2.017860   -5.438075
  H     -3.891589   -1.376039   -4.714365
  O     -5.645830   -1.588384   -4.919307
  O     -4.881961   -3.503697   -3.667235
  H     -1.184438   -1.843997   -3.566393
  H     -2.598195   -1.708376   -2.528477
  F     -6.549267   -3.805150   -5.425071
  C     -3.328755    0.875037   -3.103669
  H     -1.740034    0.452343   -4.517126
  H     -1.232611    0.434938   -2.842208
  C     -3.628487    0.771601   -1.609363
  H     -4.175106    0.490791   -3.682203
  H     -3.237812    1.928663   -3.381480
  C     -4.975718    1.361432   -1.190644
  H     -2.830700    1.276234   -1.054766
  H     -3.594312   -0.275838   -1.294603
  C     -6.184720    0.784347   -1.926464
  H     -4.956292    2.445725   -1.342200
  H     -5.097256    1.205252   -0.114136
  C     -6.286921   -0.735882   -1.893531
  H     -6.163994    1.100199   -2.974250
  H     -7.094530    1.223459   -1.504509
  C     -7.468999   -1.246153   -2.713833
  H     -6.360641   -1.090347   -0.859176
  H     -5.369848   -1.171853   -2.295982
  H     -7.601914   -0.601349   -3.585329
  H     -8.389791   -1.173436   -2.126922
  H     -7.118254   -3.379818   -2.398055
  H     -8.241838   -3.004745   -3.706513

 Total Charge           Charge          ....    0
 Multiplicity           Mult            ....    1
 Number of Electrons    NEL             ....  122
 Basis Dimension        Dim             ....  725

ORBITAL ENERGIES
----------------

  NO   OCC          E(Eh)            E(eV)
   0   2.0000     -88.592569     -2410.7264
   1   2.0000     -24.534999      -667.6313
   2   2.0000     -18.895803      -514.1809
   3   2.0000     -18.892883      -514.1015
   4   2.0000     -10.047934      -273.4182
   5   2.0000     -10.011465      -272.4258
   6   2.0000      -9.986669      -271.7511
   7   2.0000      -9.979524      -271.5567
   8   2.0000      -9.974063      -271.4081
   9   2.0000      -9.966438      -271.2006
  10   2.0000      -9.960949      -271.0512
  11   2.0000      -9.955345      -270.8987
  12   2.0000      -9.944300      -270.5981
  13   2.0000      -9.891412      -269.1590
  14   2.0000      -7.942411      -216.1240
  15   2.0000      -5.925772      -161.2485
  16   2.0000      -5.918950      -161.0628
  17   2.0000      -5.918356      -161.0466
  18   2.0000      -1.311174       -35.6789
  19   2.0000      -1.032233       -28.0885
  20   2.0000      -0.940413       -25.5899
  21   2.0000      -0.781115       -21.2552
  22   2.0000      -0.748551       -20.3691
  23   2.0000      -0.721009       -19.6197
  24   2.0000      -0.700397       -19.0588
  25   2.0000      -0.667404       -18.1610
  26   2.0000      -0.645383       -17.5618
  27   2.0000      -0.610987       -16.6258
  28   2.0000      -0.578136       -15.7319
  29   2.0000      -0.560250       -15.2452
  30   2.0000      -0.538147       -14.6437
  31   2.0000      -0.533589       -14.5197
  32   2.0000      -0.518077       -14.0976
  33   2.0000      -0.511498       -13.9186
  34   2.0000      -0.489008       -13.3066
  35   2.0000      -0.453353       -12.3364
  36   2.0000      -0.444332       -12.0909
  37   2.0000      -0.426759       -11.6127
  38   2.0000      -0.421937       -11.4815
  39   2.0000      -0.416877       -11.3438
  40   2.0000      -0.403091       -10.9687
  41   2.0000      -0.390006       -10.6126
  42   2.0000      -0.381438       -10.3795
  43   2.0000      -0.376926       -10.2567
  44   2.0000      -0.362475        -9.8635
  45   2.0000      -0.348221        -9.4756
  46   2.0000      -0.341144        -9.2830
  47   2.0000      -0.339427        -9.2363
  48   2.0000      -0.328695        -8.9442
  49   2.0000      -0.314650        -8.5621
  50   2.0000      -0.309928        -8.4336
  51   2.0000      -0.301586        -8.2066
  52   2.0000      -0.296797        -8.0763
  53   2.0000      -0.291094        -7.9211
  54   2.0000      -0.285062        -7.7569
  55   2.0000      -0.276421        -7.5218
  56   2.0000      -0.272457        -7.4139
  57   2.0000      -0.269062        -7.3215
  58   2.0000      -0.256361        -6.9759
  59   2.0000      -0.245700        -6.6858
  60   2.0000      -0.230733        -6.2786
  61   0.0000      -0.026900        -0.7320
  62   0.0000      -0.014752        -0.4014
  63   0.0000       0.004004         0.1089
  64   0.0000       0.005354         0.1457
  65   0.0000       0.008781         0.2389

MULLIKEN ATOMIC CHARGES
-----------------------
   0 C :    0.106378
   1 C :   -2.058539
   2 C :   -0.193261
   3 C :   -0.620860
   4 S :    1.276946
   5 H :    0.662326
   6 H :    0.293439
   7 H :    0.795089
   8 O :   -0.682671
   9 O :   -0.650434
  10 H :    0.031125
  11 H :    0.240673
  12 F :   -0.127643
  13 C :   -0.326958
  14 H :    0.127975
  15 H :    0.095396
  16 C :   -0.365146
  17 H :    0.266432
  18 H :    0.061401
  19 C :   -0.428774
  20 H :    0.131297
  21 H :    0.246222
  22 C :   -0.576650
  23 H :    0.120577
  24 H :    0.163346
  25 C :   -0.219565
  26 H :    0.380638
  27 H :    0.097488
  28 C :   -0.353673
  29 H :    0.182256
  30 H :    0.340634
  31 H :    0.288826
  32 H :    0.210198
  33 H :    0.230568
  34 H :    0.254943
Sum of atomic charges:   -0.0000000

LOEWDIN ATOMIC CHARGES
----------------------
   0 C :   -0.233054
   1 C :   -0.129611
   2 C :   -0.203715
   3 C :   -0.214162
   4 S :    0.641512
   5 H :   -0.000082
   6 H :    0.067183
   7 H :    0.005768
   8 O :   -0.277672
   9 O :   -0.282816
  10 H :    0.104526
  11 H :    0.097742
  12 F :   -0.028935
  13 C :   -0.199616
  14 H :    0.109086
  15 H :    0.101279
  16 C :   -0.210348
  17 H :    0.092983
  18 H :    0.111428
  19 C :   -0.203261
  20 H :    0.110673
  21 H :    0.096851
  22 C :   -0.208408
  23 H :    0.106130
  24 H :    0.104687
  25 C :   -0.203725
  26 H :    0.108131
  27 H :    0.110659
  28 C :   -0.219236
  29 H :    0.124040
  30 H :    0.091740
  31 H :    0.109399
  32 H :    0.120056
  33 H :    0.106612
  34 H :    0.094155

  Mayer bond orders larger than 0.100000
B(  0-C ,  1-C ) :   0.4312 B(  0-C ,  2-C ) :   0.9111 B(  0-C , 10-H ) :   0.9338
B(  0-C , 11-H ) :   0.8866 B(  0-C , 16-C ) :   0.1345 B(  1-C ,  2-C ) :   0.2631
B(  1-C ,  5-H ) :   0.6543 B(  1-C ,  6-H ) :   0.7092 B(  1-C ,  7-H ) :   0.6702
B(  1-C ,  8-O ) :   0.2466 B(  1-C ,  9-O ) :   0.1388 B(  2-C , 13-C ) :   1.1459
B(  2-C , 14-H ) :   0.8682 B(  2-C , 15-H ) :   0.8906 B(  2-C , 16-C ) :   0.1837
B(  3-C ,  4-S ) :   0.8802 B(  3-C ,  9-O ) :   0.1310 B(  3-C , 12-F ) :   0.1261
B(  3-C , 25-C ) :   0.2226 B(  3-C , 28-C ) :   1.0299 B(  3-C , 33-H ) :   0.9029
B(  3-C , 34-H ) :   0.8869 B(  4-S ,  8-O ) :   1.6368 B(  4-S ,  9-O ) :   1.5692
B(  4-S , 12-F ) :   0.8606 B(  5-H ,  6-H ) :   0.1010 B(  5-H ,  9-O ) :  -0.2354
B(  6-H ,  7-H ) :   0.1201 B(  7-H ,  8-O ) :  -0.3584 B(  8-O ,  9-O ) :   0.1808
B( 13-C , 16-C ) :   0.6072 B( 13-C , 17-H ) :   0.9895 B( 13-C , 18-H ) :   0.8488
B( 13-C , 19-C ) :   0.1399 B( 13-C , 21-H ) :  -0.1145 B( 13-C , 22-C ) :   0.2098
B( 16-C , 19-C ) :   1.1655 B( 16-C , 20-H ) :   0.8821 B( 16-C , 21-H ) :   0.9154
B( 16-C , 25-C ) :   0.1240 B( 19-C , 22-C ) :   1.1253 B( 19-C , 23-H ) :   0.9295
B( 19-C , 24-H ) :   0.8817 B( 19-C , 25-C ) :   0.1707 B( 22-C , 25-C ) :   0.6729
B( 22-C , 26-H ) :   0.7773 B( 22-C , 27-H ) :   0.9057 B( 22-C , 28-C ) :   0.5000
B( 25-C , 28-C ) :   0.7086 B( 25-C , 29-H ) :   0.7152 B( 25-C , 30-H ) :   1.2089
B( 28-C , 29-H ) :  -0.1191 B( 28-C , 31-H ) :   0.7721 B( 28-C , 32-H ) :   0.9018
B( 29-H , 30-H ) :   0.1545

Dispersion correction           -0.051697919
FINAL SINGLE POINT ENERGY     -1042.543139605008

DIPOLE MOMENT
-------------
                                X             Y             Z
Electronic contribution:    -12.54285     -20.24732     -14.32301
Nuclear contribution   :     10.70731      19.84772      14.63855
                        -----------------------------------------
Total Dipole Moment    :     -1.83554      -0.39960       0.31555
                        -----------------------------------------
Magnitude (a.u.)       :      1.90485
Magnitude (Debye)      :      4.84174

Rotational constants in cm-1:     0.026014     0.014812     0.010477
Rotational constants in MHz :   779.874765   444.063394   314.081855

                             ****ORCA TERMINATED NORMALLY****
TOTAL RUN TIME: 0 days 0 hours 2 minutes 37 seconds 346 msec
