                         Program Version 5.0.0 -  RELEASE  -
|  1> !M062X D3Zero RIJCOSX def2-SVPD def2/J TightSCF
|  2> *xyz 1 1
|  3> C         -2.12050        0.88520        1.78951
|  4> N         -3.17690       -0.15948        1.61070
|  5> H         -4.06474        0.23127        1.28675
|  6> H         -3.34407       -0.67151        2.48493
|  7> H         -2.71686       -0.78189        0.93588
|  8> H         -1.96853        1.40078        0.86432
|  9> H         -1.20609        0.41954        2.09270
| 10> H         -2.43151        1.58226        2.53937
| 11> *
| 12> %MaxCore 64000
| 13>
| 14> %pal nprocs 4
| 15> end
| 16>
| 17> %scf
| 18>   MaxIter 150
| 19> end
| 20>
| 21>
| 22>                          ****END OF INPUT****

CARTESIAN COORDINATES (ANGSTROEM)
---------------------------------
  C     -2.120500    0.885200    1.789510
  N     -3.176900   -0.159480    1.610700
  H     -4.064740    0.231270    1.286750
  H     -3.344070   -0.671510    2.484930
  H     -2.716860   -0.781890    0.935880
  H     -1.968530    1.400780    0.864320
  H     -1.206090    0.419540    2.092700
  H     -2.431510    1.582260    2.539370

 Total Charge           Charge          ....    1
 Multiplicity           Mult            ....    1
 Number of Electrons    NEL             ....   18
 Basis Dimension        Dim             ....   88

ORBITAL ENERGIES
----------------

  NO   OCC          E(Eh)            E(eV)
   0   2.0000     -15.109821      -411.1591
   1   2.0000     -10.811577      -294.1980
   2   2.0000      -1.323496       -36.0142
   3   2.0000      -1.021265       -27.7900
   4   2.0000      -0.895522       -24.3684
   5   2.0000      -0.883099       -24.0304
   6   2.0000      -0.776758       -21.1366
   7   2.0000      -0.695370       -18.9220
   8   2.0000      -0.691897       -18.8275
   9   0.0000      -0.178707        -4.8629
  10   0.0000      -0.112882        -3.0717
  11   0.0000      -0.105358        -2.8669
  12   0.0000      -0.103424        -2.8143
  13   0.0000      -0.064732        -1.7614

MULLIKEN ATOMIC CHARGES
-----------------------
   0 C :    0.778303
   1 N :   -0.825218
   2 H :    0.352414
   3 H :    0.370648
   4 H :    0.414623
   5 H :   -0.023060
   6 H :   -0.014660
   7 H :   -0.053050
Sum of atomic charges:    1.0000000

LOEWDIN ATOMIC CHARGES
----------------------
   0 C :    0.286812
   1 N :    0.311958
   2 H :    0.109531
   3 H :    0.110581
   4 H :    0.105396
   5 H :    0.026329
   6 H :    0.026667
   7 H :    0.022726

  Mayer bond orders larger than 0.100000
B(  0-C ,  1-N ) :   0.8429 B(  0-C ,  5-H ) :   0.9117 B(  0-C ,  6-H ) :   0.9025
B(  0-C ,  7-H ) :   0.9502 B(  1-N ,  2-H ) :   0.8023 B(  1-N ,  3-H ) :   0.7827
B(  1-N ,  4-H ) :   0.7247

Dispersion correction           -0.000005954
FINAL SINGLE POINT ENERGY       -96.084351877865

DIPOLE MOMENT
-------------
                                X             Y             Z
Electronic contribution:     -0.83035      -0.76029      -0.12895
Nuclear contribution   :      0.30442       0.18283       0.03339
                        -----------------------------------------
Total Dipole Moment    :     -0.52593      -0.57746      -0.09555
                        -----------------------------------------
Magnitude (a.u.)       :      0.78688
Magnitude (Debye)      :      2.00010

Rotational constants in cm-1:     2.844840     0.686092     0.683099
Rotational constants in MHz : 85286.171795 20568.516729 20478.789944

                             ****ORCA TERMINATED NORMALLY****
TOTAL RUN TIME: 0 days 0 hours 0 minutes 5 seconds 190 msec
