                         Program Version 5.0.0 -  RELEASE  -
|  1> !M062X D3Zero RIJCOSX def2-SVPD def2/J TightSCF
|  2> *xyz 0 1
|  3> C         -2.12050        0.88520        1.78951
|  4> C         -3.17690       -0.15948        1.61070
|  5> H         -4.06474        0.23127        1.28675
|  6> H         -3.34407       -0.67151        2.48493
|  7> H         -2.71686       -0.78189        0.93588
|  8> H         -1.96853        1.40078        0.86432
|  9> H         -1.20609        0.41954        2.09270
| 10> H         -2.43151        1.58226        2.53937
| 11> *
| 12> %MaxCore 64000
| 13>
| 14> %pal nprocs 4
| 15> end
| 16>
| 17> %scf
| 18>   MaxIter 150
| 19> end
| 20>
| 21>
| 22>                          ****END OF INPUT****

CARTESIAN COORDINATES (ANGSTROEM)
---------------------------------
  C     -2.120500    0.885200    1.789510
  C     -3.176900   -0.159480    1.610700
  H     -4.064740    0.231270    1.286750
  H     -3.344070   -0.671510    2.484930
  H     -2.716860   -0.781890    0.935880
  H     -1.968530    1.400780    0.864320
  H     -1.206090    0.419540    2.092700
  H     -2.431510    1.582260    2.539370

 Total Charge           Charge          ....    0
 Multiplicity           Mult            ....    1
 Number of Electrons    NEL             ....   18
 Basis Dimension        Dim             ....   88

ORBITAL ENERGIES
----------------

  NO   OCC          E(Eh)            E(eV)
   0   2.0000     -10.526803      -286.4489
   1   2.0000     -10.513894      -286.0976
   2   2.0000      -0.859581       -23.3904
   3   2.0000      -0.698198       -18.9989
   4   2.0000      -0.525776       -14.3071
   5   2.0000      -0.516743       -14.0613
   6   2.0000      -0.428413       -11.6577
   7   2.0000      -0.410456       -11.1691
   8   2.0000      -0.400888       -10.9087
   9   0.0000       0.045427         1.2361
  10   0.0000       0.076094         2.0706
  11   0.0000       0.127766         3.4767
  12   0.0000       0.129772         3.5313
  13   0.0000       0.146843         3.9958

MULLIKEN ATOMIC CHARGES
-----------------------
   0 C :    0.114091
   1 C :    0.508310
   2 H :   -0.188389
   3 H :   -0.150988
   4 H :   -0.110188
   5 H :   -0.054104
   6 H :   -0.044821
   7 H :   -0.073911
Sum of atomic charges:    0.0000000

LOEWDIN ATOMIC CHARGES
----------------------
   0 C :    0.070687
   1 C :    0.086519
   2 H :   -0.034599
   3 H :   -0.034130
   4 H :   -0.035999
   5 H :   -0.016087
   6 H :   -0.015255
   7 H :   -0.021136

  Mayer bond orders larger than 0.100000
B(  0-C ,  1-C ) :   1.4569 B(  0-C ,  2-H ) :   0.1493 B(  0-C ,  3-H ) :   0.1488
B(  0-C ,  4-H ) :   0.2064 B(  0-C ,  5-H ) :   0.8762 B(  0-C ,  6-H ) :   0.8673
B(  0-C ,  7-H ) :   0.9229 B(  1-C ,  2-H ) :   0.8294 B(  1-C ,  3-H ) :   0.8173
B(  1-C ,  4-H ) :   0.7983 B(  1-C ,  5-H ) :   0.1420 B(  1-C ,  6-H ) :   0.1458
B(  1-C ,  7-H ) :   0.1209

Dispersion correction           -0.000005886
FINAL SINGLE POINT ENERGY       -79.697287448231

DIPOLE MOMENT
-------------
                                X             Y             Z
Electronic contribution:     -0.12344      -0.01844      -0.00257
Nuclear contribution   :      0.12022       0.00247       0.00249
                        -----------------------------------------
Total Dipole Moment    :     -0.00322      -0.01597      -0.00008
                        -----------------------------------------
Magnitude (a.u.)       :      0.01629
Magnitude (Debye)      :      0.04141

Rotational constants in cm-1:     2.844858     0.716988     0.713720
Rotational constants in MHz : 85286.697487 21494.771942 21396.773512

                             ****ORCA TERMINATED NORMALLY****
TOTAL RUN TIME: 0 days 0 hours 0 minutes 4 seconds 982 msec
