                         Program Version 5.0.0 -  RELEASE  -
|  1> !M062X D3Zero RIJCOSX def2-SVPD def2/J TightSCF xyzfile
|  2>
|  3> *xyzfile 0 1 D.xyz
|  4>
|  5> %MaxCore 64000
|  6>
|  7> %pal nprocs 4
|  8> end
|  9>
| 10> %scf
| 11>   MaxIter 150
| 12> end
| 13>
| 14>
| 15>                          ****END OF INPUT****

CARTESIAN COORDINATES (ANGSTROEM)
---------------------------------
  C     -2.120502    0.885196    1.789506
  C     -0.778939    0.171966    1.804965
  H     -2.324193    1.472649    2.686078
  H     -2.187698    1.541272    0.919482
  C     -3.176900   -0.159484    1.610700
  H      0.015695    0.910767    1.939153
  H     -0.743553   -0.506827    2.665420
  C     -0.602493   -0.630712    0.492240
  H      0.313894   -1.240346    0.603498
  H     -0.363829    0.113322   -0.301169
  F     -1.712061   -1.376836    0.202535
  H     -4.064736    0.231272    1.286754
  H     -3.344073   -0.671511    2.484928
  H     -2.716861   -0.781886    0.935880

 Total Charge           Charge          ....    0
 Multiplicity           Mult            ....    1
 Number of Electrons    NEL             ....   42
 Basis Dimension        Dim             ....  175

ORBITAL ENERGIES
----------------

  NO   OCC          E(Eh)            E(eV)
   0   2.0000     -25.263812      -687.4633
   1   2.0000     -10.640923      -289.5542
   2   2.0000     -10.555691      -287.2349
   3   2.0000     -10.535299      -286.6801
   4   2.0000     -10.474679      -285.0305
   5   2.0000      -1.354694       -36.8631
   6   2.0000      -0.899305       -24.4713
   7   2.0000      -0.824905       -22.4468
   8   2.0000      -0.721228       -19.6256
   9   2.0000      -0.675141       -18.3715
  10   2.0000      -0.617930       -16.8147
  11   2.0000      -0.609918       -16.5967
  12   2.0000      -0.573775       -15.6132
  13   2.0000      -0.510804       -13.8997
  14   2.0000      -0.489450       -13.3186
  15   2.0000      -0.476604       -12.9690
  16   2.0000      -0.443986       -12.0815
  17   2.0000      -0.413642       -11.2558
  18   2.0000      -0.388111       -10.5610
  19   2.0000      -0.384260       -10.4562
  20   2.0000      -0.341009        -9.2793
  21   0.0000       0.038048         1.0353
  22   0.0000       0.063349         1.7238
  23   0.0000       0.065630         1.7859
  24   0.0000       0.073695         2.0053
  25   0.0000       0.105275         2.8647

MULLIKEN ATOMIC CHARGES
-----------------------
   0 C :   -0.258068
   1 C :    0.013045
   2 H :   -0.285263
   3 H :    0.007223
   4 C :    1.920532
   5 H :   -0.162858
   6 H :    0.032480
   7 C :    0.767351
   8 H :   -0.051767
   9 H :    0.029106
  10 F :   -0.685259
  11 H :   -0.138043
  12 H :   -0.068865
  13 H :   -1.119614
Sum of atomic charges:    0.0000000

LOEWDIN ATOMIC CHARGES
----------------------
   0 C :   -0.061903
   1 C :   -0.019309
   2 H :    0.017400
   3 H :    0.026373
   4 C :    0.150088
   5 H :    0.024948
   6 H :    0.031527
   7 C :    0.167990
   8 H :    0.034546
   9 H :    0.044116
  10 F :   -0.205873
  11 H :   -0.029874
  12 H :   -0.021877
  13 H :   -0.158152

  Mayer bond orders larger than 0.100000
B(  0-C ,  1-C ) :   1.1035 B(  0-C ,  2-H ) :   1.0774 B(  0-C ,  3-H ) :   0.8708
B(  0-C ,  4-C ) :   0.9612 B(  0-C , 11-H ) :   0.1682 B(  0-C , 12-H ) :   0.2436
B(  0-C , 13-H ) :   0.4740 B(  1-C ,  5-H ) :   0.9875 B(  1-C ,  6-H ) :   0.8848
B(  1-C ,  7-C ) :   1.2089 B(  1-C ,  8-H ) :   0.1109 B(  1-C ,  9-H ) :   0.1103
B(  1-C , 10-F ) :   0.1150 B(  1-C , 13-H ) :  -0.1073 B(  2-H ,  3-H ) :  -0.1179
B(  4-C , 10-F ) :  -0.2023 B(  4-C , 11-H ) :   0.5510 B(  4-C , 12-H ) :   0.3061
B(  4-C , 13-H ) :  -0.5273 B(  7-C ,  8-H ) :   0.8924 B(  7-C ,  9-H ) :   0.8889
B(  7-C , 10-F ) :   0.6292 B( 10-F , 13-H ) :   0.3154 B( 11-H , 12-H ) :  -0.1511
B( 11-H , 13-H ) :   0.2065 B( 12-H , 13-H ) :   0.4800

Dispersion correction           -0.000156662
FINAL SINGLE POINT ENERGY      -257.316268559854

DIPOLE MOMENT
-------------
                                X             Y             Z
Electronic contribution:      0.90842      -4.18490      -3.73153
Nuclear contribution   :     -0.20666       4.43855       3.76066
                        -----------------------------------------
Total Dipole Moment    :      0.70175       0.25365       0.02913
                        -----------------------------------------
Magnitude (a.u.)       :      0.74675
Magnitude (Debye)      :      1.89810

Rotational constants in cm-1:     0.236353     0.155239     0.105045
Rotational constants in MHz :  7085.692869  4653.957069  3149.180346

                             ****ORCA TERMINATED NORMALLY****
TOTAL RUN TIME: 0 days 0 hours 0 minutes 22 seconds 929 msec
