                         Program Version 5.0.0 -  RELEASE  -
|  1> !wB97X-D3 RIJCOSX def2-SVP def2/J TightSCF
|  2> *xyz -1 1
|  3> C          4.90646       -3.10282       -5.95484
|  4> C          3.51177       -2.80621       -6.49228
|  5> H          2.73604       -3.37345       -5.97374
|  6> H          3.44490       -3.04083       -7.55528
|  7> S          3.00462       -1.09621       -6.38926
|  8> O          4.12886       -0.32965       -6.95372
|  9> O          1.78128       -1.00078       -7.13640
| 10> C          5.02498       -3.02568       -4.43762
| 11> H          5.20153       -4.10021       -6.29691
| 12> H          5.60592       -2.39782       -6.41337
| 13> O          2.85155       -0.78368       -4.95679
| 14> H          4.73604       -2.05011       -4.10644
| 15> H          6.03776       -3.21492       -4.14890
| 16> H          4.38436       -3.75784       -3.99214
| 17> *
| 18>
| 19> %MaxCore 64000
| 20>
| 21> %pal nprocs 8
| 22> end
| 23>
| 24> %scf
| 25>   MaxIter 150
| 26> end
| 27>
| 28>
| 29>                          ****END OF INPUT****

CARTESIAN COORDINATES (ANGSTROEM)
---------------------------------
  C      4.906460   -3.102820   -5.954840
  C      3.511770   -2.806210   -6.492280
  H      2.736040   -3.373450   -5.973740
  H      3.444900   -3.040830   -7.555280
  S      3.004620   -1.096210   -6.389260
  O      4.128860   -0.329650   -6.953720
  O      1.781280   -1.000780   -7.136400
  C      5.024980   -3.025680   -4.437620
  H      5.201530   -4.100210   -6.296910
  H      5.605920   -2.397820   -6.413370
  O      2.851550   -0.783680   -4.956790
  H      4.736040   -2.050110   -4.106440
  H      6.037760   -3.214920   -4.148900
  H      4.384360   -3.757840   -3.992140

 Total Charge           Charge          ....   -1
 Multiplicity           Mult            ....    1
 Number of Electrons    NEL             ....   66
 Basis Dimension        Dim             ....  137

ORBITAL ENERGIES
----------------

  NO   OCC          E(Eh)            E(eV)
   0   2.0000     -88.941942     -2420.2333
   1   2.0000     -18.997219      -516.9406
   2   2.0000     -18.985422      -516.6196
   3   2.0000     -18.984544      -516.5957
   4   2.0000     -10.151723      -276.2424
   5   2.0000     -10.140021      -275.9240
   6   2.0000     -10.137262      -275.8489
   7   2.0000      -8.022699      -218.3087
   8   2.0000      -5.981620      -162.7682
   9   2.0000      -5.981608      -162.7678
  10   2.0000      -5.981398      -162.7621
  11   2.0000      -1.023090       -27.8397
  12   2.0000      -0.877555       -23.8795
  13   2.0000      -0.856438       -23.3049
  14   2.0000      -0.763243       -20.7689
  15   2.0000      -0.670244       -18.2383
  16   2.0000      -0.570498       -15.5240
  17   2.0000      -0.473112       -12.8740
  18   2.0000      -0.422395       -11.4939
  19   2.0000      -0.416340       -11.3292
  20   2.0000      -0.381444       -10.3796
  21   2.0000      -0.369300       -10.0492
  22   2.0000      -0.342776        -9.3274
  23   2.0000      -0.334845        -9.1116
  24   2.0000      -0.311473        -8.4756
  25   2.0000      -0.301185        -8.1957
  26   2.0000      -0.290720        -7.9109
  27   2.0000      -0.223505        -6.0819
  28   2.0000      -0.222337        -6.0501
  29   2.0000      -0.186736        -5.0813
  30   2.0000      -0.177138        -4.8202
  31   2.0000      -0.171961        -4.6793
  32   2.0000      -0.133283        -3.6268
  33   0.0000       0.273370         7.4388
  34   0.0000       0.319439         8.6924
  35   0.0000       0.321818         8.7571
  36   0.0000       0.348021         9.4701
  37   0.0000       0.360390         9.8067

MULLIKEN ATOMIC CHARGES
-----------------------
   0 C :   -0.059136
   1 C :   -0.097892
   2 H :    0.013620
   3 H :    0.019485
   4 S :    0.882789
   5 O :   -0.609653
   6 O :   -0.569261
   7 C :   -0.008616
   8 H :   -0.019101
   9 H :    0.027673
  10 O :   -0.603006
  11 H :    0.054195
  12 H :   -0.018973
  13 H :   -0.012125
Sum of atomic charges:   -1.0000000

LOEWDIN ATOMIC CHARGES
----------------------
   0 C :   -0.058332
   1 C :   -0.185011
   2 H :    0.009516
   3 H :    0.012747
   4 S :    1.109648
   5 O :   -0.643134
   6 O :   -0.604548
   7 C :   -0.063978
   8 H :    0.003121
   9 H :    0.021241
  10 O :   -0.638883
  11 H :    0.026275
  12 H :    0.003404
  13 H :    0.007935

  Mayer bond orders larger than 0.100000
B(  0-C ,  1-C ) :   1.0352 B(  0-C ,  7-C ) :   1.0850 B(  0-C ,  8-H ) :   0.9529
B(  0-C ,  9-H ) :   0.9449 B(  1-C ,  2-H ) :   0.9418 B(  1-C ,  3-H ) :   0.9431
B(  1-C ,  4-S ) :   0.9028 B(  4-S ,  5-O ) :   1.5899 B(  4-S ,  6-O ) :   1.6508
B(  4-S , 10-O ) :   1.5768 B(  7-C , 11-H ) :   0.9599 B(  7-C , 12-H ) :   0.9693
B(  7-C , 13-H ) :   0.9722

Dispersion correction           -0.004525158
FINAL SINGLE POINT ENERGY      -741.917927623158

DIPOLE MOMENT
-------------
                                X             Y             Z
Electronic contribution:     -6.28832       8.03118      -3.71766
Nuclear contribution   :      7.19636      -9.97366       3.94889
                        -----------------------------------------
Total Dipole Moment    :      0.90804      -1.94248       0.23123
                        -----------------------------------------
Magnitude (a.u.)       :      2.15667
Magnitude (Debye)      :      5.48183

Rotational constants in cm-1:     0.137066     0.054570     0.051980
Rotational constants in MHz :  4109.139955  1635.961703  1558.315282

                             ****ORCA TERMINATED NORMALLY****
TOTAL RUN TIME: 0 days 0 hours 0 minutes 12 seconds 656 msec
