                         Program Version 5.0.0 -  RELEASE  -
|  1> !wB97X-D3 RIJCOSX def2-SVP def2/J TightSCF
|  2> *xyz 1 1
|  3> C          4.49059        1.15590       -2.46929
|  4> N          4.30539        1.22276       -3.90832
|  5> C          4.63192        2.24637       -4.67096
|  6> N          4.54169        2.14399       -5.98714
|  7> N          5.08409        3.39358       -4.11855
|  8> H          4.92067        3.57050       -3.13587
|  9> H          5.25465        4.19739       -4.70696
| 10> H          3.82453        0.44911       -4.35093
| 11> H          4.34337        1.24932       -6.41665
| 12> H          4.67671        2.95662       -6.57411
| 13> C          5.94213        0.93950       -2.03689
| 14> H          3.86431        0.32853       -2.13661
| 15> H          4.07623        2.04999       -1.98901
| 16> C          6.55996       -0.35629       -2.55909
| 17> H          5.96798        0.95257       -0.94244
| 18> H          6.54718        1.78833       -2.36885
| 19> H          6.53022       -0.35990       -3.62867
| 20> H          6.00654       -1.19175       -2.18407
| 21> H          7.57588       -0.42487       -2.23029
| 22> *
| 23>
| 24> %MaxCore 64000
| 25>
| 26> %pal nprocs 8
| 27> end
| 28>
| 29> %scf
| 30>   MaxIter 150
| 31> end
| 32>
| 33>
| 34>                          ****END OF INPUT****

CARTESIAN COORDINATES (ANGSTROEM)
---------------------------------
  C      4.490590    1.155900   -2.469290
  N      4.305390    1.222760   -3.908320
  C      4.631920    2.246370   -4.670960
  N      4.541690    2.143990   -5.987140
  N      5.084090    3.393580   -4.118550
  H      4.920670    3.570500   -3.135870
  H      5.254650    4.197390   -4.706960
  H      3.824530    0.449110   -4.350930
  H      4.343370    1.249320   -6.416650
  H      4.676710    2.956620   -6.574110
  C      5.942130    0.939500   -2.036890
  H      3.864310    0.328530   -2.136610
  H      4.076230    2.049990   -1.989010
  C      6.559960   -0.356290   -2.559090
  H      5.967980    0.952570   -0.942440
  H      6.547180    1.788330   -2.368850
  H      6.530220   -0.359900   -3.628670
  H      6.006540   -1.191750   -2.184070
  H      7.575880   -0.424870   -2.230290

 Total Charge           Charge          ....    1
 Multiplicity           Mult            ....    1
 Number of Electrons    NEL             ....   56
 Basis Dimension        Dim             ....  158

ORBITAL ENERGIES
----------------

  NO   OCC          E(Eh)            E(eV)
   0   2.0000     -14.658847      -398.8875
   1   2.0000     -14.657140      -398.8411
   2   2.0000     -14.655113      -398.7859
   3   2.0000     -10.625600      -289.1373
   4   2.0000     -10.490738      -285.4675
   5   2.0000     -10.427408      -283.7442
   6   2.0000     -10.398229      -282.9502
   7   2.0000      -1.325320       -36.0638
   8   2.0000      -1.212414       -32.9915
   9   2.0000      -1.195541       -32.5323
  10   2.0000      -1.047144       -28.4942
  11   2.0000      -0.970316       -26.4037
  12   2.0000      -0.926239       -25.2042
  13   2.0000      -0.891552       -24.2604
  14   2.0000      -0.868295       -23.6275
  15   2.0000      -0.825766       -22.4702
  16   2.0000      -0.790839       -21.5198
  17   2.0000      -0.786385       -21.3986
  18   2.0000      -0.760749       -20.7010
  19   2.0000      -0.726765       -19.7763
  20   2.0000      -0.696649       -18.9568
  21   2.0000      -0.674058       -18.3421
  22   2.0000      -0.642922       -17.4948
  23   2.0000      -0.596625       -16.2350
  24   2.0000      -0.578078       -15.7303
  25   2.0000      -0.576606       -15.6902
  26   2.0000      -0.561773       -15.2866
  27   2.0000      -0.535503       -14.5718
  28   0.0000      -0.073054        -1.9879
  29   0.0000      -0.048178        -1.3110
  30   0.0000      -0.013915        -0.3786
  31   0.0000      -0.005154        -0.1403
  32   0.0000       0.013717         0.3733

MULLIKEN ATOMIC CHARGES
-----------------------
   0 C :    0.021442
   1 N :   -0.162223
   2 C :    0.108040
   3 N :   -0.060040
   4 N :   -0.092617
   5 H :    0.182557
   6 H :    0.178866
   7 H :    0.180140
   8 H :    0.184958
   9 H :    0.185214
  10 C :   -0.100112
  11 H :    0.077704
  12 H :    0.071862
  13 C :   -0.028157
  14 H :    0.078096
  15 H :    0.038169
  16 H :    0.017035
  17 H :    0.046782
  18 H :    0.072283
Sum of atomic charges:    1.0000000

LOEWDIN ATOMIC CHARGES
----------------------
   0 C :    0.035845
   1 N :    0.026881
   2 C :    0.160426
   3 N :    0.043018
   4 N :    0.030488
   5 H :    0.107991
   6 H :    0.110795
   7 H :    0.110440
   8 H :    0.114567
   9 H :    0.114177
  10 C :   -0.050854
  11 H :    0.049587
  12 H :    0.033009
  13 C :   -0.048901
  14 H :    0.047532
  15 H :    0.024276
  16 H :    0.016295
  17 H :    0.031129
  18 H :    0.043297

  Mayer bond orders larger than 0.100000
B(  0-C ,  1-N ) :   0.9211 B(  0-C , 10-C ) :   1.0541 B(  0-C , 11-H ) :   0.9494
B(  0-C , 12-H ) :   0.9602 B(  1-N ,  2-C ) :   1.3781 B(  1-N ,  7-H ) :   0.9123
B(  2-C ,  3-N ) :   1.4046 B(  2-C ,  4-N ) :   1.3733 B(  3-N ,  8-H ) :   0.9228
B(  3-N ,  9-H ) :   0.9244 B(  4-N ,  5-H ) :   0.9199 B(  4-N ,  6-H ) :   0.9268
B( 10-C , 13-C ) :   1.0713 B( 10-C , 14-H ) :   0.9484 B( 10-C , 15-H ) :   0.9510
B( 13-C , 16-H ) :   0.9767 B( 13-C , 17-H ) :   0.9785 B( 13-C , 18-H ) :   0.9715

Dispersion correction           -0.005393084
FINAL SINGLE POINT ENERGY      -323.398756611047

DIPOLE MOMENT
-------------
                                X             Y             Z
Electronic contribution:     -3.31083       3.84739      -4.92570
Nuclear contribution   :      2.46011      -2.82418       3.51638
                        -----------------------------------------
Total Dipole Moment    :     -0.85072       1.02321      -1.40933
                        -----------------------------------------
Magnitude (a.u.)       :      1.93827
Magnitude (Debye)      :      4.92669

Rotational constants in cm-1:     0.152406     0.050160     0.046480
Rotational constants in MHz :  4569.006375  1503.763011  1393.441650

                             ****ORCA TERMINATED NORMALLY****
TOTAL RUN TIME: 0 days 0 hours 0 minutes 17 seconds 217 msec
