                         Program Version 5.0.0 -  RELEASE  -
|  1> !wB97X-D3 RIJCOSX def2-SVP def2/J TightSCF
|  2> *xyz 0 1
|  3> C          4.90646       -3.10282       -5.95484
|  4> C          3.51177       -2.80621       -6.49228
|  5> H          2.73604       -3.37345       -5.97374
|  6> H          3.44490       -3.04083       -7.55528
|  7> S          3.00462       -1.09621       -6.38926
|  8> F          4.12886       -0.32965       -6.95372
|  9> O          1.78128       -1.00078       -7.13640
| 10> C          5.02498       -3.02568       -4.43762
| 11> H          5.20153       -4.10021       -6.29691
| 12> H          5.60592       -2.39782       -6.41337
| 13> O          2.85155       -0.78368       -4.95679
| 14> H          4.73604       -2.05011       -4.10644
| 15> H          6.03776       -3.21492       -4.14890
| 16> H          4.38436       -3.75784       -3.99214
| 17> *
| 18>
| 19> %MaxCore 64000
| 20>
| 21> %pal nprocs 8
| 22> end
| 23>
| 24> %scf
| 25>   MaxIter 150
| 26> end
| 27>
| 28>
| 29>                          ****END OF INPUT****

CARTESIAN COORDINATES (ANGSTROEM)
---------------------------------
  C      4.906460   -3.102820   -5.954840
  C      3.511770   -2.806210   -6.492280
  H      2.736040   -3.373450   -5.973740
  H      3.444900   -3.040830   -7.555280
  S      3.004620   -1.096210   -6.389260
  F      4.128860   -0.329650   -6.953720
  O      1.781280   -1.000780   -7.136400
  C      5.024980   -3.025680   -4.437620
  H      5.201530   -4.100210   -6.296910
  H      5.605920   -2.397820   -6.413370
  O      2.851550   -0.783680   -4.956790
  H      4.736040   -2.050110   -4.106440
  H      6.037760   -3.214920   -4.148900
  H      4.384360   -3.757840   -3.992140

 Total Charge           Charge          ....    0
 Multiplicity           Mult            ....    1
 Number of Electrons    NEL             ....   66
 Basis Dimension        Dim             ....  137

ORBITAL ENERGIES
----------------

  NO   OCC          E(Eh)            E(eV)
   0   2.0000     -89.212116     -2427.5851
   1   2.0000     -24.893647      -677.3906
   2   2.0000     -19.245865      -523.7066
   3   2.0000     -19.233950      -523.3824
   4   2.0000     -10.348009      -281.5837
   5   2.0000     -10.321011      -280.8490
   6   2.0000     -10.285002      -279.8691
   7   2.0000      -8.295098      -225.7211
   8   2.0000      -6.258212      -170.2946
   9   2.0000      -6.251725      -170.1181
  10   2.0000      -6.250477      -170.0841
  11   2.0000      -1.462735       -39.8031
  12   2.0000      -1.221236       -33.2315
  13   2.0000      -1.116121       -30.3712
  14   2.0000      -0.950478       -25.8638
  15   2.0000      -0.862092       -23.4587
  16   2.0000      -0.804660       -21.8959
  17   2.0000      -0.741163       -20.1681
  18   2.0000      -0.688638       -18.7388
  19   2.0000      -0.671069       -18.2607
  20   2.0000      -0.641109       -17.4455
  21   2.0000      -0.592523       -16.1234
  22   2.0000      -0.587001       -15.9731
  23   2.0000      -0.557400       -15.1676
  24   2.0000      -0.536078       -14.5874
  25   2.0000      -0.533594       -14.5198
  26   2.0000      -0.483004       -13.1432
  27   2.0000      -0.477229       -12.9860
  28   2.0000      -0.471798       -12.8383
  29   2.0000      -0.458915       -12.4877
  30   2.0000      -0.423625       -11.5274
  31   2.0000      -0.409129       -11.1330
  32   2.0000      -0.396296       -10.7838
  33   0.0000       0.110892         3.0175
  34   0.0000       0.137560         3.7432
  35   0.0000       0.167881         4.5683
  36   0.0000       0.171054         4.6546
  37   0.0000       0.177445         4.8285

MULLIKEN ATOMIC CHARGES
-----------------------
   0 C :   -0.110762
   1 C :   -0.132443
   2 H :    0.106454
   3 H :    0.086676
   4 S :    0.965253
   5 F :   -0.205192
   6 O :   -0.432857
   7 C :   -0.021413
   8 H :    0.054148
   9 H :    0.043785
  10 O :   -0.472212
  11 H :    0.052186
  12 H :    0.036534
  13 H :    0.029845
Sum of atomic charges:    0.0000000

LOEWDIN ATOMIC CHARGES
----------------------
   0 C :   -0.058994
   1 C :   -0.147605
   2 H :    0.053675
   3 H :    0.039442
   4 S :    1.174092
   5 F :   -0.147840
   6 O :   -0.479205
   7 C :   -0.056280
   8 H :    0.036476
   9 H :    0.025534
  10 O :   -0.516072
  11 H :    0.024430
  12 H :    0.027267
  13 H :    0.025079

  Mayer bond orders larger than 0.100000
B(  0-C ,  1-C ) :   1.0192 B(  0-C ,  7-C ) :   1.0754 B(  0-C ,  8-H ) :   0.9499
B(  0-C ,  9-H ) :   0.9565 B(  1-C ,  2-H ) :   0.9336 B(  1-C ,  3-H ) :   0.9359
B(  1-C ,  4-S ) :   0.9284 B(  4-S ,  5-F ) :   0.9817 B(  4-S ,  6-O ) :   1.8008
B(  4-S , 10-O ) :   1.7396 B(  7-C , 11-H ) :   0.9678 B(  7-C , 12-H ) :   0.9713
B(  7-C , 13-H ) :   0.9748

Dispersion correction           -0.004478853
FINAL SINGLE POINT ENERGY      -766.427676289616

DIPOLE MOMENT
-------------
                                X             Y             Z
Electronic contribution:     -5.33117      10.24622      -5.34690
Nuclear contribution   :      6.51452     -11.35172       4.86721
                        -----------------------------------------
Total Dipole Moment    :      1.18335      -1.10550      -0.47969
                        -----------------------------------------
Magnitude (a.u.)       :      1.68895
Magnitude (Debye)      :      4.29296

Rotational constants in cm-1:     0.130386     0.053203     0.051661
Rotational constants in MHz :  3908.886819  1594.983443  1548.763987

                             ****ORCA TERMINATED NORMALLY****
TOTAL RUN TIME: 0 days 0 hours 0 minutes 13 seconds 159 msec
