                         Program Version 5.0.0 -  RELEASE  -
|  1> !wB97X-D3 RIJCOSX def2-SVP def2/J TightSCF
|  2> *xyz 0 1
|  3> C          4.49059        1.15590       -2.46929
|  4> C          4.30539        1.22276       -3.90832
|  5> C          4.63192        2.24637       -4.67096
|  6> N          4.54169        2.14399       -5.98714
|  7> N          5.08409        3.39358       -4.11855
|  8> H          4.92067        3.57050       -3.13587
|  9> H          5.25465        4.19739       -4.70696
| 10> H          3.82453        0.44911       -4.35093
| 11> H          4.34337        1.24932       -6.41665
| 12> H          4.67671        2.95662       -6.57411
| 13> C          5.94213        0.93950       -2.03689
| 14> H          3.86431        0.32853       -2.13661
| 15> H          4.07623        2.04999       -1.98901
| 16> C          6.55996       -0.35629       -2.55909
| 17> H          5.96798        0.95257       -0.94244
| 18> H          6.54718        1.78833       -2.36885
| 19> H          6.53022       -0.35990       -3.62867
| 20> H          6.00654       -1.19175       -2.18407
| 21> H          7.57588       -0.42487       -2.23029
| 22> *
| 23>
| 24> %MaxCore 64000
| 25>
| 26> %pal nprocs 8
| 27> end
| 28>
| 29> %scf
| 30>   MaxIter 150
| 31> end
| 32>
| 33>
| 34>                          ****END OF INPUT****

CARTESIAN COORDINATES (ANGSTROEM)
---------------------------------
  C      4.490590    1.155900   -2.469290
  C      4.305390    1.222760   -3.908320
  C      4.631920    2.246370   -4.670960
  N      4.541690    2.143990   -5.987140
  N      5.084090    3.393580   -4.118550
  H      4.920670    3.570500   -3.135870
  H      5.254650    4.197390   -4.706960
  H      3.824530    0.449110   -4.350930
  H      4.343370    1.249320   -6.416650
  H      4.676710    2.956620   -6.574110
  C      5.942130    0.939500   -2.036890
  H      3.864310    0.328530   -2.136610
  H      4.076230    2.049990   -1.989010
  C      6.559960   -0.356290   -2.559090
  H      5.967980    0.952570   -0.942440
  H      6.547180    1.788330   -2.368850
  H      6.530220   -0.359900   -3.628670
  H      6.006540   -1.191750   -2.184070
  H      7.575880   -0.424870   -2.230290

 Total Charge           Charge          ....    0
 Multiplicity           Mult            ....    1
 Number of Electrons    NEL             ....   56
 Basis Dimension        Dim             ....  158

ORBITAL ENERGIES
----------------

  NO   OCC          E(Eh)            E(eV)
   0   2.0000     -14.430160      -392.6646
   1   2.0000     -14.428290      -392.6137
   2   2.0000     -10.327278      -281.0195
   3   2.0000     -10.258234      -279.1407
   4   2.0000     -10.255731      -279.0726
   5   2.0000     -10.249551      -278.9045
   6   2.0000     -10.198821      -277.5240
   7   2.0000      -1.062398       -28.9093
   8   2.0000      -0.969366       -26.3778
   9   2.0000      -0.887631       -24.1537
  10   2.0000      -0.822441       -22.3797
  11   2.0000      -0.758378       -20.6365
  12   2.0000      -0.693865       -18.8810
  13   2.0000      -0.667029       -18.1508
  14   2.0000      -0.638221       -17.3669
  15   2.0000      -0.599445       -16.3117
  16   2.0000      -0.568242       -15.4626
  17   2.0000      -0.537310       -14.6209
  18   2.0000      -0.527230       -14.3466
  19   2.0000      -0.506175       -13.7737
  20   2.0000      -0.481462       -13.1012
  21   2.0000      -0.458505       -12.4765
  22   2.0000      -0.448579       -12.2065
  23   2.0000      -0.417428       -11.3588
  24   2.0000      -0.398638       -10.8475
  25   2.0000      -0.395552       -10.7635
  26   2.0000      -0.351918        -9.5762
  27   2.0000      -0.237346        -6.4585
  28   0.0000       0.131801         3.5865
  29   0.0000       0.158450         4.3116
  30   0.0000       0.170673         4.6442
  31   0.0000       0.184835         5.0296
  32   0.0000       0.193619         5.2686

MULLIKEN ATOMIC CHARGES
-----------------------
   0 C :    0.041399
   1 C :   -0.233955
   2 C :    0.018379
   3 N :   -0.098517
   4 N :   -0.130602
   5 H :    0.132579
   6 H :    0.111787
   7 H :   -0.078132
   8 H :    0.132903
   9 H :    0.111349
  10 C :   -0.049292
  11 H :   -0.000466
  12 H :   -0.009332
  13 C :   -0.010564
  14 H :    0.005276
  15 H :    0.005872
  16 H :    0.024653
  17 H :    0.010614
  18 H :    0.016053
Sum of atomic charges:   -0.0000000

LOEWDIN ATOMIC CHARGES
----------------------
   0 C :   -0.043182
   1 C :   -0.229109
   2 C :    0.037617
   3 N :   -0.027605
   4 N :   -0.036504
   5 H :    0.079009
   6 H :    0.066445
   7 H :   -0.008988
   8 H :    0.085802
   9 H :    0.066601
  10 C :   -0.045197
  11 H :    0.024887
  12 H :    0.006520
  13 C :   -0.055763
  14 H :    0.012051
  15 H :    0.012352
  16 H :    0.019526
  17 H :    0.016900
  18 H :    0.018638

  Mayer bond orders larger than 0.100000
B(  0-C ,  1-C ) :   1.0578 B(  0-C , 10-C ) :   1.0609 B(  0-C , 11-H ) :   0.9284
B(  0-C , 12-H ) :   0.9436 B(  1-C ,  2-C ) :   1.6834 B(  1-C ,  7-H ) :   0.9663
B(  2-C ,  3-N ) :   1.2422 B(  2-C ,  4-N ) :   1.2319 B(  3-N ,  8-H ) :   0.9412
B(  3-N ,  9-H ) :   0.9501 B(  4-N ,  5-H ) :   0.9359 B(  4-N ,  6-H ) :   0.9519
B( 10-C , 13-C ) :   1.0830 B( 10-C , 14-H ) :   0.9548 B( 10-C , 15-H ) :   0.9534
B( 13-C , 16-H ) :   0.9722 B( 13-C , 17-H ) :   0.9752 B( 13-C , 18-H ) :   0.9730

Dispersion correction           -0.005368181
FINAL SINGLE POINT ENERGY      -306.923521363592

DIPOLE MOMENT
-------------
                                X             Y             Z
Electronic contribution:     -2.31479       3.80366      -4.31247
Nuclear contribution   :      2.29046      -2.89565       3.47129
                        -----------------------------------------
Total Dipole Moment    :     -0.02433       0.90801      -0.84119
                        -----------------------------------------
Magnitude (a.u.)       :      1.23801
Magnitude (Debye)      :      3.14677

Rotational constants in cm-1:     0.154384     0.050352     0.046525
Rotational constants in MHz :  4628.320816  1509.522910  1394.780903

                             ****ORCA TERMINATED NORMALLY****
TOTAL RUN TIME: 0 days 0 hours 0 minutes 17 seconds 5 msec
