                         Program Version 5.0.0 -  RELEASE  -
|  1> !wB97X-D3 RIJCOSX def2-SVP def2/J TightSCF
|  2> *xyz 0 1
|  3> C          4.90646       -3.10282       -5.95484
|  4> C          3.51177       -2.80621       -6.49228
|  5> H          2.73604       -3.37345       -5.97374
|  6> H          3.44490       -3.04083       -7.55528
|  7> S          3.00462       -1.09621       -6.38926
|  8> O          4.12886       -0.32965       -6.95372
|  9> F          1.78128       -1.00078       -7.13640
| 10> C          5.02498       -3.02568       -4.43762
| 11> H          5.20153       -4.10021       -6.29691
| 12> H          5.60592       -2.39782       -6.41337
| 13> O          2.85155       -0.78368       -4.95679
| 14> H          4.73604       -2.05011       -4.10644
| 15> H          6.03776       -3.21492       -4.14890
| 16> H          4.38436       -3.75784       -3.99214
| 17> *
| 18>
| 19> %MaxCore 64000
| 20>
| 21> %pal nprocs 8
| 22> end
| 23>
| 24> %scf
| 25>   MaxIter 150
| 26> end
| 27>
| 28>
| 29>                          ****END OF INPUT****

CARTESIAN COORDINATES (ANGSTROEM)
---------------------------------
  C      4.906460   -3.102820   -5.954840
  C      3.511770   -2.806210   -6.492280
  H      2.736040   -3.373450   -5.973740
  H      3.444900   -3.040830   -7.555280
  S      3.004620   -1.096210   -6.389260
  O      4.128860   -0.329650   -6.953720
  F      1.781280   -1.000780   -7.136400
  C      5.024980   -3.025680   -4.437620
  H      5.201530   -4.100210   -6.296910
  H      5.605920   -2.397820   -6.413370
  O      2.851550   -0.783680   -4.956790
  H      4.736040   -2.050110   -4.106440
  H      6.037760   -3.214920   -4.148900
  H      4.384360   -3.757840   -3.992140

 Total Charge           Charge          ....    0
 Multiplicity           Mult            ....    1
 Number of Electrons    NEL             ....   66
 Basis Dimension        Dim             ....  137

ORBITAL ENERGIES
----------------

  NO   OCC          E(Eh)            E(eV)
   0   2.0000     -89.213351     -2427.6187
   1   2.0000     -24.912353      -677.8996
   2   2.0000     -19.233123      -523.3599
   3   2.0000     -19.232786      -523.3507
   4   2.0000     -10.348744      -281.6036
   5   2.0000     -10.315502      -280.6991
   6   2.0000     -10.279127      -279.7093
   7   2.0000      -8.296472      -225.7585
   8   2.0000      -6.259617      -170.3328
   9   2.0000      -6.252933      -170.1510
  10   2.0000      -6.251753      -170.1188
  11   2.0000      -1.494579       -40.6696
  12   2.0000      -1.207250       -32.8509
  13   2.0000      -1.101067       -29.9615
  14   2.0000      -0.945692       -25.7336
  15   2.0000      -0.867632       -23.6095
  16   2.0000      -0.813941       -22.1484
  17   2.0000      -0.741903       -20.1882
  18   2.0000      -0.694189       -18.8898
  19   2.0000      -0.685527       -18.6541
  20   2.0000      -0.655256       -17.8304
  21   2.0000      -0.592258       -16.1161
  22   2.0000      -0.584740       -15.9116
  23   2.0000      -0.550851       -14.9894
  24   2.0000      -0.535937       -14.5836
  25   2.0000      -0.519824       -14.1451
  26   2.0000      -0.476401       -12.9635
  27   2.0000      -0.467659       -12.7257
  28   2.0000      -0.463908       -12.6236
  29   2.0000      -0.452736       -12.3196
  30   2.0000      -0.412382       -11.2215
  31   2.0000      -0.404733       -11.0134
  32   2.0000      -0.385982       -10.5031
  33   0.0000       0.122245         3.3264
  34   0.0000       0.129169         3.5149
  35   0.0000       0.162343         4.4176
  36   0.0000       0.167959         4.5704
  37   0.0000       0.179138         4.8746

MULLIKEN ATOMIC CHARGES
-----------------------
   0 C :   -0.090972
   1 C :   -0.126953
   2 H :    0.078108
   3 H :    0.079327
   4 S :    0.958480
   5 O :   -0.474425
   6 F :   -0.166016
   7 C :   -0.027660
   8 H :    0.052048
   9 H :    0.067969
  10 O :   -0.472012
  11 H :    0.062776
  12 H :    0.036442
  13 H :    0.022887
Sum of atomic charges:    0.0000000

LOEWDIN ATOMIC CHARGES
----------------------
   0 C :   -0.044960
   1 C :   -0.150273
   2 H :    0.035617
   3 H :    0.036257
   4 S :    1.168447
   5 O :   -0.517144
   6 F :   -0.110999
   7 C :   -0.055040
   8 H :    0.036662
   9 H :    0.037564
  10 O :   -0.514891
  11 H :    0.029204
  12 H :    0.027854
  13 H :    0.021702

  Mayer bond orders larger than 0.100000
B(  0-C ,  1-C ) :   1.0399 B(  0-C ,  7-C ) :   1.0831 B(  0-C ,  8-H ) :   0.9510
B(  0-C ,  9-H ) :   0.9492 B(  1-C ,  2-H ) :   0.9295 B(  1-C ,  3-H ) :   0.9314
B(  1-C ,  4-S ) :   0.9252 B(  4-S ,  5-O ) :   1.7425 B(  4-S ,  6-F ) :   1.0332
B(  4-S , 10-O ) :   1.7364 B(  7-C , 11-H ) :   0.9700 B(  7-C , 12-H ) :   0.9714
B(  7-C , 13-H ) :   0.9742

Dispersion correction           -0.004510354
FINAL SINGLE POINT ENERGY      -766.411117683932

DIPOLE MOMENT
-------------
                                X             Y             Z
Electronic contribution:     -9.40162       9.11269      -5.67454
Nuclear contribution   :      9.03920     -10.62996       5.06367
                        -----------------------------------------
Total Dipole Moment    :     -0.36242      -1.51727      -0.61087
                        -----------------------------------------
Magnitude (a.u.)       :      1.67530
Magnitude (Debye)      :      4.25827

Rotational constants in cm-1:     0.135071     0.052485     0.050188
Rotational constants in MHz :  4049.321380  1573.451279  1504.609887

                             ****ORCA TERMINATED NORMALLY****
TOTAL RUN TIME: 0 days 0 hours 0 minutes 13 seconds 289 msec
