                         Program Version 5.0.0 -  RELEASE  -
|  1> !wB97X-D3 RIJCOSX def2-SVP def2/J TightSCF
|  2> *xyz 0 1
|  3> C          4.49059        1.15590       -2.46929
|  4> N          4.30539        1.22276       -3.90832
|  5> C          4.63192        2.24637       -4.67096
|  6> C          4.54169        2.14399       -5.98714
|  7> N          5.08409        3.39358       -4.11855
|  8> H          4.92067        3.57050       -3.13587
|  9> H          5.25465        4.19739       -4.70696
| 10> H          3.82453        0.44911       -4.35093
| 11> H          4.34337        1.24932       -6.41665
| 12> H          4.67671        2.95662       -6.57411
| 13> C          5.94213        0.93950       -2.03689
| 14> H          3.86431        0.32853       -2.13661
| 15> H          4.07623        2.04999       -1.98901
| 16> C          6.55996       -0.35629       -2.55909
| 17> H          5.96798        0.95257       -0.94244
| 18> H          6.54718        1.78833       -2.36885
| 19> H          6.53022       -0.35990       -3.62867
| 20> H          6.00654       -1.19175       -2.18407
| 21> H          7.57588       -0.42487       -2.23029
| 22> *
| 23>
| 24> %MaxCore 64000
| 25>
| 26> %pal nprocs 8
| 27> end
| 28>
| 29> %scf
| 30>   MaxIter 150
| 31> end
| 32>
| 33>
| 34>                          ****END OF INPUT****

CARTESIAN COORDINATES (ANGSTROEM)
---------------------------------
  C      4.490590    1.155900   -2.469290
  N      4.305390    1.222760   -3.908320
  C      4.631920    2.246370   -4.670960
  C      4.541690    2.143990   -5.987140
  N      5.084090    3.393580   -4.118550
  H      4.920670    3.570500   -3.135870
  H      5.254650    4.197390   -4.706960
  H      3.824530    0.449110   -4.350930
  H      4.343370    1.249320   -6.416650
  H      4.676710    2.956620   -6.574110
  C      5.942130    0.939500   -2.036890
  H      3.864310    0.328530   -2.136610
  H      4.076230    2.049990   -1.989010
  C      6.559960   -0.356290   -2.559090
  H      5.967980    0.952570   -0.942440
  H      6.547180    1.788330   -2.368850
  H      6.530220   -0.359900   -3.628670
  H      6.006540   -1.191750   -2.184070
  H      7.575880   -0.424870   -2.230290

 Total Charge           Charge          ....    0
 Multiplicity           Mult            ....    1
 Number of Electrons    NEL             ....   56
 Basis Dimension        Dim             ....  158

ORBITAL ENERGIES
----------------

  NO   OCC          E(Eh)            E(eV)
   0   2.0000     -14.429727      -392.6528
   1   2.0000     -14.428085      -392.6081
   2   2.0000     -10.329046      -281.0676
   3   2.0000     -10.325818      -280.9798
   4   2.0000     -10.284815      -279.8641
   5   2.0000     -10.271300      -279.4963
   6   2.0000     -10.192864      -277.3619
   7   2.0000      -1.072296       -29.1787
   8   2.0000      -0.982849       -26.7447
   9   2.0000      -0.894543       -24.3418
  10   2.0000      -0.828397       -22.5418
  11   2.0000      -0.771454       -20.9923
  12   2.0000      -0.713923       -19.4268
  13   2.0000      -0.684427       -18.6242
  14   2.0000      -0.629929       -17.1412
  15   2.0000      -0.597631       -16.2624
  16   2.0000      -0.574327       -15.6282
  17   2.0000      -0.559133       -15.2148
  18   2.0000      -0.535967       -14.5844
  19   2.0000      -0.499550       -13.5935
  20   2.0000      -0.489202       -13.3119
  21   2.0000      -0.482955       -13.1419
  22   2.0000      -0.460457       -12.5297
  23   2.0000      -0.441773       -12.0213
  24   2.0000      -0.437632       -11.9086
  25   2.0000      -0.429613       -11.6904
  26   2.0000      -0.341027        -9.2798
  27   2.0000      -0.242052        -6.5866
  28   0.0000       0.128939         3.5086
  29   0.0000       0.152397         4.1469
  30   0.0000       0.165629         4.5070
  31   0.0000       0.182554         4.9676
  32   0.0000       0.191953         5.2233

MULLIKEN ATOMIC CHARGES
-----------------------
   0 C :    0.061121
   1 N :   -0.185170
   2 C :    0.012673
   3 C :   -0.121925
   4 N :   -0.135468
   5 H :    0.114661
   6 H :    0.132069
   7 H :    0.135384
   8 H :   -0.047044
   9 H :   -0.047375
  10 C :   -0.067413
  11 H :    0.021071
  12 H :    0.022363
  13 C :   -0.026165
  14 H :    0.021882
  15 H :    0.025302
  16 H :    0.037241
  17 H :    0.014891
  18 H :    0.031901
Sum of atomic charges:    0.0000000

LOEWDIN ATOMIC CHARGES
----------------------
   0 C :    0.027725
   1 N :   -0.031947
   2 C :    0.045339
   3 C :   -0.259879
   4 N :   -0.035969
   5 H :    0.063602
   6 H :    0.084188
   7 H :    0.086711
   8 H :   -0.008182
   9 H :   -0.008359
  10 C :   -0.057549
  11 H :    0.025510
  12 H :    0.012306
  13 C :   -0.055457
  14 H :    0.022245
  15 H :    0.021138
  16 H :    0.024788
  17 H :    0.018236
  18 H :    0.025554

  Mayer bond orders larger than 0.100000
B(  0-C ,  1-N ) :   1.0156 B(  0-C , 10-C ) :   1.0487 B(  0-C , 11-H ) :   0.9562
B(  0-C , 12-H ) :   0.9581 B(  1-N ,  2-C ) :   1.1833 B(  1-N ,  7-H ) :   0.9321
B(  2-C ,  3-C ) :   1.7635 B(  2-C ,  4-N ) :   1.2023 B(  3-C ,  8-H ) :   0.9454
B(  3-C ,  9-H ) :   0.9468 B(  4-N ,  5-H ) :   0.9485 B(  4-N ,  6-H ) :   0.9451
B( 10-C , 13-C ) :   1.0756 B( 10-C , 14-H ) :   0.9505 B( 10-C , 15-H ) :   0.9473
B( 13-C , 16-H ) :   0.9756 B( 13-C , 17-H ) :   0.9776 B( 13-C , 18-H ) :   0.9742

Dispersion correction           -0.005437208
FINAL SINGLE POINT ENERGY      -306.917657058991

DIPOLE MOMENT
-------------
                                X             Y             Z
Electronic contribution:     -2.47156       2.78837      -1.97420
Nuclear contribution   :      2.34222      -2.69386       3.01591
                        -----------------------------------------
Total Dipole Moment    :     -0.12934       0.09452       1.04171
                        -----------------------------------------
Magnitude (a.u.)       :      1.05395
Magnitude (Debye)      :      2.67893

Rotational constants in cm-1:     0.155143     0.051710     0.048050
Rotational constants in MHz :  4651.080391  1550.217078  1440.507386

                             ****ORCA TERMINATED NORMALLY****
TOTAL RUN TIME: 0 days 0 hours 0 minutes 17 seconds 295 msec
