                         Program Version 5.0.0 -  RELEASE  -
|  1> !wB97X-D3 RIJCOSX def2-SVP def2/J TightSCF
|  2> *xyz 0 1
|  3> C          4.90646       -3.10282       -5.95484
|  4> C          3.51177       -2.80621       -6.49228
|  5> H          2.73604       -3.37345       -5.97374
|  6> H          3.44490       -3.04083       -7.55528
|  7> S          3.00462       -1.09621       -6.38926
|  8> O          4.12886       -0.32965       -6.95372
|  9> O          1.78128       -1.00078       -7.13640
| 10> C          5.02498       -3.02568       -4.43762
| 11> H          5.20153       -4.10021       -6.29691
| 12> H          5.60592       -2.39782       -6.41337
| 13> F          2.85155       -0.78368       -4.95679
| 14> H          4.73604       -2.05011       -4.10644
| 15> H          6.03776       -3.21492       -4.14890
| 16> H          4.38436       -3.75784       -3.99214
| 17> *
| 18>
| 19> %MaxCore 64000
| 20>
| 21> %pal nprocs 8
| 22> end
| 23>
| 24> %scf
| 25>   MaxIter 150
| 26> end
| 27>
| 28>
| 29>                          ****END OF INPUT****

CARTESIAN COORDINATES (ANGSTROEM)
---------------------------------
  C      4.906460   -3.102820   -5.954840
  C      3.511770   -2.806210   -6.492280
  H      2.736040   -3.373450   -5.973740
  H      3.444900   -3.040830   -7.555280
  S      3.004620   -1.096210   -6.389260
  O      4.128860   -0.329650   -6.953720
  O      1.781280   -1.000780   -7.136400
  C      5.024980   -3.025680   -4.437620
  H      5.201530   -4.100210   -6.296910
  H      5.605920   -2.397820   -6.413370
  F      2.851550   -0.783680   -4.956790
  H      4.736040   -2.050110   -4.106440
  H      6.037760   -3.214920   -4.148900
  H      4.384360   -3.757840   -3.992140

 Total Charge           Charge          ....    0
 Multiplicity           Mult            ....    1
 Number of Electrons    NEL             ....   66
 Basis Dimension        Dim             ....  137

ORBITAL ENERGIES
----------------

  NO   OCC          E(Eh)            E(eV)
   0   2.0000     -89.211231     -2427.5610
   1   2.0000     -24.892818      -677.3680
   2   2.0000     -19.245332      -523.6921
   3   2.0000     -19.233225      -523.3626
   4   2.0000     -10.347697      -281.5752
   5   2.0000     -10.317479      -280.7529
   6   2.0000     -10.295146      -280.1452
   7   2.0000      -8.294212      -225.6970
   8   2.0000      -6.257297      -170.2697
   9   2.0000      -6.250801      -170.0929
  10   2.0000      -6.249651      -170.0617
  11   2.0000      -1.461555       -39.7709
  12   2.0000      -1.220418       -33.2093
  13   2.0000      -1.116415       -30.3792
  14   2.0000      -0.949549       -25.8386
  15   2.0000      -0.863990       -23.5104
  16   2.0000      -0.806316       -21.9410
  17   2.0000      -0.745093       -20.2750
  18   2.0000      -0.681022       -18.5316
  19   2.0000      -0.669435       -18.2162
  20   2.0000      -0.647331       -17.6148
  21   2.0000      -0.591627       -16.0990
  22   2.0000      -0.584985       -15.9182
  23   2.0000      -0.561168       -15.2702
  24   2.0000      -0.546302       -14.8656
  25   2.0000      -0.528615       -14.3843
  26   2.0000      -0.489310       -13.3148
  27   2.0000      -0.479831       -13.0569
  28   2.0000      -0.462931       -12.5970
  29   2.0000      -0.459014       -12.4904
  30   2.0000      -0.422307       -11.4915
  31   2.0000      -0.412900       -11.2356
  32   2.0000      -0.398517       -10.8442
  33   0.0000       0.114010         3.1024
  34   0.0000       0.135946         3.6993
  35   0.0000       0.166026         4.5178
  36   0.0000       0.170143         4.6298
  37   0.0000       0.174961         4.7609

MULLIKEN ATOMIC CHARGES
-----------------------
   0 C :   -0.098701
   1 C :   -0.133970
   2 H :    0.077315
   3 H :    0.111508
   4 S :    0.962458
   5 O :   -0.477938
   6 O :   -0.434067
   7 C :   -0.035362
   8 H :    0.051479
   9 H :    0.069197
  10 F :   -0.202014
  11 H :    0.033211
  12 H :    0.046834
  13 H :    0.030050
Sum of atomic charges:    0.0000000

LOEWDIN ATOMIC CHARGES
----------------------
   0 C :   -0.056571
   1 C :   -0.148240
   2 H :    0.034609
   3 H :    0.056648
   4 S :    1.172405
   5 O :   -0.519739
   6 O :   -0.480478
   7 C :   -0.057953
   8 H :    0.036211
   9 H :    0.036182
  10 F :   -0.146367
  11 H :    0.017419
  12 H :    0.032458
  13 H :    0.023414

  Mayer bond orders larger than 0.100000
B(  0-C ,  1-C ) :   1.0228 B(  0-C ,  7-C ) :   1.0777 B(  0-C ,  8-H ) :   0.9480
B(  0-C ,  9-H ) :   0.9492 B(  1-C ,  2-H ) :   0.9341 B(  1-C ,  3-H ) :   0.9342
B(  1-C ,  4-S ) :   0.9238 B(  4-S ,  5-O ) :   1.7447 B(  4-S ,  6-O ) :   1.8013
B(  4-S , 10-F ) :   0.9786 B(  7-C , 11-H ) :   0.9764 B(  7-C , 12-H ) :   0.9720
B(  7-C , 13-H ) :   0.9750

Dispersion correction           -0.004480590
FINAL SINGLE POINT ENERGY      -766.428066425084

DIPOLE MOMENT
-------------
                                X             Y             Z
Electronic contribution:     -7.50974       9.43220      -1.88048
Nuclear contribution   :      7.88819     -10.86344       2.71963
                        -----------------------------------------
Total Dipole Moment    :      0.37845      -1.43124       0.83915
                        -----------------------------------------
Magnitude (a.u.)       :      1.70172
Magnitude (Debye)      :      4.32542

Rotational constants in cm-1:     0.130261     0.054435     0.050898
Rotational constants in MHz :  3905.114465  1631.935083  1525.880669

                             ****ORCA TERMINATED NORMALLY****
TOTAL RUN TIME: 0 days 0 hours 0 minutes 13 seconds 320 msec
