                         Program Version 5.0.0 -  RELEASE  -
|  1> !wB97X-D3 RIJCOSX def2-SVP def2/J TightSCF
|  2> *xyz 0 1
|  3> C          4.49059        1.15590       -2.46929
|  4> N          4.30539        1.22276       -3.90832
|  5> C          4.63192        2.24637       -4.67096
|  6> N          4.54169        2.14399       -5.98714
|  7> C          5.08409        3.39358       -4.11855
|  8> H          4.92067        3.57050       -3.13587
|  9> H          5.25465        4.19739       -4.70696
| 10> H          3.82453        0.44911       -4.35093
| 11> H          4.34337        1.24932       -6.41665
| 12> H          4.67671        2.95662       -6.57411
| 13> C          5.94213        0.93950       -2.03689
| 14> H          3.86431        0.32853       -2.13661
| 15> H          4.07623        2.04999       -1.98901
| 16> C          6.55996       -0.35629       -2.55909
| 17> H          5.96798        0.95257       -0.94244
| 18> H          6.54718        1.78833       -2.36885
| 19> H          6.53022       -0.35990       -3.62867
| 20> H          6.00654       -1.19175       -2.18407
| 21> H          7.57588       -0.42487       -2.23029
| 22> *
| 23>
| 24> %MaxCore 64000
| 25>
| 26> %pal nprocs 8
| 27> end
| 28>
| 29> %scf
| 30>   MaxIter 150
| 31> end
| 32>
| 33>
| 34>                          ****END OF INPUT****

CARTESIAN COORDINATES (ANGSTROEM)
---------------------------------
  C      4.490590    1.155900   -2.469290
  N      4.305390    1.222760   -3.908320
  C      4.631920    2.246370   -4.670960
  N      4.541690    2.143990   -5.987140
  C      5.084090    3.393580   -4.118550
  H      4.920670    3.570500   -3.135870
  H      5.254650    4.197390   -4.706960
  H      3.824530    0.449110   -4.350930
  H      4.343370    1.249320   -6.416650
  H      4.676710    2.956620   -6.574110
  C      5.942130    0.939500   -2.036890
  H      3.864310    0.328530   -2.136610
  H      4.076230    2.049990   -1.989010
  C      6.559960   -0.356290   -2.559090
  H      5.967980    0.952570   -0.942440
  H      6.547180    1.788330   -2.368850
  H      6.530220   -0.359900   -3.628670
  H      6.006540   -1.191750   -2.184070
  H      7.575880   -0.424870   -2.230290

 Total Charge           Charge          ....    0
 Multiplicity           Mult            ....    1
 Number of Electrons    NEL             ....   56
 Basis Dimension        Dim             ....  158

ORBITAL ENERGIES
----------------

  NO   OCC          E(Eh)            E(eV)
   0   2.0000     -14.433759      -392.7626
   1   2.0000     -14.431063      -392.6892
   2   2.0000     -10.332098      -281.1507
   3   2.0000     -10.316792      -280.7342
   4   2.0000     -10.273858      -279.5659
   5   2.0000     -10.266347      -279.3615
   6   2.0000     -10.191760      -277.3319
   7   2.0000      -1.076035       -29.2804
   8   2.0000      -0.990436       -26.9511
   9   2.0000      -0.881312       -23.9817
  10   2.0000      -0.811866       -22.0920
  11   2.0000      -0.790925       -21.5222
  12   2.0000      -0.707454       -19.2508
  13   2.0000      -0.653467       -17.7817
  14   2.0000      -0.648606       -17.6495
  15   2.0000      -0.617374       -16.7996
  16   2.0000      -0.571763       -15.5585
  17   2.0000      -0.547731       -14.9045
  18   2.0000      -0.524691       -14.2776
  19   2.0000      -0.495323       -13.4784
  20   2.0000      -0.486546       -13.2396
  21   2.0000      -0.477160       -12.9842
  22   2.0000      -0.457011       -12.4359
  23   2.0000      -0.438154       -11.9228
  24   2.0000      -0.429995       -11.7008
  25   2.0000      -0.420218       -11.4347
  26   2.0000      -0.337240        -9.1768
  27   2.0000      -0.241342        -6.5672
  28   0.0000       0.129770         3.5312
  29   0.0000       0.156691         4.2638
  30   0.0000       0.166800         4.5389
  31   0.0000       0.183891         5.0039
  32   0.0000       0.193983         5.2786

MULLIKEN ATOMIC CHARGES
-----------------------
   0 C :    0.089580
   1 N :   -0.202517
   2 C :    0.006838
   3 N :   -0.114636
   4 C :   -0.137838
   5 H :   -0.035103
   6 H :   -0.054380
   7 H :    0.112838
   8 H :    0.112036
   9 H :    0.138257
  10 C :   -0.065672
  11 H :    0.012373
  12 H :    0.038804
  13 C :   -0.025753
  14 H :    0.021093
  15 H :    0.041925
  16 H :    0.021238
  17 H :    0.010163
  18 H :    0.030755
Sum of atomic charges:   -0.0000000

LOEWDIN ATOMIC CHARGES
----------------------
   0 C :    0.041920
   1 N :   -0.031001
   2 C :    0.043860
   3 N :   -0.024741
   4 C :   -0.276757
   5 H :   -0.009059
   6 H :   -0.011280
   7 H :    0.068108
   8 H :    0.066798
   9 H :    0.087040
  10 C :   -0.052220
  11 H :    0.020550
  12 H :    0.022940
  13 C :   -0.057726
  14 H :    0.022774
  15 H :    0.029785
  16 H :    0.018222
  17 H :    0.015807
  18 H :    0.024980

  Mayer bond orders larger than 0.100000
B(  0-C ,  1-N ) :   1.0014 B(  0-C , 10-C ) :   1.0640 B(  0-C , 11-H ) :   0.9586
B(  0-C , 12-H ) :   0.9504 B(  1-N ,  2-C ) :   1.1741 B(  1-N ,  7-H ) :   0.9397
B(  2-C ,  3-N ) :   1.2344 B(  2-C ,  4-C ) :   1.7276 B(  3-N ,  8-H ) :   0.9525
B(  3-N ,  9-H ) :   0.9429 B(  4-C ,  5-H ) :   0.9409 B(  4-C ,  6-H ) :   0.9505
B( 10-C , 13-C ) :   1.0747 B( 10-C , 14-H ) :   0.9525 B( 10-C , 15-H ) :   0.9452
B( 13-C , 16-H ) :   0.9756 B( 13-C , 17-H ) :   0.9772 B( 13-C , 18-H ) :   0.9746

Dispersion correction           -0.005377382
FINAL SINGLE POINT ENERGY      -306.915845386073

DIPOLE MOMENT
-------------
                                X             Y             Z
Electronic contribution:     -2.99133       1.48720      -3.99333
Nuclear contribution   :      2.46104      -2.42013       3.42523
                        -----------------------------------------
Total Dipole Moment    :     -0.53029      -0.93293      -0.56809
                        -----------------------------------------
Magnitude (a.u.)       :      1.21421
Magnitude (Debye)      :      3.08627

Rotational constants in cm-1:     0.157414     0.050835     0.047338
Rotational constants in MHz :  4719.163414  1524.007825  1419.164399

                             ****ORCA TERMINATED NORMALLY****
TOTAL RUN TIME: 0 days 0 hours 0 minutes 16 seconds 813 msec
