                         Program Version 5.0.0 -  RELEASE  -
|  1> !wB97X-D3 RIJCOSX def2-SVP def2/J TightSCF xyzfile
|  2>
|  3> *xyzfile 0 1 D1.xyz
|  4>
|  5> %MaxCore 64000
|  6>
|  7> %pal nprocs 18
|  8> end
|  9>
| 10> %scf
| 11>   MaxIter 150
| 12> end
| 13>
| 14>
| 15>                          ****END OF INPUT****

CARTESIAN COORDINATES (ANGSTROEM)
---------------------------------
  C      4.490588    1.155899   -2.469290
  C      4.305394    1.222762   -3.908317
  C      4.906458   -3.102816   -5.954844
  C      3.511771   -2.806215   -6.492283
  H      2.736044   -3.373445   -5.973736
  H      3.444904   -3.040831   -7.555281
  S      3.004618   -1.096206   -6.389259
  C      4.631918    2.246365   -4.670958
  N      4.541686    2.143990   -5.987139
  N      5.084086    3.393584   -4.118545
  H      4.920675    3.570501   -3.135870
  H      5.254652    4.197390   -4.706956
  H      3.824530    0.449113   -4.350926
  H      4.343373    1.249318   -6.416646
  H      4.676712    2.956624   -6.574113
  F      4.128856   -0.329647   -6.953717
  O      1.781285   -1.000779   -7.136399
  C      5.942129    0.939500   -2.036893
  H      3.864305    0.328532   -2.136611
  H      4.076233    2.049994   -1.989010
  C      6.462677   -3.117775   -3.944671
  C      5.024977   -3.025679   -4.437625
  H      4.423321   -3.818693   -3.977648
  H      4.579350   -2.087131   -4.108727
  H      5.201533   -4.100207   -6.296905
  H      5.605922   -2.397822   -6.413368
  C      6.559957   -0.356290   -2.559086
  H      5.967976    0.952567   -0.942444
  H      6.547184    1.788331   -2.368849
  C      6.006283   -1.615917   -1.899301
  H      7.642360   -0.318000   -2.402059
  H      6.414855   -0.403433   -3.642587
  C      6.608718   -2.917014   -2.435655
  H      6.190324   -1.561115   -0.820948
  H      4.919250   -1.651245   -2.016586
  H      7.066975   -2.374258   -4.475514
  H      6.887808   -4.089747   -4.215332
  H      6.135197   -3.755573   -1.915159
  H      7.671142   -2.955503   -2.172291
  O      2.851546   -0.783683   -4.956789

 Total Charge           Charge          ....    0
 Multiplicity           Mult            ....    1
 Number of Electrons    NEL             ....  144
 Basis Dimension        Dim             ....  357

ORBITAL ENERGIES
----------------

  NO   OCC          E(Eh)            E(eV)
   0   2.0000     -89.224514     -2427.9225
   1   2.0000     -24.917712      -678.0454
   2   2.0000     -19.257070      -524.0115
   3   2.0000     -19.244422      -523.6673
   4   2.0000     -14.416619      -392.2961
   5   2.0000     -14.411606      -392.1597
   6   2.0000     -10.354098      -281.7493
   7   2.0000     -10.319687      -280.8130
   8   2.0000     -10.309918      -280.5471
   9   2.0000     -10.287479      -279.9365
  10   2.0000     -10.282703      -279.8066
  11   2.0000     -10.275747      -279.6173
  12   2.0000     -10.265833      -279.3475
  13   2.0000     -10.258157      -279.1387
  14   2.0000     -10.252249      -278.9779
  15   2.0000     -10.243990      -278.7531
  16   2.0000     -10.170494      -276.7532
  17   2.0000      -8.307472      -226.0578
  18   2.0000      -6.270797      -170.6371
  19   2.0000      -6.264069      -170.4540
  20   2.0000      -6.262533      -170.4122
  21   2.0000      -1.487749       -40.4837
  22   2.0000      -1.234478       -33.5919
  23   2.0000      -1.130409       -30.7600
  24   2.0000      -1.048368       -28.5276
  25   2.0000      -0.960092       -26.1254
  26   2.0000      -0.955502       -26.0005
  27   2.0000      -0.916182       -24.9306
  28   2.0000      -0.885345       -24.0915
  29   2.0000      -0.860033       -23.4027
  30   2.0000      -0.833458       -22.6795
  31   2.0000      -0.807861       -21.9830
  32   2.0000      -0.776263       -21.1232
  33   2.0000      -0.744853       -20.2685
  34   2.0000      -0.720501       -19.6058
  35   2.0000      -0.713914       -19.4266
  36   2.0000      -0.698830       -19.0161
  37   2.0000      -0.683676       -18.6038
  38   2.0000      -0.663118       -18.0444
  39   2.0000      -0.659592       -17.9484
  40   2.0000      -0.641859       -17.4659
  41   2.0000      -0.623746       -16.9730
  42   2.0000      -0.602028       -16.3820
  43   2.0000      -0.591332       -16.0910
  44   2.0000      -0.585022       -15.9193
  45   2.0000      -0.573385       -15.6026
  46   2.0000      -0.560223       -15.2444
  47   2.0000      -0.549547       -14.9539
  48   2.0000      -0.547992       -14.9116
  49   2.0000      -0.544426       -14.8146
  50   2.0000      -0.524541       -14.2735
  51   2.0000      -0.514734       -14.0066
  52   2.0000      -0.513035       -13.9604
  53   2.0000      -0.499888       -13.6026
  54   2.0000      -0.485415       -13.2088
  55   2.0000      -0.475466       -12.9381
  56   2.0000      -0.474663       -12.9162
  57   2.0000      -0.463966       -12.6251
  58   2.0000      -0.458709       -12.4821
  59   2.0000      -0.446167       -12.1408
  60   2.0000      -0.440789       -11.9945
  61   2.0000      -0.433585       -11.7984
  62   2.0000      -0.427634       -11.6365
  63   2.0000      -0.413939       -11.2638
  64   2.0000      -0.410966       -11.1829
  65   2.0000      -0.402979       -10.9656
  66   2.0000      -0.396829       -10.7983
  67   2.0000      -0.388104       -10.5608
  68   2.0000      -0.380199       -10.3457
  69   2.0000      -0.361687        -9.8420
  70   2.0000      -0.339315        -9.2332
  71   2.0000      -0.220465        -5.9992
  72   0.0000       0.098260         2.6738
  73   0.0000       0.131548         3.5796
  74   0.0000       0.144660         3.9364
  75   0.0000       0.149890         4.0787
  76   0.0000       0.152897         4.1606

MULLIKEN ATOMIC CHARGES
-----------------------
   0 C :    0.049666
   1 C :   -0.201541
   2 C :   -0.054055
   3 C :   -0.105784
   4 H :    0.109090
   5 H :    0.086897
   6 S :    0.987416
   7 C :    0.009624
   8 N :   -0.108740
   9 N :   -0.131673
  10 H :    0.128706
  11 H :    0.105426
  12 H :   -0.123130
  13 H :    0.103430
  14 H :    0.106136
  15 F :   -0.204953
  16 O :   -0.422011
  17 C :    0.027279
  18 H :    0.001591
  19 H :   -0.014817
  20 C :   -0.040284
  21 C :   -0.073542
  22 H :    0.020180
  23 H :    0.048214
  24 H :    0.049136
  25 H :    0.034654
  26 C :   -0.029701
  27 H :   -0.006520
  28 H :    0.000104
  29 C :   -0.065684
  30 H :    0.003499
  31 H :    0.009952
  32 C :    0.017873
  33 H :    0.013035
  34 H :    0.025258
  35 H :    0.021456
  36 H :    0.013597
  37 H :    0.012943
  38 H :    0.016394
  39 O :   -0.419120
Sum of atomic charges:   -0.0000000

LOEWDIN ATOMIC CHARGES
----------------------
   0 C :   -0.040212
   1 C :   -0.236477
   2 C :   -0.052539
   3 C :   -0.139965
   4 H :    0.056487
   5 H :    0.040183
   6 S :    1.184751
   7 C :    0.028608
   8 N :   -0.042538
   9 N :   -0.041625
  10 H :    0.076711
  11 H :    0.062550
  12 H :   -0.035669
  13 H :    0.036835
  14 H :    0.062617
  15 F :   -0.113860
  16 O :   -0.470017
  17 C :   -0.038451
  18 H :    0.023009
  19 H :    0.004887
  20 C :   -0.040081
  21 C :   -0.047171
  22 H :    0.024043
  23 H :    0.021785
  24 H :    0.036538
  25 H :    0.024535
  26 C :   -0.040002
  27 H :    0.010428
  28 H :    0.014011
  29 C :   -0.041916
  30 H :    0.016850
  31 H :    0.014409
  32 C :   -0.036378
  33 H :    0.022046
  34 H :    0.018619
  35 H :    0.019732
  36 H :    0.019649
  37 H :    0.020434
  38 H :    0.021915
  39 O :   -0.444731

  Mayer bond orders larger than 0.100000
B(  0-C ,  1-C ) :   1.0605 B(  0-C , 17-C ) :   1.0569 B(  0-C , 18-H ) :   0.9271
B(  0-C , 19-H ) :   0.9394 B(  1-C ,  7-C ) :   1.6878 B(  1-C , 12-H ) :   0.9367
B(  2-C ,  3-C ) :   1.0227 B(  2-C , 21-C ) :   1.0528 B(  2-C , 24-H ) :   0.9404
B(  2-C , 25-H ) :   0.9513 B(  3-C ,  4-H ) :   0.9291 B(  3-C ,  5-H ) :   0.9341
B(  3-C ,  6-S ) :   0.9240 B(  6-S , 15-F ) :   0.9258 B(  6-S , 16-O ) :   1.8137
B(  6-S , 39-O ) :   1.6976 B(  7-C ,  8-N ) :   1.2323 B(  7-C ,  9-N ) :   1.2233
B(  8-N , 13-H ) :   0.9291 B(  8-N , 14-H ) :   0.9493 B(  9-N , 10-H ) :   0.9373
B(  9-N , 11-H ) :   0.9522 B( 12-H , 39-O ) :   0.1209 B( 17-C , 26-C ) :   1.0824
B( 17-C , 27-H ) :   0.9457 B( 17-C , 28-H ) :   0.9444 B( 20-C , 21-C ) :   1.0588
B( 20-C , 32-C ) :   1.0773 B( 20-C , 35-H ) :   0.9479 B( 20-C , 36-H ) :   0.9468
B( 21-C , 22-H ) :   0.9461 B( 21-C , 23-H ) :   0.9388 B( 26-C , 29-C ) :   1.0546
B( 26-C , 30-H ) :   0.9476 B( 26-C , 31-H ) :   0.9339 B( 29-C , 32-C ) :   1.0796
B( 29-C , 33-H ) :   0.9435 B( 29-C , 34-H ) :   0.9461 B( 32-C , 37-H ) :   0.9471
B( 32-C , 38-H ) :   0.9468

Dispersion correction           -0.021879082
FINAL SINGLE POINT ENERGY     -1189.970131981523

DIPOLE MOMENT
-------------
                                X             Y             Z
Electronic contribution:    -16.37814       4.98778     -21.64763
Nuclear contribution   :     17.24138      -5.45913      20.34076
                        -----------------------------------------
Total Dipole Moment    :      0.86324      -0.47135      -1.30687
                        -----------------------------------------
Magnitude (a.u.)       :      1.63562
Magnitude (Debye)      :      4.15743

Rotational constants in cm-1:     0.014201     0.012275     0.007453
Rotational constants in MHz :   425.728191   368.008875   223.435232

                             ****ORCA TERMINATED NORMALLY****
TOTAL RUN TIME: 0 days 0 hours 1 minutes 6 seconds 788 msec
