                         Program Version 5.0.0 -  RELEASE  -
|  1> !wB97X-D3 RIJCOSX def2-SVP def2/J TightSCF xyzfile
|  2>
|  3> *xyzfile 0 1 D2.xyz
|  4>
|  5> %MaxCore 64000
|  6>
|  7> %pal nprocs 18
|  8> end
|  9>
| 10> %scf
| 11>   MaxIter 150
| 12> end
| 13>
| 14>
| 15>                          ****END OF INPUT****

CARTESIAN COORDINATES (ANGSTROEM)
---------------------------------
  C      4.490588    1.155899   -2.469290
  N      4.305394    1.222762   -3.908317
  C      4.906458   -3.102816   -5.954844
  C      3.511771   -2.806215   -6.492283
  H      2.736044   -3.373445   -5.973736
  H      3.444904   -3.040831   -7.555281
  S      3.004618   -1.096206   -6.389259
  C      4.631918    2.246365   -4.670958
  C      4.541686    2.143990   -5.987139
  N      5.084086    3.393584   -4.118545
  H      4.920675    3.570501   -3.135870
  H      5.254652    4.197390   -4.706956
  H      3.824530    0.449113   -4.350926
  H      4.343373    1.249318   -6.416646
  H      4.676712    2.956624   -6.574113
  F      4.128856   -0.329647   -6.953717
  O      1.781285   -1.000779   -7.136399
  C      5.942129    0.939500   -2.036893
  H      3.864305    0.328532   -2.136611
  H      4.076233    2.049994   -1.989010
  C      6.462677   -3.117775   -3.944671
  C      5.024977   -3.025679   -4.437625
  H      4.423321   -3.818693   -3.977648
  H      4.579350   -2.087131   -4.108727
  H      5.201533   -4.100207   -6.296905
  H      5.605922   -2.397822   -6.413368
  C      6.559957   -0.356290   -2.559086
  H      5.967976    0.952567   -0.942444
  H      6.547184    1.788331   -2.368849
  C      6.006283   -1.615917   -1.899301
  H      7.642360   -0.318000   -2.402059
  H      6.414855   -0.403433   -3.642587
  C      6.608718   -2.917014   -2.435655
  H      6.190324   -1.561115   -0.820948
  H      4.919250   -1.651245   -2.016586
  H      7.066975   -2.374258   -4.475514
  H      6.887808   -4.089747   -4.215332
  H      6.135197   -3.755573   -1.915159
  H      7.671142   -2.955503   -2.172291
  O      2.851546   -0.783683   -4.956789

 Total Charge           Charge          ....    0
 Multiplicity           Mult            ....    1
 Number of Electrons    NEL             ....  144
 Basis Dimension        Dim             ....  357

ORBITAL ENERGIES
----------------

  NO   OCC          E(Eh)            E(eV)
   0   2.0000     -89.228228     -2428.0235
   1   2.0000     -24.903835      -677.6678
   2   2.0000     -19.257750      -524.0300
   3   2.0000     -19.256670      -524.0006
   4   2.0000     -14.415327      -392.2610
   5   2.0000     -14.398999      -391.8167
   6   2.0000     -10.356484      -281.8143
   7   2.0000     -10.323588      -280.9191
   8   2.0000     -10.313838      -280.6538
   9   2.0000     -10.310301      -280.5575
  10   2.0000     -10.295703      -280.1603
  11   2.0000     -10.290800      -280.0269
  12   2.0000     -10.286256      -279.9032
  13   2.0000     -10.281084      -279.7625
  14   2.0000     -10.276883      -279.6482
  15   2.0000     -10.275968      -279.6233
  16   2.0000     -10.174925      -276.8738
  17   2.0000      -8.310871      -226.1503
  18   2.0000      -6.273966      -170.7233
  19   2.0000      -6.267772      -170.5548
  20   2.0000      -6.266056      -170.5081
  21   2.0000      -1.476338       -40.1732
  22   2.0000      -1.237429       -33.6722
  23   2.0000      -1.137488       -30.9526
  24   2.0000      -1.053659       -28.6715
  25   2.0000      -0.967071       -26.3153
  26   2.0000      -0.962404       -26.1884
  27   2.0000      -0.925042       -25.1717
  28   2.0000      -0.894134       -24.3306
  29   2.0000      -0.858611       -23.3640
  30   2.0000      -0.834587       -22.7103
  31   2.0000      -0.807540       -21.9743
  32   2.0000      -0.784443       -21.3458
  33   2.0000      -0.753082       -20.4924
  34   2.0000      -0.730438       -19.8762
  35   2.0000      -0.705613       -19.2007
  36   2.0000      -0.696910       -18.9639
  37   2.0000      -0.688797       -18.7431
  38   2.0000      -0.681687       -18.5496
  39   2.0000      -0.659900       -17.9568
  40   2.0000      -0.654661       -17.8142
  41   2.0000      -0.615386       -16.7455
  42   2.0000      -0.603598       -16.4247
  43   2.0000      -0.593978       -16.1630
  44   2.0000      -0.584132       -15.8950
  45   2.0000      -0.578151       -15.7323
  46   2.0000      -0.567520       -15.4430
  47   2.0000      -0.562172       -15.2975
  48   2.0000      -0.558639       -15.2013
  49   2.0000      -0.538704       -14.6589
  50   2.0000      -0.535533       -14.5726
  51   2.0000      -0.530512       -14.4360
  52   2.0000      -0.518105       -14.0984
  53   2.0000      -0.495043       -13.4708
  54   2.0000      -0.490306       -13.3419
  55   2.0000      -0.488513       -13.2931
  56   2.0000      -0.477313       -12.9884
  57   2.0000      -0.466013       -12.6809
  58   2.0000      -0.462748       -12.5920
  59   2.0000      -0.456882       -12.4324
  60   2.0000      -0.449662       -12.2359
  61   2.0000      -0.442341       -12.0367
  62   2.0000      -0.436247       -11.8709
  63   2.0000      -0.431300       -11.7363
  64   2.0000      -0.425590       -11.5809
  65   2.0000      -0.417288       -11.3550
  66   2.0000      -0.415139       -11.2965
  67   2.0000      -0.404808       -11.0154
  68   2.0000      -0.403019       -10.9667
  69   2.0000      -0.399004       -10.8574
  70   2.0000      -0.323757        -8.8099
  71   2.0000      -0.227629        -6.1941
  72   0.0000       0.101403         2.7593
  73   0.0000       0.129885         3.5344
  74   0.0000       0.137963         3.7542
  75   0.0000       0.145603         3.9621
  76   0.0000       0.147855         4.0233

MULLIKEN ATOMIC CHARGES
-----------------------
   0 C :    0.074383
   1 N :   -0.197957
   2 C :   -0.056589
   3 C :   -0.108788
   4 H :    0.106724
   5 H :    0.092522
   6 S :    1.013573
   7 C :    0.031179
   8 C :   -0.169789
   9 N :   -0.134422
  10 H :    0.111830
  11 H :    0.126684
  12 H :    0.130295
  13 H :   -0.061685
  14 H :   -0.056337
  15 F :   -0.175671
  16 O :   -0.419189
  17 C :    0.006101
  18 H :    0.023716
  19 H :    0.015152
  20 C :   -0.043762
  21 C :   -0.069238
  22 H :    0.022369
  23 H :    0.026528
  24 H :    0.051159
  25 H :    0.043040
  26 C :   -0.047381
  27 H :    0.008583
  28 H :    0.017291
  29 C :   -0.069193
  30 H :    0.017953
  31 H :    0.021611
  32 C :    0.017124
  33 H :    0.017360
  34 H :    0.023163
  35 H :    0.025627
  36 H :    0.018706
  37 H :    0.017058
  38 H :    0.020924
  39 O :   -0.470654
Sum of atomic charges:    0.0000000

LOEWDIN ATOMIC CHARGES
----------------------
   0 C :    0.030340
   1 N :   -0.037737
   2 C :   -0.052421
   3 C :   -0.140644
   4 H :    0.055091
   5 H :    0.043134
   6 S :    1.200336
   7 C :    0.048486
   8 C :   -0.292911
   9 N :   -0.039040
  10 H :    0.062105
  11 H :    0.080993
  12 H :    0.032751
  13 H :   -0.039140
  14 H :   -0.012921
  15 F :   -0.098049
  16 O :   -0.464517
  17 C :   -0.050946
  18 H :    0.024873
  19 H :    0.009986
  20 C :   -0.040159
  21 C :   -0.047458
  22 H :    0.024754
  23 H :    0.015144
  24 H :    0.037586
  25 H :    0.027509
  26 C :   -0.041103
  27 H :    0.019693
  28 H :    0.021508
  29 C :   -0.043305
  30 H :    0.022957
  31 H :    0.018214
  32 C :   -0.035600
  33 H :    0.023452
  34 H :    0.016678
  35 H :    0.021115
  36 H :    0.022122
  37 H :    0.022212
  38 H :    0.023783
  39 O :   -0.468872

  Mayer bond orders larger than 0.100000
B(  0-C ,  1-N ) :   1.0219 B(  0-C , 17-C ) :   1.0461 B(  0-C , 18-H ) :   0.9537
B(  0-C , 19-H ) :   0.9551 B(  1-N ,  7-C ) :   1.2118 B(  1-N , 12-H ) :   0.8802
B(  2-C ,  3-C ) :   1.0224 B(  2-C , 21-C ) :   1.0540 B(  2-C , 24-H ) :   0.9404
B(  2-C , 25-H ) :   0.9515 B(  3-C ,  4-H ) :   0.9292 B(  3-C ,  5-H ) :   0.9341
B(  3-C ,  6-S ) :   0.9261 B(  6-S , 15-F ) :   0.9706 B(  6-S , 16-O ) :   1.8239
B(  6-S , 39-O ) :   1.6369 B(  7-C ,  8-C ) :   1.7379 B(  7-C ,  9-N ) :   1.2028
B(  8-C , 13-H ) :   0.9369 B(  8-C , 14-H ) :   0.9422 B(  9-N , 10-H ) :   0.9490
B(  9-N , 11-H ) :   0.9456 B( 12-H , 39-O ) :   0.1137 B( 17-C , 26-C ) :   1.0765
B( 17-C , 27-H ) :   0.9429 B( 17-C , 28-H ) :   0.9392 B( 20-C , 21-C ) :   1.0586
B( 20-C , 32-C ) :   1.0771 B( 20-C , 35-H ) :   0.9486 B( 20-C , 36-H ) :   0.9467
B( 21-C , 22-H ) :   0.9463 B( 21-C , 23-H ) :   0.9374 B( 26-C , 29-C ) :   1.0517
B( 26-C , 30-H ) :   0.9503 B( 26-C , 31-H ) :   0.9411 B( 29-C , 32-C ) :   1.0802
B( 29-C , 33-H ) :   0.9440 B( 29-C , 34-H ) :   0.9470 B( 32-C , 37-H ) :   0.9474
B( 32-C , 38-H ) :   0.9476

Dispersion correction           -0.021930251
FINAL SINGLE POINT ENERGY     -1189.977268844932

DIPOLE MOMENT
-------------
                                X             Y             Z
Electronic contribution:    -16.44598       3.98553     -19.68917
Nuclear contribution   :     17.27667      -5.32157      20.03034
                        -----------------------------------------
Total Dipole Moment    :      0.83069      -1.33604       0.34117
                        -----------------------------------------
Magnitude (a.u.)       :      1.60979
Magnitude (Debye)      :      4.09176

Rotational constants in cm-1:     0.014355     0.012269     0.007481
Rotational constants in MHz :   430.360270   367.823451   224.273399

                             ****ORCA TERMINATED NORMALLY****
TOTAL RUN TIME: 0 days 0 hours 1 minutes 4 seconds 345 msec
