                         Program Version 5.0.0 -  RELEASE  -
|  1> !wB97X-D3 RIJCOSX def2-SVP def2/J TightSCF xyzfile
|  2>
|  3> *xyzfile 0 1 D6.xyz
|  4>
|  5> %MaxCore 64000
|  6>
|  7> %pal nprocs 18
|  8> end
|  9>
| 10> %scf
| 11>   MaxIter 150
| 12> end
| 13>
| 14>
| 15>                          ****END OF INPUT****

CARTESIAN COORDINATES (ANGSTROEM)
---------------------------------
  C      4.490588    1.155899   -2.469290
  N      4.305394    1.222762   -3.908317
  C      4.906458   -3.102816   -5.954844
  C      3.511771   -2.806215   -6.492283
  H      2.736044   -3.373445   -5.973736
  H      3.444904   -3.040831   -7.555281
  S      3.004618   -1.096206   -6.389259
  C      4.631918    2.246365   -4.670958
  N      4.541686    2.143990   -5.987139
  C      5.084086    3.393584   -4.118545
  H      4.920675    3.570501   -3.135870
  H      5.254652    4.197390   -4.706956
  H      3.824530    0.449113   -4.350926
  H      4.343373    1.249318   -6.416646
  H      4.676712    2.956624   -6.574113
  O      4.128856   -0.329647   -6.953717
  F      1.781285   -1.000779   -7.136399
  C      5.942129    0.939500   -2.036893
  H      3.864305    0.328532   -2.136611
  H      4.076233    2.049994   -1.989010
  C      6.462677   -3.117775   -3.944671
  C      5.024977   -3.025679   -4.437625
  H      4.423321   -3.818693   -3.977648
  H      4.579350   -2.087131   -4.108727
  H      5.201533   -4.100207   -6.296905
  H      5.605922   -2.397822   -6.413368
  C      6.559957   -0.356290   -2.559086
  H      5.967976    0.952567   -0.942444
  H      6.547184    1.788331   -2.368849
  C      6.006283   -1.615917   -1.899301
  H      7.642360   -0.318000   -2.402059
  H      6.414855   -0.403433   -3.642587
  C      6.608718   -2.917014   -2.435655
  H      6.190324   -1.561115   -0.820948
  H      4.919250   -1.651245   -2.016586
  H      7.066975   -2.374258   -4.475514
  H      6.887808   -4.089747   -4.215332
  H      6.135197   -3.755573   -1.915159
  H      7.671142   -2.955503   -2.172291
  O      2.851546   -0.783683   -4.956789

 Total Charge           Charge          ....    0
 Multiplicity           Mult            ....    1
 Number of Electrons    NEL             ....  144
 Basis Dimension        Dim             ....  357

ORBITAL ENERGIES
----------------

  NO   OCC          E(Eh)            E(eV)
   0   2.0000     -89.254676     -2428.7432
   1   2.0000     -24.945279      -678.7955
   2   2.0000     -19.277480      -524.5669
   3   2.0000     -19.276898      -524.5511
   4   2.0000     -14.388954      -391.5434
   5   2.0000     -14.383380      -391.3917
   6   2.0000     -10.374749      -282.3113
   7   2.0000     -10.330943      -281.1192
   8   2.0000     -10.298260      -280.2299
   9   2.0000     -10.297985      -280.2224
  10   2.0000     -10.292416      -280.0709
  11   2.0000     -10.289682      -279.9965
  12   2.0000     -10.282407      -279.7985
  13   2.0000     -10.273743      -279.5628
  14   2.0000     -10.264899      -279.3221
  15   2.0000     -10.256992      -279.1069
  16   2.0000     -10.160823      -276.4900
  17   2.0000      -8.337615      -226.8780
  18   2.0000      -6.300718      -171.4513
  19   2.0000      -6.294539      -171.2831
  20   2.0000      -6.292534      -171.2285
  21   2.0000      -1.527632       -41.5690
  22   2.0000      -1.253876       -34.1197
  23   2.0000      -1.149214       -31.2717
  24   2.0000      -1.038491       -28.2588
  25   2.0000      -0.973132       -26.4803
  26   2.0000      -0.953710       -25.9518
  27   2.0000      -0.925469       -25.1833
  28   2.0000      -0.892917       -24.2975
  29   2.0000      -0.864879       -23.5345
  30   2.0000      -0.836311       -22.7572
  31   2.0000      -0.798654       -21.7325
  32   2.0000      -0.778051       -21.1718
  33   2.0000      -0.761244       -20.7145
  34   2.0000      -0.735278       -20.0079
  35   2.0000      -0.729522       -19.8513
  36   2.0000      -0.711131       -19.3509
  37   2.0000      -0.696641       -18.9566
  38   2.0000      -0.688949       -18.7473
  39   2.0000      -0.657155       -17.8821
  40   2.0000      -0.635261       -17.2863
  41   2.0000      -0.620949       -16.8969
  42   2.0000      -0.618749       -16.8370
  43   2.0000      -0.604546       -16.4505
  44   2.0000      -0.593609       -16.1529
  45   2.0000      -0.579036       -15.7564
  46   2.0000      -0.572053       -15.5663
  47   2.0000      -0.560906       -15.2630
  48   2.0000      -0.549986       -14.9659
  49   2.0000      -0.535127       -14.5615
  50   2.0000      -0.528520       -14.3818
  51   2.0000      -0.524711       -14.2781
  52   2.0000      -0.515162       -14.0183
  53   2.0000      -0.499968       -13.6048
  54   2.0000      -0.486713       -13.2441
  55   2.0000      -0.479049       -13.0356
  56   2.0000      -0.477150       -12.9839
  57   2.0000      -0.464414       -12.6374
  58   2.0000      -0.459140       -12.4938
  59   2.0000      -0.450347       -12.2546
  60   2.0000      -0.444472       -12.0947
  61   2.0000      -0.437399       -11.9022
  62   2.0000      -0.433180       -11.7874
  63   2.0000      -0.429098       -11.6764
  64   2.0000      -0.421581       -11.4718
  65   2.0000      -0.419844       -11.4245
  66   2.0000      -0.411374       -11.1941
  67   2.0000      -0.397905       -10.8275
  68   2.0000      -0.395478       -10.7615
  69   2.0000      -0.386388       -10.5142
  70   2.0000      -0.300083        -8.1657
  71   2.0000      -0.209917        -5.7121
  72   0.0000       0.088257         2.4016
  73   0.0000       0.108800         2.9606
  74   0.0000       0.129689         3.5290
  75   0.0000       0.133169         3.6237
  76   0.0000       0.141987         3.8637

MULLIKEN ATOMIC CHARGES
-----------------------
   0 C :    0.105699
   1 N :   -0.215807
   2 C :   -0.039483
   3 C :   -0.103649
   4 H :    0.089418
   5 H :    0.089784
   6 S :    1.010022
   7 C :    0.014009
   8 N :   -0.125894
   9 C :   -0.153358
  10 H :   -0.049667
  11 H :   -0.069560
  12 H :    0.119618
  13 H :    0.098037
  14 H :    0.120596
  15 O :   -0.463470
  16 F :   -0.151818
  17 C :    0.012221
  18 H :    0.005661
  19 H :    0.027186
  20 C :   -0.045311
  21 C :   -0.074476
  22 H :    0.019367
  23 H :    0.036413
  24 H :    0.055632
  25 H :    0.064851
  26 C :   -0.051219
  27 H :    0.003165
  28 H :    0.033510
  29 C :   -0.066881
  30 H :    0.015079
  31 H :    0.017986
  32 C :    0.017159
  33 H :    0.016555
  34 H :    0.017306
  35 H :    0.030833
  36 H :    0.016613
  37 H :    0.013612
  38 H :    0.021399
  39 O :   -0.461137
Sum of atomic charges:   -0.0000000

LOEWDIN ATOMIC CHARGES
----------------------
   0 C :    0.043287
   1 N :   -0.038494
   2 C :   -0.038675
   3 C :   -0.138849
   4 H :    0.042186
   5 H :    0.041819
   6 S :    1.199637
   7 C :    0.046628
   8 N :   -0.039461
   9 C :   -0.301694
  10 H :   -0.015478
  11 H :   -0.017659
  12 H :    0.024375
  13 H :    0.019231
  14 H :    0.076382
  15 O :   -0.462736
  16 F :   -0.097187
  17 C :   -0.045480
  18 H :    0.016194
  19 H :    0.018768
  20 C :   -0.039439
  21 C :   -0.045725
  22 H :    0.023018
  23 H :    0.018779
  24 H :    0.041014
  25 H :    0.038262
  26 C :   -0.042292
  27 H :    0.018070
  28 H :    0.030764
  29 C :   -0.043759
  30 H :    0.021814
  31 H :    0.016051
  32 C :   -0.035931
  33 H :    0.023351
  34 H :    0.014421
  35 H :    0.023524
  36 H :    0.021139
  37 H :    0.020496
  38 H :    0.024216
  39 O :   -0.460563

  Mayer bond orders larger than 0.100000
B(  0-C ,  1-N ) :   1.0181 B(  0-C , 17-C ) :   1.0617 B(  0-C , 18-H ) :   0.9561
B(  0-C , 19-H ) :   0.9459 B(  1-N ,  7-C ) :   1.1880 B(  1-N , 12-H ) :   0.8943
B(  2-C ,  3-C ) :   1.0392 B(  2-C , 21-C ) :   1.0603 B(  2-C , 24-H ) :   0.9402
B(  2-C , 25-H ) :   0.9453 B(  3-C ,  4-H ) :   0.9237 B(  3-C ,  5-H ) :   0.9273
B(  3-C ,  6-S ) :   0.9226 B(  6-S , 15-O ) :   1.6654 B(  6-S , 16-F ) :   1.0575
B(  6-S , 39-O ) :   1.6656 B(  7-C ,  8-N ) :   1.2526 B(  7-C ,  9-C ) :   1.7015
B(  8-N , 13-H ) :   0.9146 B(  8-N , 14-H ) :   0.9454 B(  9-C , 10-H ) :   0.9388
B(  9-C , 11-H ) :   0.9478 B( 13-H , 15-O ) :   0.1027 B( 17-C , 26-C ) :   1.0759
B( 17-C , 27-H ) :   0.9451 B( 17-C , 28-H ) :   0.9345 B( 20-C , 21-C ) :   1.0615
B( 20-C , 32-C ) :   1.0766 B( 20-C , 35-H ) :   0.9487 B( 20-C , 36-H ) :   0.9469
B( 21-C , 22-H ) :   0.9457 B( 21-C , 23-H ) :   0.9403 B( 26-C , 29-C ) :   1.0502
B( 26-C , 30-H ) :   0.9506 B( 26-C , 31-H ) :   0.9403 B( 29-C , 32-C ) :   1.0791
B( 29-C , 33-H ) :   0.9437 B( 29-C , 34-H ) :   0.9463 B( 32-C , 37-H ) :   0.9475
B( 32-C , 38-H ) :   0.9470

Dispersion correction           -0.021911189
FINAL SINGLE POINT ENERGY     -1189.973155037435

DIPOLE MOMENT
-------------
                                X             Y             Z
Electronic contribution:    -21.28951       1.22851     -22.07221
Nuclear contribution   :     20.11362      -4.34709      20.52383
                        -----------------------------------------
Total Dipole Moment    :     -1.17589      -3.11858      -1.54838
                        -----------------------------------------
Magnitude (a.u.)       :      3.67501
Magnitude (Debye)      :      9.34115

Rotational constants in cm-1:     0.014449     0.012108     0.007447
Rotational constants in MHz :   433.168496   362.988632   223.260798

                             ****ORCA TERMINATED NORMALLY****
TOTAL RUN TIME: 0 days 0 hours 0 minutes 47 seconds 667 msec
