                         Program Version 5.0.0 -  RELEASE  -
|  1> !TPSS D3BJ RIJCOSX def2-SVPD def2/J TightSCF
|  2> *xyz -1 1
|  3> C          3.51177       -2.80621       -6.49228
|  4> S          3.00462       -1.09621       -6.38926
|  5> O          4.12886       -0.32965       -6.95372
|  6> O          1.78128       -1.00078       -7.13640
|  7> O          2.85155       -0.78368       -4.95679
|  8> H          3.63615       -3.08010       -7.51913
|  9> H          2.76397       -3.42755       -6.04548
| 10> H          4.43892       -2.93511       -5.97393
| 11> *
| 12>
| 13> %MaxCore 64000
| 14>
| 15> %pal nprocs 8
| 16> end
| 17>
| 18> %scf
| 19>   MaxIter 150
| 20> end
| 21>
| 22>
| 23>                          ****END OF INPUT****

CARTESIAN COORDINATES (ANGSTROEM)
---------------------------------
  C      3.511770   -2.806210   -6.492280
  S      3.004620   -1.096210   -6.389260
  O      4.128860   -0.329650   -6.953720
  O      1.781280   -1.000780   -7.136400
  O      2.851550   -0.783680   -4.956790
  H      3.636150   -3.080100   -7.519130
  H      2.763970   -3.427550   -6.045480
  H      4.438920   -2.935110   -5.973930

 Total Charge           Charge          ....   -1
 Multiplicity           Mult            ....    1
 Number of Electrons    NEL             ....   50
 Basis Dimension        Dim             ....  140

ORBITAL ENERGIES
----------------

  NO   OCC          E(Eh)            E(eV)
   0   2.0000     -88.365760     -2404.5546
   1   2.0000     -18.679474      -508.2943
   2   2.0000     -18.669443      -508.0214
   3   2.0000     -18.668935      -508.0075
   4   2.0000      -9.854518      -268.1551
   5   2.0000      -7.725582      -210.2238
   6   2.0000      -5.711580      -155.4200
   7   2.0000      -5.711415      -155.4155
   8   2.0000      -5.710779      -155.3982
   9   2.0000      -0.849722       -23.1221
  10   2.0000      -0.715645       -19.4737
  11   2.0000      -0.695965       -18.9382
  12   2.0000      -0.526237       -14.3196
  13   2.0000      -0.336583        -9.1589
  14   2.0000      -0.251037        -6.8311
  15   2.0000      -0.248386        -6.7589
  16   2.0000      -0.247199        -6.7266
  17   2.0000      -0.200256        -5.4492
  18   2.0000      -0.198861        -5.4113
  19   2.0000      -0.102960        -2.8017
  20   2.0000      -0.102085        -2.7779
  21   2.0000      -0.072320        -1.9679
  22   2.0000      -0.065341        -1.7780
  23   2.0000      -0.056884        -1.5479
  24   2.0000      -0.018548        -0.5047
  25   0.0000       0.141876         3.8606
  26   0.0000       0.176043         4.7904
  27   0.0000       0.176124         4.7926
  28   0.0000       0.179655         4.8887
  29   0.0000       0.204407         5.5622

MULLIKEN ATOMIC CHARGES
-----------------------
   0 C :    0.428192
   1 S :    1.009425
   2 O :   -0.771736
   3 O :   -0.734131
   4 O :   -0.769295
   5 H :   -0.049766
   6 H :   -0.058119
   7 H :   -0.054570
Sum of atomic charges:   -1.0000000

LOEWDIN ATOMIC CHARGES
----------------------
   0 C :    0.056314
   1 S :    0.815536
   2 O :   -0.588070
   3 O :   -0.569599
   4 O :   -0.586431
   5 H :   -0.042484
   6 H :   -0.043478
   7 H :   -0.041788

  Mayer bond orders larger than 0.100000
B(  0-C ,  1-S ) :   0.9237 B(  0-C ,  5-H ) :   0.9272 B(  0-C ,  6-H ) :   0.9305
B(  0-C ,  7-H ) :   0.9324 B(  1-S ,  2-O ) :   1.3367 B(  1-S ,  3-O ) :   1.3652
B(  1-S ,  4-O ) :   1.3342 B(  1-S ,  5-H ) :   0.1107 B(  1-S ,  6-H ) :   0.1117
B(  1-S ,  7-H ) :   0.1186

Dispersion correction           -0.007886066
FINAL SINGLE POINT ENERGY      -663.552307514345

DIPOLE MOMENT
-------------
                                X             Y             Z
Electronic contribution:     -1.30393       4.08617       0.18928
Nuclear contribution   :      1.59265      -5.51967      -0.35565
                        -----------------------------------------
Total Dipole Moment    :      0.28871      -1.43350      -0.16637
                        -----------------------------------------
Magnitude (a.u.)       :      1.47172
Magnitude (Debye)      :      3.74081

Rotational constants in cm-1:     0.172598     0.157065     0.154689
Rotational constants in MHz :  5174.362736  4708.699947  4637.458896

                             ****ORCA TERMINATED NORMALLY****
TOTAL RUN TIME: 0 days 0 hours 0 minutes 4 seconds 399 msec
