                         Program Version 5.0.0 -  RELEASE  -
|  1> !TPSS D3BJ RIJCOSX def2-SVPD def2/J TightSCF
|  2> *xyz 1 1
|  3> C          4.49059        1.15590       -2.46929
|  4> N          4.30539        1.22276       -3.90832
|  5> C          4.63192        2.24637       -4.67096
|  6> N          4.54169        2.14399       -5.98714
|  7> N          5.08409        3.39358       -4.11855
|  8> H          4.92067        3.57050       -3.13587
|  9> H          5.25465        4.19739       -4.70696
| 10> H          3.82453        0.44911       -4.35093
| 11> H          4.34337        1.24932       -6.41665
| 12> H          4.67671        2.95662       -6.57411
| 13> H          5.00867        2.03053       -2.13534
| 14> H          5.06354        0.28631       -2.22344
| 15> H          3.53600        1.10160       -1.98897
| 16> *
| 17>
| 18> %MaxCore 64000
| 19>
| 20> %pal nprocs 8
| 21> end
| 22>
| 23> %scf
| 24>   MaxIter 150
| 25> end
| 26>
| 27>
| 28>                          ****END OF INPUT****

CARTESIAN COORDINATES (ANGSTROEM)
---------------------------------
  C      4.490590    1.155900   -2.469290
  N      4.305390    1.222760   -3.908320
  C      4.631920    2.246370   -4.670960
  N      4.541690    2.143990   -5.987140
  N      5.084090    3.393580   -4.118550
  H      4.920670    3.570500   -3.135870
  H      5.254650    4.197390   -4.706960
  H      3.824530    0.449110   -4.350930
  H      4.343370    1.249320   -6.416650
  H      4.676710    2.956620   -6.574110
  H      5.008670    2.030530   -2.135340
  H      5.063540    0.286310   -2.223440
  H      3.536000    1.101600   -1.988970

 Total Charge           Charge          ....    1
 Multiplicity           Mult            ....    1
 Number of Electrons    NEL             ....   40
 Basis Dimension        Dim             ....  164

ORBITAL ENERGIES
----------------

  NO   OCC          E(Eh)            E(eV)
   0   2.0000     -14.347170      -390.4064
   1   2.0000     -14.344561      -390.3354
   2   2.0000     -14.341533      -390.2529
   3   2.0000     -10.328652      -281.0569
   4   2.0000     -10.210200      -277.8337
   5   2.0000      -1.143586       -31.1186
   6   2.0000      -1.040250       -28.3066
   7   2.0000      -1.025231       -27.8980
   8   2.0000      -0.852885       -23.2082
   9   2.0000      -0.779169       -21.2023
  10   2.0000      -0.744507       -20.2591
  11   2.0000      -0.712418       -19.3859
  12   2.0000      -0.652788       -17.7633
  13   2.0000      -0.650393       -17.6981
  14   2.0000      -0.612910       -16.6781
  15   2.0000      -0.602336       -16.3904
  16   2.0000      -0.554786       -15.0965
  17   2.0000      -0.547340       -14.8939
  18   2.0000      -0.441201       -12.0057
  19   2.0000      -0.421438       -11.4679
  20   0.0000      -0.196515        -5.3474
  21   0.0000      -0.169354        -4.6084
  22   0.0000      -0.136777        -3.7219
  23   0.0000      -0.129254        -3.5172
  24   0.0000      -0.108500        -2.9524

MULLIKEN ATOMIC CHARGES
-----------------------
   0 C :    1.174651
   1 N :   -0.616721
   2 C :    1.497533
   3 N :   -0.101027
   4 N :   -0.088277
   5 H :   -0.035746
   6 H :   -0.112465
   7 H :   -0.269520
   8 H :   -0.045621
   9 H :   -0.020337
  10 H :   -0.191984
  11 H :   -0.081826
  12 H :   -0.108660
Sum of atomic charges:    1.0000000

LOEWDIN ATOMIC CHARGES
----------------------
   0 C :    0.282050
   1 N :    0.015507
   2 C :   -0.035502
   3 N :    0.264200
   4 N :    0.276908
   5 H :    0.011609
   6 H :    0.035774
   7 H :    0.062800
   8 H :    0.041696
   9 H :    0.041265
  10 H :   -0.019789
  11 H :    0.012467
  12 H :    0.011014

  Mayer bond orders larger than 0.100000
B(  0-C ,  1-N ) :   0.9190 B(  0-C ,  7-H ) :  -0.1882 B(  0-C , 10-H ) :   0.8468
B(  0-C , 11-H ) :   0.7719 B(  0-C , 12-H ) :   0.7949 B(  1-N ,  2-C ) :   0.9700
B(  1-N ,  3-N ) :   0.2678 B(  1-N ,  4-N ) :   0.2676 B(  1-N ,  7-H ) :   1.3784
B(  1-N , 10-H ) :   0.1839 B(  1-N , 11-H ) :   0.1878 B(  1-N , 12-H ) :   0.1713
B(  2-C ,  3-N ) :   0.8032 B(  2-C ,  4-N ) :   0.8789 B(  2-C ,  5-H ) :  -0.1159
B(  2-C ,  6-H ) :  -0.1561 B(  2-C ,  7-H ) :  -0.2501 B(  2-C ,  8-H ) :  -0.1731
B(  2-C ,  9-H ) :  -0.1255 B(  3-N ,  4-N ) :   0.1977 B(  3-N ,  8-H ) :   1.2022
B(  3-N ,  9-H ) :   1.1953 B(  4-N ,  5-H ) :   1.0859 B(  4-N ,  6-H ) :   1.2241
B(  5-H ,  6-H ) :  -0.1488 B(  5-H , 10-H ) :   0.1019 B(  8-H ,  9-H ) :  -0.1699

Dispersion correction           -0.011137140
FINAL SINGLE POINT ENERGY      -244.965394542521

DIPOLE MOMENT
-------------
                                X             Y             Z
Electronic contribution:      0.03230       0.68577      -2.67674
Nuclear contribution   :     -0.23495      -0.48067       2.19509
                        -----------------------------------------
Total Dipole Moment    :     -0.20265       0.20510      -0.48165
                        -----------------------------------------
Magnitude (a.u.)       :      0.56136
Magnitude (Debye)      :      1.42686

Rotational constants in cm-1:     0.315679     0.134071     0.096006
Rotational constants in MHz :  9463.824527  4019.347586  2878.182223

                             ****ORCA TERMINATED NORMALLY****
TOTAL RUN TIME: 0 days 0 hours 0 minutes 6 seconds 15 msec
