                         Program Version 5.0.0 -  RELEASE  -
|  1> !TPSS D3BJ RIJCOSX def2-SVPD def2/J TightSCF
|  2> *xyz 0 1
|  3> C          3.51177       -2.80621       -6.49228
|  4> S          3.00462       -1.09621       -6.38926
|  5> F          4.12886       -0.32965       -6.95372
|  6> O          1.78128       -1.00078       -7.13640
|  7> O          2.85155       -0.78368       -4.95679
|  8> H          3.63615       -3.08010       -7.51913
|  9> H          2.76397       -3.42755       -6.04548
| 10> H          4.43892       -2.93511       -5.97393
| 11> *
| 12>
| 13> %MaxCore 64000
| 14>
| 15> %pal nprocs 8
| 16> end
| 17>
| 18> %scf
| 19>   MaxIter 150
| 20> end
| 21>
| 22>
| 23>                          ****END OF INPUT****

CARTESIAN COORDINATES (ANGSTROEM)
---------------------------------
  C      3.511770   -2.806210   -6.492280
  S      3.004620   -1.096210   -6.389260
  F      4.128860   -0.329650   -6.953720
  O      1.781280   -1.000780   -7.136400
  O      2.851550   -0.783680   -4.956790
  H      3.636150   -3.080100   -7.519130
  H      2.763970   -3.427550   -6.045480
  H      4.438920   -2.935110   -5.973930

 Total Charge           Charge          ....    0
 Multiplicity           Mult            ....    1
 Number of Electrons    NEL             ....   50
 Basis Dimension        Dim             ....  140

ORBITAL ENERGIES
----------------

  NO   OCC          E(Eh)            E(eV)
   0   2.0000     -88.627049     -2411.6646
   1   2.0000     -24.531181      -667.5274
   2   2.0000     -18.917553      -514.7728
   3   2.0000     -18.907263      -514.4928
   4   2.0000     -10.063698      -273.8472
   5   2.0000      -7.987837      -217.3601
   6   2.0000      -5.977963      -162.6686
   7   2.0000      -5.971619      -162.4960
   8   2.0000      -5.970150      -162.4560
   9   2.0000      -1.271915       -34.6106
  10   2.0000      -1.041566       -28.3425
  11   2.0000      -0.944190       -25.6927
  12   2.0000      -0.747135       -20.3306
  13   2.0000      -0.650874       -17.7112
  14   2.0000      -0.543224       -14.7819
  15   2.0000      -0.515820       -14.0362
  16   2.0000      -0.504066       -13.7163
  17   2.0000      -0.440508       -11.9868
  18   2.0000      -0.436481       -11.8773
  19   2.0000      -0.425288       -11.5727
  20   2.0000      -0.398611       -10.8468
  21   2.0000      -0.347997        -9.4695
  22   2.0000      -0.304231        -8.2785
  23   2.0000      -0.293041        -7.9741
  24   2.0000      -0.272663        -7.4195
  25   0.0000      -0.025102        -0.6831
  26   0.0000       0.008991         0.2447
  27   0.0000       0.019058         0.5186
  28   0.0000       0.035694         0.9713
  29   0.0000       0.036043         0.9808

MULLIKEN ATOMIC CHARGES
-----------------------
   0 C :    0.415145
   1 S :    1.194770
   2 F :   -0.372899
   3 O :   -0.607792
   4 O :   -0.639813
   5 H :    0.010871
   6 H :   -0.002951
   7 H :    0.002669
Sum of atomic charges:    0.0000000

LOEWDIN ATOMIC CHARGES
----------------------
   0 C :    0.126488
   1 S :    1.086136
   2 F :   -0.264819
   3 O :   -0.449921
   4 O :   -0.464981
   5 H :   -0.015357
   6 H :   -0.002097
   7 H :   -0.015449

  Mayer bond orders larger than 0.100000
B(  0-C ,  1-S ) :   0.9815 B(  0-C ,  5-H ) :   0.9152 B(  0-C ,  6-H ) :   0.9187
B(  0-C ,  7-H ) :   0.9206 B(  1-S ,  2-F ) :   0.6807 B(  1-S ,  3-O ) :   1.5610
B(  1-S ,  4-O ) :   1.5293 B(  1-S ,  6-H ) :   0.1090

Dispersion correction           -0.007393826
FINAL SINGLE POINT ENERGY      -688.053750088425

DIPOLE MOMENT
-------------
                                X             Y             Z
Electronic contribution:      0.54156       5.27729      -0.75597
Nuclear contribution   :      0.51040      -6.36905       0.21167
                        -----------------------------------------
Total Dipole Moment    :      1.05196      -1.09175      -0.54430
                        -----------------------------------------
Magnitude (a.u.)       :      1.61084
Magnitude (Debye)      :      4.09443

Rotational constants in cm-1:     0.163860     0.154073     0.147119
Rotational constants in MHz :  4912.396151  4618.979177  4410.507958

                             ****ORCA TERMINATED NORMALLY****
TOTAL RUN TIME: 0 days 0 hours 0 minutes 4 seconds 683 msec
