                         Program Version 5.0.0 -  RELEASE  -
|  1> !TPSS D3BJ RIJCOSX def2-SVPD def2/J TightSCF
|  2> *xyz 0 1
|  3> C          4.49059        1.15590       -2.46929
|  4> C          4.30539        1.22276       -3.90832
|  5> C          4.63192        2.24637       -4.67096
|  6> N          4.54169        2.14399       -5.98714
|  7> N          5.08409        3.39358       -4.11855
|  8> H          4.92067        3.57050       -3.13587
|  9> H          5.25465        4.19739       -4.70696
| 10> H          3.82453        0.44911       -4.35093
| 11> H          4.34337        1.24932       -6.41665
| 12> H          4.67671        2.95662       -6.57411
| 13> H          5.00867        2.03053       -2.13534
| 14> H          5.06354        0.28631       -2.22344
| 15> H          3.53600        1.10160       -1.98897
| 16> *
| 17>
| 18> %MaxCore 64000
| 19>
| 20> %pal nprocs 8
| 21> end
| 22>
| 23> %scf
| 24>   MaxIter 150
| 25> end
| 26>
| 27>
| 28>                          ****END OF INPUT****

CARTESIAN COORDINATES (ANGSTROEM)
---------------------------------
  C      4.490590    1.155900   -2.469290
  C      4.305390    1.222760   -3.908320
  C      4.631920    2.246370   -4.670960
  N      4.541690    2.143990   -5.987140
  N      5.084090    3.393580   -4.118550
  H      4.920670    3.570500   -3.135870
  H      5.254650    4.197390   -4.706960
  H      3.824530    0.449110   -4.350930
  H      4.343370    1.249320   -6.416650
  H      4.676710    2.956620   -6.574110
  H      5.008670    2.030530   -2.135340
  H      5.063540    0.286310   -2.223440
  H      3.536000    1.101600   -1.988970

 Total Charge           Charge          ....    0
 Multiplicity           Mult            ....    1
 Number of Electrons    NEL             ....   40
 Basis Dimension        Dim             ....  164

ORBITAL ENERGIES
----------------

  NO   OCC          E(Eh)            E(eV)
   0   2.0000     -14.115719      -384.1082
   1   2.0000     -14.115346      -384.0981
   2   2.0000     -10.032170      -272.9892
   3   2.0000      -9.966684      -271.2073
   4   2.0000      -9.920152      -269.9411
   5   2.0000      -0.882680       -24.0189
   6   2.0000      -0.798841       -21.7376
   7   2.0000      -0.688214       -18.7273
   8   2.0000      -0.599230       -16.3059
   9   2.0000      -0.531985       -14.4760
  10   2.0000      -0.493241       -13.4218
  11   2.0000      -0.465789       -12.6748
  12   2.0000      -0.430691       -11.7197
  13   2.0000      -0.381209       -10.3732
  14   2.0000      -0.365055        -9.9336
  15   2.0000      -0.332662        -9.0522
  16   2.0000      -0.319619        -8.6973
  17   2.0000      -0.305645        -8.3170
  18   2.0000      -0.222018        -6.0414
  19   2.0000      -0.126068        -3.4305
  20   0.0000       0.003738         0.1017
  21   0.0000       0.031642         0.8610
  22   0.0000       0.043254         1.1770
  23   0.0000       0.061176         1.6647
  24   0.0000       0.071971         1.9584

MULLIKEN ATOMIC CHARGES
-----------------------
   0 C :    0.936449
   1 C :   -0.830086
   2 C :    1.141815
   3 N :    0.001715
   4 N :   -0.033476
   5 H :   -0.057195
   6 H :   -0.250055
   7 H :   -0.335893
   8 H :   -0.069901
   9 H :   -0.146338
  10 H :   -0.284223
  11 H :   -0.006973
  12 H :   -0.065838
Sum of atomic charges:    0.0000000

LOEWDIN ATOMIC CHARGES
----------------------
   0 C :    0.110766
   1 C :   -0.067128
   2 C :   -0.225007
   3 N :    0.175098
   4 N :    0.194250
   5 H :   -0.020512
   6 H :   -0.015974
   7 H :   -0.050730
   8 H :    0.006541
   9 H :   -0.011933
  10 H :   -0.049522
  11 H :   -0.022499
  12 H :   -0.023351

  Mayer bond orders larger than 0.100000
B(  0-C ,  1-C ) :   1.0728 B(  0-C ,  7-H ) :   0.1674 B(  0-C , 10-H ) :   0.7911
B(  0-C , 11-H ) :   0.7045 B(  0-C , 12-H ) :   0.7263 B(  1-C ,  2-C ) :   1.4549
B(  1-C ,  3-N ) :   0.4318 B(  1-C ,  4-N ) :   0.2849 B(  1-C ,  7-H ) :   1.0177
B(  1-C , 10-H ) :   0.3920 B(  1-C , 11-H ) :   0.1923 B(  1-C , 12-H ) :   0.1720
B(  2-C ,  3-N ) :   0.8067 B(  2-C ,  4-N ) :   0.9255 B(  2-C ,  6-H ) :  -0.1658
B(  2-C ,  7-H ) :   0.1089 B(  2-C ,  8-H ) :  -0.1075 B(  2-C , 10-H ) :  -0.1280
B(  3-N ,  4-N ) :   0.1430 B(  3-N ,  8-H ) :   1.1948 B(  3-N ,  9-H ) :   1.1965
B(  4-N ,  5-H ) :   1.0671 B(  4-N ,  6-H ) :   1.2843 B(  5-H ,  6-H ) :  -0.1361
B(  8-H ,  9-H ) :  -0.1580 B( 10-H , 11-H ) :   0.1431

Dispersion correction           -0.011654910
FINAL SINGLE POINT ENERGY      -228.492972015797

DIPOLE MOMENT
-------------
                                X             Y             Z
Electronic contribution:      0.30112       1.33371      -2.87604
Nuclear contribution   :     -0.29662      -0.64714       2.26125
                        -----------------------------------------
Total Dipole Moment    :      0.00449       0.68657      -0.61479
                        -----------------------------------------
Magnitude (a.u.)       :      0.92161
Magnitude (Debye)      :      2.34254

Rotational constants in cm-1:     0.320965     0.135060     0.096994
Rotational constants in MHz :  9622.302637  4048.999301  2907.812202

                             ****ORCA TERMINATED NORMALLY****
TOTAL RUN TIME: 0 days 0 hours 0 minutes 6 seconds 611 msec
