                         Program Version 5.0.0 -  RELEASE  -
|  1> !TPSS D3BJ RIJCOSX def2-SVPD def2/J TightSCF
|  2> *xyz 0 1
|  3> C          3.51177       -2.80621       -6.49228
|  4> S          3.00462       -1.09621       -6.38926
|  5> O          4.12886       -0.32965       -6.95372
|  6> F          1.78128       -1.00078       -7.13640
|  7> O          2.85155       -0.78368       -4.95679
|  8> H          3.63615       -3.08010       -7.51913
|  9> H          2.76397       -3.42755       -6.04548
| 10> H          4.43892       -2.93511       -5.97393
| 11> *
| 12>
| 13> %MaxCore 64000
| 14>
| 15> %pal nprocs 8
| 16> end
| 17>
| 18> %scf
| 19>   MaxIter 150
| 20> end
| 21>
| 22>
| 23>                          ****END OF INPUT****

CARTESIAN COORDINATES (ANGSTROEM)
---------------------------------
  C      3.511770   -2.806210   -6.492280
  S      3.004620   -1.096210   -6.389260
  O      4.128860   -0.329650   -6.953720
  F      1.781280   -1.000780   -7.136400
  O      2.851550   -0.783680   -4.956790
  H      3.636150   -3.080100   -7.519130
  H      2.763970   -3.427550   -6.045480
  H      4.438920   -2.935110   -5.973930

 Total Charge           Charge          ....    0
 Multiplicity           Mult            ....    1
 Number of Electrons    NEL             ....   50
 Basis Dimension        Dim             ....  140

ORBITAL ENERGIES
----------------

  NO   OCC          E(Eh)            E(eV)
   0   2.0000     -88.629139     -2411.7215
   1   2.0000     -24.548286      -667.9928
   2   2.0000     -18.907696      -514.5046
   3   2.0000     -18.907043      -514.4868
   4   2.0000     -10.064395      -273.8661
   5   2.0000      -7.989870      -217.4154
   6   2.0000      -5.980283      -162.7318
   7   2.0000      -5.973395      -162.5443
   8   2.0000      -5.972009      -162.5066
   9   2.0000      -1.302085       -35.4315
  10   2.0000      -1.028740       -27.9934
  11   2.0000      -0.931062       -25.3355
  12   2.0000      -0.748880       -20.3781
  13   2.0000      -0.665059       -18.0972
  14   2.0000      -0.555380       -15.1127
  15   2.0000      -0.536317       -14.5939
  16   2.0000      -0.509077       -13.8527
  17   2.0000      -0.441192       -12.0055
  18   2.0000      -0.435482       -11.8501
  19   2.0000      -0.425643       -11.5823
  20   2.0000      -0.393782       -10.7153
  21   2.0000      -0.340739        -9.2720
  22   2.0000      -0.295773        -8.0484
  23   2.0000      -0.288115        -7.8400
  24   2.0000      -0.262357        -7.1391
  25   0.0000      -0.025710        -0.6996
  26   0.0000       0.011744         0.3196
  27   0.0000       0.017517         0.4767
  28   0.0000       0.031798         0.8653
  29   0.0000       0.035514         0.9664

MULLIKEN ATOMIC CHARGES
-----------------------
   0 C :    0.416631
   1 S :    1.186147
   2 O :   -0.631298
   3 F :   -0.353468
   4 O :   -0.630184
   5 H :    0.010494
   6 H :    0.003029
   7 H :   -0.001350
Sum of atomic charges:   -0.0000000

LOEWDIN ATOMIC CHARGES
----------------------
   0 C :    0.125854
   1 S :    1.087594
   2 O :   -0.466268
   3 F :   -0.249672
   4 O :   -0.464491
   5 H :   -0.015635
   6 H :   -0.016320
   7 H :   -0.001060

  Mayer bond orders larger than 0.100000
B(  0-C ,  1-S ) :   0.9821 B(  0-C ,  5-H ) :   0.9138 B(  0-C ,  6-H ) :   0.9177
B(  0-C ,  7-H ) :   0.9216 B(  1-S ,  2-O ) :   1.5357 B(  1-S ,  3-F ) :   0.7212
B(  1-S ,  4-O ) :   1.5317 B(  1-S ,  7-H ) :   0.1143

Dispersion correction           -0.007393408
FINAL SINGLE POINT ENERGY      -688.039096808282

DIPOLE MOMENT
-------------
                                X             Y             Z
Electronic contribution:     -3.30124       4.17848      -1.04423
Nuclear contribution   :      2.85578      -5.69854       0.39418
                        -----------------------------------------
Total Dipole Moment    :     -0.44546      -1.52006      -0.65005
                        -----------------------------------------
Magnitude (a.u.)       :      1.71219
Magnitude (Debye)      :      4.35205

Rotational constants in cm-1:     0.163257     0.155833     0.146211
Rotational constants in MHz :  4894.333085  4671.750883  4383.281537

                             ****ORCA TERMINATED NORMALLY****
TOTAL RUN TIME: 0 days 0 hours 0 minutes 4 seconds 489 msec
