                         Program Version 5.0.0 -  RELEASE  -
|  1> !TPSS D3BJ RIJCOSX def2-SVPD def2/J TightSCF
|  2> *xyz 0 1
|  3> C          4.49059        1.15590       -2.46929
|  4> N          4.30539        1.22276       -3.90832
|  5> C          4.63192        2.24637       -4.67096
|  6> C          4.54169        2.14399       -5.98714
|  7> N          5.08409        3.39358       -4.11855
|  8> H          4.92067        3.57050       -3.13587
|  9> H          5.25465        4.19739       -4.70696
| 10> H          3.82453        0.44911       -4.35093
| 11> H          4.34337        1.24932       -6.41665
| 12> H          4.67671        2.95662       -6.57411
| 13> H          5.00867        2.03053       -2.13534
| 14> H          5.06354        0.28631       -2.22344
| 15> H          3.53600        1.10160       -1.98897
| 16> *
| 17>
| 18> %MaxCore 64000
| 19>
| 20> %pal nprocs 8
| 21> end
| 22>
| 23> %scf
| 24>   MaxIter 150
| 25> end
| 26>
| 27>
| 28>                          ****END OF INPUT****

CARTESIAN COORDINATES (ANGSTROEM)
---------------------------------
  C      4.490590    1.155900   -2.469290
  N      4.305390    1.222760   -3.908320
  C      4.631920    2.246370   -4.670960
  C      4.541690    2.143990   -5.987140
  N      5.084090    3.393580   -4.118550
  H      4.920670    3.570500   -3.135870
  H      5.254650    4.197390   -4.706960
  H      3.824530    0.449110   -4.350930
  H      4.343370    1.249320   -6.416650
  H      4.676710    2.956620   -6.574110
  H      5.008670    2.030530   -2.135340
  H      5.063540    0.286310   -2.223440
  H      3.536000    1.101600   -1.988970

 Total Charge           Charge          ....    0
 Multiplicity           Mult            ....    1
 Number of Electrons    NEL             ....   40
 Basis Dimension        Dim             ....  164

ORBITAL ENERGIES
----------------

  NO   OCC          E(Eh)            E(eV)
   0   2.0000     -14.117802      -384.1649
   1   2.0000     -14.116508      -384.1297
   2   2.0000     -10.036230      -273.0997
   3   2.0000     -10.034865      -273.0626
   4   2.0000      -9.910142      -269.6687
   5   2.0000      -0.892293       -24.2805
   6   2.0000      -0.810368       -22.0512
   7   2.0000      -0.683013       -18.5857
   8   2.0000      -0.608325       -16.5534
   9   2.0000      -0.551726       -15.0132
  10   2.0000      -0.490289       -13.3414
  11   2.0000      -0.447890       -12.1877
  12   2.0000      -0.432591       -11.7714
  13   2.0000      -0.411417       -11.1952
  14   2.0000      -0.371965       -10.1217
  15   2.0000      -0.349485        -9.5100
  16   2.0000      -0.342029        -9.3071
  17   2.0000      -0.319591        -8.6965
  18   2.0000      -0.213578        -5.8117
  19   2.0000      -0.130044        -3.5387
  20   0.0000       0.002618         0.0712
  21   0.0000       0.032434         0.8826
  22   0.0000       0.037560         1.0221
  23   0.0000       0.056281         1.5315
  24   0.0000       0.077094         2.0978

MULLIKEN ATOMIC CHARGES
-----------------------
   0 C :    1.198085
   1 N :   -0.552821
   2 C :    0.921836
   3 C :    0.175279
   4 N :    0.001517
   5 H :   -0.130575
   6 H :   -0.133275
   7 H :   -0.317769
   8 H :   -0.287148
   9 H :   -0.323466
  10 H :   -0.230678
  11 H :   -0.147617
  12 H :   -0.173367
Sum of atomic charges:   -0.0000000

LOEWDIN ATOMIC CHARGES
----------------------
   0 C :    0.227493
   1 N :   -0.044260
   2 C :   -0.237565
   3 C :    0.139267
   4 N :    0.195194
   5 H :   -0.035429
   6 H :    0.003360
   7 H :    0.036909
   8 H :   -0.102215
   9 H :   -0.104043
  10 H :   -0.038354
  11 H :   -0.019646
  12 H :   -0.020711

  Mayer bond orders larger than 0.100000
B(  0-C ,  1-N ) :   0.8996 B(  0-C ,  7-H ) :  -0.1877 B(  0-C , 10-H ) :   0.8443
B(  0-C , 11-H ) :   0.7716 B(  0-C , 12-H ) :   0.7943 B(  1-N ,  2-C ) :   1.0045
B(  1-N ,  3-C ) :   0.2517 B(  1-N ,  4-N ) :   0.2141 B(  1-N ,  7-H ) :   1.3487
B(  1-N , 10-H ) :   0.2078 B(  1-N , 11-H ) :   0.1937 B(  1-N , 12-H ) :   0.1928
B(  2-C ,  3-C ) :   1.2906 B(  2-C ,  4-N ) :   0.8993 B(  2-C ,  6-H ) :  -0.1015
B(  2-C ,  7-H ) :  -0.2296 B(  2-C ,  9-H ) :   0.1400 B(  3-C ,  4-N ) :   0.2387
B(  3-C ,  8-H ) :   0.9161 B(  3-C ,  9-H ) :   0.8454 B(  4-N ,  5-H ) :   1.0927
B(  4-N ,  6-H ) :   1.1887 B(  5-H ,  6-H ) :  -0.1388

Dispersion correction           -0.011580567
FINAL SINGLE POINT ENERGY      -228.484116776737

DIPOLE MOMENT
-------------
                                X             Y             Z
Electronic contribution:      0.09590       0.50078      -0.78831
Nuclear contribution   :     -0.24876      -0.46055       1.84019
                        -----------------------------------------
Total Dipole Moment    :     -0.15287       0.04022       1.05189
                        -----------------------------------------
Magnitude (a.u.)       :      1.06370
Magnitude (Debye)      :      2.70370

Rotational constants in cm-1:     0.322158     0.139919     0.099594
Rotational constants in MHz :  9658.057362  4194.660927  2985.745059

                             ****ORCA TERMINATED NORMALLY****
TOTAL RUN TIME: 0 days 0 hours 0 minutes 6 seconds 116 msec
