                         Program Version 5.0.0 -  RELEASE  -
|  1> !TPSS D3BJ RIJCOSX def2-SVPD def2/J TightSCF
|  2> *xyz 0 1
|  3> C          3.51177       -2.80621       -6.49228
|  4> S          3.00462       -1.09621       -6.38926
|  5> O          4.12886       -0.32965       -6.95372
|  6> O          1.78128       -1.00078       -7.13640
|  7> F          2.85155       -0.78368       -4.95679
|  8> H          3.63615       -3.08010       -7.51913
|  9> H          2.76397       -3.42755       -6.04548
| 10> H          4.43892       -2.93511       -5.97393
| 11> *
| 12>
| 13> %MaxCore 64000
| 14>
| 15> %pal nprocs 8
| 16> end
| 17>
| 18> %scf
| 19>   MaxIter 150
| 20> end
| 21>
| 22>
| 23>                          ****END OF INPUT****

CARTESIAN COORDINATES (ANGSTROEM)
---------------------------------
  C      3.511770   -2.806210   -6.492280
  S      3.004620   -1.096210   -6.389260
  O      4.128860   -0.329650   -6.953720
  O      1.781280   -1.000780   -7.136400
  F      2.851550   -0.783680   -4.956790
  H      3.636150   -3.080100   -7.519130
  H      2.763970   -3.427550   -6.045480
  H      4.438920   -2.935110   -5.973930

 Total Charge           Charge          ....    0
 Multiplicity           Mult            ....    1
 Number of Electrons    NEL             ....   50
 Basis Dimension        Dim             ....  140

ORBITAL ENERGIES
----------------

  NO   OCC          E(Eh)            E(eV)
   0   2.0000     -88.627036     -2411.6643
   1   2.0000     -24.531324      -667.5313
   2   2.0000     -18.917774      -514.7788
   3   2.0000     -18.906845      -514.4814
   4   2.0000     -10.063559      -273.8434
   5   2.0000      -7.987821      -217.3597
   6   2.0000      -5.977943      -162.6681
   7   2.0000      -5.971573      -162.4948
   8   2.0000      -5.970168      -162.4565
   9   2.0000      -1.271420       -34.5971
  10   2.0000      -1.041474       -28.3400
  11   2.0000      -0.945304       -25.7230
  12   2.0000      -0.745994       -20.2995
  13   2.0000      -0.650912       -17.7122
  14   2.0000      -0.543178       -14.7806
  15   2.0000      -0.515107       -14.0168
  16   2.0000      -0.504112       -13.7176
  17   2.0000      -0.440329       -11.9820
  18   2.0000      -0.435842       -11.8599
  19   2.0000      -0.426404       -11.6030
  20   2.0000      -0.398667       -10.8483
  21   2.0000      -0.347491        -9.4557
  22   2.0000      -0.303993        -8.2721
  23   2.0000      -0.292092        -7.9482
  24   2.0000      -0.273806        -7.4506
  25   0.0000      -0.026733        -0.7275
  26   0.0000       0.006938         0.1888
  27   0.0000       0.019139         0.5208
  28   0.0000       0.035543         0.9672
  29   0.0000       0.036084         0.9819

MULLIKEN ATOMIC CHARGES
-----------------------
   0 C :    0.416092
   1 S :    1.196802
   2 O :   -0.642363
   3 O :   -0.609270
   4 F :   -0.371978
   5 H :    0.004388
   6 H :    0.001981
   7 H :    0.004349
Sum of atomic charges:    0.0000000

LOEWDIN ATOMIC CHARGES
----------------------
   0 C :    0.126417
   1 S :    1.086640
   2 O :   -0.466659
   3 O :   -0.449923
   4 F :   -0.263326
   5 H :   -0.001448
   6 H :   -0.016613
   7 H :   -0.015089

  Mayer bond orders larger than 0.100000
B(  0-C ,  1-S ) :   0.9828 B(  0-C ,  5-H ) :   0.9152 B(  0-C ,  6-H ) :   0.9180
B(  0-C ,  7-H ) :   0.9210 B(  1-S ,  2-O ) :   1.5322 B(  1-S ,  3-O ) :   1.5603
B(  1-S ,  4-F ) :   0.6754 B(  1-S ,  5-H ) :   0.1075

Dispersion correction           -0.007396006
FINAL SINGLE POINT ENERGY      -688.053459404562

DIPOLE MOMENT
-------------
                                X             Y             Z
Electronic contribution:     -1.55831       4.52802       2.53050
Nuclear contribution   :      1.78651      -5.91544      -1.78339
                        -----------------------------------------
Total Dipole Moment    :      0.22820      -1.38742       0.74710
                        -----------------------------------------
Magnitude (a.u.)       :      1.59222
Magnitude (Debye)      :      4.04710

Rotational constants in cm-1:     0.165193     0.152051     0.147788
Rotational constants in MHz :  4952.361749  4558.380225  4430.570551

                             ****ORCA TERMINATED NORMALLY****
TOTAL RUN TIME: 0 days 0 hours 0 minutes 4 seconds 666 msec
