                         Program Version 5.0.0 -  RELEASE  -
|  1> !TPSS D3BJ RIJCOSX def2-SVPD def2/J TightSCF
|  2> *xyz 0 1
|  3> C          4.49059        1.15590       -2.46929
|  4> N          4.30539        1.22276       -3.90832
|  5> C          4.63192        2.24637       -4.67096
|  6> N          4.54169        2.14399       -5.98714
|  7> C          5.08409        3.39358       -4.11855
|  8> H          4.92067        3.57050       -3.13587
|  9> H          5.25465        4.19739       -4.70696
| 10> H          3.82453        0.44911       -4.35093
| 11> H          4.34337        1.24932       -6.41665
| 12> H          4.67671        2.95662       -6.57411
| 13> H          5.00867        2.03053       -2.13534
| 14> H          5.06354        0.28631       -2.22344
| 15> H          3.53600        1.10160       -1.98897
| 16> *
| 17>
| 18> %MaxCore 64000
| 19>
| 20> %pal nprocs 8
| 21> end
| 22>
| 23> %scf
| 24>   MaxIter 150
| 25> end
| 26>
| 27>
| 28>                          ****END OF INPUT****

CARTESIAN COORDINATES (ANGSTROEM)
---------------------------------
  C      4.490590    1.155900   -2.469290
  N      4.305390    1.222760   -3.908320
  C      4.631920    2.246370   -4.670960
  N      4.541690    2.143990   -5.987140
  C      5.084090    3.393580   -4.118550
  H      4.920670    3.570500   -3.135870
  H      5.254650    4.197390   -4.706960
  H      3.824530    0.449110   -4.350930
  H      4.343370    1.249320   -6.416650
  H      4.676710    2.956620   -6.574110
  H      5.008670    2.030530   -2.135340
  H      5.063540    0.286310   -2.223440
  H      3.536000    1.101600   -1.988970

 Total Charge           Charge          ....    0
 Multiplicity           Mult            ....    1
 Number of Electrons    NEL             ....   40
 Basis Dimension        Dim             ....  164

ORBITAL ENERGIES
----------------

  NO   OCC          E(Eh)            E(eV)
   0   2.0000     -14.120726      -384.2445
   1   2.0000     -14.119545      -384.2123
   2   2.0000     -10.039125      -273.1785
   3   2.0000     -10.025302      -272.8023
   4   2.0000      -9.910905      -269.6894
   5   2.0000      -0.895855       -24.3775
   6   2.0000      -0.816679       -22.2230
   7   2.0000      -0.657624       -17.8949
   8   2.0000      -0.636116       -17.3096
   9   2.0000      -0.521529       -14.1915
  10   2.0000      -0.504550       -13.7295
  11   2.0000      -0.475859       -12.9488
  12   2.0000      -0.412650       -11.2288
  13   2.0000      -0.402408       -10.9501
  14   2.0000      -0.374929       -10.2023
  15   2.0000      -0.343164        -9.3380
  16   2.0000      -0.335231        -9.1221
  17   2.0000      -0.319563        -8.6957
  18   2.0000      -0.211836        -5.7643
  19   2.0000      -0.130433        -3.5493
  20   0.0000       0.003489         0.0949
  21   0.0000       0.028532         0.7764
  22   0.0000       0.041592         1.1318
  23   0.0000       0.053123         1.4456
  24   0.0000       0.071088         1.9344

MULLIKEN ATOMIC CHARGES
-----------------------
   0 C :    1.169792
   1 N :   -0.539826
   2 C :    0.862147
   3 N :    0.034711
   4 C :    0.128086
   5 H :   -0.153116
   6 H :   -0.426562
   7 H :   -0.385902
   8 H :   -0.179523
   9 H :   -0.040319
  10 H :   -0.173920
  11 H :   -0.127767
  12 H :   -0.167801
Sum of atomic charges:   -0.0000000

LOEWDIN ATOMIC CHARGES
----------------------
   0 C :    0.236130
   1 N :   -0.052377
   2 C :   -0.238590
   3 N :    0.182089
   4 C :    0.155169
   5 H :   -0.124248
   6 H :   -0.109597
   7 H :    0.020760
   8 H :   -0.009291
   9 H :    0.008972
  10 H :   -0.034797
  11 H :   -0.017574
  12 H :   -0.016645

  Mayer bond orders larger than 0.100000
B(  0-C ,  1-N ) :   0.8941 B(  0-C ,  7-H ) :  -0.1722 B(  0-C , 10-H ) :   0.8625
B(  0-C , 11-H ) :   0.7414 B(  0-C , 12-H ) :   0.7666 B(  1-N ,  2-C ) :   0.9468
B(  1-N ,  3-N ) :   0.1738 B(  1-N ,  4-C ) :   0.3240 B(  1-N ,  7-H ) :   1.4163
B(  1-N , 10-H ) :   0.1659 B(  1-N , 11-H ) :   0.2273 B(  1-N , 12-H ) :   0.2113
B(  2-C ,  3-N ) :   0.9237 B(  2-C ,  4-C ) :   1.5634 B(  2-C ,  5-H ) :   0.1698
B(  2-C ,  6-H ) :   0.1210 B(  2-C ,  7-H ) :  -0.2693 B(  2-C ,  8-H ) :  -0.1102
B(  3-N ,  4-C ) :   0.2465 B(  3-N ,  8-H ) :   1.2326 B(  3-N ,  9-H ) :   1.1746
B(  4-C ,  5-H ) :   0.7609 B(  4-C ,  6-H ) :   0.9967 B(  5-H ,  6-H ) :   0.1149
B(  5-H , 10-H ) :   0.1476 B(  8-H ,  9-H ) :  -0.1626

Dispersion correction           -0.011631652
FINAL SINGLE POINT ENERGY      -228.482942141652

DIPOLE MOMENT
-------------
                                X             Y             Z
Electronic contribution:     -0.38295      -0.71247      -2.63812
Nuclear contribution   :     -0.13890      -0.20745       2.21867
                        -----------------------------------------
Total Dipole Moment    :     -0.52185      -0.91992      -0.41945
                        -----------------------------------------
Magnitude (a.u.)       :      1.13777
Magnitude (Debye)      :      2.89198

Rotational constants in cm-1:     0.339212     0.134625     0.098371
Rotational constants in MHz : 10169.318272  4035.946597  2949.073953

                             ****ORCA TERMINATED NORMALLY****
TOTAL RUN TIME: 0 days 0 hours 0 minutes 6 seconds 34 msec
