                         Program Version 5.0.0 -  RELEASE  -
|  1> !TPSS D3BJ RIJCOSX def2-SVPD def2/J TightSCF xyzfile
|  2>
|  3> *xyzfile 0 1 D3.xyz
|  4>
|  5> %MaxCore 64000
|  6>
|  7> %pal nprocs 4
|  8> end
|  9>
| 10> %scf
| 11>   MaxIter 150
| 12> end
| 13>
| 14>
| 15>                          ****END OF INPUT****

CARTESIAN COORDINATES (ANGSTROEM)
---------------------------------
  C      4.490588    1.155899   -2.469290
  N      4.305394    1.222762   -3.908317
  C      4.906458   -3.102816   -5.954844
  C      3.511771   -2.806215   -6.492283
  H      2.736044   -3.373445   -5.973736
  H      3.444904   -3.040831   -7.555281
  S      3.004618   -1.096206   -6.389259
  C      4.631918    2.246365   -4.670958
  N      4.541686    2.143990   -5.987139
  C      5.084086    3.393584   -4.118545
  H      4.920675    3.570501   -3.135870
  H      5.254652    4.197390   -4.706956
  H      3.824530    0.449113   -4.350926
  H      4.343373    1.249318   -6.416646
  H      4.676712    2.956624   -6.574113
  F      4.128856   -0.329647   -6.953717
  O      1.781285   -1.000779   -7.136399
  C      5.942129    0.939500   -2.036893
  H      3.864305    0.328532   -2.136611
  H      4.076233    2.049994   -1.989010
  C      6.462677   -3.117775   -3.944671
  C      5.024977   -3.025679   -4.437625
  H      4.423321   -3.818693   -3.977648
  H      4.579350   -2.087131   -4.108727
  H      5.201533   -4.100207   -6.296905
  H      5.605922   -2.397822   -6.413368
  C      6.559957   -0.356290   -2.559086
  H      5.967976    0.952567   -0.942444
  H      6.547184    1.788331   -2.368849
  C      6.006283   -1.615917   -1.899301
  H      7.642360   -0.318000   -2.402059
  H      6.414855   -0.403433   -3.642587
  C      6.608718   -2.917014   -2.435655
  H      6.190324   -1.561115   -0.820948
  H      4.919250   -1.651245   -2.016586
  H      7.066975   -2.374258   -4.475514
  H      6.887808   -4.089747   -4.215332
  H      6.135197   -3.755573   -1.915159
  H      7.671142   -2.955503   -2.172291
  O      2.851546   -0.783683   -4.956789

 Total Charge           Charge          ....    0
 Multiplicity           Mult            ....    1
 Number of Electrons    NEL             ....  144
 Basis Dimension        Dim             ....  540

ORBITAL ENERGIES
----------------

  NO   OCC          E(Eh)            E(eV)
   0   2.0000     -88.647351     -2412.2171
   1   2.0000     -24.560594      -668.3277
   2   2.0000     -18.938108      -515.3321
   3   2.0000     -18.934719      -515.2399
   4   2.0000     -14.103618      -383.7790
   5   2.0000     -14.089528      -383.3956
   6   2.0000     -10.079333      -274.2726
   7   2.0000     -10.042744      -273.2770
   8   2.0000     -10.022050      -272.7139
   9   2.0000     -10.016396      -272.5600
  10   2.0000     -10.013550      -272.4825
  11   2.0000     -10.006640      -272.2945
  12   2.0000      -9.999637      -272.1040
  13   2.0000      -9.992718      -271.9157
  14   2.0000      -9.986644      -271.7504
  15   2.0000      -9.980414      -271.5809
  16   2.0000      -9.897924      -269.3362
  17   2.0000      -8.007557      -217.8967
  18   2.0000      -5.998035      -163.2148
  19   2.0000      -5.991622      -163.0403
  20   2.0000      -5.989229      -162.9752
  21   2.0000      -1.302356       -35.4389
  22   2.0000      -1.064946       -28.9786
  23   2.0000      -0.971419       -26.4336
  24   2.0000      -0.878620       -23.9085
  25   2.0000      -0.802752       -21.8440
  26   2.0000      -0.793738       -21.5987
  27   2.0000      -0.752049       -20.4643
  28   2.0000      -0.720218       -19.5981
  29   2.0000      -0.695978       -18.9385
  30   2.0000      -0.669804       -18.2263
  31   2.0000      -0.641468       -17.4552
  32   2.0000      -0.628716       -17.1082
  33   2.0000      -0.602885       -16.4053
  34   2.0000      -0.578191       -15.7334
  35   2.0000      -0.561596       -15.2818
  36   2.0000      -0.550886       -14.9904
  37   2.0000      -0.542044       -14.7498
  38   2.0000      -0.529648       -14.4125
  39   2.0000      -0.512730       -13.9521
  40   2.0000      -0.492558       -13.4032
  41   2.0000      -0.480268       -13.0688
  42   2.0000      -0.473779       -12.8922
  43   2.0000      -0.459664       -12.5081
  44   2.0000      -0.453878       -12.3506
  45   2.0000      -0.438770       -11.9395
  46   2.0000      -0.432235       -11.7617
  47   2.0000      -0.424945       -11.5633
  48   2.0000      -0.415219       -11.2987
  49   2.0000      -0.405608       -11.0372
  50   2.0000      -0.397254       -10.8098
  51   2.0000      -0.393045       -10.6953
  52   2.0000      -0.379342       -10.3224
  53   2.0000      -0.368385       -10.0243
  54   2.0000      -0.357202        -9.7200
  55   2.0000      -0.351834        -9.5739
  56   2.0000      -0.346461        -9.4277
  57   2.0000      -0.338652        -9.2152
  58   2.0000      -0.330096        -8.9824
  59   2.0000      -0.328629        -8.9425
  60   2.0000      -0.320234        -8.7140
  61   2.0000      -0.315352        -8.5812
  62   2.0000      -0.312539        -8.5046
  63   2.0000      -0.309315        -8.4169
  64   2.0000      -0.300100        -8.1661
  65   2.0000      -0.293771        -7.9939
  66   2.0000      -0.293074        -7.9750
  67   2.0000      -0.279486        -7.6052
  68   2.0000      -0.279234        -7.5983
  69   2.0000      -0.270227        -7.3533
  70   2.0000      -0.194814        -5.3012
  71   2.0000      -0.118184        -3.2159
  72   0.0000      -0.042185        -1.1479
  73   0.0000      -0.005540        -0.1507
  74   0.0000       0.002066         0.0562
  75   0.0000       0.005240         0.1426
  76   0.0000       0.012096         0.3292

MULLIKEN ATOMIC CHARGES
-----------------------
   0 C :    0.884224
   1 N :    0.372561
   2 C :    0.188721
   3 C :    0.231512
   4 H :    0.088723
   5 H :    0.031839
   6 S :    1.362246
   7 C :    0.668074
   8 N :    0.553404
   9 C :    0.347377
  10 H :    0.135090
  11 H :   -0.627380
  12 H :   -1.155391
  13 H :   -0.400163
  14 H :   -0.196428
  15 F :   -0.461145
  16 O :   -0.694403
  17 C :    0.258724
  18 H :   -0.295895
  19 H :   -0.080627
  20 C :   -0.051172
  21 C :    0.208249
  22 H :    0.062167
  23 H :   -0.439887
  24 H :   -0.081772
  25 H :    0.057994
  26 C :    0.057517
  27 H :   -0.104295
  28 H :   -0.009213
  29 C :   -0.212926
  30 H :   -0.133963
  31 H :   -0.097878
  32 C :    0.585015
  33 H :   -0.314517
  34 H :    0.181810
  35 H :    0.155729
  36 H :   -0.312690
  37 H :   -0.014168
  38 H :    0.031409
  39 O :   -0.778472
Sum of atomic charges:    0.0000000

LOEWDIN ATOMIC CHARGES
----------------------
   0 C :    0.076410
   1 N :    0.010910
   2 C :   -0.026404
   3 C :   -0.031533
   4 H :    0.040786
   5 H :    0.022530
   6 S :    1.146178
   7 C :   -0.215632
   8 N :    0.210803
   9 C :    0.160650
  10 H :   -0.117820
  11 H :   -0.112477
  12 H :   -0.099154
  13 H :   -0.090362
  14 H :    0.012047
  15 F :   -0.255672
  16 O :   -0.419061
  17 C :   -0.005882
  18 H :    0.012521
  19 H :    0.013728
  20 C :   -0.027476
  21 C :   -0.019628
  22 H :    0.039075
  23 H :   -0.018925
  24 H :    0.034445
  25 H :    0.023400
  26 C :   -0.025078
  27 H :    0.017770
  28 H :    0.008216
  29 C :   -0.030354
  30 H :    0.021936
  31 H :    0.001262
  32 C :   -0.021422
  33 H :    0.020683
  34 H :    0.002366
  35 H :    0.014413
  36 H :    0.019522
  37 H :    0.017589
  38 H :    0.019612
  39 O :   -0.429973

  Mayer bond orders larger than 0.100000
B(  0-C ,  1-N ) :   1.0345 B(  0-C , 10-H ) :   0.1217 B(  0-C , 12-H ) :  -0.4879
B(  0-C , 17-C ) :   1.0812 B(  0-C , 18-H ) :   0.7505 B(  0-C , 19-H ) :   0.8605
B(  0-C , 26-C ) :   0.1197 B(  0-C , 27-H ) :   0.1080 B(  1-N ,  7-C ) :   1.0203
B(  1-N ,  9-C ) :   0.2858 B(  1-N , 11-H ) :   0.1247 B(  1-N , 12-H ) :   0.6775
B(  1-N , 13-H ) :   0.1710 B(  1-N , 14-H ) :  -0.1079 B(  1-N , 18-H ) :   0.2677
B(  2-C ,  3-C ) :   1.2162 B(  2-C ,  5-H ) :   0.2286 B(  2-C , 20-C ) :   0.1167
B(  2-C , 21-C ) :   1.1341 B(  2-C , 24-H ) :   0.8528 B(  2-C , 25-H ) :   0.8478
B(  3-C ,  4-H ) :   0.8967 B(  3-C ,  5-H ) :   0.7573 B(  3-C ,  6-S ) :   0.9996
B(  3-C , 25-H ) :   0.1002 B(  6-S , 15-F ) :   0.5980 B(  6-S , 16-O ) :   1.4531
B(  6-S , 39-O ) :   1.4372 B(  7-C ,  8-N ) :   0.9420 B(  7-C ,  9-C ) :   1.5665
B(  7-C , 10-H ) :   0.3428 B(  7-C , 11-H ) :   0.3627 B(  7-C , 12-H ) :  -0.7135
B(  7-C , 13-H ) :  -0.1734 B(  7-C , 14-H ) :  -0.1253 B(  7-C , 18-H ) :   0.1194
B(  8-N ,  9-C ) :   0.2252 B(  8-N , 13-H ) :   0.8842 B(  8-N , 14-H ) :   1.2883
B(  9-C , 10-H ) :   0.5460 B(  9-C , 11-H ) :   0.7252 B( 10-H , 13-H ) :   0.1499
B( 10-H , 18-H ) :  -0.1039 B( 10-H , 19-H ) :   0.1194 B( 11-H , 12-H ) :  -0.1176
B( 12-H , 39-O ) :   0.1344 B( 13-H , 14-H ) :  -0.2380 B( 13-H , 15-F ) :   0.1782
B( 16-O , 39-O ) :   0.1787 B( 17-C , 18-H ) :   0.1111 B( 17-C , 26-C ) :   1.2036
B( 17-C , 27-H ) :   0.9140 B( 17-C , 28-H ) :   0.7777 B( 17-C , 31-H ) :   0.1248
B( 18-H , 19-H ) :  -0.1948 B( 20-C , 21-C ) :   1.2276 B( 20-C , 22-H ) :   0.1072
B( 20-C , 23-H ) :   0.1276 B( 20-C , 29-C ) :   0.1315 B( 20-C , 32-C ) :   1.1498
B( 20-C , 35-H ) :   0.8459 B( 20-C , 36-H ) :   0.9829 B( 20-C , 37-H ) :   0.1180
B( 20-C , 38-H ) :   0.1989 B( 21-C , 22-H ) :   0.7276 B( 21-C , 23-H ) :   0.8587
B( 21-C , 24-H ) :   0.1754 B( 21-C , 36-H ) :   0.1863 B( 22-H , 23-H ) :   0.1992
B( 23-H , 34-H ) :   0.1107 B( 26-C , 27-H ) :   0.1030 B( 26-C , 28-H ) :   0.1891
B( 26-C , 29-C ) :   1.2273 B( 26-C , 30-H ) :   0.8849 B( 26-C , 31-H ) :   0.9241
B( 26-C , 33-H ) :   0.1384 B( 27-H , 28-H ) :  -0.1094 B( 29-C , 30-H ) :   0.1504
B( 29-C , 31-H ) :   0.1198 B( 29-C , 32-C ) :   1.1437 B( 29-C , 33-H ) :   1.0563
B( 29-C , 34-H ) :   0.8309 B( 29-C , 37-H ) :   0.2667 B( 29-C , 38-H ) :   0.1320
B( 32-C , 37-H ) :   0.6834 B( 32-C , 38-H ) :   0.7126

Dispersion correction           -0.060538107
FINAL SINGLE POINT ENERGY     -1190.430769099432

DIPOLE MOMENT
-------------
                                X             Y             Z
Electronic contribution:    -16.90779       2.72046     -21.28772
Nuclear contribution   :     17.35766      -5.13497      20.30937
                        -----------------------------------------
Total Dipole Moment    :      0.44988      -2.41451      -0.97835
                        -----------------------------------------
Magnitude (a.u.)       :      2.64375
Magnitude (Debye)      :      6.71988

Rotational constants in cm-1:     0.014431     0.012329     0.007535
Rotational constants in MHz :   432.628327   369.619539   225.898827

                             ****ORCA TERMINATED NORMALLY****
TOTAL RUN TIME: 0 days 0 hours 2 minutes 0 seconds 830 msec
