                         Program Version 5.0.0 -  RELEASE  -
|  1> !TPSS D3BJ RIJCOSX def2-SVPD def2/J TightSCF xyzfile
|  2>
|  3> *xyzfile 0 1 D6.xyz
|  4>
|  5> %MaxCore 64000
|  6>
|  7> %pal nprocs 4
|  8> end
|  9>
| 10> %scf
| 11>   MaxIter 150
| 12> end
| 13>
| 14>
| 15>                          ****END OF INPUT****

CARTESIAN COORDINATES (ANGSTROEM)
---------------------------------
  C      4.490588    1.155899   -2.469290
  N      4.305394    1.222762   -3.908317
  C      4.906458   -3.102816   -5.954844
  C      3.511771   -2.806215   -6.492283
  H      2.736044   -3.373445   -5.973736
  H      3.444904   -3.040831   -7.555281
  S      3.004618   -1.096206   -6.389259
  C      4.631918    2.246365   -4.670958
  N      4.541686    2.143990   -5.987139
  C      5.084086    3.393584   -4.118545
  H      4.920675    3.570501   -3.135870
  H      5.254652    4.197390   -4.706956
  H      3.824530    0.449113   -4.350926
  H      4.343373    1.249318   -6.416646
  H      4.676712    2.956624   -6.574113
  O      4.128856   -0.329647   -6.953717
  F      1.781285   -1.000779   -7.136399
  C      5.942129    0.939500   -2.036893
  H      3.864305    0.328532   -2.136611
  H      4.076233    2.049994   -1.989010
  C      6.462677   -3.117775   -3.944671
  C      5.024977   -3.025679   -4.437625
  H      4.423321   -3.818693   -3.977648
  H      4.579350   -2.087131   -4.108727
  H      5.201533   -4.100207   -6.296905
  H      5.605922   -2.397822   -6.413368
  C      6.559957   -0.356290   -2.559086
  H      5.967976    0.952567   -0.942444
  H      6.547184    1.788331   -2.368849
  C      6.006283   -1.615917   -1.899301
  H      7.642360   -0.318000   -2.402059
  H      6.414855   -0.403433   -3.642587
  C      6.608718   -2.917014   -2.435655
  H      6.190324   -1.561115   -0.820948
  H      4.919250   -1.651245   -2.016586
  H      7.066975   -2.374258   -4.475514
  H      6.887808   -4.089747   -4.215332
  H      6.135197   -3.755573   -1.915159
  H      7.671142   -2.955503   -2.172291
  O      2.851546   -0.783683   -4.956789

 Total Charge           Charge          ....    0
 Multiplicity           Mult            ....    1
 Number of Electrons    NEL             ....  144
 Basis Dimension        Dim             ....  540

ORBITAL ENERGIES
----------------

  NO   OCC          E(Eh)            E(eV)
   0   2.0000     -88.655368     -2412.4352
   1   2.0000     -24.571135      -668.6146
   2   2.0000     -18.938525      -515.3435
   3   2.0000     -18.938360      -515.3390
   4   2.0000     -14.078882      -383.1059
   5   2.0000     -14.076541      -383.0421
   6   2.0000     -10.083620      -274.3892
   7   2.0000     -10.041657      -273.2474
   8   2.0000     -10.010915      -272.4108
   9   2.0000     -10.008757      -272.3521
  10   2.0000     -10.007445      -272.3164
  11   2.0000     -10.002871      -272.1919
  12   2.0000      -9.995877      -272.0016
  13   2.0000      -9.988083      -271.7896
  14   2.0000      -9.979962      -271.5686
  15   2.0000      -9.973227      -271.3853
  16   2.0000      -9.884576      -268.9730
  17   2.0000      -8.015307      -218.1076
  18   2.0000      -6.005689      -163.4231
  19   2.0000      -5.999462      -163.2536
  20   2.0000      -5.996963      -163.1857
  21   2.0000      -1.323484       -36.0138
  22   2.0000      -1.062149       -28.9026
  23   2.0000      -0.965813       -26.2811
  24   2.0000      -0.862547       -23.4711
  25   2.0000      -0.793627       -21.5957
  26   2.0000      -0.784884       -21.3578
  27   2.0000      -0.749833       -20.4040
  28   2.0000      -0.720381       -19.6026
  29   2.0000      -0.694923       -18.9098
  30   2.0000      -0.668583       -18.1931
  31   2.0000      -0.634406       -17.2631
  32   2.0000      -0.617443       -16.8015
  33   2.0000      -0.599553       -16.3147
  34   2.0000      -0.575361       -15.6564
  35   2.0000      -0.561808       -15.2876
  36   2.0000      -0.549681       -14.9576
  37   2.0000      -0.541207       -14.7270
  38   2.0000      -0.535054       -14.5595
  39   2.0000      -0.506561       -13.7842
  40   2.0000      -0.486910       -13.2495
  41   2.0000      -0.475505       -12.9392
  42   2.0000      -0.470842       -12.8123
  43   2.0000      -0.460346       -12.5267
  44   2.0000      -0.449454       -12.2303
  45   2.0000      -0.436922       -11.8892
  46   2.0000      -0.429269       -11.6810
  47   2.0000      -0.419999       -11.4287
  48   2.0000      -0.411090       -11.1863
  49   2.0000      -0.396990       -10.8026
  50   2.0000      -0.391344       -10.6490
  51   2.0000      -0.387114       -10.5339
  52   2.0000      -0.374662       -10.1951
  53   2.0000      -0.365472        -9.9450
  54   2.0000      -0.352485        -9.5916
  55   2.0000      -0.346469        -9.4279
  56   2.0000      -0.343677        -9.3519
  57   2.0000      -0.331776        -9.0281
  58   2.0000      -0.326620        -8.8878
  59   2.0000      -0.319452        -8.6927
  60   2.0000      -0.312391        -8.5006
  61   2.0000      -0.308915        -8.4060
  62   2.0000      -0.305713        -8.3189
  63   2.0000      -0.300604        -8.1798
  64   2.0000      -0.293720        -7.9925
  65   2.0000      -0.291108        -7.9215
  66   2.0000      -0.285850        -7.7784
  67   2.0000      -0.273934        -7.4541
  68   2.0000      -0.272836        -7.4242
  69   2.0000      -0.264120        -7.1871
  70   2.0000      -0.178643        -4.8611
  71   2.0000      -0.104588        -2.8460
  72   0.0000      -0.040590        -1.1045
  73   0.0000      -0.017445        -0.4747
  74   0.0000       0.003285         0.0894
  75   0.0000       0.006920         0.1883
  76   0.0000       0.009034         0.2458

MULLIKEN ATOMIC CHARGES
-----------------------
   0 C :    0.895314
   1 N :    0.356812
   2 C :    0.115508
   3 C :    0.203954
   4 H :    0.085848
   5 H :    0.059745
   6 S :    1.545835
   7 C :    0.644501
   8 N :    0.536043
   9 C :    0.348630
  10 H :    0.127292
  11 H :   -0.639037
  12 H :   -1.126937
  13 H :   -0.381739
  14 H :   -0.207479
  15 O :   -0.726603
  16 F :   -0.504208
  17 C :    0.253160
  18 H :   -0.302499
  19 H :   -0.082670
  20 C :   -0.056308
  21 C :    0.173692
  22 H :    0.060171
  23 H :   -0.436878
  24 H :   -0.058375
  25 H :    0.096632
  26 C :    0.066480
  27 H :   -0.108425
  28 H :   -0.007125
  29 C :   -0.211205
  30 H :   -0.135378
  31 H :   -0.100518
  32 C :    0.586445
  33 H :   -0.318330
  34 H :    0.181332
  35 H :    0.161735
  36 H :   -0.315304
  37 H :   -0.015575
  38 H :    0.033791
  39 O :   -0.798326
Sum of atomic charges:    0.0000000

LOEWDIN ATOMIC CHARGES
----------------------
   0 C :    0.073415
   1 N :    0.013369
   2 C :   -0.010172
   3 C :   -0.041803
   4 H :    0.027588
   5 H :    0.020540
   6 S :    1.181636
   7 C :   -0.216498
   8 N :    0.214197
   9 C :    0.154129
  10 H :   -0.123082
  11 H :   -0.115787
  12 H :   -0.093622
  13 H :   -0.125264
  14 H :    0.007136
  15 O :   -0.430499
  16 F :   -0.227848
  17 C :   -0.006473
  18 H :    0.010259
  19 H :    0.011875
  20 C :   -0.026004
  21 C :   -0.017123
  22 H :    0.037197
  23 H :   -0.015715
  24 H :    0.038129
  25 H :    0.029599
  26 C :   -0.024054
  27 H :    0.016369
  28 H :    0.008078
  29 C :   -0.031280
  30 H :    0.021517
  31 H :    0.004117
  32 C :   -0.022012
  33 H :    0.019959
  34 H :    0.001541
  35 H :    0.016711
  36 H :    0.019069
  37 H :    0.016602
  38 H :    0.019490
  39 O :   -0.435286

  Mayer bond orders larger than 0.100000
B(  0-C ,  1-N ) :   1.0179 B(  0-C , 10-H ) :   0.1260 B(  0-C , 12-H ) :  -0.4836
B(  0-C , 17-C ) :   1.0800 B(  0-C , 18-H ) :   0.7460 B(  0-C , 19-H ) :   0.8673
B(  0-C , 26-C ) :   0.1220 B(  0-C , 27-H ) :   0.1073 B(  1-N ,  7-C ) :   1.0152
B(  1-N ,  9-C ) :   0.2917 B(  1-N , 11-H ) :   0.1348 B(  1-N , 12-H ) :   0.6988
B(  1-N , 13-H ) :   0.1752 B(  1-N , 14-H ) :  -0.1119 B(  1-N , 18-H ) :   0.2674
B(  2-C ,  3-C ) :   1.2830 B(  2-C ,  5-H ) :   0.2631 B(  2-C , 20-C ) :   0.1221
B(  2-C , 21-C ) :   1.1495 B(  2-C , 24-H ) :   0.8297 B(  2-C , 25-H ) :   0.8559
B(  3-C ,  4-H ) :   0.8968 B(  3-C ,  5-H ) :   0.6842 B(  3-C ,  6-S ) :   0.9807
B(  3-C , 16-F ) :   0.1101 B(  3-C , 21-C ) :   0.1253 B(  3-C , 25-H ) :   0.1096
B(  6-S , 15-O ) :   1.3611 B(  6-S , 16-F ) :   0.4792 B(  6-S , 39-O ) :   1.3703
B(  7-C ,  8-N ) :   0.9562 B(  7-C ,  9-C ) :   1.5506 B(  7-C , 10-H ) :   0.3506
B(  7-C , 11-H ) :   0.3561 B(  7-C , 12-H ) :  -0.6960 B(  7-C , 13-H ) :  -0.1774
B(  7-C , 14-H ) :  -0.1224 B(  7-C , 18-H ) :   0.1222 B(  8-N ,  9-C ) :   0.2270
B(  8-N , 11-H ) :   0.1028 B(  8-N , 13-H ) :   0.8893 B(  8-N , 14-H ) :   1.2945
B(  9-C , 10-H ) :   0.5435 B(  9-C , 11-H ) :   0.7284 B( 10-H , 13-H ) :   0.1664
B( 10-H , 18-H ) :  -0.1055 B( 10-H , 19-H ) :   0.1194 B( 11-H , 12-H ) :  -0.1192
B( 12-H , 39-O ) :   0.1293 B( 13-H , 14-H ) :  -0.2631 B( 13-H , 15-O ) :   0.1319
B( 16-F , 39-O ) :   0.1196 B( 17-C , 18-H ) :   0.1125 B( 17-C , 26-C ) :   1.2028
B( 17-C , 27-H ) :   0.9172 B( 17-C , 28-H ) :   0.7821 B( 17-C , 31-H ) :   0.1248
B( 18-H , 19-H ) :  -0.1976 B( 20-C , 21-C ) :   1.2369 B( 20-C , 22-H ) :   0.1081
B( 20-C , 23-H ) :   0.1286 B( 20-C , 29-C ) :   0.1324 B( 20-C , 32-C ) :   1.1488
B( 20-C , 35-H ) :   0.8438 B( 20-C , 36-H ) :   0.9807 B( 20-C , 37-H ) :   0.1180
B( 20-C , 38-H ) :   0.1982 B( 21-C , 22-H ) :   0.7246 B( 21-C , 23-H ) :   0.8677
B( 21-C , 24-H ) :   0.1804 B( 21-C , 36-H ) :   0.1882 B( 22-H , 23-H ) :   0.2059
B( 23-H , 34-H ) :   0.1125 B( 26-C , 27-H ) :   0.1016 B( 26-C , 28-H ) :   0.1892
B( 26-C , 29-C ) :   1.2235 B( 26-C , 30-H ) :   0.8837 B( 26-C , 31-H ) :   0.9206
B( 26-C , 33-H ) :   0.1374 B( 27-H , 28-H ) :  -0.1098 B( 29-C , 30-H ) :   0.1522
B( 29-C , 31-H ) :   0.1182 B( 29-C , 32-C ) :   1.1421 B( 29-C , 33-H ) :   1.0588
B( 29-C , 34-H ) :   0.8311 B( 29-C , 37-H ) :   0.2674 B( 29-C , 38-H ) :   0.1326
B( 32-C , 37-H ) :   0.6829 B( 32-C , 38-H ) :   0.7129

Dispersion correction           -0.060918387
FINAL SINGLE POINT ENERGY     -1190.425709004390

DIPOLE MOMENT
-------------
                                X             Y             Z
Electronic contribution:    -21.09380       1.35755     -21.83721
Nuclear contribution   :     20.11362      -4.34709      20.52383
                        -----------------------------------------
Total Dipole Moment    :     -0.98018      -2.98954      -1.31338
                        -----------------------------------------
Magnitude (a.u.)       :      3.40926
Magnitude (Debye)      :      8.66565

Rotational constants in cm-1:     0.014449     0.012108     0.007447
Rotational constants in MHz :   433.168496   362.988632   223.260798

                             ****ORCA TERMINATED NORMALLY****
TOTAL RUN TIME: 0 days 0 hours 1 minutes 59 seconds 678 msec
