                         Program Version 5.0.0 -  RELEASE  -
|  1> !CAM-B3LYP RIJCOSX def2-SVP def2/J TightSCF
|  2>
|  3> *xyz -1 1
|  4> C          2.95263        1.86308       -3.57485
|  5> C          4.12921        0.89839       -3.41895
|  6> H          3.73369       -0.10060       -3.23763
|  7> H          4.71910        0.86256       -4.33901
|  8> C          5.01734        1.31521       -2.22130
|  9> O          4.73706        0.85411       -1.12283
| 10> O          5.92815        2.16811       -2.49136
| 11> H          2.35067        1.56005       -4.40594
| 12> H          3.32277        2.85258       -3.74453
| 13> H          2.36134        1.85149       -2.68315
| 14> *
| 15> %MaxCore 64000
| 16>
| 17> %pal nprocs 4
| 18> end
| 19>
| 20> %scf
| 21>   MaxIter 150
| 22> end
| 23>
| 24>
| 25>                          ****END OF INPUT****

CARTESIAN COORDINATES (ANGSTROEM)
---------------------------------
  C      2.952630    1.863080   -3.574850
  C      4.129210    0.898390   -3.418950
  H      3.733690   -0.100600   -3.237630
  H      4.719100    0.862560   -4.339010
  C      5.017340    1.315210   -2.221300
  O      4.737060    0.854110   -1.122830
  O      5.928150    2.168110   -2.491360
  H      2.350670    1.560050   -4.405940
  H      3.322770    2.852580   -3.744530
  H      2.361340    1.851490   -2.683150

 Total Charge           Charge          ....   -1
 Multiplicity           Mult            ....    1
 Number of Electrons    NEL             ....   40
 Basis Dimension        Dim             ....   95

ORBITAL ENERGIES
----------------

  NO   OCC          E(Eh)            E(eV)
   0   2.0000     -18.911980      -514.6212
   1   2.0000     -18.899029      -514.2687
   2   2.0000     -10.112056      -275.1630
   3   2.0000     -10.089220      -274.5416
   4   2.0000     -10.063697      -273.8471
   5   2.0000      -0.861025       -23.4297
   6   2.0000      -0.760409       -20.6918
   7   2.0000      -0.667944       -18.1757
   8   2.0000      -0.527702       -14.3595
   9   2.0000      -0.372429       -10.1343
  10   2.0000      -0.348786        -9.4909
  11   2.0000      -0.305404        -8.3105
  12   2.0000      -0.279097        -7.5946
  13   2.0000      -0.256583        -6.9820
  14   2.0000      -0.255825        -6.9613
  15   2.0000      -0.218720        -5.9517
  16   2.0000      -0.208761        -5.6807
  17   2.0000      -0.074337        -2.0228
  18   2.0000      -0.071599        -1.9483
  19   2.0000      -0.058365        -1.5882
  20   0.0000       0.257898         7.0178
  21   0.0000       0.309254         8.4152
  22   0.0000       0.323459         8.8018
  23   0.0000       0.326193         8.8762
  24   0.0000       0.352744         9.5987

MULLIKEN ATOMIC CHARGES
-----------------------
   0 C :    0.026555
   1 C :    0.039665
   2 H :   -0.068266
   3 H :   -0.059545
   4 C :    0.002086
   5 O :   -0.389389
   6 O :   -0.467721
   7 H :   -0.050796
   8 H :   -0.015351
   9 H :   -0.017239
Sum of atomic charges:   -1.0000000

LOEWDIN ATOMIC CHARGES
----------------------
   0 C :   -0.057540
   1 C :   -0.088833
   2 H :   -0.008977
   3 H :   -0.005303
   4 C :   -0.055774
   5 O :   -0.362929
   6 O :   -0.432762
   7 H :   -0.007293
   8 H :    0.009746
   9 H :    0.009664

  Mayer bond orders larger than 0.100000
B(  0-C ,  1-C ) :   1.1093 B(  0-C ,  7-H ) :   0.9680 B(  0-C ,  8-H ) :   0.9668
B(  0-C ,  9-H ) :   0.9681 B(  1-C ,  2-H ) :   0.9300 B(  1-C ,  3-H ) :   0.9349
B(  1-C ,  4-C ) :   0.9154 B(  4-C ,  5-O ) :   1.9064 B(  4-C ,  6-O ) :   1.8226
B(  5-O ,  6-O ) :   0.1146

FINAL SINGLE POINT ENERGY      -267.495933487818

DIPOLE MOMENT
-------------
                                X             Y             Z
Electronic contribution:      4.53274      -0.12971       4.03319
Nuclear contribution   :     -5.85873      -0.10793      -5.24103
                        -----------------------------------------
Total Dipole Moment    :     -1.32599      -0.23764      -1.20784
                        -----------------------------------------
Magnitude (a.u.)       :      1.80931
Magnitude (Debye)      :      4.59890

Rotational constants in cm-1:     0.292505     0.135951     0.110253
Rotational constants in MHz :  8769.065873  4075.717001  3305.311891

                             ****ORCA TERMINATED NORMALLY****
TOTAL RUN TIME: 0 days 0 hours 0 minutes 14 seconds 198 msec
