                         Program Version 5.0.0 -  RELEASE  -
|  1> !CAM-B3LYP RIJCOSX def2-SVP def2/J TightSCF
|  2>
|  3> *xyz 1 1
|  4> C          3.34350        3.35457       -3.59200
|  5> C          2.95263        1.86308       -3.57485
|  6> C          4.25587        3.70385       -4.72605
|  7> N          3.73403        4.29378       -5.80077
|  8> N          5.51504        3.40725       -4.63718
|  9> H          6.14919        3.60120       -5.39905
| 10> H          5.81358        2.89950       -3.80879
| 11> H          2.74138        4.51311       -5.82470
| 12> H          4.28755        4.52126       -6.61434
| 13> H          3.86125        3.59725       -2.66298
| 14> H          2.44649        3.97346       -3.65656
| 15> H          2.44395        1.61721       -4.48352
| 16> H          2.30781        1.67290       -2.74242
| 17> H          3.83491        1.26414       -3.48670
| 18> *
| 19> %MaxCore 64000
| 20>
| 21> %pal nprocs 4
| 22> end
| 23>
| 24> %scf
| 25>   MaxIter 150
| 26> end
| 27>
| 28>
| 29>                          ****END OF INPUT****

CARTESIAN COORDINATES (ANGSTROEM)
---------------------------------
  C      3.343500    3.354570   -3.592000
  C      2.952630    1.863080   -3.574850
  C      4.255870    3.703850   -4.726050
  N      3.734030    4.293780   -5.800770
  N      5.515040    3.407250   -4.637180
  H      6.149190    3.601200   -5.399050
  H      5.813580    2.899500   -3.808790
  H      2.741380    4.513110   -5.824700
  H      4.287550    4.521260   -6.614340
  H      3.861250    3.597250   -2.662980
  H      2.446490    3.973460   -3.656560
  H      2.443950    1.617210   -4.483520
  H      2.307810    1.672900   -2.742420
  H      3.834910    1.264140   -3.486700

 Total Charge           Charge          ....    1
 Multiplicity           Mult            ....    1
 Number of Electrons    NEL             ....   40
 Basis Dimension        Dim             ....  115

ORBITAL ENERGIES
----------------

  NO   OCC          E(Eh)            E(eV)
   0   2.0000     -14.653538      -398.7430
   1   2.0000     -14.648051      -398.5937
   2   2.0000     -10.582938      -287.9764
   3   2.0000     -10.456150      -284.5263
   4   2.0000     -10.415312      -283.4151
   5   2.0000      -1.280204       -34.8361
   6   2.0000      -1.181949       -32.1625
   7   2.0000      -1.044419       -28.4201
   8   2.0000      -0.932601       -25.3774
   9   2.0000      -0.888641       -24.1811
  10   2.0000      -0.850556       -23.1448
  11   2.0000      -0.821303       -22.3488
  12   2.0000      -0.771965       -21.0062
  13   2.0000      -0.720085       -19.5945
  14   2.0000      -0.693286       -18.8653
  15   2.0000      -0.682135       -18.5618
  16   2.0000      -0.610229       -16.6052
  17   2.0000      -0.601702       -16.3731
  18   2.0000      -0.593522       -16.1506
  19   2.0000      -0.555819       -15.1246
  20   0.0000      -0.152074        -4.1382
  21   0.0000      -0.103374        -2.8129
  22   0.0000      -0.056998        -1.5510
  23   0.0000      -0.054720        -1.4890
  24   0.0000      -0.026685        -0.7261

MULLIKEN ATOMIC CHARGES
-----------------------
   0 C :   -0.010907
   1 C :    0.030917
   2 C :   -0.091627
   3 N :    0.005271
   4 N :    0.059846
   5 H :    0.176061
   6 H :    0.186232
   7 H :    0.186073
   8 H :    0.170859
   9 H :    0.075120
  10 H :    0.057912
  11 H :    0.043194
  12 H :    0.077895
  13 H :    0.033153
Sum of atomic charges:    1.0000000

LOEWDIN ATOMIC CHARGES
----------------------
   0 C :   -0.032623
   1 C :   -0.020534
   2 C :    0.155415
   3 N :    0.083815
   4 N :    0.108343
   5 H :    0.115794
   6 H :    0.125665
   7 H :    0.122726
   8 H :    0.110524
   9 H :    0.058325
  10 H :    0.053164
  11 H :    0.036388
  12 H :    0.052806
  13 H :    0.030191

  Mayer bond orders larger than 0.100000
B(  0-C ,  1-C ) :   1.0721 B(  0-C ,  2-C ) :   1.0261 B(  0-C ,  9-H ) :   0.9260
B(  0-C , 10-H ) :   0.9264 B(  1-C , 11-H ) :   0.9702 B(  1-C , 12-H ) :   0.9650
B(  1-C , 13-H ) :   0.9727 B(  2-C ,  3-N ) :   1.5017 B(  2-C ,  4-N ) :   1.5435
B(  3-N ,  7-H ) :   0.9210 B(  3-N ,  8-H ) :   0.9315 B(  4-N ,  5-H ) :   0.9263
B(  4-N ,  6-H ) :   0.9152

FINAL SINGLE POINT ENERGY      -228.739736466786

DIPOLE MOMENT
-------------
                                X             Y             Z
Electronic contribution:      2.40963       2.59731      -2.32235
Nuclear contribution   :     -1.74195      -2.09431       1.58516
                        -----------------------------------------
Total Dipole Moment    :      0.66768       0.50300      -0.73719
                        -----------------------------------------
Magnitude (a.u.)       :      1.11457
Magnitude (Debye)      :      2.83301

Rotational constants in cm-1:     0.258965     0.126500     0.098780
Rotational constants in MHz :  7763.584551  3792.383135  2961.336502

                             ****ORCA TERMINATED NORMALLY****
TOTAL RUN TIME: 0 days 0 hours 0 minutes 19 seconds 393 msec
