                         Program Version 5.0.0 -  RELEASE  -
|  1> !CAM-B3LYP RIJCOSX def2-TZVP def2/J TightSCF xyzfile
|  2>
|  3> *xyzfile 0 1 B.xyz
|  4>
|  5> %MaxCore 64000
|  6>
|  7> %pal nprocs 18
|  8> end
|  9>
| 10> %scf
| 11>   MaxIter 150
| 12> end
| 13>
| 14>
| 15>                          ****END OF INPUT****

CARTESIAN COORDINATES (ANGSTROEM)
---------------------------------
  C      3.343500    3.354571   -3.591998
  C      2.952633    1.863077   -3.574849
  C      4.129209    0.898394   -3.418950
  H      3.733687   -0.100605   -3.237633
  H      4.719095    0.862556   -4.339005
  C      5.017344    1.315212   -2.221305
  C      4.255868    3.703851   -4.726054
  N      3.734032    4.293783   -5.800770
  N      5.515039    3.407255   -4.637185
  H      6.149187    3.601203   -5.399053
  H      5.813584    2.899504   -3.808785
  H      2.741380    4.513109   -5.824701
  H      4.287548    4.521260   -6.614341
  H      2.278938    1.735250   -2.725496
  H      2.377466    1.625787   -4.475869
  O      4.737055    0.854112   -1.122825
  O      5.928146    2.168108   -2.491365
  H      3.861246    3.597252   -2.662979
  H      2.446493    3.973461   -3.656556

 Total Charge           Charge          ....    0
 Multiplicity           Mult            ....    1
 Number of Electrons    NEL             ....   70
 Basis Dimension        Dim             ....  339

ORBITAL ENERGIES
----------------

  NO   OCC          E(Eh)            E(eV)
   0   2.0000     -19.102813      -519.8140
   1   2.0000     -19.090324      -519.4741
   2   2.0000     -14.487391      -394.2220
   3   2.0000     -14.447616      -393.1396
   4   2.0000     -10.409004      -283.2434
   5   2.0000     -10.290867      -280.0287
   6   2.0000     -10.287751      -279.9439
   7   2.0000     -10.262706      -279.2624
   8   2.0000     -10.221343      -278.1369
   9   2.0000      -1.130002       -30.7489
  10   2.0000      -1.072470       -29.1834
  11   2.0000      -1.032425       -28.0937
  12   2.0000      -0.981670       -26.7126
  13   2.0000      -0.906741       -24.6737
  14   2.0000      -0.818646       -22.2765
  15   2.0000      -0.753813       -20.5123
  16   2.0000      -0.708476       -19.2786
  17   2.0000      -0.692159       -18.8346
  18   2.0000      -0.661673       -18.0050
  19   2.0000      -0.615197       -16.7404
  20   2.0000      -0.573619       -15.6090
  21   2.0000      -0.555877       -15.1262
  22   2.0000      -0.532468       -14.4892
  23   2.0000      -0.518065       -14.0973
  24   2.0000      -0.493075       -13.4172
  25   2.0000      -0.466299       -12.6886
  26   2.0000      -0.445673       -12.1274
  27   2.0000      -0.439276       -11.9533
  28   2.0000      -0.433945       -11.8082
  29   2.0000      -0.404674       -11.0117
  30   2.0000      -0.394287       -10.7291
  31   2.0000      -0.393589       -10.7101
  32   2.0000      -0.280947        -7.6450
  33   2.0000      -0.277023        -7.5382
  34   2.0000      -0.256017        -6.9666
  35   0.0000      -0.001853        -0.0504
  36   0.0000       0.007358         0.2002
  37   0.0000       0.046838         1.2745
  38   0.0000       0.072915         1.9841
  39   0.0000       0.091876         2.5001

MULLIKEN ATOMIC CHARGES
-----------------------
   0 C :   -0.288797
   1 C :   -0.195573
   2 C :   -0.245153
   3 H :    0.108722
   4 H :    0.091906
   5 C :    0.250397
   6 C :    0.287713
   7 N :   -0.385440
   8 N :   -0.300222
   9 H :    0.223860
  10 H :    0.309397
  11 H :    0.268267
  12 H :    0.249464
  13 H :    0.131603
  14 H :    0.095685
  15 O :   -0.392415
  16 O :   -0.528081
  17 H :    0.203142
  18 H :    0.115525
Sum of atomic charges:    0.0000000

LOEWDIN ATOMIC CHARGES
----------------------
   0 C :   -0.203737
   1 C :   -0.248789
   2 C :   -0.250055
   3 H :    0.142804
   4 H :    0.125610
   5 C :   -0.657979
   6 C :   -0.297770
   7 N :    0.050658
   8 N :    0.131796
   9 H :    0.176994
  10 H :    0.140527
  11 H :    0.192584
  12 H :    0.179494
  13 H :    0.152160
  14 H :    0.130946
  15 O :    0.004928
  16 O :   -0.089102
  17 H :    0.174841
  18 H :    0.144091

  Mayer bond orders larger than 0.100000
B(  0-C ,  1-C ) :   0.9262 B(  0-C ,  6-C ) :   0.9602 B(  0-C , 17-H ) :   0.9492
B(  0-C , 18-H ) :   0.9743 B(  1-C ,  2-C ) :   0.9785 B(  1-C , 13-H ) :   0.9614
B(  1-C , 14-H ) :   0.9677 B(  2-C ,  3-H ) :   0.9672 B(  2-C ,  4-H ) :   0.9592
B(  2-C ,  5-C ) :   0.9297 B(  5-C , 15-O ) :   2.0149 B(  5-C , 16-O ) :   1.5087
B(  6-C ,  7-N ) :   1.3283 B(  6-C ,  8-N ) :   1.6146 B(  7-N , 11-H ) :   0.9027
B(  7-N , 12-H ) :   0.9086 B(  8-N ,  9-H ) :   0.9120 B(  8-N , 10-H ) :   0.6896
B( 10-H , 16-O ) :   0.2945

FINAL SINGLE POINT ENERGY      -456.488678327008

DIPOLE MOMENT
-------------
                                X             Y             Z
Electronic contribution:      3.88135       0.03493       2.58234
Nuclear contribution   :     -5.42217       2.65262      -7.07590
                        -----------------------------------------
Total Dipole Moment    :     -1.54082       2.68756      -4.49356
                        -----------------------------------------
Magnitude (a.u.)       :      5.45795
Magnitude (Debye)      :     13.87300

Rotational constants in cm-1:     0.107541     0.035862     0.030371
Rotational constants in MHz :  3223.996852  1075.120464   910.508313

                             ****ORCA TERMINATED NORMALLY****
TOTAL RUN TIME: 0 days 0 hours 0 minutes 41 seconds 970 msec
