                         Program Version 5.0.0 -  RELEASE  -
|  1> !CAM-B3LYP RIJCOSX def2-SVP def2/J TightSCF
|  2>
|  3> *xyz 0 1
|  4> C          2.95263        1.86308       -3.57485
|  5> C          4.12921        0.89839       -3.41895
|  6> H          3.73369       -0.10060       -3.23763
|  7> H          4.71910        0.86256       -4.33901
|  8> C          5.01734        1.31521       -2.22130
|  9> F          4.73706        0.85411       -1.12283
| 10> O          5.92815        2.16811       -2.49136
| 11> H          2.35067        1.56005       -4.40594
| 12> H          3.32277        2.85258       -3.74453
| 13> H          2.36134        1.85149       -2.68315
| 14> *
| 15> %MaxCore 64000
| 16>
| 17> %pal nprocs 4
| 18> end
| 19>
| 20> %scf
| 21>   MaxIter 150
| 22> end
| 23>
| 24>
| 25>                          ****END OF INPUT****

CARTESIAN COORDINATES (ANGSTROEM)
---------------------------------
  C      2.952630    1.863080   -3.574850
  C      4.129210    0.898390   -3.418950
  H      3.733690   -0.100600   -3.237630
  H      4.719100    0.862560   -4.339010
  C      5.017340    1.315210   -2.221300
  F      4.737060    0.854110   -1.122830
  O      5.928150    2.168110   -2.491360
  H      2.350670    1.560050   -4.405940
  H      3.322770    2.852580   -3.744530
  H      2.361340    1.851490   -2.683150

 Total Charge           Charge          ....    0
 Multiplicity           Mult            ....    1
 Number of Electrons    NEL             ....   40
 Basis Dimension        Dim             ....   95

ORBITAL ENERGIES
----------------

  NO   OCC          E(Eh)            E(eV)
   0   2.0000     -24.841606      -675.9745
   1   2.0000     -19.203854      -522.5634
   2   2.0000     -10.434482      -283.9367
   3   2.0000     -10.284519      -279.8560
   4   2.0000     -10.265976      -279.3514
   5   2.0000      -1.402865       -38.1739
   6   2.0000      -1.082384       -29.4532
   7   2.0000      -0.874065       -23.7845
   8   2.0000      -0.759932       -20.6788
   9   2.0000      -0.716904       -19.5080
  10   2.0000      -0.632401       -17.2085
  11   2.0000      -0.617183       -16.7944
  12   2.0000      -0.569712       -15.5027
  13   2.0000      -0.531995       -14.4763
  14   2.0000      -0.498602       -13.5677
  15   2.0000      -0.463679       -12.6174
  16   2.0000      -0.440791       -11.9945
  17   2.0000      -0.435120       -11.8402
  18   2.0000      -0.400934       -10.9100
  19   2.0000      -0.343927        -9.3587
  20   0.0000       0.031643         0.8611
  21   0.0000       0.102686         2.7942
  22   0.0000       0.147496         4.0136
  23   0.0000       0.153346         4.1728
  24   0.0000       0.177562         4.8317

MULLIKEN ATOMIC CHARGES
-----------------------
   0 C :    0.002098
   1 C :   -0.038446
   2 H :    0.015848
   3 H :    0.048072
   4 C :    0.198477
   5 F :   -0.029517
   6 O :   -0.274959
   7 H :    0.026546
   8 H :    0.034746
   9 H :    0.017134
Sum of atomic charges:    0.0000000

LOEWDIN ATOMIC CHARGES
----------------------
   0 C :   -0.039722
   1 C :   -0.065468
   2 H :    0.025511
   3 H :    0.044032
   4 C :    0.092387
   5 F :    0.082847
   6 O :   -0.221239
   7 H :    0.028746
   8 H :    0.029462
   9 H :    0.023442

  Mayer bond orders larger than 0.100000
B(  0-C ,  1-C ) :   1.0886 B(  0-C ,  7-H ) :   0.9715 B(  0-C ,  8-H ) :   0.9734
B(  0-C ,  9-H ) :   0.9748 B(  1-C ,  2-H ) :   0.9367 B(  1-C ,  3-H ) :   0.9472
B(  1-C ,  4-C ) :   0.9948 B(  4-C ,  5-F ) :   1.2457 B(  4-C ,  6-O ) :   2.0630

FINAL SINGLE POINT ENERGY      -292.042706898381

DIPOLE MOMENT
-------------
                                X             Y             Z
Electronic contribution:      5.11667      -1.14377       6.56943
Nuclear contribution   :     -6.06116       0.51860      -6.80802
                        -----------------------------------------
Total Dipole Moment    :     -0.94449      -0.62517      -0.23859
                        -----------------------------------------
Magnitude (a.u.)       :      1.15751
Magnitude (Debye)      :      2.94215

Rotational constants in cm-1:     0.276196     0.132056     0.105465
Rotational constants in MHz :  8280.156449  3958.940601  3161.775929

                             ****ORCA TERMINATED NORMALLY****
TOTAL RUN TIME: 0 days 0 hours 0 minutes 14 seconds 37 msec
