                         Program Version 5.0.0 -  RELEASE  -
|  1> !CAM-B3LYP RIJCOSX def2-SVP def2/J TightSCF
|  2>
|  3> *xyz 0 1
|  4> C          3.34350        3.35457       -3.59200
|  5> C          2.95263        1.86308       -3.57485
|  6> C          4.25587        3.70385       -4.72605
|  7> C          3.73403        4.29378       -5.80077
|  8> N          5.51504        3.40725       -4.63718
|  9> H          6.14919        3.60120       -5.39905
| 10> H          5.81358        2.89950       -3.80879
| 11> H          2.74138        4.51311       -5.82470
| 12> H          4.28755        4.52126       -6.61434
| 13> H          3.86125        3.59725       -2.66298
| 14> H          2.44649        3.97346       -3.65656
| 15> H          2.44395        1.61721       -4.48352
| 16> H          2.30781        1.67290       -2.74242
| 17> H          3.83491        1.26414       -3.48670
| 18> *
| 19> %MaxCore 64000
| 20>
| 21> %pal nprocs 4
| 22> end
| 23>
| 24> %scf
| 25>   MaxIter 150
| 26> end
| 27>
| 28>
| 29>                          ****END OF INPUT****

CARTESIAN COORDINATES (ANGSTROEM)
---------------------------------
  C      3.343500    3.354570   -3.592000
  C      2.952630    1.863080   -3.574850
  C      4.255870    3.703850   -4.726050
  C      3.734030    4.293780   -5.800770
  N      5.515040    3.407250   -4.637180
  H      6.149190    3.601200   -5.399050
  H      5.813580    2.899500   -3.808790
  H      2.741380    4.513110   -5.824700
  H      4.287550    4.521260   -6.614340
  H      3.861250    3.597250   -2.662980
  H      2.446490    3.973460   -3.656560
  H      2.443950    1.617210   -4.483520
  H      2.307810    1.672900   -2.742420
  H      3.834910    1.264140   -3.486700

 Total Charge           Charge          ....    0
 Multiplicity           Mult            ....    1
 Number of Electrons    NEL             ....   40
 Basis Dimension        Dim             ....  115

ORBITAL ENERGIES
----------------

  NO   OCC          E(Eh)            E(eV)
   0   2.0000     -14.400317      -391.8525
   1   2.0000     -10.272351      -279.5249
   2   2.0000     -10.254210      -279.0312
   3   2.0000     -10.244614      -278.7701
   4   2.0000     -10.184388      -277.1313
   5   2.0000      -1.004455       -27.3326
   6   2.0000      -0.849539       -23.1171
   7   2.0000      -0.781623       -21.2690
   8   2.0000      -0.704662       -19.1748
   9   2.0000      -0.635337       -17.2884
  10   2.0000      -0.596785       -16.2393
  11   2.0000      -0.544589       -14.8190
  12   2.0000      -0.503874       -13.7111
  13   2.0000      -0.485811       -13.2196
  14   2.0000      -0.455790       -12.4027
  15   2.0000      -0.444782       -12.1031
  16   2.0000      -0.416593       -11.3361
  17   2.0000      -0.394967       -10.7476
  18   2.0000      -0.392456       -10.6793
  19   2.0000      -0.237112        -6.4521
  20   0.0000       0.087315         2.3760
  21   0.0000       0.114133         3.1057
  22   0.0000       0.137968         3.7543
  23   0.0000       0.147205         4.0057
  24   0.0000       0.160225         4.3599

MULLIKEN ATOMIC CHARGES
-----------------------
   0 C :    0.044935
   1 C :    0.048904
   2 C :   -0.152439
   3 C :   -0.039079
   4 N :   -0.024413
   5 H :    0.114585
   6 H :    0.106723
   7 H :   -0.047067
   8 H :   -0.064623
   9 H :   -0.009284
  10 H :    0.008343
  11 H :    0.011039
  12 H :    0.009966
  13 H :   -0.007590
Sum of atomic charges:    0.0000000

LOEWDIN ATOMIC CHARGES
----------------------
   0 C :   -0.026306
   1 C :   -0.044409
   2 C :    0.004517
   3 C :   -0.186315
   4 N :    0.003692
   5 H :    0.079754
   6 H :    0.072972
   7 H :   -0.002202
   8 H :   -0.011367
   9 H :    0.016905
  10 H :    0.033294
  11 H :    0.024128
  12 H :    0.021155
  13 H :    0.014183

  Mayer bond orders larger than 0.100000
B(  0-C ,  1-C ) :   1.0912 B(  0-C ,  2-C ) :   1.0297 B(  0-C ,  9-H ) :   0.9317
B(  0-C , 10-H ) :   0.9357 B(  1-C , 11-H ) :   0.9699 B(  1-C , 12-H ) :   0.9696
B(  1-C , 13-H ) :   0.9702 B(  2-C ,  3-C ) :   1.8624 B(  2-C ,  4-N ) :   1.2906
B(  3-C ,  7-H ) :   0.9374 B(  3-C ,  8-H ) :   0.9491 B(  4-N ,  5-H ) :   0.9462
B(  4-N ,  6-H ) :   0.9472

FINAL SINGLE POINT ENERGY      -212.277814114277

DIPOLE MOMENT
-------------
                                X             Y             Z
Electronic contribution:      2.39898       1.45205      -0.83106
Nuclear contribution   :     -1.79713      -1.86925       1.28073
                        -----------------------------------------
Total Dipole Moment    :      0.60185      -0.41719       0.44967
                        -----------------------------------------
Magnitude (a.u.)       :      0.85935
Magnitude (Debye)      :      2.18429

Rotational constants in cm-1:     0.269040     0.129645     0.102087
Rotational constants in MHz :  8065.609820  3886.645139  3060.489045

                             ****ORCA TERMINATED NORMALLY****
TOTAL RUN TIME: 0 days 0 hours 0 minutes 20 seconds 43 msec
