                         Program Version 5.0.0 -  RELEASE  -
|  1> !CAM-B3LYP RIJCOSX def2-SVP def2/J TightSCF
|  2>
|  3> *xyz 0 1
|  4> C          2.95263        1.86308       -3.57485
|  5> C          4.12921        0.89839       -3.41895
|  6> H          3.73369       -0.10060       -3.23763
|  7> H          4.71910        0.86256       -4.33901
|  8> C          5.01734        1.31521       -2.22130
|  9> O          4.73706        0.85411       -1.12283
| 10> F          5.92815        2.16811       -2.49136
| 11> H          2.35067        1.56005       -4.40594
| 12> H          3.32277        2.85258       -3.74453
| 13> H          2.36134        1.85149       -2.68315
| 14> *
| 15> %MaxCore 64000
| 16>
| 17> %pal nprocs 4
| 18> end
| 19>
| 20> %scf
| 21>   MaxIter 150
| 22> end
| 23>
| 24>
| 25>                          ****END OF INPUT****

CARTESIAN COORDINATES (ANGSTROEM)
---------------------------------
  C      2.952630    1.863080   -3.574850
  C      4.129210    0.898390   -3.418950
  H      3.733690   -0.100600   -3.237630
  H      4.719100    0.862560   -4.339010
  C      5.017340    1.315210   -2.221300
  O      4.737060    0.854110   -1.122830
  F      5.928150    2.168110   -2.491360
  H      2.350670    1.560050   -4.405940
  H      3.322770    2.852580   -3.744530
  H      2.361340    1.851490   -2.683150

 Total Charge           Charge          ....    0
 Multiplicity           Mult            ....    1
 Number of Electrons    NEL             ....   40
 Basis Dimension        Dim             ....   95

ORBITAL ENERGIES
----------------

  NO   OCC          E(Eh)            E(eV)
   0   2.0000     -24.819873      -675.3831
   1   2.0000     -19.214779      -522.8607
   2   2.0000     -10.431073      -283.8439
   3   2.0000     -10.284193      -279.8471
   4   2.0000     -10.266428      -279.3637
   5   2.0000      -1.361306       -37.0430
   6   2.0000      -1.117091       -30.3976
   7   2.0000      -0.874075       -23.7848
   8   2.0000      -0.749865       -20.4049
   9   2.0000      -0.702054       -19.1039
  10   2.0000      -0.612160       -16.6577
  11   2.0000      -0.596910       -16.2428
  12   2.0000      -0.569295       -15.4913
  13   2.0000      -0.530798       -14.4438
  14   2.0000      -0.502814       -13.6823
  15   2.0000      -0.467383       -12.7181
  16   2.0000      -0.449405       -12.2289
  17   2.0000      -0.434915       -11.8346
  18   2.0000      -0.419370       -11.4116
  19   2.0000      -0.355704        -9.6792
  20   0.0000       0.036874         1.0034
  21   0.0000       0.102963         2.8018
  22   0.0000       0.146721         3.9925
  23   0.0000       0.153916         4.1883
  24   0.0000       0.177381         4.8268

MULLIKEN ATOMIC CHARGES
-----------------------
   0 C :   -0.000310
   1 C :   -0.040072
   2 H :    0.041353
   3 H :    0.024227
   4 C :    0.204026
   5 O :   -0.210402
   6 F :   -0.098685
   7 H :    0.027039
   8 H :    0.020192
   9 H :    0.032632
Sum of atomic charges:   -0.0000000

LOEWDIN ATOMIC CHARGES
----------------------
   0 C :   -0.040042
   1 C :   -0.066054
   2 H :    0.041343
   3 H :    0.029317
   4 C :    0.100877
   5 O :   -0.162567
   6 F :    0.015134
   7 H :    0.028948
   8 H :    0.023931
   9 H :    0.029114

  Mayer bond orders larger than 0.100000
B(  0-C ,  1-C ) :   1.0888 B(  0-C ,  7-H ) :   0.9717 B(  0-C ,  8-H ) :   0.9754
B(  0-C ,  9-H ) :   0.9735 B(  1-C ,  2-H ) :   0.9473 B(  1-C ,  3-H ) :   0.9387
B(  1-C ,  4-C ) :   0.9932 B(  4-C ,  5-O ) :   2.1391 B(  4-C ,  6-F ) :   1.1725

FINAL SINGLE POINT ENERGY      -292.059635682253

DIPOLE MOMENT
-------------
                                X             Y             Z
Electronic contribution:      7.07170       1.01827       4.30585
Nuclear contribution   :     -7.35982      -0.91407      -5.31589
                        -----------------------------------------
Total Dipole Moment    :     -0.28812       0.10420      -1.01004
                        -----------------------------------------
Magnitude (a.u.)       :      1.05549
Magnitude (Debye)      :      2.68284

Rotational constants in cm-1:     0.275433     0.132201     0.105422
Rotational constants in MHz :  8257.268192  3963.279062  3160.465566

                             ****ORCA TERMINATED NORMALLY****
TOTAL RUN TIME: 0 days 0 hours 0 minutes 15 seconds 981 msec
