                         Program Version 5.0.0 -  RELEASE  -
|  1> !CAM-B3LYP RIJCOSX def2-SVP def2/J TightSCF
|  2>
|  3> *xyz 0 1
|  4> C          3.34350        3.35457       -3.59200
|  5> C          2.95263        1.86308       -3.57485
|  6> C          4.25587        3.70385       -4.72605
|  7> N          3.73403        4.29378       -5.80077
|  8> C          5.51504        3.40725       -4.63718
|  9> H          6.14919        3.60120       -5.39905
| 10> H          5.81358        2.89950       -3.80879
| 11> H          2.74138        4.51311       -5.82470
| 12> H          4.28755        4.52126       -6.61434
| 13> H          3.86125        3.59725       -2.66298
| 14> H          2.44649        3.97346       -3.65656
| 15> H          2.44395        1.61721       -4.48352
| 16> H          2.30781        1.67290       -2.74242
| 17> H          3.83491        1.26414       -3.48670
| 18> *
| 19> %MaxCore 64000
| 20>
| 21> %pal nprocs 4
| 22> end
| 23>
| 24> %scf
| 25>   MaxIter 150
| 26> end
| 27>
| 28>
| 29>                          ****END OF INPUT****

CARTESIAN COORDINATES (ANGSTROEM)
---------------------------------
  C      3.343500    3.354570   -3.592000
  C      2.952630    1.863080   -3.574850
  C      4.255870    3.703850   -4.726050
  N      3.734030    4.293780   -5.800770
  C      5.515040    3.407250   -4.637180
  H      6.149190    3.601200   -5.399050
  H      5.813580    2.899500   -3.808790
  H      2.741380    4.513110   -5.824700
  H      4.287550    4.521260   -6.614340
  H      3.861250    3.597250   -2.662980
  H      2.446490    3.973460   -3.656560
  H      2.443950    1.617210   -4.483520
  H      2.307810    1.672900   -2.742420
  H      3.834910    1.264140   -3.486700

 Total Charge           Charge          ....    0
 Multiplicity           Mult            ....    1
 Number of Electrons    NEL             ....   40
 Basis Dimension        Dim             ....  115

ORBITAL ENERGIES
----------------

  NO   OCC          E(Eh)            E(eV)
   0   2.0000     -14.395114      -391.7110
   1   2.0000     -10.269812      -279.4558
   2   2.0000     -10.253750      -279.0187
   3   2.0000     -10.242253      -278.7059
   4   2.0000     -10.183481      -277.1066
   5   2.0000      -0.989106       -26.9149
   6   2.0000      -0.851538       -23.1715
   7   2.0000      -0.785609       -21.3775
   8   2.0000      -0.705881       -19.2080
   9   2.0000      -0.628358       -17.0985
  10   2.0000      -0.584188       -15.8966
  11   2.0000      -0.548018       -14.9123
  12   2.0000      -0.505515       -13.7558
  13   2.0000      -0.478662       -13.0251
  14   2.0000      -0.455668       -12.3993
  15   2.0000      -0.446121       -12.1396
  16   2.0000      -0.411967       -11.2102
  17   2.0000      -0.399096       -10.8599
  18   2.0000      -0.387996       -10.5579
  19   2.0000      -0.242011        -6.5855
  20   0.0000       0.091219         2.4822
  21   0.0000       0.114356         3.1118
  22   0.0000       0.139398         3.7932
  23   0.0000       0.144406         3.9295
  24   0.0000       0.164350         4.4722

MULLIKEN ATOMIC CHARGES
-----------------------
   0 C :    0.046969
   1 C :    0.047315
   2 C :   -0.114928
   3 N :   -0.078370
   4 C :   -0.020662
   5 H :   -0.063345
   6 H :   -0.047013
   7 H :    0.104900
   8 H :    0.108409
   9 H :    0.016261
  10 H :   -0.019383
  11 H :    0.002299
  12 H :    0.006441
  13 H :    0.011107
Sum of atomic charges:    0.0000000

LOEWDIN ATOMIC CHARGES
----------------------
   0 C :   -0.027101
   1 C :   -0.040956
   2 C :    0.011702
   3 N :   -0.018958
   4 C :   -0.170836
   5 H :   -0.007268
   6 H :    0.000483
   7 H :    0.069294
   8 H :    0.073809
   9 H :    0.033473
  10 H :    0.015208
  11 H :    0.019329
  12 H :    0.019174
  13 H :    0.022646

  Mayer bond orders larger than 0.100000
B(  0-C ,  1-C ) :   1.0983 B(  0-C ,  2-C ) :   1.0116 B(  0-C ,  9-H ) :   0.9385
B(  0-C , 10-H ) :   0.9335 B(  1-C , 11-H ) :   0.9691 B(  1-C , 12-H ) :   0.9691
B(  1-C , 13-H ) :   0.9734 B(  2-C ,  3-N ) :   1.2490 B(  2-C ,  4-C ) :   1.9063
B(  3-N ,  7-H ) :   0.9520 B(  3-N ,  8-H ) :   0.9526 B(  4-C ,  5-H ) :   0.9465
B(  4-C ,  6-H ) :   0.9285

FINAL SINGLE POINT ENERGY      -212.277786003034

DIPOLE MOMENT
-------------
                                X             Y             Z
Electronic contribution:      0.72854       2.30327      -1.90760
Nuclear contribution   :     -1.38463      -2.07457       1.55023
                        -----------------------------------------
Total Dipole Moment    :     -0.65609       0.22869      -0.35737
                        -----------------------------------------
Magnitude (a.u.)       :      0.78132
Magnitude (Debye)      :      1.98597

Rotational constants in cm-1:     0.272312     0.128195     0.101724
Rotational constants in MHz :  8163.717141  3843.180148  3049.598073

                             ****ORCA TERMINATED NORMALLY****
TOTAL RUN TIME: 0 days 0 hours 0 minutes 20 seconds 162 msec
