                         Program Version 5.0.0 -  RELEASE  -
|  1> !CAM-B3LYP RIJCOSX def2-TZVP def2/J TightSCF xyzfile
|  2>
|  3> *xyzfile 0 1 D2.xyz
|  4>
|  5> %MaxCore 64000
|  6>
|  7> %pal nprocs 18
|  8> end
|  9>
| 10> %scf
| 11>   MaxIter 150
| 12> end
| 13>
| 14>
| 15>                          ****END OF INPUT****

CARTESIAN COORDINATES (ANGSTROEM)
---------------------------------
  C      3.343500    3.354571   -3.591998
  C      2.952633    1.863077   -3.574849
  C      4.129209    0.898394   -3.418950
  H      3.733687   -0.100605   -3.237633
  H      4.719095    0.862556   -4.339005
  C      5.017344    1.315212   -2.221305
  C      4.255868    3.703851   -4.726054
  N      3.734032    4.293783   -5.800770
  C      5.515039    3.407255   -4.637185
  H      6.149187    3.601203   -5.399053
  H      5.813584    2.899504   -3.808785
  H      2.741380    4.513109   -5.824701
  H      4.287548    4.521260   -6.614341
  H      2.278938    1.735250   -2.725496
  H      2.377466    1.625787   -4.475869
  F      4.737055    0.854112   -1.122825
  O      5.928146    2.168108   -2.491365
  H      3.861246    3.597252   -2.662979
  H      2.446493    3.973461   -3.656556

 Total Charge           Charge          ....    0
 Multiplicity           Mult            ....    1
 Number of Electrons    NEL             ....   70
 Basis Dimension        Dim             ....  339

ORBITAL ENERGIES
----------------

  NO   OCC          E(Eh)            E(eV)
   0   2.0000     -24.845006      -676.0670
   1   2.0000     -19.203819      -522.5625
   2   2.0000     -14.375217      -391.1695
   3   2.0000     -10.435602      -283.9672
   4   2.0000     -10.271539      -279.5028
   5   2.0000     -10.262397      -279.2540
   6   2.0000     -10.246866      -278.8314
   7   2.0000     -10.243894      -278.7505
   8   2.0000     -10.138486      -275.8822
   9   2.0000      -1.432141       -38.9705
  10   2.0000      -1.116647       -30.3855
  11   2.0000      -0.995664       -27.0934
  12   2.0000      -0.900719       -24.5098
  13   2.0000      -0.830368       -22.5955
  14   2.0000      -0.780912       -21.2497
  15   2.0000      -0.757291       -20.6069
  16   2.0000      -0.698488       -19.0068
  17   2.0000      -0.649547       -17.6751
  18   2.0000      -0.638165       -17.3654
  19   2.0000      -0.619273       -16.8513
  20   2.0000      -0.601090       -16.3565
  21   2.0000      -0.569595       -15.4995
  22   2.0000      -0.549173       -14.9438
  23   2.0000      -0.535555       -14.5732
  24   2.0000      -0.517411       -14.0795
  25   2.0000      -0.485686       -13.2162
  26   2.0000      -0.458260       -12.4699
  27   2.0000      -0.457676       -12.4540
  28   2.0000      -0.428699       -11.6655
  29   2.0000      -0.420444       -11.4409
  30   2.0000      -0.415632       -11.3099
  31   2.0000      -0.390427       -10.6241
  32   2.0000      -0.383585       -10.4379
  33   2.0000      -0.332923        -9.0593
  34   2.0000      -0.235426        -6.4063
  35   0.0000       0.013338         0.3630
  36   0.0000       0.063099         1.7170
  37   0.0000       0.085156         2.3172
  38   0.0000       0.095256         2.5920
  39   0.0000       0.109555         2.9811

MULLIKEN ATOMIC CHARGES
-----------------------
   0 C :   -0.297504
   1 C :   -0.200058
   2 C :   -0.266463
   3 H :    0.124059
   4 H :    0.167380
   5 C :    0.353418
   6 C :    0.257274
   7 N :   -0.470809
   8 C :   -0.486404
   9 H :    0.075892
  10 H :    0.189068
  11 H :    0.213648
  12 H :    0.222334
  13 H :    0.116639
  14 H :    0.116734
  15 F :   -0.064058
  16 O :   -0.307447
  17 H :    0.157044
  18 H :    0.099253
Sum of atomic charges:    0.0000000

LOEWDIN ATOMIC CHARGES
----------------------
   0 C :   -0.213517
   1 C :   -0.248831
   2 C :   -0.230213
   3 H :    0.141514
   4 H :    0.158409
   5 C :   -0.487935
   6 C :   -0.373907
   7 N :   -0.024495
   8 C :   -0.256967
   9 H :    0.094812
  10 H :    0.088478
  11 H :    0.162366
  12 H :    0.166169
  13 H :    0.138501
  14 H :    0.141968
  15 F :    0.380526
  16 O :    0.073915
  17 H :    0.152875
  18 H :    0.136332

  Mayer bond orders larger than 0.100000
B(  0-C ,  1-C ) :   0.9203 B(  0-C ,  6-C ) :   0.9055 B(  0-C , 17-H ) :   1.0044
B(  0-C , 18-H ) :   0.9883 B(  1-C ,  2-C ) :   0.9515 B(  1-C , 13-H ) :   0.9818
B(  1-C , 14-H ) :   0.9658 B(  2-C ,  3-H ) :   0.9648 B(  2-C ,  4-H ) :   0.9551
B(  2-C ,  5-C ) :   0.9847 B(  5-C , 15-F ) :   1.2067 B(  5-C , 16-O ) :   1.9589
B(  6-C ,  7-N ) :   1.1019 B(  6-C ,  8-C ) :   1.7334 B(  7-N , 11-H ) :   0.9323
B(  7-N , 12-H ) :   0.9276 B(  8-C ,  9-H ) :   0.9952 B(  8-C , 10-H ) :   0.9677

FINAL SINGLE POINT ENERGY      -464.381624836571

DIPOLE MOMENT
-------------
                                X             Y             Z
Electronic contribution:      4.27409      -5.14916       9.55467
Nuclear contribution   :     -5.64491       4.57111      -9.93176
                        -----------------------------------------
Total Dipole Moment    :     -1.37081      -0.57805      -0.37710
                        -----------------------------------------
Magnitude (a.u.)       :      1.53475
Magnitude (Debye)      :      3.90103

Rotational constants in cm-1:     0.109825     0.034347     0.029470
Rotational constants in MHz :  3292.465653  1029.684117   883.494260

                             ****ORCA TERMINATED NORMALLY****
TOTAL RUN TIME: 0 days 0 hours 0 minutes 29 seconds 151 msec
