                         Program Version 5.0.0 -  RELEASE  -
|  1> !CAM-B3LYP RIJCOSX def2-TZVP def2/J TightSCF xyzfile
|  2>
|  3> *xyzfile 0 1 D4.xyz
|  4>
|  5> %MaxCore 64000
|  6>
|  7> %pal nprocs 18
|  8> end
|  9>
| 10> %scf
| 11>   MaxIter 150
| 12> end
| 13>
| 14>
| 15>                          ****END OF INPUT****

CARTESIAN COORDINATES (ANGSTROEM)
---------------------------------
  C      3.343500    3.354571   -3.591998
  C      2.952633    1.863077   -3.574849
  C      4.129209    0.898394   -3.418950
  H      3.733687   -0.100605   -3.237633
  H      4.719095    0.862556   -4.339005
  C      5.017344    1.315212   -2.221305
  C      4.255868    3.703851   -4.726054
  N      3.734032    4.293783   -5.800770
  C      5.515039    3.407255   -4.637185
  H      6.149187    3.601203   -5.399053
  H      5.813584    2.899504   -3.808785
  H      2.741380    4.513109   -5.824701
  H      4.287548    4.521260   -6.614341
  H      2.278938    1.735250   -2.725496
  H      2.377466    1.625787   -4.475869
  O      4.737055    0.854112   -1.122825
  F      5.928146    2.168108   -2.491365
  H      3.861246    3.597252   -2.662979
  H      2.446493    3.973461   -3.656556

 Total Charge           Charge          ....    0
 Multiplicity           Mult            ....    1
 Number of Electrons    NEL             ....   70
 Basis Dimension        Dim             ....  339

ORBITAL ENERGIES
----------------

  NO   OCC          E(Eh)            E(eV)
   0   2.0000     -24.822265      -675.4482
   1   2.0000     -19.212759      -522.8058
   2   2.0000     -14.388972      -391.5438
   3   2.0000     -10.426024      -283.7065
   4   2.0000     -10.268742      -279.4267
   5   2.0000     -10.263931      -279.2958
   6   2.0000     -10.262707      -279.2624
   7   2.0000     -10.253622      -279.0152
   8   2.0000     -10.162136      -276.5258
   9   2.0000      -1.398223       -38.0476
  10   2.0000      -1.138437       -30.9784
  11   2.0000      -1.009549       -27.4712
  12   2.0000      -0.904074       -24.6011
  13   2.0000      -0.836257       -22.7557
  14   2.0000      -0.791475       -21.5371
  15   2.0000      -0.752834       -20.4856
  16   2.0000      -0.697608       -18.9829
  17   2.0000      -0.659946       -17.9581
  18   2.0000      -0.620791       -16.8926
  19   2.0000      -0.610175       -16.6037
  20   2.0000      -0.596680       -16.2365
  21   2.0000      -0.579355       -15.7651
  22   2.0000      -0.554241       -15.0817
  23   2.0000      -0.534430       -14.5426
  24   2.0000      -0.517189       -14.0734
  25   2.0000      -0.490573       -13.3492
  26   2.0000      -0.465825       -12.6757
  27   2.0000      -0.452301       -12.3077
  28   2.0000      -0.443591       -12.0707
  29   2.0000      -0.434556       -11.8249
  30   2.0000      -0.417950       -11.3730
  31   2.0000      -0.398965       -10.8564
  32   2.0000      -0.394255       -10.7282
  33   2.0000      -0.364315        -9.9135
  34   2.0000      -0.252384        -6.8677
  35   0.0000       0.024306         0.6614
  36   0.0000       0.059205         1.6111
  37   0.0000       0.080801         2.1987
  38   0.0000       0.093259         2.5377
  39   0.0000       0.103204         2.8083

MULLIKEN ATOMIC CHARGES
-----------------------
   0 C :   -0.314667
   1 C :   -0.179792
   2 C :   -0.264693
   3 H :    0.132883
   4 H :    0.158581
   5 C :    0.330341
   6 C :    0.275724
   7 N :   -0.465259
   8 C :   -0.469130
   9 H :    0.086862
  10 H :    0.130937
  11 H :    0.220313
  12 H :    0.225490
  13 H :    0.124800
  14 H :    0.110788
  15 O :   -0.272573
  16 F :   -0.093364
  17 H :    0.156720
  18 H :    0.106040
Sum of atomic charges:   -0.0000000

LOEWDIN ATOMIC CHARGES
----------------------
   0 C :   -0.211297
   1 C :   -0.245919
   2 C :   -0.229143
   3 H :    0.150650
   4 H :    0.148744
   5 C :   -0.491504
   6 C :   -0.365999
   7 N :   -0.015631
   8 C :   -0.268384
   9 H :    0.097895
  10 H :    0.091918
  11 H :    0.166139
  12 H :    0.168176
  13 H :    0.143844
  14 H :    0.140407
  15 O :    0.110415
  16 F :    0.318402
  17 H :    0.152491
  18 H :    0.138795

  Mayer bond orders larger than 0.100000
B(  0-C ,  1-C ) :   0.9336 B(  0-C ,  6-C ) :   0.8991 B(  0-C , 17-H ) :   1.0049
B(  0-C , 18-H ) :   0.9885 B(  1-C ,  2-C ) :   0.9576 B(  1-C , 13-H ) :   0.9748
B(  1-C , 14-H ) :   0.9634 B(  2-C ,  3-H ) :   0.9668 B(  2-C ,  4-H ) :   0.9484
B(  2-C ,  5-C ) :   0.9709 B(  5-C , 15-O ) :   2.1355 B(  5-C , 16-F ) :   1.0963
B(  6-C ,  7-N ) :   1.1232 B(  6-C ,  8-C ) :   1.7193 B(  7-N , 11-H ) :   0.9296
B(  7-N , 12-H ) :   0.9266 B(  8-C ,  9-H ) :   0.9937 B(  8-C , 10-H ) :   1.0108

FINAL SINGLE POINT ENERGY      -464.400671194119

DIPOLE MOMENT
-------------
                                X             Y             Z
Electronic contribution:      6.16036      -2.81605       7.08080
Nuclear contribution   :     -6.99695       3.07955      -8.37829
                        -----------------------------------------
Total Dipole Moment    :     -0.83659       0.26350      -1.29749
                        -----------------------------------------
Magnitude (a.u.)       :      1.56614
Magnitude (Debye)      :      3.98081

Rotational constants in cm-1:     0.106302     0.035771     0.030198
Rotational constants in MHz :  3186.860872  1072.397550   905.318354

                             ****ORCA TERMINATED NORMALLY****
TOTAL RUN TIME: 0 days 0 hours 0 minutes 35 seconds 164 msec
