                         Program Version 5.0.0 -  RELEASE  -
|  1> !CAM-B3LYP RIJCOSX def2-SVP def2/J TightSCF
|  2> *xyz -1 1
|  3> C         -2.79070       -0.78527        5.70281
|  4> C         -2.45380        0.05510        6.94145
|  5> C         -2.07842        1.48042        6.56410
|  6> H         -1.62558       -0.38216        7.49891
|  7> H         -3.32527        0.08775        7.59917
|  8> O         -0.90125        1.85816        6.82810
|  9> O         -2.93658        2.17731        5.96415
| 10> H         -1.94052       -0.82114        5.05412
| 11> H         -3.61590       -0.34261        5.18514
| 12> H         -3.05063       -1.77815        6.00536
| 13> *
| 14> %MaxCore 64000
| 15>
| 16> %pal nprocs 4
| 17> end
| 18>
| 19> %scf
| 20>   MaxIter 150
| 21> end
| 22>
| 23>
| 24>                          ****END OF INPUT****

CARTESIAN COORDINATES (ANGSTROEM)
---------------------------------
  C     -2.790700   -0.785270    5.702810
  C     -2.453800    0.055100    6.941450
  C     -2.078420    1.480420    6.564100
  H     -1.625580   -0.382160    7.498910
  H     -3.325270    0.087750    7.599170
  O     -0.901250    1.858160    6.828100
  O     -2.936580    2.177310    5.964150
  H     -1.940520   -0.821140    5.054120
  H     -3.615900   -0.342610    5.185140
  H     -3.050630   -1.778150    6.005360

 Total Charge           Charge          ....   -1
 Multiplicity           Mult            ....    1
 Number of Electrons    NEL             ....   40
 Basis Dimension        Dim             ....   95

ORBITAL ENERGIES
----------------

  NO   OCC          E(Eh)            E(eV)
   0   2.0000     -18.905069      -514.4331
   1   2.0000     -18.902780      -514.3708
   2   2.0000     -10.111205      -275.1399
   3   2.0000     -10.089351      -274.5452
   4   2.0000     -10.067150      -273.9411
   5   2.0000      -0.852312       -23.1926
   6   2.0000      -0.755170       -20.5492
   7   2.0000      -0.668838       -18.2000
   8   2.0000      -0.533498       -14.5172
   9   2.0000      -0.373483       -10.1630
  10   2.0000      -0.350789        -9.5454
  11   2.0000      -0.305829        -8.3220
  12   2.0000      -0.279408        -7.6031
  13   2.0000      -0.262636        -7.1467
  14   2.0000      -0.250588        -6.8188
  15   2.0000      -0.215619        -5.8673
  16   2.0000      -0.201846        -5.4925
  17   2.0000      -0.073329        -1.9954
  18   2.0000      -0.071670        -1.9502
  19   2.0000      -0.055800        -1.5184
  20   0.0000       0.256717         6.9856
  21   0.0000       0.307958         8.3800
  22   0.0000       0.324215         8.8223
  23   0.0000       0.325846         8.8667
  24   0.0000       0.336541         9.1577

MULLIKEN ATOMIC CHARGES
-----------------------
   0 C :    0.028267
   1 C :    0.046884
   2 C :   -0.005481
   3 H :   -0.062525
   4 H :   -0.052773
   5 O :   -0.434227
   6 O :   -0.434778
   7 H :   -0.019298
   8 H :   -0.010775
   9 H :   -0.055294
Sum of atomic charges:   -1.0000000

LOEWDIN ATOMIC CHARGES
----------------------
   0 C :   -0.058664
   1 C :   -0.084987
   2 C :   -0.050235
   3 H :   -0.005031
   4 H :    0.000522
   5 O :   -0.407334
   6 O :   -0.406034
   7 H :    0.009614
   8 H :    0.010395
   9 H :   -0.008245

  Mayer bond orders larger than 0.100000
B(  0-C ,  1-C ) :   1.0958 B(  0-C ,  7-H ) :   0.9721 B(  0-C ,  8-H ) :   0.9634
B(  0-C ,  9-H ) :   0.9647 B(  1-C ,  2-C ) :   0.9261 B(  1-C ,  3-H ) :   0.9336
B(  1-C ,  4-H ) :   0.9311 B(  2-C ,  5-O ) :   1.8751 B(  2-C ,  6-O ) :   1.8494
B(  5-O ,  6-O ) :   0.1113

FINAL SINGLE POINT ENERGY      -267.496754980932

DIPOLE MOMENT
-------------
                                X             Y             Z
Electronic contribution:      1.69120       5.72274       0.64099
Nuclear contribution   :     -2.24498      -7.51881      -0.57245
                        -----------------------------------------
Total Dipole Moment    :     -0.55378      -1.79607       0.06853
                        -----------------------------------------
Magnitude (a.u.)       :      1.88075
Magnitude (Debye)      :      4.78050

Rotational constants in cm-1:     0.305589     0.135336     0.107479
Rotational constants in MHz :  9161.317320  4057.276612  3222.126231

                             ****ORCA TERMINATED NORMALLY****
TOTAL RUN TIME: 0 days 0 hours 0 minutes 13 seconds 787 msec
