                         Program Version 5.0.0 -  RELEASE  -
|  1> !CAM-B3LYP RIJCOSX def2-SVP def2/J TightSCF
|  2> *xyz 1 1
|  3> C         -0.69912        3.48945        3.75516
|  4> H         -0.96672        4.34901        3.14049
|  5> N         -1.08067        3.79296        5.15686
|  6> C          0.77696        3.13839        3.61741
|  7> H         -1.33146        2.65651        3.44632
|  8> H         -0.87449        4.76274        5.42734
|  9> H         -0.68079        3.13476        5.83900
| 10> H         -2.05755        3.53169        5.34620
| 11> H          0.99957        2.92898        2.59199
| 12> H          0.99576        2.27685        4.21303
| 13> H          1.37223        3.96279        3.95046
| 14> *
| 15> %MaxCore 64000
| 16>
| 17> %pal nprocs 4
| 18> end
| 19>
| 20> %scf
| 21>   MaxIter 150
| 22> end
| 23>
| 24>
| 25>                          ****END OF INPUT****

CARTESIAN COORDINATES (ANGSTROEM)
---------------------------------
  C     -0.699120    3.489450    3.755160
  H     -0.966720    4.349010    3.140490
  N     -1.080670    3.792960    5.156860
  C      0.776960    3.138390    3.617410
  H     -1.331460    2.656510    3.446320
  H     -0.874490    4.762740    5.427340
  H     -0.680790    3.134760    5.839000
  H     -2.057550    3.531690    5.346200
  H      0.999570    2.928980    2.591990
  H      0.995760    2.276850    4.213030
  H      1.372230    3.962790    3.950460

 Total Charge           Charge          ....    1
 Multiplicity           Mult            ....    1
 Number of Electrons    NEL             ....   26
 Basis Dimension        Dim             ....   82

ORBITAL ENERGIES
----------------

  NO   OCC          E(Eh)            E(eV)
   0   2.0000     -14.743797      -401.1991
   1   2.0000     -10.512990      -286.0730
   2   2.0000     -10.433339      -283.9056
   3   2.0000      -1.294356       -35.2212
   4   2.0000      -1.042517       -28.3683
   5   2.0000      -0.919544       -25.0221
   6   2.0000      -0.890041       -24.2193
   7   2.0000      -0.840733       -22.8775
   8   2.0000      -0.769557       -20.9407
   9   2.0000      -0.712739       -19.3946
  10   2.0000      -0.648012       -17.6333
  11   2.0000      -0.633434       -17.2366
  12   2.0000      -0.615373       -16.7451
  13   0.0000      -0.144674        -3.9368
  14   0.0000      -0.083247        -2.2653
  15   0.0000      -0.080489        -2.1902
  16   0.0000      -0.047798        -1.3006
  17   0.0000      -0.006115        -0.1664

MULLIKEN ATOMIC CHARGES
-----------------------
   0 C :   -0.031936
   1 H :    0.101007
   2 N :    0.010985
   3 C :   -0.009326
   4 H :    0.091573
   5 H :    0.225294
   6 H :    0.201510
   7 H :    0.210505
   8 H :    0.091045
   9 H :    0.053660
  10 H :    0.055683
Sum of atomic charges:    1.0000000

LOEWDIN ATOMIC CHARGES
----------------------
   0 C :    0.050375
   1 H :    0.056796
   2 N :    0.288162
   3 C :   -0.038702
   4 H :    0.053347
   5 H :    0.149770
   6 H :    0.146107
   7 H :    0.151871
   8 H :    0.063421
   9 H :    0.038765
  10 H :    0.040090

  Mayer bond orders larger than 0.100000
B(  0-C ,  1-H ) :   0.9533 B(  0-C ,  2-N ) :   0.9216 B(  0-C ,  3-C ) :   1.0993
B(  0-C ,  4-H ) :   0.9561 B(  2-N ,  5-H ) :   0.9321 B(  2-N ,  6-H ) :   0.9323
B(  2-N ,  7-H ) :   0.9336 B(  3-C ,  8-H ) :   0.9589 B(  3-C ,  9-H ) :   0.9679
B(  3-C , 10-H ) :   0.9717

FINAL SINGLE POINT ENERGY      -135.347408356504

DIPOLE MOMENT
-------------
                                X             Y             Z
Electronic contribution:     -1.36566       0.58743       1.15391
Nuclear contribution   :      0.33986      -0.24565       0.10678
                        -----------------------------------------
Total Dipole Moment    :     -1.02581       0.34177       1.26069
                        -----------------------------------------
Magnitude (a.u.)       :      1.66085
Magnitude (Debye)      :      4.22155

Rotational constants in cm-1:     1.016237     0.277523     0.247812
Rotational constants in MHz : 30466.024354  8319.937961  7429.230177

                             ****ORCA TERMINATED NORMALLY****
TOTAL RUN TIME: 0 days 0 hours 0 minutes 11 seconds 47 msec
