                         Program Version 5.0.0 -  RELEASE  -
|  1> !CAM-B3LYP RIJCOSX def2-SVP def2/J TightSCF
|  2> *xyz 0 1
|  3> C         -2.79070       -0.78527        5.70281
|  4> C         -2.45380        0.05510        6.94145
|  5> C         -2.07842        1.48042        6.56410
|  6> H         -1.62558       -0.38216        7.49891
|  7> H         -3.32527        0.08775        7.59917
|  8> F         -0.90125        1.85816        6.82810
|  9> O         -2.93658        2.17731        5.96415
| 10> H         -1.94052       -0.82114        5.05412
| 11> H         -3.61590       -0.34261        5.18514
| 12> H         -3.05063       -1.77815        6.00536
| 13> *
| 14> %MaxCore 64000
| 15>
| 16> %pal nprocs 4
| 17> end
| 18>
| 19> %scf
| 20>   MaxIter 150
| 21> end
| 22>
| 23>
| 24>                          ****END OF INPUT****

CARTESIAN COORDINATES (ANGSTROEM)
---------------------------------
  C     -2.790700   -0.785270    5.702810
  C     -2.453800    0.055100    6.941450
  C     -2.078420    1.480420    6.564100
  H     -1.625580   -0.382160    7.498910
  H     -3.325270    0.087750    7.599170
  F     -0.901250    1.858160    6.828100
  O     -2.936580    2.177310    5.964150
  H     -1.940520   -0.821140    5.054120
  H     -3.615900   -0.342610    5.185140
  H     -3.050630   -1.778150    6.005360

 Total Charge           Charge          ....    0
 Multiplicity           Mult            ....    1
 Number of Electrons    NEL             ....   40
 Basis Dimension        Dim             ....   95

ORBITAL ENERGIES
----------------

  NO   OCC          E(Eh)            E(eV)
   0   2.0000     -24.824632      -675.5126
   1   2.0000     -19.209143      -522.7073
   2   2.0000     -10.432379      -283.8795
   3   2.0000     -10.287378      -279.9338
   4   2.0000     -10.265009      -279.3251
   5   2.0000      -1.370577       -37.2953
   6   2.0000      -1.095601       -29.8128
   7   2.0000      -0.875884       -23.8340
   8   2.0000      -0.757605       -20.6155
   9   2.0000      -0.703949       -19.1554
  10   2.0000      -0.614766       -16.7286
  11   2.0000      -0.599646       -16.3172
  12   2.0000      -0.572080       -15.5671
  13   2.0000      -0.532574       -14.4921
  14   2.0000      -0.498804       -13.5731
  15   2.0000      -0.464376       -12.6363
  16   2.0000      -0.443671       -12.0729
  17   2.0000      -0.438592       -11.9347
  18   2.0000      -0.406022       -11.0484
  19   2.0000      -0.353911        -9.6304
  20   0.0000       0.028410         0.7731
  21   0.0000       0.102979         2.8022
  22   0.0000       0.146589         3.9889
  23   0.0000       0.151795         4.1306
  24   0.0000       0.171960         4.6793

MULLIKEN ATOMIC CHARGES
-----------------------
   0 C :    0.011733
   1 C :   -0.042508
   2 C :    0.206513
   3 H :    0.018304
   4 H :    0.053109
   5 F :   -0.076912
   6 O :   -0.250405
   7 H :    0.018628
   8 H :    0.039989
   9 H :    0.021548
Sum of atomic charges:   -0.0000000

LOEWDIN ATOMIC CHARGES
----------------------
   0 C :   -0.035411
   1 C :   -0.067729
   2 C :    0.107770
   3 H :    0.027175
   4 H :    0.049456
   5 F :    0.033589
   6 O :   -0.199001
   7 H :    0.025201
   8 H :    0.031507
   9 H :    0.027443

  Mayer bond orders larger than 0.100000
B(  0-C ,  1-C ) :   1.0909 B(  0-C ,  7-H ) :   0.9771 B(  0-C ,  8-H ) :   0.9716
B(  0-C ,  9-H ) :   0.9705 B(  1-C ,  2-C ) :   0.9964 B(  1-C ,  3-H ) :   0.9392
B(  1-C ,  4-H ) :   0.9344 B(  2-C ,  5-F ) :   1.2053 B(  2-C ,  6-O ) :   2.0911

FINAL SINGLE POINT ENERGY      -292.056317708311

DIPOLE MOMENT
-------------
                                X             Y             Z
Electronic contribution:      3.96379       7.49390       1.47352
Nuclear contribution   :     -3.69486      -8.49563      -1.04945
                        -----------------------------------------
Total Dipole Moment    :      0.26893      -1.00173       0.42407
                        -----------------------------------------
Magnitude (a.u.)       :      1.12055
Magnitude (Debye)      :      2.84821

Rotational constants in cm-1:     0.293725     0.129218     0.102393
Rotational constants in MHz :  8805.653529  3873.869810  3069.666716

                             ****ORCA TERMINATED NORMALLY****
TOTAL RUN TIME: 0 days 0 hours 0 minutes 14 seconds 852 msec
