                         Program Version 5.0.0 -  RELEASE  -
|  1> !CAM-B3LYP RIJCOSX def2-SVP def2/J TightSCF
|  2> *xyz 0 1
|  3> C         -0.69912        3.48945        3.75516
|  4> H         -0.96672        4.34901        3.14049
|  5> C         -1.08067        3.79296        5.15686
|  6> C          0.77696        3.13839        3.61741
|  7> H         -1.33146        2.65651        3.44632
|  8> H         -0.87449        4.76274        5.42734
|  9> H         -0.68079        3.13476        5.83900
| 10> H         -2.05755        3.53169        5.34620
| 11> H          0.99957        2.92898        2.59199
| 12> H          0.99576        2.27685        4.21303
| 13> H          1.37223        3.96279        3.95046
| 14> *
| 15> %MaxCore 64000
| 16>
| 17> %pal nprocs 4
| 18> end
| 19>
| 20> %scf
| 21>   MaxIter 150
| 22> end
| 23>
| 24>
| 25>                          ****END OF INPUT****

CARTESIAN COORDINATES (ANGSTROEM)
---------------------------------
  C     -0.699120    3.489450    3.755160
  H     -0.966720    4.349010    3.140490
  C     -1.080670    3.792960    5.156860
  C      0.776960    3.138390    3.617410
  H     -1.331460    2.656510    3.446320
  H     -0.874490    4.762740    5.427340
  H     -0.680790    3.134760    5.839000
  H     -2.057550    3.531690    5.346200
  H      0.999570    2.928980    2.591990
  H      0.995760    2.276850    4.213030
  H      1.372230    3.962790    3.950460

 Total Charge           Charge          ....    0
 Multiplicity           Mult            ....    1
 Number of Electrons    NEL             ....   26
 Basis Dimension        Dim             ....   82

ORBITAL ENERGIES
----------------

  NO   OCC          E(Eh)            E(eV)
   0   2.0000     -10.243552      -278.7412
   1   2.0000     -10.236518      -278.5498
   2   2.0000     -10.219857      -278.0964
   3   2.0000      -0.865555       -23.5530
   4   2.0000      -0.763554       -20.7774
   5   2.0000      -0.657595       -17.8941
   6   2.0000      -0.540916       -14.7191
   7   2.0000      -0.506929       -13.7942
   8   2.0000      -0.465906       -12.6779
   9   2.0000      -0.461293       -12.5524
  10   2.0000      -0.403359       -10.9760
  11   2.0000      -0.391292       -10.6476
  12   2.0000      -0.387852       -10.5540
  13   0.0000       0.104624         2.8470
  14   0.0000       0.152430         4.1478
  15   0.0000       0.156867         4.2686
  16   0.0000       0.158486         4.3126
  17   0.0000       0.190134         5.1738

MULLIKEN ATOMIC CHARGES
-----------------------
   0 C :   -0.056443
   1 H :    0.001783
   2 C :    0.079998
   3 C :    0.025709
   4 H :   -0.003472
   5 H :   -0.003151
   6 H :   -0.030243
   7 H :   -0.025621
   8 H :    0.004044
   9 H :    0.003589
  10 H :    0.003808
Sum of atomic charges:   -0.0000000

LOEWDIN ATOMIC CHARGES
----------------------
   0 C :   -0.038785
   1 H :    0.019300
   2 C :   -0.051635
   3 C :   -0.050957
   4 H :    0.018609
   5 H :    0.013505
   6 H :    0.014861
   7 H :    0.018302
   8 H :    0.019201
   9 H :    0.018682
  10 H :    0.018915

  Mayer bond orders larger than 0.100000
B(  0-C ,  1-H ) :   0.9573 B(  0-C ,  2-C ) :   1.1092 B(  0-C ,  3-C ) :   1.1018
B(  0-C ,  4-H ) :   0.9576 B(  2-C ,  5-H ) :   0.9728 B(  2-C ,  6-H ) :   0.9567
B(  2-C ,  7-H ) :   0.9554 B(  3-C ,  8-H ) :   0.9706 B(  3-C ,  9-H ) :   0.9733
B(  3-C , 10-H ) :   0.9762

FINAL SINGLE POINT ENERGY      -118.950971851945

DIPOLE MOMENT
-------------
                                X             Y             Z
Electronic contribution:     -0.13332       0.12017      -0.39228
Nuclear contribution   :      0.10024      -0.14218       0.41628
                        -----------------------------------------
Total Dipole Moment    :     -0.03307      -0.02202       0.02400
                        -----------------------------------------
Magnitude (a.u.)       :      0.04642
Magnitude (Debye)      :      0.11798

Rotational constants in cm-1:     1.024179     0.291605     0.259489
Rotational constants in MHz : 30704.103454  8742.106283  7779.285909

                             ****ORCA TERMINATED NORMALLY****
TOTAL RUN TIME: 0 days 0 hours 0 minutes 11 seconds 45 msec
