                         Program Version 5.0.0 -  RELEASE  -
|  1> !CAM-B3LYP RIJCOSX def2-SVP def2/J TightSCF
|  2> *xyz 0 1
|  3> C         -2.79070       -0.78527        5.70281
|  4> C         -2.45380        0.05510        6.94145
|  5> C         -2.07842        1.48042        6.56410
|  6> H         -1.62558       -0.38216        7.49891
|  7> H         -3.32527        0.08775        7.59917
|  8> O         -0.90125        1.85816        6.82810
|  9> F         -2.93658        2.17731        5.96415
| 10> H         -1.94052       -0.82114        5.05412
| 11> H         -3.61590       -0.34261        5.18514
| 12> H         -3.05063       -1.77815        6.00536
| 13> *
| 14> %MaxCore 64000
| 15>
| 16> %pal nprocs 4
| 17> end
| 18>
| 19> %scf
| 20>   MaxIter 150
| 21> end
| 22>
| 23>
| 24>                          ****END OF INPUT****

CARTESIAN COORDINATES (ANGSTROEM)
---------------------------------
  C     -2.790700   -0.785270    5.702810
  C     -2.453800    0.055100    6.941450
  C     -2.078420    1.480420    6.564100
  H     -1.625580   -0.382160    7.498910
  H     -3.325270    0.087750    7.599170
  O     -0.901250    1.858160    6.828100
  F     -2.936580    2.177310    5.964150
  H     -1.940520   -0.821140    5.054120
  H     -3.615900   -0.342610    5.185140
  H     -3.050630   -1.778150    6.005360

 Total Charge           Charge          ....    0
 Multiplicity           Mult            ....    1
 Number of Electrons    NEL             ....   40
 Basis Dimension        Dim             ....   95

ORBITAL ENERGIES
----------------

  NO   OCC          E(Eh)            E(eV)
   0   2.0000     -24.828617      -675.6210
   1   2.0000     -19.206646      -522.6394
   2   2.0000     -10.431728      -283.8617
   3   2.0000     -10.286640      -279.9137
   4   2.0000     -10.268961      -279.4326
   5   2.0000      -1.376417       -37.4542
   6   2.0000      -1.090117       -29.6636
   7   2.0000      -0.878987       -23.9185
   8   2.0000      -0.755196       -20.5499
   9   2.0000      -0.710905       -19.3447
  10   2.0000      -0.619360       -16.8536
  11   2.0000      -0.606501       -16.5037
  12   2.0000      -0.565891       -15.3987
  13   2.0000      -0.532448       -14.4886
  14   2.0000      -0.500499       -13.6193
  15   2.0000      -0.466747       -12.7008
  16   2.0000      -0.446852       -12.1595
  17   2.0000      -0.441230       -12.0065
  18   2.0000      -0.406589       -11.0639
  19   2.0000      -0.347475        -9.4553
  20   0.0000       0.031866         0.8671
  21   0.0000       0.099078         2.6960
  22   0.0000       0.143933         3.9166
  23   0.0000       0.153786         4.1847
  24   0.0000       0.174876         4.7586

MULLIKEN ATOMIC CHARGES
-----------------------
   0 C :   -0.007946
   1 C :   -0.034409
   2 C :    0.204109
   3 H :    0.045118
   4 H :    0.035160
   5 O :   -0.250447
   6 F :   -0.073347
   7 H :    0.030232
   8 H :    0.024478
   9 H :    0.027053
Sum of atomic charges:    0.0000000

LOEWDIN ATOMIC CHARGES
----------------------
   0 C :   -0.043652
   1 C :   -0.063780
   2 C :    0.105042
   3 H :    0.043761
   4 H :    0.038103
   5 O :   -0.201887
   6 F :    0.040141
   7 H :    0.028020
   8 H :    0.024382
   9 H :    0.029871

  Mayer bond orders larger than 0.100000
B(  0-C ,  1-C ) :   1.0753 B(  0-C ,  7-H ) :   0.9769 B(  0-C ,  8-H ) :   0.9743
B(  0-C ,  9-H ) :   0.9700 B(  1-C ,  2-C ) :   1.0077 B(  1-C ,  3-H ) :   0.9499
B(  1-C ,  4-H ) :   0.9315 B(  2-C ,  5-O ) :   2.1001 B(  2-C ,  6-F ) :   1.2007

FINAL SINGLE POINT ENERGY      -292.053615085936

DIPOLE MOMENT
-------------
                                X             Y             Z
Electronic contribution:      0.61971       8.00627       0.04981
Nuclear contribution   :     -1.47571      -8.84360      -0.10748
                        -----------------------------------------
Total Dipole Moment    :     -0.85600      -0.83734      -0.05766
                        -----------------------------------------
Magnitude (a.u.)       :      1.19883
Magnitude (Debye)      :      3.04719

Rotational constants in cm-1:     0.283081     0.133379     0.103386
Rotational constants in MHz :  8486.545774  3998.599544  3099.448040

                             ****ORCA TERMINATED NORMALLY****
TOTAL RUN TIME: 0 days 0 hours 0 minutes 14 seconds 667 msec
