                         Program Version 5.0.0 -  RELEASE  -
|  1> !CAM-B3LYP RIJCOSX def2-TZVP def2/J TightSCF xyzfile
|  2>
|  3> *xyzfile 0 1 D2.xyz
|  4>
|  5> %MaxCore 64000
|  6>
|  7> %pal nprocs 18
|  8> end
|  9>
| 10> %scf
| 11>   MaxIter 150
| 12> end
| 13>
| 14>
| 15>                          ****END OF INPUT****

CARTESIAN COORDINATES (ANGSTROEM)
---------------------------------
  C     -0.699123    3.489451    3.755163
  H     -0.966716    4.349013    3.140491
  C     -1.080669    3.792957    5.156857
  C      0.776956    3.138391    3.617408
  H     -1.331455    2.656510    3.446323
  H      1.371398    3.888342    4.149744
  H      1.046926    3.232057    2.561331
  C      1.118917    1.731170    4.115155
  H      2.200573    1.654226    4.254882
  C      0.659466    0.635182    3.153306
  H      0.677024    1.576674    5.103150
  H      1.312288    0.638870    2.274207
  H     -0.339563    0.868049    2.772876
  C      0.639957   -0.771175    3.755619
  C     -0.341821   -0.965537    4.915046
  H      1.648266   -1.028665    4.097015
  H      0.398568   -1.482386    2.958453
  H     -0.279892   -2.005646    5.252547
  C     -1.789164   -0.639231    4.557496
  H     -0.032380   -0.352918    5.765118
  H     -2.107151   -1.270102    3.719619
  H     -1.856352    0.391636    4.197604
  C     -2.790700   -0.785275    5.702812
  H     -2.867308   -1.835651    6.001675
  H     -3.774554   -0.486577    5.334807
  C     -2.453797    0.055101    6.941445
  C     -2.078419    1.480421    6.564098
  H     -1.625584   -0.382163    7.498914
  H     -3.325274    0.087746    7.599175
  H     -0.874488    4.762737    5.427344
  H     -0.680793    3.134762    5.839000
  H     -2.057550    3.531691    5.346197
  O     -0.901252    1.858156    6.828104
  F     -2.936582    2.177309    5.964151

 Total Charge           Charge          ....    0
 Multiplicity           Mult            ....    1
 Number of Electrons    NEL             ....  104
 Basis Dimension        Dim             ....  529

ORBITAL ENERGIES
----------------

  NO   OCC          E(Eh)            E(eV)
   0   2.0000     -24.838728      -675.8962
   1   2.0000     -19.212595      -522.8013
   2   2.0000     -10.439303      -284.0679
   3   2.0000     -10.279349      -279.7153
   4   2.0000     -10.263902      -279.2950
   5   2.0000     -10.247768      -278.8560
   6   2.0000     -10.236914      -278.5606
   7   2.0000     -10.233011      -278.4544
   8   2.0000     -10.225574      -278.2520
   9   2.0000     -10.218608      -278.0625
  10   2.0000     -10.216329      -278.0004
  11   2.0000     -10.209572      -277.8166
  12   2.0000     -10.154123      -276.3077
  13   2.0000      -1.417896       -38.5829
  14   2.0000      -1.129702       -30.7408
  15   2.0000      -0.918004       -24.9802
  16   2.0000      -0.888884       -24.1878
  17   2.0000      -0.859084       -23.3769
  18   2.0000      -0.830294       -22.5935
  19   2.0000      -0.785761       -21.3817
  20   2.0000      -0.762080       -20.7372
  21   2.0000      -0.738885       -20.1061
  22   2.0000      -0.700582       -19.0638
  23   2.0000      -0.686908       -18.6917
  24   2.0000      -0.641507       -17.4563
  25   2.0000      -0.639543       -17.4029
  26   2.0000      -0.634041       -17.2531
  27   2.0000      -0.612213       -16.6592
  28   2.0000      -0.589572       -16.0431
  29   2.0000      -0.554917       -15.1001
  30   2.0000      -0.549443       -14.9511
  31   2.0000      -0.529642       -14.4123
  32   2.0000      -0.523199       -14.2370
  33   2.0000      -0.501031       -13.6338
  34   2.0000      -0.492149       -13.3921
  35   2.0000      -0.487135       -13.2556
  36   2.0000      -0.476103       -12.9554
  37   2.0000      -0.469625       -12.7791
  38   2.0000      -0.455232       -12.3875
  39   2.0000      -0.442585       -12.0433
  40   2.0000      -0.438635       -11.9359
  41   2.0000      -0.433062       -11.7842
  42   2.0000      -0.416948       -11.3457
  43   2.0000      -0.407993       -11.1020
  44   2.0000      -0.401477       -10.9247
  45   2.0000      -0.391216       -10.6455
  46   2.0000      -0.384736       -10.4692
  47   2.0000      -0.374568       -10.1925
  48   2.0000      -0.368065       -10.0156
  49   2.0000      -0.358063        -9.7434
  50   2.0000      -0.356126        -9.6907
  51   2.0000      -0.321891        -8.7591
  52   0.0000       0.007226         0.1966
  53   0.0000       0.062689         1.7059
  54   0.0000       0.084361         2.2956
  55   0.0000       0.086569         2.3557
  56   0.0000       0.096204         2.6178

MULLIKEN ATOMIC CHARGES
-----------------------
   0 C :   -0.191592
   1 H :    0.089249
   2 C :   -0.415427
   3 C :   -0.134425
   4 H :    0.076852
   5 H :    0.096175
   6 H :    0.083923
   7 C :   -0.238310
   8 H :    0.095794
   9 C :   -0.247234
  10 H :    0.133080
  11 H :    0.104855
  12 H :    0.115464
  13 C :   -0.156784
  14 C :   -0.261632
  15 H :    0.101507
  16 H :    0.100985
  17 H :    0.103472
  18 C :   -0.231407
  19 H :    0.143688
  20 H :    0.113059
  21 H :    0.109421
  22 C :   -0.209301
  23 H :    0.118047
  24 H :    0.124558
  25 C :   -0.233847
  26 C :    0.394616
  27 H :    0.153659
  28 H :    0.141060
  29 H :    0.103412
  30 H :    0.179297
  31 H :    0.091521
  32 O :   -0.344431
  33 F :   -0.109306
Sum of atomic charges:    0.0000000

LOEWDIN ATOMIC CHARGES
----------------------
   0 C :   -0.304437
   1 H :    0.130249
   2 C :   -0.332243
   3 C :   -0.264640
   4 H :    0.125455
   5 H :    0.135328
   6 H :    0.131554
   7 C :   -0.263411
   8 H :    0.132791
   9 C :   -0.270167
  10 H :    0.139589
  11 H :    0.134565
  12 H :    0.131855
  13 C :   -0.266547
  14 C :   -0.268108
  15 H :    0.136497
  16 H :    0.134393
  17 H :    0.135129
  18 C :   -0.267222
  19 H :    0.138814
  20 H :    0.140149
  21 H :    0.136175
  22 C :   -0.260456
  23 H :    0.141409
  24 H :    0.140603
  25 C :   -0.227229
  26 C :   -0.467131
  27 H :    0.155684
  28 H :    0.151464
  29 H :    0.100354
  30 H :    0.104625
  31 H :    0.102336
  32 O :    0.073875
  33 F :    0.338697

  Mayer bond orders larger than 0.100000
B(  0-C ,  1-H ) :   0.9825 B(  0-C ,  2-C ) :   0.9021 B(  0-C ,  3-C ) :   0.9491
B(  0-C ,  4-H ) :   1.0053 B(  2-C , 29-H ) :   0.9728 B(  2-C , 30-H ) :   0.9675
B(  2-C , 31-H ) :   0.9904 B(  3-C ,  5-H ) :   0.9757 B(  3-C ,  6-H ) :   0.9782
B(  3-C ,  7-C ) :   0.9595 B(  7-C ,  8-H ) :   0.9740 B(  7-C ,  9-C ) :   0.9205
B(  7-C , 10-H ) :   0.9925 B(  9-C , 11-H ) :   0.9754 B(  9-C , 12-H ) :   0.9939
B(  9-C , 13-C ) :   0.9403 B( 13-C , 14-C ) :   0.9587 B( 13-C , 15-H ) :   0.9833
B( 13-C , 16-H ) :   0.9851 B( 14-C , 17-H ) :   0.9754 B( 14-C , 18-C ) :   0.9006
B( 14-C , 19-H ) :   0.9823 B( 18-C , 20-H ) :   0.9748 B( 18-C , 21-H ) :   0.9863
B( 18-C , 22-C ) :   0.9433 B( 22-C , 23-H ) :   0.9741 B( 22-C , 24-H ) :   0.9846
B( 22-C , 25-C ) :   0.9188 B( 25-C , 26-C ) :   0.9661 B( 25-C , 27-H ) :   0.9820
B( 25-C , 28-H ) :   0.9579 B( 26-C , 32-O ) :   1.9661 B( 26-C , 33-F ) :   1.1210

FINAL SINGLE POINT ENERGY      -606.760076290351

DIPOLE MOMENT
-------------
                                X             Y             Z
Electronic contribution:     -8.96120       2.99787       9.47139
Nuclear contribution   :      8.07181      -4.09641      -9.21610
                        -----------------------------------------
Total Dipole Moment    :     -0.88940      -1.09854       0.25529
                        -----------------------------------------
Magnitude (a.u.)       :      1.43631
Magnitude (Debye)      :      3.65081

Rotational constants in cm-1:     0.028400     0.023377     0.015073
Rotational constants in MHz :   851.414727   700.831775   451.871218

                             ****ORCA TERMINATED NORMALLY****
TOTAL RUN TIME: 0 days 0 hours 1 minutes 23 seconds 188 msec
