                         Program Version 5.0.0 -  RELEASE  -
|  1> !M062X D3Zero RIJCOSX def2-TZVP def2/J TightSCF
|  2> *xyz -1 1
|  3> C         -1.10433        0.25137       -2.86006
|  4> C         -0.71189        0.84252       -4.21834
|  5> H          0.15463        1.49980       -4.13091
|  6> H         -1.53813        1.45922       -4.58267
|  7> C         -0.39762       -0.20587       -5.28802
|  8> O          0.61717       -0.00535       -5.99827
|  9> O         -1.13317       -1.22138       -5.34147
| 10> H         -1.95489       -0.38644       -2.98099
| 11> H         -1.34603        1.04362       -2.18269
| 12> H         -0.28606       -0.31581       -2.46809
| 13> *
| 14>
| 15> %MaxCore 64000
| 16>
| 17> %pal nprocs 4
| 18> end
| 19>
| 20> %scf
| 21>   MaxIter 150
| 22> end
| 23>
| 24>
| 25>                          ****END OF INPUT****

CARTESIAN COORDINATES (ANGSTROEM)
---------------------------------
  C     -1.104330    0.251370   -2.860060
  C     -0.711890    0.842520   -4.218340
  H      0.154630    1.499800   -4.130910
  H     -1.538130    1.459220   -4.582670
  C     -0.397620   -0.205870   -5.288020
  O      0.617170   -0.005350   -5.998270
  O     -1.133170   -1.221380   -5.341470
  H     -1.954890   -0.386440   -2.980990
  H     -1.346030    1.043620   -2.182690
  H     -0.286060   -0.315810   -2.468090

 Total Charge           Charge          ....   -1
 Multiplicity           Mult            ....    1
 Number of Electrons    NEL             ....   40
 Basis Dimension        Dim             ....  185

ORBITAL ENERGIES
----------------

  NO   OCC          E(Eh)            E(eV)
   0   2.0000     -19.350905      -526.5649
   1   2.0000     -19.349619      -526.5299
   2   2.0000     -10.414172      -283.3840
   3   2.0000     -10.366052      -282.0746
   4   2.0000     -10.355452      -281.7862
   5   2.0000      -0.935933       -25.4680
   6   2.0000      -0.837386       -22.7864
   7   2.0000      -0.697957       -18.9924
   8   2.0000      -0.558772       -15.2049
   9   2.0000      -0.393272       -10.7015
  10   2.0000      -0.359621        -9.7858
  11   2.0000      -0.333204        -9.0670
  12   2.0000      -0.296272        -8.0620
  13   2.0000      -0.280038        -7.6202
  14   2.0000      -0.274517        -7.4700
  15   2.0000      -0.241399        -6.5688
  16   2.0000      -0.224035        -6.0963
  17   2.0000      -0.106515        -2.8984
  18   2.0000      -0.104794        -2.8516
  19   2.0000      -0.098204        -2.6723
  20   0.0000       0.216376         5.8879
  21   0.0000       0.258092         7.0230
  22   0.0000       0.276737         7.5304
  23   0.0000       0.281529         7.6608
  24   0.0000       0.297842         8.1047

MULLIKEN ATOMIC CHARGES
-----------------------
   0 C :   -0.390865
   1 C :   -0.250288
   2 H :    0.085825
   3 H :    0.078245
   4 C :    0.276501
   5 O :   -0.557704
   6 O :   -0.560053
   7 H :    0.125791
   8 H :    0.080905
   9 H :    0.111644
Sum of atomic charges:   -1.0000000

LOEWDIN ATOMIC CHARGES
----------------------
   0 C :   -0.329234
   1 C :   -0.293909
   2 H :    0.122374
   3 H :    0.124410
   4 C :   -0.694425
   5 O :   -0.123427
   6 O :   -0.122011
   7 H :    0.113405
   8 H :    0.093949
   9 H :    0.108867

  Mayer bond orders larger than 0.100000
B(  0-C ,  1-C ) :   0.9230 B(  0-C ,  7-H ) :   0.9717 B(  0-C ,  8-H ) :   0.9753
B(  0-C ,  9-H ) :   0.9807 B(  1-C ,  2-H ) :   0.9721 B(  1-C ,  3-H ) :   0.9671
B(  1-C ,  4-C ) :   0.9424 B(  4-C ,  5-O ) :   1.8475 B(  4-C ,  6-O ) :   1.8146

Dispersion correction           -0.000088286
FINAL SINGLE POINT ENERGY      -267.827265731933

DIPOLE MOMENT
-------------
                                X             Y             Z
Electronic contribution:      1.56087      -2.37449      -5.25332
Nuclear contribution   :     -2.09607       3.44215       6.87744
                        -----------------------------------------
Total Dipole Moment    :     -0.53520       1.06765       1.62411
                        -----------------------------------------
Magnitude (a.u.)       :      2.01595
Magnitude (Debye)      :      5.12414

Rotational constants in cm-1:     0.324698     0.133739     0.103466
Rotational constants in MHz :  9734.203431  4009.406827  3101.846422

                             ****ORCA TERMINATED NORMALLY****
TOTAL RUN TIME: 0 days 0 hours 0 minutes 18 seconds 467 msec
