                         Program Version 5.0.0 -  RELEASE  -
|  1> !M062X D3Zero RIJCOSX def2-TZVP def2/J TightSCF
|  2> *xyz 1 1
|  3> C          2.23447       -2.98975       -2.39762
|  4> N          2.75680       -2.94555       -3.76503
|  5> C          1.98721       -2.59045       -4.81898
|  6> N          0.74322       -3.01749       -4.91352
|  7> N          2.49964       -1.84860       -5.80324
|  8> H          3.30978       -1.29282       -5.55895
|  9> H          1.80103       -1.30430       -6.28913
| 10> H          3.71612       -2.62880       -3.82953
| 11> H          0.39583       -3.62775       -4.18502
| 12> H          0.03920       -2.45438       -5.37137
| 13> C          2.19120       -1.61950       -1.71549
| 14> H          2.87278       -3.66637       -1.82801
| 15> H          1.24619       -3.44744       -2.40784
| 16> H          1.56387       -0.96046       -2.27853
| 17> H          3.18033       -1.21449       -1.66568
| 18> H          1.79916       -1.72608       -0.72562
| 19> *
| 20>
| 21> %MaxCore 64000
| 22>
| 23> %pal nprocs 4
| 24> end
| 25>
| 26> %scf
| 27>   MaxIter 150
| 28> end
| 29>
| 30>
| 31>                          ****END OF INPUT****

CARTESIAN COORDINATES (ANGSTROEM)
---------------------------------
  C      2.234470   -2.989750   -2.397620
  N      2.756800   -2.945550   -3.765030
  C      1.987210   -2.590450   -4.818980
  N      0.743220   -3.017490   -4.913520
  N      2.499640   -1.848600   -5.803240
  H      3.309780   -1.292820   -5.558950
  H      1.801030   -1.304300   -6.289130
  H      3.716120   -2.628800   -3.829530
  H      0.395830   -3.627750   -4.185020
  H      0.039200   -2.454380   -5.371370
  C      2.191200   -1.619500   -1.715490
  H      2.872780   -3.666370   -1.828010
  H      1.246190   -3.447440   -2.407840
  H      1.563870   -0.960460   -2.278530
  H      3.180330   -1.214490   -1.665680
  H      1.799160   -1.726080   -0.725620

 Total Charge           Charge          ....    1
 Multiplicity           Mult            ....    1
 Number of Electrons    NEL             ....   48
 Basis Dimension        Dim             ....  246

ORBITAL ENERGIES
----------------

  NO   OCC          E(Eh)            E(eV)
   0   2.0000     -14.979009      -407.5996
   1   2.0000     -14.974447      -407.4754
   2   2.0000     -14.972081      -407.4110
   3   2.0000     -10.882916      -296.1392
   4   2.0000     -10.746468      -292.4263
   5   2.0000     -10.675761      -290.5022
   6   2.0000      -1.335887       -36.3513
   7   2.0000      -1.213689       -33.0262
   8   2.0000      -1.208855       -32.8946
   9   2.0000      -1.025694       -27.9106
  10   2.0000      -0.931258       -25.3408
  11   2.0000      -0.890242       -24.2247
  12   2.0000      -0.864036       -23.5116
  13   2.0000      -0.817910       -22.2565
  14   2.0000      -0.775630       -21.1060
  15   2.0000      -0.755714       -20.5640
  16   2.0000      -0.721258       -19.6264
  17   2.0000      -0.694825       -18.9071
  18   2.0000      -0.672335       -18.2952
  19   2.0000      -0.636777       -17.3276
  20   2.0000      -0.600760       -16.3475
  21   2.0000      -0.580760       -15.8033
  22   2.0000      -0.556397       -15.1403
  23   2.0000      -0.513452       -13.9717
  24   0.0000      -0.155831        -4.2404
  25   0.0000      -0.124504        -3.3879
  26   0.0000      -0.093647        -2.5483
  27   0.0000      -0.079410        -2.1609
  28   0.0000      -0.060340        -1.6419

MULLIKEN ATOMIC CHARGES
-----------------------
   0 C :   -0.212078
   1 N :   -0.324386
   2 C :    0.528437
   3 N :   -0.443874
   4 N :   -0.416533
   5 H :    0.282798
   6 H :    0.280289
   7 H :    0.265837
   8 H :    0.296237
   9 H :    0.299170
  10 C :   -0.374287
  11 H :    0.196129
  12 H :    0.142993
  13 H :    0.138242
  14 H :    0.161246
  15 H :    0.179781
Sum of atomic charges:    1.0000000

LOEWDIN ATOMIC CHARGES
----------------------
   0 C :   -0.286340
   1 N :    0.147936
   2 C :   -0.399806
   3 N :    0.082352
   4 N :    0.056331
   5 H :    0.198022
   6 H :    0.201487
   7 H :    0.207739
   8 H :    0.200810
   9 H :    0.202475
  10 C :   -0.283091
  11 H :    0.151758
  12 H :    0.135311
  13 H :    0.120243
  14 H :    0.126466
  15 H :    0.138305

  Mayer bond orders larger than 0.100000
B(  0-C ,  1-N ) :   0.8568 B(  0-C , 10-C ) :   0.9404 B(  0-C , 11-H ) :   0.9612
B(  0-C , 12-H ) :   0.9839 B(  1-N ,  2-C ) :   1.3172 B(  1-N ,  7-H ) :   0.9085
B(  2-C ,  3-N ) :   1.3060 B(  2-C ,  4-N ) :   1.2870 B(  3-N ,  8-H ) :   0.8974
B(  3-N ,  9-H ) :   0.8872 B(  4-N ,  5-H ) :   0.8988 B(  4-N ,  6-H ) :   0.8961
B( 10-C , 13-H ) :   0.9555 B( 10-C , 14-H ) :   0.9645 B( 10-C , 15-H ) :   0.9654

Dispersion correction           -0.000319792
FINAL SINGLE POINT ENERGY      -284.358461473278

DIPOLE MOMENT
-------------
                                X             Y             Z
Electronic contribution:      0.17267      -1.66008      -5.18123
Nuclear contribution   :     -0.59121       2.30298       4.63196
                        -----------------------------------------
Total Dipole Moment    :     -0.41854       0.64290      -0.54928
                        -----------------------------------------
Magnitude (a.u.)       :      0.94351
Magnitude (Debye)      :      2.39820

Rotational constants in cm-1:     0.205874     0.074757     0.066901
Rotational constants in MHz :  6171.937773  2241.151057  2005.629823

                             ****ORCA TERMINATED NORMALLY****
TOTAL RUN TIME: 0 days 0 hours 0 minutes 34 seconds 222 msec
