                         Program Version 5.0.0 -  RELEASE  -
|  1> !M062X D3Zero RIJCOSX def2-TZVP def2/J TightSCF xyzfile
|  2>
|  3> *xyzfile 0 1 B.xyz
|  4>
|  5> %MaxCore 64000
|  6>
|  7> %pal nprocs 18
|  8> end
|  9>
| 10> %scf
| 11>   MaxIter 150
| 12> end
| 13>
| 14>
| 15>                          ****END OF INPUT****

CARTESIAN COORDINATES (ANGSTROEM)
---------------------------------
  C      2.234473   -2.989754   -2.397622
  N      2.756799   -2.945553   -3.765029
  C     -1.104325    0.251374   -2.860056
  C     -0.711893    0.842517   -4.218344
  H      0.154626    1.499800   -4.130909
  H     -1.538134    1.459222   -4.582671
  C     -0.397624   -0.205875   -5.288018
  C      1.987208   -2.590451   -4.818975
  N      0.743221   -3.017493   -4.913524
  N      2.499636   -1.848598   -5.803241
  H      3.309780   -1.292818   -5.558947
  H      1.801025   -1.304298   -6.289129
  H      3.716116   -2.628797   -3.829533
  H      0.395828   -3.627747   -4.185024
  H      0.039201   -2.454383   -5.371367
  O      0.617165   -0.005348   -5.998273
  O     -1.133173   -1.221380   -5.341465
  C      2.191199   -1.619503   -1.715492
  H      2.872783   -3.666368   -1.828014
  H      1.246188   -3.447444   -2.407842
  C      1.298729   -0.554314   -2.359773
  H      1.872917   -1.787955   -0.681310
  H      3.216809   -1.238432   -1.654428
  C     -0.196255   -0.863365   -2.325763
  H      1.612531   -0.371346   -3.393065
  H      1.480944    0.388638   -1.834444
  H     -0.404105   -1.761825   -2.909448
  H     -0.490439   -1.087880   -1.294131
  H     -1.143842    1.066711   -2.129680
  H     -2.114401   -0.156834   -2.930323

 Total Charge           Charge          ....    0
 Multiplicity           Mult            ....    1
 Number of Electrons    NEL             ....  102
 Basis Dimension        Dim             ....  505

ORBITAL ENERGIES
----------------

  NO   OCC          E(Eh)            E(eV)
   0   2.0000     -19.541551      -531.7526
   1   2.0000     -19.539669      -531.7014
   2   2.0000     -14.816942      -403.1895
   3   2.0000     -14.787765      -402.3955
   4   2.0000     -14.785963      -402.3465
   5   2.0000     -10.708857      -291.4028
   6   2.0000     -10.612559      -288.7824
   7   2.0000     -10.597422      -288.3705
   8   2.0000     -10.560122      -287.3555
   9   2.0000     -10.540190      -286.8132
  10   2.0000     -10.526176      -286.4318
  11   2.0000     -10.516394      -286.1656
  12   2.0000     -10.502732      -285.7939
  13   2.0000      -1.164318       -31.6827
  14   2.0000      -1.129627       -30.7387
  15   2.0000      -1.051396       -28.6099
  16   2.0000      -1.037055       -28.2197
  17   2.0000      -1.020097       -27.7583
  18   2.0000      -0.919461       -25.0198
  19   2.0000      -0.874333       -23.7918
  20   2.0000      -0.819278       -22.2937
  21   2.0000      -0.771808       -21.0020
  22   2.0000      -0.740832       -20.1591
  23   2.0000      -0.705816       -19.2062
  24   2.0000      -0.691886       -18.8272
  25   2.0000      -0.660153       -17.9637
  26   2.0000      -0.635838       -17.3020
  27   2.0000      -0.610112       -16.6020
  28   2.0000      -0.584620       -15.9083
  29   2.0000      -0.572722       -15.5846
  30   2.0000      -0.554093       -15.0776
  31   2.0000      -0.544599       -14.8193
  32   2.0000      -0.539933       -14.6923
  33   2.0000      -0.522194       -14.2096
  34   2.0000      -0.508456       -13.8358
  35   2.0000      -0.496466       -13.5095
  36   2.0000      -0.482733       -13.1358
  37   2.0000      -0.480238       -13.0679
  38   2.0000      -0.463099       -12.6016
  39   2.0000      -0.449006       -12.2181
  40   2.0000      -0.434788       -11.8312
  41   2.0000      -0.421952       -11.4819
  42   2.0000      -0.408939       -11.1278
  43   2.0000      -0.391550       -10.6546
  44   2.0000      -0.375980       -10.2309
  45   2.0000      -0.371031       -10.0963
  46   2.0000      -0.365984        -9.9589
  47   2.0000      -0.356806        -9.7092
  48   2.0000      -0.296360        -8.0644
  49   2.0000      -0.289866        -7.8877
  50   2.0000      -0.287669        -7.8279
  51   0.0000       0.016229         0.4416
  52   0.0000       0.022468         0.6114
  53   0.0000       0.046165         1.2562
  54   0.0000       0.062860         1.7105
  55   0.0000       0.076884         2.0921

MULLIKEN ATOMIC CHARGES
-----------------------
   0 C :   -0.262649
   1 N :   -0.323287
   2 C :   -0.253147
   3 C :   -0.312347
   4 H :    0.147579
   5 H :    0.146424
   6 C :    0.333859
   7 C :    0.423251
   8 N :   -0.424691
   9 N :   -0.418794
  10 H :    0.245051
  11 H :    0.313381
  12 H :    0.240335
  13 H :    0.254387
  14 H :    0.322741
  15 O :   -0.566502
  16 O :   -0.541264
  17 C :   -0.289606
  18 H :    0.177563
  19 H :    0.168484
  20 C :   -0.292937
  21 H :    0.156999
  22 H :    0.157103
  23 C :   -0.271574
  24 H :    0.167210
  25 H :    0.160344
  26 H :    0.117641
  27 H :    0.140430
  28 H :    0.135968
  29 H :    0.148045
Sum of atomic charges:    0.0000000

LOEWDIN ATOMIC CHARGES
----------------------
   0 C :   -0.277126
   1 N :    0.122900
   2 C :   -0.267327
   3 C :   -0.247833
   4 H :    0.137969
   5 H :    0.147728
   6 C :   -0.651559
   7 C :   -0.429455
   8 N :    0.087095
   9 N :    0.042482
  10 H :    0.178598
  11 H :    0.180749
  12 H :    0.194338
  13 H :    0.180351
  14 H :    0.174234
  15 O :   -0.080645
  16 O :   -0.070297
  17 C :   -0.273530
  18 H :    0.140621
  19 H :    0.135608
  20 C :   -0.270527
  21 H :    0.147240
  22 H :    0.138831
  23 C :   -0.276504
  24 H :    0.144339
  25 H :    0.145380
  26 H :    0.131862
  27 H :    0.135891
  28 H :    0.134437
  29 H :    0.144150

  Mayer bond orders larger than 0.100000
B(  0-C ,  1-N ) :   0.8526 B(  0-C , 17-C ) :   0.9126 B(  0-C , 18-H ) :   0.9850
B(  0-C , 19-H ) :   0.9892 B(  1-N ,  7-C ) :   1.2515 B(  1-N , 12-H ) :   0.9187
B(  2-C ,  3-C ) :   0.8994 B(  2-C , 23-C ) :   0.9464 B(  2-C , 28-H ) :   0.9837
B(  2-C , 29-H ) :   0.9758 B(  3-C ,  4-H ) :   0.9812 B(  3-C ,  5-H ) :   0.9628
B(  3-C ,  6-C ) :   0.9392 B(  6-C , 15-O ) :   1.6805 B(  6-C , 16-O ) :   1.6852
B(  7-C ,  8-N ) :   1.3644 B(  7-C ,  9-N ) :   1.3180 B(  8-N , 13-H ) :   0.9163
B(  8-N , 14-H ) :   0.7692 B(  9-N , 10-H ) :   0.9168 B(  9-N , 11-H ) :   0.8145
B( 11-H , 15-O ) :   0.1177 B( 14-H , 16-O ) :   0.1611 B( 17-C , 20-C ) :   0.9162
B( 17-C , 21-H ) :   0.9820 B( 17-C , 22-H ) :   0.9869 B( 20-C , 23-C ) :   0.8679
B( 20-C , 24-H ) :   0.9470 B( 20-C , 25-H ) :   0.9756 B( 23-C , 26-H ) :   0.9791
B( 23-C , 27-H ) :   0.9797

Dispersion correction           -0.001701386
FINAL SINGLE POINT ENERGY      -629.799878957001

DIPOLE MOMENT
-------------
                                X             Y             Z
Electronic contribution:      0.61056      -2.84793     -10.21643
Nuclear contribution   :      1.76912       1.50070      12.36652
                        -----------------------------------------
Total Dipole Moment    :      2.37967      -1.34723       2.15010
                        -----------------------------------------
Magnitude (a.u.)       :      3.47862
Magnitude (Debye)      :      8.84195

Rotational constants in cm-1:     0.033272     0.023886     0.017112
Rotational constants in MHz :   997.469575   716.074432   513.001395

                             ****ORCA TERMINATED NORMALLY****
TOTAL RUN TIME: 0 days 0 hours 1 minutes 14 seconds 465 msec
