                         Program Version 5.0.0 -  RELEASE  -
|  1> !M062X D3Zero RIJCOSX def2-TZVP def2/J TightSCF
|  2> *xyz 0 1
|  3> C         -1.10433        0.25137       -2.86006
|  4> C         -0.71189        0.84252       -4.21834
|  5> H          0.15463        1.49980       -4.13091
|  6> H         -1.53813        1.45922       -4.58267
|  7> C         -0.39762       -0.20587       -5.28802
|  8> F          0.61717       -0.00535       -5.99827
|  9> O         -1.13317       -1.22138       -5.34147
| 10> H         -1.95489       -0.38644       -2.98099
| 11> H         -1.34603        1.04362       -2.18269
| 12> H         -0.28606       -0.31581       -2.46809
| 13> *
| 14>
| 15> %MaxCore 64000
| 16>
| 17> %pal nprocs 4
| 18> end
| 19>
| 20> %scf
| 21>   MaxIter 150
| 22> end
| 23>
| 24>
| 25>                          ****END OF INPUT****

CARTESIAN COORDINATES (ANGSTROEM)
---------------------------------
  C     -1.104330    0.251370   -2.860060
  C     -0.711890    0.842520   -4.218340
  H      0.154630    1.499800   -4.130910
  H     -1.538130    1.459220   -4.582670
  C     -0.397620   -0.205870   -5.288020
  F      0.617170   -0.005350   -5.998270
  O     -1.133170   -1.221380   -5.341470
  H     -1.954890   -0.386440   -2.980990
  H     -1.346030    1.043620   -2.182690
  H     -0.286060   -0.315810   -2.468090

 Total Charge           Charge          ....    0
 Multiplicity           Mult            ....    1
 Number of Electrons    NEL             ....   40
 Basis Dimension        Dim             ....  185

ORBITAL ENERGIES
----------------

  NO   OCC          E(Eh)            E(eV)
   0   2.0000     -25.314697      -688.8479
   1   2.0000     -19.633711      -534.2604
   2   2.0000     -10.720120      -291.7093
   3   2.0000     -10.568103      -287.5727
   4   2.0000     -10.537296      -286.7344
   5   2.0000      -1.464866       -39.8610
   6   2.0000      -1.156143       -31.4602
   7   2.0000      -0.898896       -24.4602
   8   2.0000      -0.789082       -21.4720
   9   2.0000      -0.729883       -19.8611
  10   2.0000      -0.644121       -17.5274
  11   2.0000      -0.631057       -17.1719
  12   2.0000      -0.594235       -16.1700
  13   2.0000      -0.538073       -14.6417
  14   2.0000      -0.510255       -13.8848
  15   2.0000      -0.462986       -12.5985
  16   2.0000      -0.446276       -12.1438
  17   2.0000      -0.440340       -11.9823
  18   2.0000      -0.414836       -11.2883
  19   2.0000      -0.371386       -10.1059
  20   0.0000       0.016351         0.4449
  21   0.0000       0.064279         1.7491
  22   0.0000       0.104618         2.8468
  23   0.0000       0.121228         3.2988
  24   0.0000       0.130666         3.5556

MULLIKEN ATOMIC CHARGES
-----------------------
   0 C :   -0.399498
   1 C :   -0.294612
   2 H :    0.143537
   3 H :    0.156104
   4 C :    0.415122
   5 F :   -0.113279
   6 O :   -0.348763
   7 H :    0.160314
   8 H :    0.139691
   9 H :    0.141385
Sum of atomic charges:   -0.0000000

LOEWDIN ATOMIC CHARGES
----------------------
   0 C :   -0.287470
   1 C :   -0.262457
   2 H :    0.141653
   3 H :    0.156232
   4 C :   -0.490156
   5 F :    0.316484
   6 O :    0.058451
   7 H :    0.126597
   8 H :    0.119488
   9 H :    0.121177

  Mayer bond orders larger than 0.100000
B(  0-C ,  1-C ) :   0.9475 B(  0-C ,  7-H ) :   0.9646 B(  0-C ,  8-H ) :   0.9714
B(  0-C ,  9-H ) :   0.9741 B(  1-C ,  2-H ) :   0.9673 B(  1-C ,  3-H ) :   0.9407
B(  1-C ,  4-C ) :   0.9868 B(  4-C ,  5-F ) :   1.1431 B(  4-C ,  6-O ) :   2.0372

Dispersion correction           -0.000089542
FINAL SINGLE POINT ENERGY      -292.393207332387

DIPOLE MOMENT
-------------
                                X             Y             Z
Electronic contribution:      3.59893      -2.34889      -7.69844
Nuclear contribution   :     -3.36368       3.36392       8.24820
                        -----------------------------------------
Total Dipole Moment    :      0.23524       1.01502       0.54975
                        -----------------------------------------
Magnitude (a.u.)       :      1.17807
Magnitude (Debye)      :      2.99441

Rotational constants in cm-1:     0.315013     0.126712     0.098430
Rotational constants in MHz :  9443.861322  3798.734540  2950.846388

                             ****ORCA TERMINATED NORMALLY****
TOTAL RUN TIME: 0 days 0 hours 0 minutes 21 seconds 984 msec
