                         Program Version 5.0.0 -  RELEASE  -
|  1> !M062X D3Zero RIJCOSX def2-TZVP def2/J TightSCF
|  2> *xyz 0 1
|  3> C          2.23447       -2.98975       -2.39762
|  4> C          2.75680       -2.94555       -3.76503
|  5> C          1.98721       -2.59045       -4.81898
|  6> N          0.74322       -3.01749       -4.91352
|  7> N          2.49964       -1.84860       -5.80324
|  8> H          3.30978       -1.29282       -5.55895
|  9> H          1.80103       -1.30430       -6.28913
| 10> H          3.71612       -2.62880       -3.82953
| 11> H          0.39583       -3.62775       -4.18502
| 12> H          0.03920       -2.45438       -5.37137
| 13> C          2.19120       -1.61950       -1.71549
| 14> H          2.87278       -3.66637       -1.82801
| 15> H          1.24619       -3.44744       -2.40784
| 16> H          1.56387       -0.96046       -2.27853
| 17> H          3.18033       -1.21449       -1.66568
| 18> H          1.79916       -1.72608       -0.72562
| 19> *
| 20>
| 21> %MaxCore 64000
| 22>
| 23> %pal nprocs 4
| 24> end
| 25>
| 26> %scf
| 27>   MaxIter 150
| 28> end
| 29>
| 30>
| 31>                          ****END OF INPUT****

CARTESIAN COORDINATES (ANGSTROEM)
---------------------------------
  C      2.234470   -2.989750   -2.397620
  C      2.756800   -2.945550   -3.765030
  C      1.987210   -2.590450   -4.818980
  N      0.743220   -3.017490   -4.913520
  N      2.499640   -1.848600   -5.803240
  H      3.309780   -1.292820   -5.558950
  H      1.801030   -1.304300   -6.289130
  H      3.716120   -2.628800   -3.829530
  H      0.395830   -3.627750   -4.185020
  H      0.039200   -2.454380   -5.371370
  C      2.191200   -1.619500   -1.715490
  H      2.872780   -3.666370   -1.828010
  H      1.246190   -3.447440   -2.407840
  H      1.563870   -0.960460   -2.278530
  H      3.180330   -1.214490   -1.665680
  H      1.799160   -1.726080   -0.725620

 Total Charge           Charge          ....    0
 Multiplicity           Mult            ....    1
 Number of Electrons    NEL             ....   48
 Basis Dimension        Dim             ....  246

ORBITAL ENERGIES
----------------

  NO   OCC          E(Eh)            E(eV)
   0   2.0000     -14.752755      -401.4429
   1   2.0000     -14.748186      -401.3185
   2   2.0000     -10.586738      -288.0798
   3   2.0000     -10.510909      -286.0164
   4   2.0000     -10.501593      -285.7629
   5   2.0000     -10.460674      -284.6494
   6   2.0000      -1.082987       -29.4696
   7   2.0000      -0.984200       -26.7814
   8   2.0000      -0.872429       -23.7400
   9   2.0000      -0.784778       -21.3549
  10   2.0000      -0.704406       -19.1679
  11   2.0000      -0.659317       -17.9409
  12   2.0000      -0.618080       -16.8188
  13   2.0000      -0.581407       -15.8209
  14   2.0000      -0.538505       -14.6535
  15   2.0000      -0.521855       -14.2004
  16   2.0000      -0.480489       -13.0748
  17   2.0000      -0.464692       -12.6449
  18   2.0000      -0.439495       -11.9593
  19   2.0000      -0.421220       -11.4620
  20   2.0000      -0.388715       -10.5775
  21   2.0000      -0.381920       -10.3926
  22   2.0000      -0.343146        -9.3375
  23   2.0000      -0.212350        -5.7783
  24   0.0000       0.042840         1.1657
  25   0.0000       0.079065         2.1515
  26   0.0000       0.089543         2.4366
  27   0.0000       0.097083         2.6418
  28   0.0000       0.109071         2.9680

MULLIKEN ATOMIC CHARGES
-----------------------
   0 C :   -0.269749
   1 C :   -0.380423
   2 C :    0.428634
   3 N :   -0.533631
   4 N :   -0.519148
   5 H :    0.251633
   6 H :    0.220647
   7 H :    0.102257
   8 H :    0.257614
   9 H :    0.229320
  10 C :   -0.358359
  11 H :    0.130237
  12 H :    0.076061
  13 H :    0.116138
  14 H :    0.123462
  15 H :    0.125309
Sum of atomic charges:    0.0000000

LOEWDIN ATOMIC CHARGES
----------------------
   0 C :   -0.319692
   1 C :   -0.283608
   2 C :   -0.465129
   3 N :   -0.004146
   4 N :   -0.025311
   5 H :    0.177187
   6 H :    0.165259
   7 H :    0.117888
   8 H :    0.179900
   9 H :    0.162133
  10 C :   -0.302986
  11 H :    0.136755
  12 H :    0.124954
  13 H :    0.111733
  14 H :    0.114121
  15 H :    0.110942

  Mayer bond orders larger than 0.100000
B(  0-C ,  1-C ) :   1.0033 B(  0-C , 10-C ) :   0.9122 B(  0-C , 11-H ) :   0.9884
B(  0-C , 12-H ) :   0.9837 B(  1-C ,  2-C ) :   1.6094 B(  1-C ,  7-H ) :   1.0512
B(  2-C ,  3-N ) :   1.0917 B(  2-C ,  4-N ) :   1.0631 B(  3-N ,  8-H ) :   0.9265
B(  3-N ,  9-H ) :   0.9165 B(  4-N ,  5-H ) :   0.9264 B(  4-N ,  6-H ) :   0.9307
B( 10-C , 13-H ) :   0.9768 B( 10-C , 14-H ) :   0.9771 B( 10-C , 15-H ) :   0.9778

Dispersion correction           -0.000318004
FINAL SINGLE POINT ENERGY      -267.879929662099

DIPOLE MOMENT
-------------
                                X             Y             Z
Electronic contribution:     -0.34591      -1.35087      -4.99863
Nuclear contribution   :     -0.44240       2.20379       4.66256
                        -----------------------------------------
Total Dipole Moment    :     -0.78830       0.85292      -0.33607
                        -----------------------------------------
Magnitude (a.u.)       :      1.20907
Magnitude (Debye)      :      3.07320

Rotational constants in cm-1:     0.209447     0.075194     0.066975
Rotational constants in MHz :  6279.068019  2254.272519  2007.845458

                             ****ORCA TERMINATED NORMALLY****
TOTAL RUN TIME: 0 days 0 hours 0 minutes 37 seconds 747 msec
