                         Program Version 5.0.0 -  RELEASE  -
|  1> !M062X D3Zero RIJCOSX def2-TZVP def2/J TightSCF
|  2> *xyz 0 1
|  3> C         -1.10433        0.25137       -2.86006
|  4> C         -0.71189        0.84252       -4.21834
|  5> H          0.15463        1.49980       -4.13091
|  6> H         -1.53813        1.45922       -4.58267
|  7> C         -0.39762       -0.20587       -5.28802
|  8> O          0.61717       -0.00535       -5.99827
|  9> F         -1.13317       -1.22138       -5.34147
| 10> H         -1.95489       -0.38644       -2.98099
| 11> H         -1.34603        1.04362       -2.18269
| 12> H         -0.28606       -0.31581       -2.46809
| 13> *
| 14>
| 15> %MaxCore 64000
| 16>
| 17> %pal nprocs 4
| 18> end
| 19>
| 20> %scf
| 21>   MaxIter 150
| 22> end
| 23>
| 24>
| 25>                          ****END OF INPUT****

CARTESIAN COORDINATES (ANGSTROEM)
---------------------------------
  C     -1.104330    0.251370   -2.860060
  C     -0.711890    0.842520   -4.218340
  H      0.154630    1.499800   -4.130910
  H     -1.538130    1.459220   -4.582670
  C     -0.397620   -0.205870   -5.288020
  O      0.617170   -0.005350   -5.998270
  F     -1.133170   -1.221380   -5.341470
  H     -1.954890   -0.386440   -2.980990
  H     -1.346030    1.043620   -2.182690
  H     -0.286060   -0.315810   -2.468090

 Total Charge           Charge          ....    0
 Multiplicity           Mult            ....    1
 Number of Electrons    NEL             ....   40
 Basis Dimension        Dim             ....  185

ORBITAL ENERGIES
----------------

  NO   OCC          E(Eh)            E(eV)
   0   2.0000     -25.315607      -688.8727
   1   2.0000     -19.632451      -534.2262
   2   2.0000     -10.719292      -291.6868
   3   2.0000     -10.567417      -287.5540
   4   2.0000     -10.542984      -286.8892
   5   2.0000      -1.465359       -39.8745
   6   2.0000      -1.155157       -31.4334
   7   2.0000      -0.903167       -24.5764
   8   2.0000      -0.783922       -21.3316
   9   2.0000      -0.737203       -20.0603
  10   2.0000      -0.646113       -17.5816
  11   2.0000      -0.638887       -17.3850
  12   2.0000      -0.583354       -15.8739
  13   2.0000      -0.539917       -14.6919
  14   2.0000      -0.508949       -13.8492
  15   2.0000      -0.471208       -12.8222
  16   2.0000      -0.455088       -12.3836
  17   2.0000      -0.443705       -12.0738
  18   2.0000      -0.415181       -11.2977
  19   2.0000      -0.365996        -9.9593
  20   0.0000       0.019254         0.5239
  21   0.0000       0.059184         1.6105
  22   0.0000       0.103953         2.8287
  23   0.0000       0.123267         3.3543
  24   0.0000       0.131574         3.5803

MULLIKEN ATOMIC CHARGES
-----------------------
   0 C :   -0.404098
   1 C :   -0.291191
   2 H :    0.162739
   3 H :    0.151032
   4 C :    0.407673
   5 O :   -0.345308
   6 F :   -0.115537
   7 H :    0.142961
   8 H :    0.144476
   9 H :    0.147253
Sum of atomic charges:   -0.0000000

LOEWDIN ATOMIC CHARGES
----------------------
   0 C :   -0.296831
   1 C :   -0.257772
   2 H :    0.153956
   3 H :    0.152404
   4 C :   -0.491396
   5 O :    0.056718
   6 F :    0.319155
   7 H :    0.120410
   8 H :    0.121638
   9 H :    0.121719

  Mayer bond orders larger than 0.100000
B(  0-C ,  1-C ) :   0.9333 B(  0-C ,  7-H ) :   0.9665 B(  0-C ,  8-H ) :   0.9719
B(  0-C ,  9-H ) :   0.9712 B(  1-C ,  2-H ) :   0.9690 B(  1-C ,  3-H ) :   0.9445
B(  1-C ,  4-C ) :   1.0005 B(  4-C ,  5-O ) :   2.0517 B(  4-C ,  6-F ) :   1.1362

Dispersion correction           -0.000094616
FINAL SINGLE POINT ENERGY      -292.392211914034

DIPOLE MOMENT
-------------
                                X             Y             Z
Electronic contribution:      0.68130      -4.35538      -6.58063
Nuclear contribution   :     -1.45527       4.68977       7.53208
                        -----------------------------------------
Total Dipole Moment    :     -0.77397       0.33439       0.95144
                        -----------------------------------------
Magnitude (a.u.)       :      1.27125
Magnitude (Debye)      :      3.23127

Rotational constants in cm-1:     0.298240     0.132464     0.099915
Rotational constants in MHz :  8940.998095  3971.171647  2995.369122

                             ****ORCA TERMINATED NORMALLY****
TOTAL RUN TIME: 0 days 0 hours 0 minutes 19 seconds 595 msec
