                         Program Version 5.0.0 -  RELEASE  -
|  1> !M062X D3Zero RIJCOSX def2-TZVP def2/J TightSCF
|  2> *xyz 0 1
|  3> C          2.23447       -2.98975       -2.39762
|  4> N          2.75680       -2.94555       -3.76503
|  5> C          1.98721       -2.59045       -4.81898
|  6> C          0.74322       -3.01749       -4.91352
|  7> N          2.49964       -1.84860       -5.80324
|  8> H          3.30978       -1.29282       -5.55895
|  9> H          1.80103       -1.30430       -6.28913
| 10> H          3.71612       -2.62880       -3.82953
| 11> H          0.39583       -3.62775       -4.18502
| 12> H          0.03920       -2.45438       -5.37137
| 13> C          2.19120       -1.61950       -1.71549
| 14> H          2.87278       -3.66637       -1.82801
| 15> H          1.24619       -3.44744       -2.40784
| 16> H          1.56387       -0.96046       -2.27853
| 17> H          3.18033       -1.21449       -1.66568
| 18> H          1.79916       -1.72608       -0.72562
| 19> *
| 20>
| 21> %MaxCore 64000
| 22>
| 23> %pal nprocs 4
| 24> end
| 25>
| 26> %scf
| 27>   MaxIter 150
| 28> end
| 29>
| 30>
| 31>                          ****END OF INPUT****

CARTESIAN COORDINATES (ANGSTROEM)
---------------------------------
  C      2.234470   -2.989750   -2.397620
  N      2.756800   -2.945550   -3.765030
  C      1.987210   -2.590450   -4.818980
  C      0.743220   -3.017490   -4.913520
  N      2.499640   -1.848600   -5.803240
  H      3.309780   -1.292820   -5.558950
  H      1.801030   -1.304300   -6.289130
  H      3.716120   -2.628800   -3.829530
  H      0.395830   -3.627750   -4.185020
  H      0.039200   -2.454380   -5.371370
  C      2.191200   -1.619500   -1.715490
  H      2.872780   -3.666370   -1.828010
  H      1.246190   -3.447440   -2.407840
  H      1.563870   -0.960460   -2.278530
  H      3.180330   -1.214490   -1.665680
  H      1.799160   -1.726080   -0.725620

 Total Charge           Charge          ....    0
 Multiplicity           Mult            ....    1
 Number of Electrons    NEL             ....   48
 Basis Dimension        Dim             ....  246

ORBITAL ENERGIES
----------------

  NO   OCC          E(Eh)            E(eV)
   0   2.0000     -14.748535      -401.3281
   1   2.0000     -14.746636      -401.2764
   2   2.0000     -10.583551      -287.9931
   3   2.0000     -10.568394      -287.5806
   4   2.0000     -10.522478      -286.3312
   5   2.0000     -10.453000      -284.4406
   6   2.0000      -1.079248       -29.3678
   7   2.0000      -0.993506       -27.0347
   8   2.0000      -0.852269       -23.1914
   9   2.0000      -0.809337       -22.0232
  10   2.0000      -0.726742       -19.7756
  11   2.0000      -0.642109       -17.4727
  12   2.0000      -0.617792       -16.8110
  13   2.0000      -0.586019       -15.9464
  14   2.0000      -0.531182       -14.4542
  15   2.0000      -0.515728       -14.0337
  16   2.0000      -0.485171       -13.2022
  17   2.0000      -0.462297       -12.5797
  18   2.0000      -0.460357       -12.5269
  19   2.0000      -0.434612       -11.8264
  20   2.0000      -0.425753       -11.5853
  21   2.0000      -0.411180       -11.1888
  22   2.0000      -0.316961        -8.6250
  23   2.0000      -0.230598        -6.2749
  24   0.0000       0.048623         1.3231
  25   0.0000       0.081152         2.2083
  26   0.0000       0.089024         2.4225
  27   0.0000       0.101779         2.7695
  28   0.0000       0.113856         3.0982

MULLIKEN ATOMIC CHARGES
-----------------------
   0 C :   -0.168281
   1 N :   -0.393235
   2 C :    0.426045
   3 C :   -0.491880
   4 N :   -0.517199
   5 H :    0.214338
   6 H :    0.246445
   7 H :    0.206255
   8 H :    0.078630
   9 H :    0.101269
  10 C :   -0.387217
  11 H :    0.138802
  12 H :    0.143858
  13 H :    0.145222
  14 H :    0.123831
  15 H :    0.133117
Sum of atomic charges:    0.0000000

LOEWDIN ATOMIC CHARGES
----------------------
   0 C :   -0.302907
   1 N :    0.093422
   2 C :   -0.465451
   3 C :   -0.314189
   4 N :   -0.028660
   5 H :    0.157235
   6 H :    0.180561
   7 H :    0.174901
   8 H :    0.099989
   9 H :    0.099055
  10 C :   -0.309351
  11 H :    0.129184
  12 H :    0.136262
  13 H :    0.119490
  14 H :    0.112053
  15 H :    0.118406

  Mayer bond orders larger than 0.100000
B(  0-C ,  1-N ) :   0.9102 B(  0-C , 10-C ) :   0.9439 B(  0-C , 11-H ) :   0.9802
B(  0-C , 12-H ) :   0.9807 B(  1-N ,  2-C ) :   1.0734 B(  1-N ,  7-H ) :   0.9392
B(  2-C ,  3-C ) :   1.6326 B(  2-C ,  4-N ) :   1.0838 B(  3-C ,  8-H ) :   1.0277
B(  3-C ,  9-H ) :   0.9799 B(  4-N ,  5-H ) :   0.9274 B(  4-N ,  6-H ) :   0.9235
B( 10-C , 13-H ) :   0.9656 B( 10-C , 14-H ) :   0.9745 B( 10-C , 15-H ) :   0.9746

Dispersion correction           -0.000316330
FINAL SINGLE POINT ENERGY      -267.876654246535

DIPOLE MOMENT
-------------
                                X             Y             Z
Electronic contribution:      1.49926      -1.23501      -3.83945
Nuclear contribution   :     -0.86957       2.18853       4.41892
                        -----------------------------------------
Total Dipole Moment    :      0.62969       0.95352       0.57947
                        -----------------------------------------
Magnitude (a.u.)       :      1.28121
Magnitude (Debye)      :      3.25658

Rotational constants in cm-1:     0.214718     0.075736     0.068547
Rotational constants in MHz :  6437.075121  2270.519635  2054.974198

                             ****ORCA TERMINATED NORMALLY****
TOTAL RUN TIME: 0 days 0 hours 0 minutes 33 seconds 722 msec
