                         Program Version 5.0.0 -  RELEASE  -
|  1> !M062X D3Zero RIJCOSX def2-TZVP def2/J TightSCF
|  2> *xyz 0 1
|  3> C          2.23447       -2.98975       -2.39762
|  4> N          2.75680       -2.94555       -3.76503
|  5> C          1.98721       -2.59045       -4.81898
|  6> N          0.74322       -3.01749       -4.91352
|  7> C          2.49964       -1.84860       -5.80324
|  8> H          3.30978       -1.29282       -5.55895
|  9> H          1.80103       -1.30430       -6.28913
| 10> H          3.71612       -2.62880       -3.82953
| 11> H          0.39583       -3.62775       -4.18502
| 12> H          0.03920       -2.45438       -5.37137
| 13> C          2.19120       -1.61950       -1.71549
| 14> H          2.87278       -3.66637       -1.82801
| 15> H          1.24619       -3.44744       -2.40784
| 16> H          1.56387       -0.96046       -2.27853
| 17> H          3.18033       -1.21449       -1.66568
| 18> H          1.79916       -1.72608       -0.72562
| 19> *
| 20>
| 21> %MaxCore 64000
| 22>
| 23> %pal nprocs 4
| 24> end
| 25>
| 26> %scf
| 27>   MaxIter 150
| 28> end
| 29>
| 30>
| 31>                          ****END OF INPUT****

CARTESIAN COORDINATES (ANGSTROEM)
---------------------------------
  C      2.234470   -2.989750   -2.397620
  N      2.756800   -2.945550   -3.765030
  C      1.987210   -2.590450   -4.818980
  N      0.743220   -3.017490   -4.913520
  C      2.499640   -1.848600   -5.803240
  H      3.309780   -1.292820   -5.558950
  H      1.801030   -1.304300   -6.289130
  H      3.716120   -2.628800   -3.829530
  H      0.395830   -3.627750   -4.185020
  H      0.039200   -2.454380   -5.371370
  C      2.191200   -1.619500   -1.715490
  H      2.872780   -3.666370   -1.828010
  H      1.246190   -3.447440   -2.407840
  H      1.563870   -0.960460   -2.278530
  H      3.180330   -1.214490   -1.665680
  H      1.799160   -1.726080   -0.725620

 Total Charge           Charge          ....    0
 Multiplicity           Mult            ....    1
 Number of Electrons    NEL             ....   48
 Basis Dimension        Dim             ....  246

ORBITAL ENERGIES
----------------

  NO   OCC          E(Eh)            E(eV)
   0   2.0000     -14.750051      -401.3693
   1   2.0000     -14.747636      -401.3036
   2   2.0000     -10.587275      -288.0944
   3   2.0000     -10.576562      -287.8029
   4   2.0000     -10.526405      -286.4380
   5   2.0000     -10.447923      -284.3024
   6   2.0000      -1.081599       -29.4318
   7   2.0000      -0.993826       -27.0434
   8   2.0000      -0.864980       -23.5373
   9   2.0000      -0.801960       -21.8224
  10   2.0000      -0.716520       -19.4975
  11   2.0000      -0.681333       -18.5400
  12   2.0000      -0.614565       -16.7232
  13   2.0000      -0.562675       -15.3112
  14   2.0000      -0.561156       -15.2698
  15   2.0000      -0.506251       -13.7758
  16   2.0000      -0.497584       -13.5400
  17   2.0000      -0.469059       -12.7637
  18   2.0000      -0.441497       -12.0137
  19   2.0000      -0.431854       -11.7513
  20   2.0000      -0.430094       -11.7034
  21   2.0000      -0.418977       -11.4009
  22   2.0000      -0.319426        -8.6920
  23   2.0000      -0.225074        -6.1246
  24   0.0000       0.050001         1.3606
  25   0.0000       0.076389         2.0786
  26   0.0000       0.083475         2.2715
  27   0.0000       0.096586         2.6282
  28   0.0000       0.109344         2.9754

MULLIKEN ATOMIC CHARGES
-----------------------
   0 C :   -0.195555
   1 N :   -0.376089
   2 C :    0.378286
   3 N :   -0.530013
   4 C :   -0.443881
   5 H :    0.074348
   6 H :    0.071684
   7 H :    0.235248
   8 H :    0.234114
   9 H :    0.257915
  10 C :   -0.368439
  11 H :    0.146188
  12 H :    0.112711
  13 H :    0.141271
  14 H :    0.131080
  15 H :    0.131132
Sum of atomic charges:   -0.0000000

LOEWDIN ATOMIC CHARGES
----------------------
   0 C :   -0.317799
   1 N :    0.094499
   2 C :   -0.465928
   3 N :   -0.001621
   4 C :   -0.344402
   5 H :    0.096050
   6 H :    0.100861
   7 H :    0.191433
   8 H :    0.165041
   9 H :    0.179592
  10 C :   -0.306171
  11 H :    0.130820
  12 H :    0.123943
  13 H :    0.119699
  14 H :    0.116198
  15 H :    0.117786

  Mayer bond orders larger than 0.100000
B(  0-C ,  1-N ) :   0.9386 B(  0-C , 10-C ) :   0.9298 B(  0-C , 11-H ) :   0.9799
B(  0-C , 12-H ) :   0.9907 B(  1-N ,  2-C ) :   1.1203 B(  1-N ,  7-H ) :   0.9320
B(  2-C ,  3-N ) :   1.0658 B(  2-C ,  4-C ) :   1.7308 B(  3-N ,  8-H ) :   0.9349
B(  3-N ,  9-H ) :   0.9178 B(  4-C ,  5-H ) :   1.0133 B(  4-C ,  6-H ) :   1.0010
B( 10-C , 13-H ) :   0.9660 B( 10-C , 14-H ) :   0.9733 B( 10-C , 15-H ) :   0.9730

Dispersion correction           -0.000314679
FINAL SINGLE POINT ENERGY      -267.870557010200

DIPOLE MOMENT
-------------
                                X             Y             Z
Electronic contribution:     -0.13588      -2.38753      -2.95704
Nuclear contribution   :     -0.49695       2.43650       4.23017
                        -----------------------------------------
Total Dipole Moment    :     -0.63284       0.04897       1.27313
                        -----------------------------------------
Magnitude (a.u.)       :      1.42258
Magnitude (Debye)      :      3.61591

Rotational constants in cm-1:     0.211102     0.077011     0.069221
Rotational constants in MHz :  6328.667765  2308.731604  2075.192956

                             ****ORCA TERMINATED NORMALLY****
TOTAL RUN TIME: 0 days 0 hours 0 minutes 40 seconds 217 msec
