                         Program Version 5.0.0 -  RELEASE  -
|  1> !M062X D3Zero RIJCOSX def2-TZVP def2/J TightSCF xyzfile
|  2>
|  3> *xyzfile 0 1 D3.xyz
|  4>
|  5> %MaxCore 64000
|  6>
|  7> %pal nprocs 18
|  8> end
|  9>
| 10> %scf
| 11>   MaxIter 150
| 12> end
| 13>
| 14>
| 15>                          ****END OF INPUT****

CARTESIAN COORDINATES (ANGSTROEM)
---------------------------------
  C      2.234473   -2.989754   -2.397622
  N      2.756799   -2.945553   -3.765029
  C     -1.104325    0.251374   -2.860056
  C     -0.711893    0.842517   -4.218344
  H      0.154626    1.499800   -4.130909
  H     -1.538134    1.459222   -4.582671
  C     -0.397624   -0.205875   -5.288018
  C      1.987208   -2.590451   -4.818975
  N      0.743221   -3.017493   -4.913524
  C      2.499636   -1.848598   -5.803241
  H      3.309780   -1.292818   -5.558947
  H      1.801025   -1.304298   -6.289129
  H      3.716116   -2.628797   -3.829533
  H      0.395828   -3.627747   -4.185024
  H      0.039201   -2.454383   -5.371367
  F      0.617165   -0.005348   -5.998273
  O     -1.133173   -1.221380   -5.341465
  C      2.191199   -1.619503   -1.715492
  H      2.872783   -3.666368   -1.828014
  H      1.246188   -3.447444   -2.407842
  C      1.298729   -0.554314   -2.359773
  H      1.872917   -1.787955   -0.681310
  H      3.216809   -1.238432   -1.654428
  C     -0.196255   -0.863365   -2.325763
  H      1.612531   -0.371346   -3.393065
  H      1.480944    0.388638   -1.834444
  H     -0.404105   -1.761825   -2.909448
  H     -0.490439   -1.087880   -1.294131
  H     -1.143842    1.066711   -2.129680
  H     -2.114401   -0.156834   -2.930323

 Total Charge           Charge          ....    0
 Multiplicity           Mult            ....    1
 Number of Electrons    NEL             ....  102
 Basis Dimension        Dim             ....  505

ORBITAL ENERGIES
----------------

  NO   OCC          E(Eh)            E(eV)
   0   2.0000     -25.326931      -689.1808
   1   2.0000     -19.655184      -534.8448
   2   2.0000     -14.739685      -401.0872
   3   2.0000     -14.722925      -400.6311
   4   2.0000     -10.740012      -292.2506
   5   2.0000     -10.575915      -287.7853
   6   2.0000     -10.575205      -287.7660
   7   2.0000     -10.571188      -287.6566
   8   2.0000     -10.555514      -287.2301
   9   2.0000     -10.539812      -286.8029
  10   2.0000     -10.539529      -286.7952
  11   2.0000     -10.539072      -286.7827
  12   2.0000     -10.434226      -283.9297
  13   2.0000      -1.480194       -40.2781
  14   2.0000      -1.184020       -32.2188
  15   2.0000      -1.069485       -29.1022
  16   2.0000      -0.981172       -26.6991
  17   2.0000      -0.931145       -25.3377
  18   2.0000      -0.889741       -24.2111
  19   2.0000      -0.842228       -22.9182
  20   2.0000      -0.805129       -21.9087
  21   2.0000      -0.784198       -21.3391
  22   2.0000      -0.746528       -20.3141
  23   2.0000      -0.704511       -19.1707
  24   2.0000      -0.680870       -18.5274
  25   2.0000      -0.664450       -18.0806
  26   2.0000      -0.652979       -17.7685
  27   2.0000      -0.637723       -17.3533
  28   2.0000      -0.614172       -16.7125
  29   2.0000      -0.600338       -16.3360
  30   2.0000      -0.567112       -15.4319
  31   2.0000      -0.553714       -15.0673
  32   2.0000      -0.545612       -14.8468
  33   2.0000      -0.535933       -14.5835
  34   2.0000      -0.520786       -14.1713
  35   2.0000      -0.504258       -13.7216
  36   2.0000      -0.487776       -13.2731
  37   2.0000      -0.476776       -12.9737
  38   2.0000      -0.457928       -12.4609
  39   2.0000      -0.450152       -12.2493
  40   2.0000      -0.444409       -12.0930
  41   2.0000      -0.433951       -11.8084
  42   2.0000      -0.427788       -11.6407
  43   2.0000      -0.424535       -11.5522
  44   2.0000      -0.411747       -11.2042
  45   2.0000      -0.397936       -10.8284
  46   2.0000      -0.395971       -10.7749
  47   2.0000      -0.384585       -10.4651
  48   2.0000      -0.379805       -10.3350
  49   2.0000      -0.304732        -8.2922
  50   2.0000      -0.213460        -5.8086
  51   0.0000      -0.005358        -0.1458
  52   0.0000       0.051012         1.3881
  53   0.0000       0.067538         1.8378
  54   0.0000       0.070027         1.9055
  55   0.0000       0.083520         2.2727

MULLIKEN ATOMIC CHARGES
-----------------------
   0 C :   -0.267233
   1 N :   -0.345568
   2 C :   -0.265696
   3 C :   -0.333602
   4 H :    0.183373
   5 H :    0.179984
   6 C :    0.405010
   7 C :    0.300538
   8 N :   -0.510382
   9 C :   -0.433589
  10 H :    0.083882
  11 H :    0.059826
  12 H :    0.231424
  13 H :    0.225974
  14 H :    0.286244
  15 F :   -0.095935
  16 O :   -0.377890
  17 C :   -0.268968
  18 H :    0.161932
  19 H :    0.149984
  20 C :   -0.303117
  21 H :    0.139187
  22 H :    0.150680
  23 C :   -0.290351
  24 H :    0.173678
  25 H :    0.153905
  26 H :    0.136269
  27 H :    0.150524
  28 H :    0.156229
  29 H :    0.163686
Sum of atomic charges:    0.0000000

LOEWDIN ATOMIC CHARGES
----------------------
   0 C :   -0.294930
   1 N :    0.100155
   2 C :   -0.257644
   3 C :   -0.233446
   4 H :    0.149398
   5 H :    0.161561
   6 C :   -0.478923
   7 C :   -0.486112
   8 N :    0.012480
   9 C :   -0.353671
  10 H :    0.093368
  11 H :    0.094810
  12 H :    0.190189
  13 H :    0.159624
  14 H :    0.161626
  15 F :    0.342725
  16 O :    0.065251
  17 C :   -0.274342
  18 H :    0.134669
  19 H :    0.128620
  20 C :   -0.271516
  21 H :    0.140371
  22 H :    0.139042
  23 C :   -0.274399
  24 H :    0.143425
  25 H :    0.140723
  26 H :    0.135371
  27 H :    0.140812
  28 H :    0.143491
  29 H :    0.147274

  Mayer bond orders larger than 0.100000
B(  0-C ,  1-N ) :   0.9181 B(  0-C , 17-C ) :   0.9084 B(  0-C , 18-H ) :   0.9911
B(  0-C , 19-H ) :   0.9959 B(  1-N ,  7-C ) :   1.1170 B(  1-N , 12-H ) :   0.9280
B(  2-C ,  3-C ) :   0.9038 B(  2-C , 23-C ) :   0.9304 B(  2-C , 28-H ) :   0.9797
B(  2-C , 29-H ) :   0.9785 B(  3-C ,  4-H ) :   0.9655 B(  3-C ,  5-H ) :   0.9516
B(  3-C ,  6-C ) :   0.9788 B(  6-C , 15-F ) :   1.1403 B(  6-C , 16-O ) :   1.9336
B(  7-C ,  8-N ) :   1.0837 B(  7-C ,  9-C ) :   1.6755 B(  8-N , 13-H ) :   0.9359
B(  8-N , 14-H ) :   0.8629 B(  9-C , 10-H ) :   1.0183 B(  9-C , 11-H ) :   1.0290
B( 17-C , 20-C ) :   0.9187 B( 17-C , 21-H ) :   0.9805 B( 17-C , 22-H ) :   0.9850
B( 20-C , 23-C ) :   0.8506 B( 20-C , 24-H ) :   0.9631 B( 20-C , 25-H ) :   0.9780
B( 23-C , 26-H ) :   0.9825 B( 23-C , 27-H ) :   0.9778

Dispersion correction           -0.001673557
FINAL SINGLE POINT ENERGY      -637.676922874449

DIPOLE MOMENT
-------------
                                X             Y             Z
Electronic contribution:     -2.85865       1.35582     -12.72840
Nuclear contribution   :      2.27881      -0.10762      14.43322
                        -----------------------------------------
Total Dipole Moment    :     -0.57984       1.24820       1.70482
                        -----------------------------------------
Magnitude (a.u.)       :      2.19103
Magnitude (Debye)      :      5.56916

Rotational constants in cm-1:     0.033336     0.023673     0.017062
Rotational constants in MHz :   999.388459   709.685364   511.514310

                             ****ORCA TERMINATED NORMALLY****
TOTAL RUN TIME: 0 days 0 hours 1 minutes 10 seconds 284 msec
