                         Program Version 5.0.0 -  RELEASE  -
|  1> !M062X D3Zero RIJCOSX def2-TZVP def2/J TightSCF xyzfile
|  2>
|  3> *xyzfile 0 1 D5.xyz
|  4>
|  5> %MaxCore 64000
|  6>
|  7> %pal nprocs 18
|  8> end
|  9>
| 10> %scf
| 11>   MaxIter 150
| 12> end
| 13>
| 14>
| 15>                          ****END OF INPUT****

CARTESIAN COORDINATES (ANGSTROEM)
---------------------------------
  C      2.234473   -2.989754   -2.397622
  N      2.756799   -2.945553   -3.765029
  C     -1.104325    0.251374   -2.860056
  C     -0.711893    0.842517   -4.218344
  H      0.154626    1.499800   -4.130909
  H     -1.538134    1.459222   -4.582671
  C     -0.397624   -0.205875   -5.288018
  C      1.987208   -2.590451   -4.818975
  C      0.743221   -3.017493   -4.913524
  N      2.499636   -1.848598   -5.803241
  H      3.309780   -1.292818   -5.558947
  H      1.801025   -1.304298   -6.289129
  H      3.716116   -2.628797   -3.829533
  H      0.395828   -3.627747   -4.185024
  H      0.039201   -2.454383   -5.371367
  O      0.617165   -0.005348   -5.998273
  F     -1.133173   -1.221380   -5.341465
  C      2.191199   -1.619503   -1.715492
  H      2.872783   -3.666368   -1.828014
  H      1.246188   -3.447444   -2.407842
  C      1.298729   -0.554314   -2.359773
  H      1.872917   -1.787955   -0.681310
  H      3.216809   -1.238432   -1.654428
  C     -0.196255   -0.863365   -2.325763
  H      1.612531   -0.371346   -3.393065
  H      1.480944    0.388638   -1.834444
  H     -0.404105   -1.761825   -2.909448
  H     -0.490439   -1.087880   -1.294131
  H     -1.143842    1.066711   -2.129680
  H     -2.114401   -0.156834   -2.930323

 Total Charge           Charge          ....    0
 Multiplicity           Mult            ....    1
 Number of Electrons    NEL             ....  102
 Basis Dimension        Dim             ....  505

ORBITAL ENERGIES
----------------

  NO   OCC          E(Eh)            E(eV)
   0   2.0000     -25.322649      -689.0643
   1   2.0000     -19.648861      -534.6727
   2   2.0000     -14.739837      -401.0914
   3   2.0000     -14.719389      -400.5349
   4   2.0000     -10.733422      -292.0713
   5   2.0000     -10.571141      -287.6554
   6   2.0000     -10.570864      -287.6478
   7   2.0000     -10.564765      -287.4819
   8   2.0000     -10.553001      -287.1618
   9   2.0000     -10.536188      -286.7042
  10   2.0000     -10.535767      -286.6928
  11   2.0000     -10.535397      -286.6827
  12   2.0000     -10.438161      -284.0368
  13   2.0000      -1.477077       -40.1933
  14   2.0000      -1.175470       -31.9862
  15   2.0000      -1.065813       -29.0022
  16   2.0000      -0.979461       -26.6525
  17   2.0000      -0.928877       -25.2760
  18   2.0000      -0.884296       -24.0629
  19   2.0000      -0.831462       -22.6252
  20   2.0000      -0.800789       -21.7906
  21   2.0000      -0.782769       -21.3002
  22   2.0000      -0.756154       -20.5760
  23   2.0000      -0.705349       -19.1935
  24   2.0000      -0.674524       -18.3547
  25   2.0000      -0.661558       -18.0019
  26   2.0000      -0.648497       -17.6465
  27   2.0000      -0.624556       -16.9950
  28   2.0000      -0.603454       -16.4208
  29   2.0000      -0.598155       -16.2766
  30   2.0000      -0.563010       -15.3203
  31   2.0000      -0.554555       -15.0902
  32   2.0000      -0.545775       -14.8513
  33   2.0000      -0.522002       -14.2044
  34   2.0000      -0.514427       -13.9983
  35   2.0000      -0.495274       -13.4771
  36   2.0000      -0.481202       -13.0942
  37   2.0000      -0.477012       -12.9802
  38   2.0000      -0.461899       -12.5689
  39   2.0000      -0.459180       -12.4949
  40   2.0000      -0.443175       -12.0594
  41   2.0000      -0.435614       -11.8537
  42   2.0000      -0.423080       -11.5126
  43   2.0000      -0.421116       -11.4592
  44   2.0000      -0.410385       -11.1671
  45   2.0000      -0.394081       -10.7235
  46   2.0000      -0.389767       -10.6061
  47   2.0000      -0.380481       -10.3534
  48   2.0000      -0.372505       -10.1364
  49   2.0000      -0.301926        -8.2158
  50   2.0000      -0.219358        -5.9690
  51   0.0000       0.004552         0.1239
  52   0.0000       0.050304         1.3688
  53   0.0000       0.063498         1.7279
  54   0.0000       0.078746         2.1428
  55   0.0000       0.086468         2.3529

MULLIKEN ATOMIC CHARGES
-----------------------
   0 C :   -0.226918
   1 N :   -0.367031
   2 C :   -0.285930
   3 C :   -0.326549
   4 H :    0.188587
   5 H :    0.175658
   6 C :    0.412873
   7 C :    0.371696
   8 C :   -0.534184
   9 N :   -0.491398
  10 H :    0.208921
  11 H :    0.276204
  12 H :    0.208031
  13 H :    0.099663
  14 H :    0.101139
  15 O :   -0.393897
  16 F :   -0.104573
  17 C :   -0.297605
  18 H :    0.156067
  19 H :    0.164378
  20 C :   -0.273866
  21 H :    0.140308
  22 H :    0.147029
  23 C :   -0.288753
  24 H :    0.162772
  25 H :    0.151392
  26 H :    0.158923
  27 H :    0.149503
  28 H :    0.155737
  29 H :    0.161823
Sum of atomic charges:    0.0000000

LOEWDIN ATOMIC CHARGES
----------------------
   0 C :   -0.280979
   1 N :    0.099547
   2 C :   -0.267405
   3 C :   -0.230921
   4 H :    0.157333
   5 H :    0.157267
   6 C :   -0.480602
   7 C :   -0.481204
   8 C :   -0.319015
   9 N :   -0.019360
  10 H :    0.153691
  11 H :    0.169568
  12 H :    0.175487
  13 H :    0.095999
  14 H :    0.093323
  15 O :    0.059668
  16 F :    0.338493
  17 C :   -0.275342
  18 H :    0.133403
  19 H :    0.138196
  20 C :   -0.271173
  21 H :    0.140419
  22 H :    0.136481
  23 C :   -0.274207
  24 H :    0.142810
  25 H :    0.139616
  26 H :    0.141893
  27 H :    0.140477
  28 H :    0.143321
  29 H :    0.143215

  Mayer bond orders larger than 0.100000
B(  0-C ,  1-N ) :   0.8933 B(  0-C , 17-C ) :   0.9272 B(  0-C , 18-H ) :   0.9903
B(  0-C , 19-H ) :   0.9865 B(  1-N ,  7-C ) :   1.0611 B(  1-N , 12-H ) :   0.9329
B(  2-C ,  3-C ) :   0.8870 B(  2-C , 23-C ) :   0.9123 B(  2-C , 28-H ) :   0.9773
B(  2-C , 29-H ) :   0.9879 B(  3-C ,  4-H ) :   0.9718 B(  3-C ,  5-H ) :   0.9551
B(  3-C ,  6-C ) :   0.9799 B(  6-C , 15-O ) :   1.9246 B(  6-C , 16-F ) :   1.1261
B(  7-C ,  8-C ) :   1.5452 B(  7-C ,  9-N ) :   1.1091 B(  8-C , 13-H ) :   1.0380
B(  8-C , 14-H ) :   1.0266 B(  9-N , 10-H ) :   0.9314 B(  9-N , 11-H ) :   0.8899
B( 17-C , 20-C ) :   0.9267 B( 17-C , 21-H ) :   0.9835 B( 17-C , 22-H ) :   0.9884
B( 20-C , 23-C ) :   0.8502 B( 20-C , 24-H ) :   0.9558 B( 20-C , 25-H ) :   0.9810
B( 23-C , 26-H ) :   0.9868 B( 23-C , 27-H ) :   0.9793

Dispersion correction           -0.001688026
FINAL SINGLE POINT ENERGY      -637.682818655913

DIPOLE MOMENT
-------------
                                X             Y             Z
Electronic contribution:     -4.36371       0.20846     -12.39057
Nuclear contribution   :      4.07548       1.14852      13.79455
                        -----------------------------------------
Total Dipole Moment    :     -0.28823       1.35698       1.40398
                        -----------------------------------------
Magnitude (a.u.)       :      1.97374
Magnitude (Debye)      :      5.01684

Rotational constants in cm-1:     0.033274     0.023559     0.016968
Rotational constants in MHz :   997.539108   706.293545   508.690532

                             ****ORCA TERMINATED NORMALLY****
TOTAL RUN TIME: 0 days 0 hours 0 minutes 51 seconds 113 msec
