                         Program Version 5.0.0 -  RELEASE  -
|  1> !M062X D3Zero RIJCOSX def2-TZVP def2/J TightSCF xyzfile
|  2>
|  3> *xyzfile 0 1 D6.xyz
|  4>
|  5> %MaxCore 64000
|  6>
|  7> %pal nprocs 18
|  8> end
|  9>
| 10> %scf
| 11>   MaxIter 150
| 12> end
| 13>
| 14>
| 15>                          ****END OF INPUT****

CARTESIAN COORDINATES (ANGSTROEM)
---------------------------------
  C      2.234473   -2.989754   -2.397622
  N      2.756799   -2.945553   -3.765029
  C     -1.104325    0.251374   -2.860056
  C     -0.711893    0.842517   -4.218344
  H      0.154626    1.499800   -4.130909
  H     -1.538134    1.459222   -4.582671
  C     -0.397624   -0.205875   -5.288018
  C      1.987208   -2.590451   -4.818975
  N      0.743221   -3.017493   -4.913524
  C      2.499636   -1.848598   -5.803241
  H      3.309780   -1.292818   -5.558947
  H      1.801025   -1.304298   -6.289129
  H      3.716116   -2.628797   -3.829533
  H      0.395828   -3.627747   -4.185024
  H      0.039201   -2.454383   -5.371367
  O      0.617165   -0.005348   -5.998273
  F     -1.133173   -1.221380   -5.341465
  C      2.191199   -1.619503   -1.715492
  H      2.872783   -3.666368   -1.828014
  H      1.246188   -3.447444   -2.407842
  C      1.298729   -0.554314   -2.359773
  H      1.872917   -1.787955   -0.681310
  H      3.216809   -1.238432   -1.654428
  C     -0.196255   -0.863365   -2.325763
  H      1.612531   -0.371346   -3.393065
  H      1.480944    0.388638   -1.834444
  H     -0.404105   -1.761825   -2.909448
  H     -0.490439   -1.087880   -1.294131
  H     -1.143842    1.066711   -2.129680
  H     -2.114401   -0.156834   -2.930323

 Total Charge           Charge          ....    0
 Multiplicity           Mult            ....    1
 Number of Electrons    NEL             ....  102
 Basis Dimension        Dim             ....  505

ORBITAL ENERGIES
----------------

  NO   OCC          E(Eh)            E(eV)
   0   2.0000     -25.337157      -689.4591
   1   2.0000     -19.646127      -534.5983
   2   2.0000     -14.737559      -401.0294
   3   2.0000     -14.735025      -400.9604
   4   2.0000     -10.730230      -291.9844
   5   2.0000     -10.572286      -287.6865
   6   2.0000     -10.570797      -287.6460
   7   2.0000     -10.570703      -287.6435
   8   2.0000     -10.557145      -287.2745
   9   2.0000     -10.544274      -286.9243
  10   2.0000     -10.538417      -286.7649
  11   2.0000     -10.537194      -286.7316
  12   2.0000     -10.425093      -283.6812
  13   2.0000      -1.491009       -40.5724
  14   2.0000      -1.171716       -31.8840
  15   2.0000      -1.071024       -29.1440
  16   2.0000      -0.985303       -26.8115
  17   2.0000      -0.933463       -25.4008
  18   2.0000      -0.889152       -24.1950
  19   2.0000      -0.839250       -22.8371
  20   2.0000      -0.805791       -21.9267
  21   2.0000      -0.780079       -21.2270
  22   2.0000      -0.753626       -20.5072
  23   2.0000      -0.704558       -19.1720
  24   2.0000      -0.693715       -18.8769
  25   2.0000      -0.669035       -18.2054
  26   2.0000      -0.655449       -17.8357
  27   2.0000      -0.650889       -17.7116
  28   2.0000      -0.605008       -16.4631
  29   2.0000      -0.592435       -16.1210
  30   2.0000      -0.565716       -15.3939
  31   2.0000      -0.553473       -15.0608
  32   2.0000      -0.542428       -14.7602
  33   2.0000      -0.533353       -14.5133
  34   2.0000      -0.517765       -14.0891
  35   2.0000      -0.506325       -13.7778
  36   2.0000      -0.487964       -13.2782
  37   2.0000      -0.477223       -12.9859
  38   2.0000      -0.457601       -12.4520
  39   2.0000      -0.450170       -12.2497
  40   2.0000      -0.447032       -12.1644
  41   2.0000      -0.437148       -11.8954
  42   2.0000      -0.431674       -11.7465
  43   2.0000      -0.425197       -11.5702
  44   2.0000      -0.406386       -11.0583
  45   2.0000      -0.394641       -10.7387
  46   2.0000      -0.392095       -10.6694
  47   2.0000      -0.384975       -10.4757
  48   2.0000      -0.359129        -9.7724
  49   2.0000      -0.308551        -8.3961
  50   2.0000      -0.208277        -5.6675
  51   0.0000       0.004231         0.1151
  52   0.0000       0.047293         1.2869
  53   0.0000       0.065071         1.7707
  54   0.0000       0.067208         1.8288
  55   0.0000       0.084751         2.3062

MULLIKEN ATOMIC CHARGES
-----------------------
   0 C :   -0.267081
   1 N :   -0.345612
   2 C :   -0.286996
   3 C :   -0.328000
   4 H :    0.193660
   5 H :    0.175192
   6 C :    0.378455
   7 C :    0.295428
   8 N :   -0.519828
   9 C :   -0.413949
  10 H :    0.076621
  11 H :    0.100476
  12 H :    0.233216
  13 H :    0.230701
  14 H :    0.261953
  15 O :   -0.320698
  16 F :   -0.136938
  17 C :   -0.268571
  18 H :    0.162235
  19 H :    0.145086
  20 C :   -0.305094
  21 H :    0.137303
  22 H :    0.151632
  23 C :   -0.288974
  24 H :    0.195718
  25 H :    0.154028
  26 H :    0.118288
  27 H :    0.152606
  28 H :    0.158021
  29 H :    0.161124
Sum of atomic charges:   -0.0000000

LOEWDIN ATOMIC CHARGES
----------------------
   0 C :   -0.296927
   1 N :    0.098277
   2 C :   -0.268376
   3 C :   -0.232149
   4 H :    0.159616
   5 H :    0.156914
   6 C :   -0.497891
   7 C :   -0.487855
   8 N :    0.005857
   9 C :   -0.333366
  10 H :    0.093989
  11 H :    0.100955
  12 H :    0.191089
  13 H :    0.159808
  14 H :    0.163760
  15 O :    0.098535
  16 F :    0.321949
  17 C :   -0.274945
  18 H :    0.134550
  19 H :    0.126663
  20 C :   -0.270413
  21 H :    0.139409
  22 H :    0.139736
  23 C :   -0.277411
  24 H :    0.149912
  25 H :    0.141286
  26 H :    0.129468
  27 H :    0.141155
  28 H :    0.144315
  29 H :    0.142092

  Mayer bond orders larger than 0.100000
B(  0-C ,  1-N ) :   0.9236 B(  0-C , 17-C ) :   0.9057 B(  0-C , 18-H ) :   0.9916
B(  0-C , 19-H ) :   0.9981 B(  1-N ,  7-C ) :   1.1132 B(  1-N , 12-H ) :   0.9280
B(  2-C ,  3-C ) :   0.8840 B(  2-C , 23-C ) :   0.9116 B(  2-C , 28-H ) :   0.9756
B(  2-C , 29-H ) :   0.9898 B(  3-C ,  4-H ) :   0.9707 B(  3-C ,  5-H ) :   0.9558
B(  3-C ,  6-C ) :   0.9827 B(  6-C , 15-O ) :   2.0117 B(  6-C , 16-F ) :   1.0668
B(  7-C ,  8-N ) :   1.0445 B(  7-C ,  9-C ) :   1.7000 B(  8-N , 13-H ) :   0.9339
B(  8-N , 14-H ) :   0.9002 B(  9-C , 10-H ) :   1.0105 B(  9-C , 11-H ) :   1.0209
B( 17-C , 20-C ) :   0.9168 B( 17-C , 21-H ) :   0.9812 B( 17-C , 22-H ) :   0.9842
B( 20-C , 23-C ) :   0.8434 B( 20-C , 24-H ) :   0.9566 B( 20-C , 25-H ) :   0.9779
B( 23-C , 26-H ) :   0.9921 B( 23-C , 27-H ) :   0.9769

Dispersion correction           -0.001679901
FINAL SINGLE POINT ENERGY      -637.666895516278

DIPOLE MOMENT
-------------
                                X             Y             Z
Electronic contribution:     -5.69914      -0.68566     -11.69968
Nuclear contribution   :      4.34606       1.32859      13.65749
                        -----------------------------------------
Total Dipole Moment    :     -1.35307       0.64293       1.95781
                        -----------------------------------------
Magnitude (a.u.)       :      2.46519
Magnitude (Debye)      :      6.26602

Rotational constants in cm-1:     0.033551     0.023540     0.017085
Rotational constants in MHz :  1005.818710   705.725032   512.192443

                             ****ORCA TERMINATED NORMALLY****
TOTAL RUN TIME: 0 days 0 hours 0 minutes 50 seconds 899 msec
