                         Program Version 5.0.0 -  RELEASE  -
|  1> !wB97X-D3 RIJCOSX def2-SVPD def2/J TightSCF CPCM(Water)
|  2> *xyz -1 1
|  3> C          0.64866        1.00359       -3.64560
|  4> C          0.13297        2.38587       -4.02462
|  5> C         -1.36646        2.47911       -4.31393
|  6> C         -2.35773        2.30686       -3.13675
|  7> H         -1.63680        1.72709       -5.06399
|  8> H         -1.58235        3.44561       -4.76869
|  9> O         -3.44376        2.84652       -3.25274
| 10> O         -1.97092        1.58304       -2.15123
| 11> H          0.41484        3.10285       -3.24517
| 12> H          0.68317        2.68756       -4.91972
| 13> H          0.37534        0.30051       -4.40446
| 14> H          0.21856        0.70606       -2.71212
| 15> H          1.71431        1.03324       -3.55398
| 16> *
| 17> %MaxCore 64000
| 18>
| 19> %pal nprocs 18
| 20> end
| 21>
| 22> %scf
| 23>   MaxIter 150
| 24> end
| 25>
| 26>
| 27>                          ****END OF INPUT****

CARTESIAN COORDINATES (ANGSTROEM)
---------------------------------
  C      0.648660    1.003590   -3.645600
  C      0.132970    2.385870   -4.024620
  C     -1.366460    2.479110   -4.313930
  C     -2.357730    2.306860   -3.136750
  H     -1.636800    1.727090   -5.063990
  H     -1.582350    3.445610   -4.768690
  O     -3.443760    2.846520   -3.252740
  O     -1.970920    1.583040   -2.151230
  H      0.414840    3.102850   -3.245170
  H      0.683170    2.687560   -4.919720
  H      0.375340    0.300510   -4.404460
  H      0.218560    0.706060   -2.712120
  H      1.714310    1.033240   -3.553980

 Total Charge           Charge          ....   -1
 Multiplicity           Mult            ....    1
 Number of Electrons    NEL             ....   48
 Basis Dimension        Dim             ....  182

ORBITAL ENERGIES
----------------

  NO   OCC          E(Eh)            E(eV)
   0   2.0000     -19.182399      -521.9796
   1   2.0000     -19.170717      -521.6617
   2   2.0000     -10.366005      -282.0733
   3   2.0000     -10.272756      -279.5359
   4   2.0000     -10.268371      -279.4166
   5   2.0000     -10.254970      -279.0519
   6   2.0000      -1.129910       -30.7464
   7   2.0000      -1.027063       -27.9478
   8   2.0000      -0.883109       -24.0306
   9   2.0000      -0.791408       -21.5353
  10   2.0000      -0.689003       -18.7487
  11   2.0000      -0.587490       -15.9864
  12   2.0000      -0.552222       -15.0267
  13   2.0000      -0.538554       -14.6548
  14   2.0000      -0.516690       -14.0599
  15   2.0000      -0.502003       -13.6602
  16   2.0000      -0.495349       -13.4791
  17   2.0000      -0.462135       -12.5753
  18   2.0000      -0.427241       -11.6258
  19   2.0000      -0.418561       -11.3896
  20   2.0000      -0.411672       -11.2022
  21   2.0000      -0.343188        -9.3386
  22   2.0000      -0.327386        -8.9086
  23   2.0000      -0.318924        -8.6784
  24   0.0000       0.095108         2.5880
  25   0.0000       0.119357         3.2479
  26   0.0000       0.128188         3.4882
  27   0.0000       0.129717         3.5298
  28   0.0000       0.146566         3.9883

MULLIKEN ATOMIC CHARGES
-----------------------
   0 C :    0.690094
   1 C :   -0.339058
   2 C :   -0.030247
   3 C :    0.406113
   4 H :    0.095236
   5 H :   -0.001287
   6 O :   -0.672767
   7 O :   -0.774667
   8 H :   -0.090313
   9 H :   -0.028383
  10 H :   -0.049632
  11 H :   -0.189805
  12 H :   -0.015284
Sum of atomic charges:   -1.0000000

LOEWDIN ATOMIC CHARGES
----------------------
   0 C :    0.104342
   1 C :   -0.084487
   2 C :    0.007770
   3 C :   -0.311858
   4 H :    0.029861
   5 H :    0.010016
   6 O :   -0.333134
   7 O :   -0.369721
   8 H :    0.021811
   9 H :    0.014755
  10 H :   -0.017101
  11 H :   -0.051292
  12 H :   -0.020963

  Mayer bond orders larger than 0.100000
B(  0-C ,  1-C ) :   1.2697 B(  0-C , 10-H ) :   0.7966 B(  0-C , 11-H ) :   0.8591
B(  0-C , 12-H ) :   0.7759 B(  1-C ,  2-C ) :   1.1940 B(  1-C ,  4-H ) :   0.1118
B(  1-C ,  5-H ) :   0.1145 B(  1-C ,  8-H ) :   0.9598 B(  1-C ,  9-H ) :   0.8782
B(  1-C , 10-H ) :   0.1878 B(  1-C , 11-H ) :   0.2088 B(  1-C , 12-H ) :   0.1930
B(  2-C ,  3-C ) :   1.0153 B(  2-C ,  4-H ) :   0.8394 B(  2-C ,  5-H ) :   0.9142
B(  2-C ,  8-H ) :   0.1230 B(  2-C ,  9-H ) :   0.1084 B(  3-C ,  5-H ) :   0.1268
B(  3-C ,  6-O ) :   1.5299 B(  3-C ,  7-O ) :   1.4294 B(  6-O ,  7-O ) :   0.1633

Dispersion correction           -0.003229898
FINAL SINGLE POINT ENERGY      -306.966495003644

DIPOLE MOMENT
-------------
                                X             Y             Z
Electronic contribution:     -6.52030       1.50281       2.52863
Nuclear contribution   :      9.31936      -1.53308      -4.48293
                        -----------------------------------------
Total Dipole Moment    :      2.79906      -0.03027      -1.95430
                        -----------------------------------------
Magnitude (a.u.)       :      3.41393
Magnitude (Debye)      :      8.67752

Rotational constants in cm-1:     0.250458     0.077448     0.063252
Rotational constants in MHz :  7508.538874  2321.842942  1896.252250

                             ****ORCA TERMINATED NORMALLY****
TOTAL RUN TIME: 0 days 0 hours 0 minutes 10 seconds 940 msec
