                         Program Version 5.0.0 -  RELEASE  -
|  1> !wB97X-D3 RIJCOSX def2-SVPD def2/J TightSCF CPCM(Water)
|  2> *xyz 1 1
|  3> C          0.64866        1.00359       -3.64560
|  4> N          0.28128        0.67645       -2.24018
|  5> C          0.13297        2.38587       -4.02462
|  6> C         -1.36646        2.47911       -4.31393
|  7> H          0.39079       -0.31925       -2.02649
|  8> H         -0.69269        0.99010       -2.13812
|  9> H          0.85421        1.21221       -1.57528
| 10> H          0.19099        0.23965       -4.27575
| 11> H          1.73157        0.93173       -3.75075
| 12> H          0.41484        3.10285       -3.24517
| 13> H          0.68317        2.68756       -4.91972
| 14> H         -1.62719        1.77449       -5.07580
| 15> H         -1.60483        3.46796       -4.64597
| 16> H         -1.91603        2.26007       -3.42236
| 17> *
| 18> %MaxCore 64000
| 19>
| 20> %pal nprocs 18
| 21> end
| 22>
| 23> %scf
| 24>   MaxIter 150
| 25> end
| 26>
| 27>
| 28>                          ****END OF INPUT****

CARTESIAN COORDINATES (ANGSTROEM)
---------------------------------
  C      0.648660    1.003590   -3.645600
  N      0.281280    0.676450   -2.240180
  C      0.132970    2.385870   -4.024620
  C     -1.366460    2.479110   -4.313930
  H      0.390790   -0.319250   -2.026490
  H     -0.692690    0.990100   -2.138120
  H      0.854210    1.212210   -1.575280
  H      0.190990    0.239650   -4.275750
  H      1.731570    0.931730   -3.750750
  H      0.414840    3.102850   -3.245170
  H      0.683170    2.687560   -4.919720
  H     -1.627190    1.774490   -5.075800
  H     -1.604830    3.467960   -4.645970
  H     -1.916030    2.260070   -3.422360

 Total Charge           Charge          ....    1
 Multiplicity           Mult            ....    1
 Number of Electrons    NEL             ....   34
 Basis Dimension        Dim             ....  160

ORBITAL ENERGIES
----------------

  NO   OCC          E(Eh)            E(eV)
   0   2.0000     -14.555657      -396.0796
   1   2.0000     -10.350198      -281.6432
   2   2.0000     -10.301256      -280.3114
   3   2.0000     -10.279266      -279.7130
   4   2.0000      -1.110160       -30.2090
   5   2.0000      -0.907442       -24.6927
   6   2.0000      -0.813618       -22.1397
   7   2.0000      -0.721468       -19.6321
   8   2.0000      -0.691098       -18.8057
   9   2.0000      -0.675039       -18.3687
  10   2.0000      -0.600216       -16.3327
  11   2.0000      -0.549736       -14.9591
  12   2.0000      -0.541359       -14.7311
  13   2.0000      -0.511016       -13.9054
  14   2.0000      -0.458339       -12.4720
  15   2.0000      -0.446330       -12.1453
  16   2.0000      -0.445400       -12.1199
  17   0.0000       0.085472         2.3258
  18   0.0000       0.116466         3.1692
  19   0.0000       0.121423         3.3041
  20   0.0000       0.127032         3.4567
  21   0.0000       0.165988         4.5168

MULLIKEN ATOMIC CHARGES
-----------------------
   0 C :    0.520772
   1 N :   -0.916171
   2 C :   -0.458392
   3 C :    0.635672
   4 H :    0.391390
   5 H :    0.451421
   6 H :    0.467267
   7 H :    0.025693
   8 H :   -0.034723
   9 H :    0.005546
  10 H :    0.015300
  11 H :    0.027719
  12 H :   -0.000065
  13 H :   -0.131428
Sum of atomic charges:    1.0000000

LOEWDIN ATOMIC CHARGES
----------------------
   0 C :    0.091186
   1 N :    0.358582
   2 C :   -0.056240
   3 C :    0.133758
   4 H :    0.118701
   5 H :    0.095148
   6 H :    0.121038
   7 H :    0.052558
   8 H :    0.050751
   9 H :    0.035621
  10 H :    0.033378
  11 H :   -0.008040
  12 H :   -0.007739
  13 H :   -0.018701

  Mayer bond orders larger than 0.100000
B(  0-C ,  1-N ) :   0.7221 B(  0-C ,  2-C ) :   1.1740 B(  0-C ,  7-H ) :   0.9289
B(  0-C ,  8-H ) :   0.9313 B(  0-C , 10-H ) :   0.1020 B(  1-N ,  4-H ) :   0.7341
B(  1-N ,  5-H ) :   0.6273 B(  1-N ,  6-H ) :   0.6804 B(  1-N ,  8-H ) :   0.1114
B(  2-C ,  3-C ) :   1.2447 B(  2-C ,  9-H ) :   0.9786 B(  2-C , 10-H ) :   0.9328
B(  2-C , 11-H ) :   0.1646 B(  2-C , 12-H ) :   0.2047 B(  2-C , 13-H ) :   0.1768
B(  3-C , 11-H ) :   0.8116 B(  3-C , 12-H ) :   0.7982 B(  3-C , 13-H ) :   0.8575

Dispersion correction           -0.002772360
FINAL SINGLE POINT ENERGY      -174.798266764724

DIPOLE MOMENT
-------------
                                X             Y             Z
Electronic contribution:      1.42964      -1.77407       2.03757
Nuclear contribution   :     -0.74670       0.28200      -0.02386
                        -----------------------------------------
Total Dipole Moment    :      0.68294      -1.49207       2.01371
                        -----------------------------------------
Magnitude (a.u.)       :      2.59764
Magnitude (Debye)      :      6.60267

Rotational constants in cm-1:     0.472563     0.149855     0.132807
Rotational constants in MHz : 14167.078489  4492.544970  3981.441276

                             ****ORCA TERMINATED NORMALLY****
TOTAL RUN TIME: 0 days 0 hours 0 minutes 8 seconds 685 msec
