                         Program Version 5.0.0 -  RELEASE  -
|  1> !wB97X-D3 RIJCOSX def2-SVPD def2/J TightSCF CPCM(Water)
|  2> *xyz 0 1
|  3> C          0.64866        1.00359       -3.64560
|  4> C          0.13297        2.38587       -4.02462
|  5> C         -1.36646        2.47911       -4.31393
|  6> C         -2.35773        2.30686       -3.13675
|  7> H         -1.63680        1.72709       -5.06399
|  8> H         -1.58235        3.44561       -4.76869
|  9> F         -3.44376        2.84652       -3.25274
| 10> O         -1.97092        1.58304       -2.15123
| 11> H          0.41484        3.10285       -3.24517
| 12> H          0.68317        2.68756       -4.91972
| 13> H          0.37534        0.30051       -4.40446
| 14> H          0.21856        0.70606       -2.71212
| 15> H          1.71431        1.03324       -3.55398
| 16> *
| 17> %MaxCore 64000
| 18>
| 19> %pal nprocs 18
| 20> end
| 21>
| 22> %scf
| 23>   MaxIter 150
| 24> end
| 25>
| 26>
| 27>                          ****END OF INPUT****

CARTESIAN COORDINATES (ANGSTROEM)
---------------------------------
  C      0.648660    1.003590   -3.645600
  C      0.132970    2.385870   -4.024620
  C     -1.366460    2.479110   -4.313930
  C     -2.357730    2.306860   -3.136750
  H     -1.636800    1.727090   -5.063990
  H     -1.582350    3.445610   -4.768690
  F     -3.443760    2.846520   -3.252740
  O     -1.970920    1.583040   -2.151230
  H      0.414840    3.102850   -3.245170
  H      0.683170    2.687560   -4.919720
  H      0.375340    0.300510   -4.404460
  H      0.218560    0.706060   -2.712120
  H      1.714310    1.033240   -3.553980

 Total Charge           Charge          ....    0
 Multiplicity           Mult            ....    1
 Number of Electrons    NEL             ....   48
 Basis Dimension        Dim             ....  182

ORBITAL ENERGIES
----------------

  NO   OCC          E(Eh)            E(eV)
   0   2.0000     -24.889593      -677.2803
   1   2.0000     -19.257734      -524.0296
   2   2.0000     -10.484455      -285.2965
   3   2.0000     -10.310656      -280.5672
   4   2.0000     -10.290837      -280.0279
   5   2.0000     -10.264386      -279.3081
   6   2.0000      -1.454039       -39.5664
   7   2.0000      -1.133809       -30.8525
   8   2.0000      -0.910757       -24.7830
   9   2.0000      -0.834913       -22.7191
  10   2.0000      -0.778524       -21.1847
  11   2.0000      -0.713811       -19.4238
  12   2.0000      -0.674197       -18.3458
  13   2.0000      -0.648335       -17.6421
  14   2.0000      -0.612856       -16.6767
  15   2.0000      -0.556256       -15.1365
  16   2.0000      -0.549292       -14.9470
  17   2.0000      -0.512330       -13.9412
  18   2.0000      -0.487749       -13.2723
  19   2.0000      -0.459019       -12.4905
  20   2.0000      -0.443538       -12.0693
  21   2.0000      -0.437881       -11.9153
  22   2.0000      -0.429831       -11.6963
  23   2.0000      -0.388021       -10.5586
  24   0.0000       0.051622         1.4047
  25   0.0000       0.091733         2.4962
  26   0.0000       0.116688         3.1753
  27   0.0000       0.126785         3.4500
  28   0.0000       0.135351         3.6831

MULLIKEN ATOMIC CHARGES
-----------------------
   0 C :    0.661722
   1 C :   -0.388743
   2 C :   -0.160440
   3 C :    0.783975
   4 H :    0.193940
   5 H :    0.100482
   6 F :   -0.350171
   7 O :   -0.574131
   8 H :   -0.055703
   9 H :   -0.001404
  10 H :   -0.034920
  11 H :   -0.174027
  12 H :   -0.000581
Sum of atomic charges:    0.0000000

LOEWDIN ATOMIC CHARGES
----------------------
   0 C :    0.115932
   1 C :   -0.064707
   2 C :    0.051319
   3 C :    0.017458
   4 H :    0.053439
   5 H :    0.033124
   6 F :   -0.001320
   7 O :   -0.195544
   8 H :    0.030936
   9 H :    0.027308
  10 H :   -0.011852
  11 H :   -0.041684
  12 H :   -0.014408

  Mayer bond orders larger than 0.100000
B(  0-C ,  1-C ) :   1.2828 B(  0-C , 10-H ) :   0.8024 B(  0-C , 11-H ) :   0.8638
B(  0-C , 12-H ) :   0.7814 B(  1-C ,  2-C ) :   1.2275 B(  1-C ,  4-H ) :   0.1097
B(  1-C ,  5-H ) :   0.1218 B(  1-C ,  8-H ) :   0.9723 B(  1-C ,  9-H ) :   0.8962
B(  1-C , 10-H ) :   0.1835 B(  1-C , 11-H ) :   0.2001 B(  1-C , 12-H ) :   0.1899
B(  2-C ,  3-C ) :   1.1053 B(  2-C ,  4-H ) :   0.8183 B(  2-C ,  5-H ) :   0.8821
B(  2-C ,  6-F ) :   0.1028 B(  2-C ,  8-H ) :   0.1169 B(  3-C ,  6-F ) :   0.7766
B(  3-C ,  7-O ) :   1.7527

Dispersion correction           -0.003188271
FINAL SINGLE POINT ENERGY      -331.389794273687

DIPOLE MOMENT
-------------
                                X             Y             Z
Electronic contribution:    -11.46829       3.11896       3.21856
Nuclear contribution   :     11.62992      -2.38586      -4.66016
                        -----------------------------------------
Total Dipole Moment    :      0.16164       0.73310      -1.44160
                        -----------------------------------------
Magnitude (a.u.)       :      1.62535
Magnitude (Debye)      :      4.13132

Rotational constants in cm-1:     0.249088     0.072929     0.060128
Rotational constants in MHz :  7467.482637  2186.350475  1802.579568

                             ****ORCA TERMINATED NORMALLY****
TOTAL RUN TIME: 0 days 0 hours 0 minutes 12 seconds 611 msec
