                         Program Version 5.0.0 -  RELEASE  -
|  1> !wB97X-D3 RIJCOSX def2-SVPD def2/J TightSCF CPCM(Water)
|  2> *xyz 0 1
|  3> C          0.64866        1.00359       -3.64560
|  4> C          0.28128        0.67645       -2.24018
|  5> C          0.13297        2.38587       -4.02462
|  6> C         -1.36646        2.47911       -4.31393
|  7> H          0.39079       -0.31925       -2.02649
|  8> H         -0.69269        0.99010       -2.13812
|  9> H          0.85421        1.21221       -1.57528
| 10> H          0.19099        0.23965       -4.27575
| 11> H          1.73157        0.93173       -3.75075
| 12> H          0.41484        3.10285       -3.24517
| 13> H          0.68317        2.68756       -4.91972
| 14> H         -1.62719        1.77449       -5.07580
| 15> H         -1.60483        3.46796       -4.64597
| 16> H         -1.91603        2.26007       -3.42236
| 17> *
| 18> %MaxCore 64000
| 19>
| 20> %pal nprocs 18
| 21> end
| 22>
| 23> %scf
| 24>   MaxIter 150
| 25> end
| 26>
| 27>
| 28>                          ****END OF INPUT****

CARTESIAN COORDINATES (ANGSTROEM)
---------------------------------
  C      0.648660    1.003590   -3.645600
  C      0.281280    0.676450   -2.240180
  C      0.132970    2.385870   -4.024620
  C     -1.366460    2.479110   -4.313930
  H      0.390790   -0.319250   -2.026490
  H     -0.692690    0.990100   -2.138120
  H      0.854210    1.212210   -1.575280
  H      0.190990    0.239650   -4.275750
  H      1.731570    0.931730   -3.750750
  H      0.414840    3.102850   -3.245170
  H      0.683170    2.687560   -4.919720
  H     -1.627190    1.774490   -5.075800
  H     -1.604830    3.467960   -4.645970
  H     -1.916030    2.260070   -3.422360

 Total Charge           Charge          ....    0
 Multiplicity           Mult            ....    1
 Number of Electrons    NEL             ....   34
 Basis Dimension        Dim             ....  160

ORBITAL ENERGIES
----------------

  NO   OCC          E(Eh)            E(eV)
   0   2.0000     -10.274862      -279.5932
   1   2.0000     -10.269934      -279.4591
   2   2.0000     -10.265705      -279.3440
   3   2.0000     -10.244471      -278.7662
   4   2.0000      -0.910459       -24.7749
   5   2.0000      -0.834403       -22.7053
   6   2.0000      -0.744871       -20.2690
   7   2.0000      -0.668576       -18.1929
   8   2.0000      -0.568184       -15.4611
   9   2.0000      -0.555683       -15.1209
  10   2.0000      -0.522668       -14.2225
  11   2.0000      -0.487779       -13.2732
  12   2.0000      -0.470415       -12.8006
  13   2.0000      -0.454460       -12.3665
  14   2.0000      -0.415319       -11.3014
  15   2.0000      -0.413121       -11.2416
  16   2.0000      -0.402313       -10.9475
  17   0.0000       0.101887         2.7725
  18   0.0000       0.124881         3.3982
  19   0.0000       0.127541         3.4706
  20   0.0000       0.134207         3.6519
  21   0.0000       0.181160         4.9296

MULLIKEN ATOMIC CHARGES
-----------------------
   0 C :   -0.303296
   1 C :    1.064287
   2 C :   -0.371819
   3 C :    0.656288
   4 H :   -0.178037
   5 H :   -0.405939
   6 H :   -0.062028
   7 H :   -0.017550
   8 H :   -0.119966
   9 H :   -0.039783
  10 H :   -0.073437
  11 H :    0.022338
  12 H :   -0.013736
  13 H :   -0.157323
Sum of atomic charges:    0.0000000

LOEWDIN ATOMIC CHARGES
----------------------
   0 C :   -0.082590
   1 C :    0.120409
   2 C :   -0.086828
   3 C :    0.121103
   4 H :   -0.029783
   5 H :   -0.043864
   6 H :   -0.025176
   7 H :    0.024208
   8 H :    0.021634
   9 H :    0.025304
  10 H :    0.013837
  11 H :   -0.014753
  12 H :   -0.016710
  13 H :   -0.026793

  Mayer bond orders larger than 0.100000
B(  0-C ,  1-C ) :   1.1937 B(  0-C ,  2-C ) :   1.1626 B(  0-C ,  4-H ) :   0.2000
B(  0-C ,  5-H ) :   0.2920 B(  0-C ,  6-H ) :   0.2018 B(  0-C ,  7-H ) :   0.9104
B(  0-C ,  8-H ) :   0.9635 B(  0-C ,  9-H ) :   0.1111 B(  1-C ,  4-H ) :   0.7136
B(  1-C ,  5-H ) :   0.6391 B(  1-C ,  6-H ) :   0.6728 B(  2-C ,  3-C ) :   1.2447
B(  2-C ,  8-H ) :   0.1065 B(  2-C ,  9-H ) :   0.9482 B(  2-C , 10-H ) :   0.9628
B(  2-C , 11-H ) :   0.1855 B(  2-C , 12-H ) :   0.2031 B(  2-C , 13-H ) :   0.1882
B(  3-C , 11-H ) :   0.7940 B(  3-C , 12-H ) :   0.7827 B(  3-C , 13-H ) :   0.8565
B(  5-H ,  6-H ) :   0.1652

Dispersion correction           -0.002677149
FINAL SINGLE POINT ENERGY      -158.290087064196

DIPOLE MOMENT
-------------
                                X             Y             Z
Electronic contribution:      0.64952       0.01914      -0.38009
Nuclear contribution   :     -0.63302      -0.01177       0.37643
                        -----------------------------------------
Total Dipole Moment    :      0.01650       0.00737      -0.00367
                        -----------------------------------------
Magnitude (a.u.)       :      0.01844
Magnitude (Debye)      :      0.04687

Rotational constants in cm-1:     0.480601     0.156500     0.138605
Rotational constants in MHz : 14408.061205  4691.756081  4155.280646

                             ****ORCA TERMINATED NORMALLY****
TOTAL RUN TIME: 0 days 0 hours 0 minutes 8 seconds 746 msec
