                         Program Version 5.0.0 -  RELEASE  -
|  1> !wB97X-D3 RIJCOSX def2-SVPD def2/J TightSCF CPCM(Water)
|  2> *xyz 0 1
|  3> C          0.64866        1.00359       -3.64560
|  4> C          0.13297        2.38587       -4.02462
|  5> C         -1.36646        2.47911       -4.31393
|  6> C         -2.35773        2.30686       -3.13675
|  7> H         -1.63680        1.72709       -5.06399
|  8> H         -1.58235        3.44561       -4.76869
|  9> O         -3.44376        2.84652       -3.25274
| 10> F         -1.97092        1.58304       -2.15123
| 11> H          0.41484        3.10285       -3.24517
| 12> H          0.68317        2.68756       -4.91972
| 13> H          0.37534        0.30051       -4.40446
| 14> H          0.21856        0.70606       -2.71212
| 15> H          1.71431        1.03324       -3.55398
| 16> *
| 17> %MaxCore 64000
| 18>
| 19> %pal nprocs 18
| 20> end
| 21>
| 22> %scf
| 23>   MaxIter 150
| 24> end
| 25>
| 26>
| 27>                          ****END OF INPUT****

CARTESIAN COORDINATES (ANGSTROEM)
---------------------------------
  C      0.648660    1.003590   -3.645600
  C      0.132970    2.385870   -4.024620
  C     -1.366460    2.479110   -4.313930
  C     -2.357730    2.306860   -3.136750
  H     -1.636800    1.727090   -5.063990
  H     -1.582350    3.445610   -4.768690
  O     -3.443760    2.846520   -3.252740
  F     -1.970920    1.583040   -2.151230
  H      0.414840    3.102850   -3.245170
  H      0.683170    2.687560   -4.919720
  H      0.375340    0.300510   -4.404460
  H      0.218560    0.706060   -2.712120
  H      1.714310    1.033240   -3.553980

 Total Charge           Charge          ....    0
 Multiplicity           Mult            ....    1
 Number of Electrons    NEL             ....   48
 Basis Dimension        Dim             ....  182

ORBITAL ENERGIES
----------------

  NO   OCC          E(Eh)            E(eV)
   0   2.0000     -24.867839      -676.6883
   1   2.0000     -19.268153      -524.3131
   2   2.0000     -10.479003      -285.1482
   3   2.0000     -10.310076      -280.5514
   4   2.0000     -10.290435      -280.0170
   5   2.0000     -10.268322      -279.4152
   6   2.0000      -1.407676       -38.3048
   7   2.0000      -1.173828       -31.9415
   8   2.0000      -0.913117       -24.8472
   9   2.0000      -0.827614       -22.5205
  10   2.0000      -0.760077       -20.6827
  11   2.0000      -0.712449       -19.3867
  12   2.0000      -0.650167       -17.6919
  13   2.0000      -0.638159       -17.3652
  14   2.0000      -0.608444       -16.5566
  15   2.0000      -0.553340       -15.0571
  16   2.0000      -0.545812       -14.8523
  17   2.0000      -0.521229       -14.1834
  18   2.0000      -0.506472       -13.7818
  19   2.0000      -0.474800       -12.9200
  20   2.0000      -0.455951       -12.4070
  21   2.0000      -0.432355       -11.7650
  22   2.0000      -0.429907       -11.6984
  23   2.0000      -0.399064       -10.8591
  24   0.0000       0.056904         1.5484
  25   0.0000       0.091642         2.4937
  26   0.0000       0.116875         3.1803
  27   0.0000       0.126508         3.4425
  28   0.0000       0.135025         3.6742

MULLIKEN ATOMIC CHARGES
-----------------------
   0 C :    0.649745
   1 C :   -0.367492
   2 C :   -0.167948
   3 C :    0.770215
   4 H :    0.183429
   5 H :    0.077218
   6 O :   -0.477213
   7 F :   -0.435504
   8 H :   -0.051736
   9 H :    0.003886
  10 H :   -0.029312
  11 H :   -0.158483
  12 H :    0.003195
Sum of atomic charges:   -0.0000000

LOEWDIN ATOMIC CHARGES
----------------------
   0 C :    0.116738
   1 C :   -0.072756
   2 C :    0.056135
   3 C :    0.014506
   4 H :    0.053224
   5 H :    0.036508
   6 O :   -0.155654
   7 F :   -0.050032
   8 H :    0.030458
   9 H :    0.026899
  10 H :   -0.011094
  11 H :   -0.032185
  12 H :   -0.012746

  Mayer bond orders larger than 0.100000
B(  0-C ,  1-C ) :   1.2759 B(  0-C , 10-H ) :   0.8098 B(  0-C , 11-H ) :   0.8628
B(  0-C , 12-H ) :   0.7875 B(  1-C ,  2-C ) :   1.2092 B(  1-C ,  4-H ) :   0.1106
B(  1-C ,  5-H ) :   0.1123 B(  1-C ,  8-H ) :   0.9697 B(  1-C ,  9-H ) :   0.8842
B(  1-C , 10-H ) :   0.1827 B(  1-C , 11-H ) :   0.1911 B(  1-C , 12-H ) :   0.1919
B(  2-C ,  3-C ) :   1.0767 B(  2-C ,  4-H ) :   0.8186 B(  2-C ,  5-H ) :   0.9210
B(  2-C ,  8-H ) :   0.1224 B(  2-C ,  9-H ) :   0.1088 B(  3-C ,  5-H ) :   0.1135
B(  3-C ,  6-O ) :   1.8439 B(  3-C ,  7-F ) :   0.7039

Dispersion correction           -0.003170670
FINAL SINGLE POINT ENERGY      -331.406380601299

DIPOLE MOMENT
-------------
                                X             Y             Z
Electronic contribution:     -8.61647       0.69244       5.32167
Nuclear contribution   :      9.96624      -0.95867      -5.90440
                        -----------------------------------------
Total Dipole Moment    :      1.34977      -0.26623      -0.58272
                        -----------------------------------------
Magnitude (a.u.)       :      1.49410
Magnitude (Debye)      :      3.79769

Rotational constants in cm-1:     0.233484     0.076940     0.061803
Rotational constants in MHz :  6999.682494  2306.588565  1852.797552

                             ****ORCA TERMINATED NORMALLY****
TOTAL RUN TIME: 0 days 0 hours 0 minutes 12 seconds 14 msec
