                         Program Version 5.0.0 -  RELEASE  -
|  1> !wB97X-D3 RIJCOSX def2-SVP def2/J TightSCF
|  2> *xyz -1 1
|  3> C         -0.60249       -0.63071        0.49224
|  4> O         -1.71206       -1.37684        0.20253
|  5> H          0.27695       -1.19720        0.26733
|  6> H         -0.60598       -0.37494        1.53122
|  7> H         -0.61066        0.26355       -0.09525
|  8> *
|  9> %MaxCore 64000
| 10>
| 11> %pal nprocs 8
| 12> end
| 13> %scf
| 14>   MaxIter 150
| 15> end
| 16>
| 17>                          ****END OF INPUT****

CARTESIAN COORDINATES (ANGSTROEM)
---------------------------------
  C     -0.602490   -0.630710    0.492240
  O     -1.712060   -1.376840    0.202530
  H      0.276950   -1.197200    0.267330
  H     -0.605980   -0.374940    1.531220
  H     -0.610660    0.263550   -0.095250

 Total Charge           Charge          ....   -1
 Multiplicity           Mult            ....    1
 Number of Electrons    NEL             ....   18
 Basis Dimension        Dim             ....   43

ORBITAL ENERGIES
----------------

  NO   OCC          E(Eh)            E(eV)
   0   2.0000     -18.809489      -511.8322
   1   2.0000     -10.044249      -273.3179
   2   2.0000      -0.706747       -19.2316
   3   2.0000      -0.468633       -12.7522
   4   2.0000      -0.267231        -7.2717
   5   2.0000      -0.267210        -7.2711
   6   2.0000      -0.137666        -3.7461
   7   2.0000       0.019909         0.5417
   8   2.0000       0.019913         0.5419
   9   0.0000       0.370586        10.0842
  10   0.0000       0.445536        12.1237
  11   0.0000       0.445552        12.1241
  12   0.0000       0.538084        14.6420
  13   0.0000       0.815388        22.1878

MULLIKEN ATOMIC CHARGES
-----------------------
   0 C :    0.298279
   1 O :   -0.814480
   2 H :   -0.161273
   3 H :   -0.161246
   4 H :   -0.161280
Sum of atomic charges:   -1.0000000

LOEWDIN ATOMIC CHARGES
----------------------
   0 C :   -0.010657
   1 O :   -0.742434
   2 H :   -0.082310
   3 H :   -0.082297
   4 H :   -0.082302

  Mayer bond orders larger than 0.100000
B(  0-C ,  1-O ) :   1.3970 B(  0-C ,  2-H ) :   0.9138 B(  0-C ,  3-H ) :   0.9138
B(  0-C ,  4-H ) :   0.9138

Dispersion correction           -0.000090009
FINAL SINGLE POINT ENERGY      -114.930069869563

DIPOLE MOMENT
-------------
                                X             Y             Z
Electronic contribution:     -1.73390      -1.16591      -0.45260
Nuclear contribution   :      2.33640       1.57111       0.61004
                        -----------------------------------------
Total Dipole Moment    :      0.60250       0.40520       0.15744
                        -----------------------------------------
Magnitude (a.u.)       :      0.74295
Magnitude (Debye)      :      1.88844

Rotational constants in cm-1:     5.477665     0.940945     0.940944
Rotational constants in MHz : 164216.266994 28208.811441 28208.799857

                             ****ORCA TERMINATED NORMALLY****
TOTAL RUN TIME: 0 days 0 hours 0 minutes 3 seconds 67 msec
