                         Program Version 5.0.0 -  RELEASE  -
|  1> !wB97X-D3 RIJCOSX def2-SVP def2/J TightSCF
|  2> *xyz 1 1
|  3> C         -2.12050        0.88520        1.78951
|  4> N         -3.17690       -0.15948        1.61070
|  5> H         -4.06474        0.23127        1.28675
|  6> H         -3.34407       -0.67151        2.48493
|  7> H         -2.71686       -0.78189        0.93588
|  8> H         -1.96853        1.40078        0.86432
|  9> H         -1.20609        0.41954        2.09270
| 10> H         -2.43151        1.58226        2.53937
| 11> *
| 12> %MaxCore 64000
| 13>
| 14> %pal nprocs 8
| 15> end
| 16>
| 17> %scf
| 18>   MaxIter 150
| 19> end
| 20>
| 21>
| 22>                          ****END OF INPUT****

CARTESIAN COORDINATES (ANGSTROEM)
---------------------------------
  C     -2.120500    0.885200    1.789510
  N     -3.176900   -0.159480    1.610700
  H     -4.064740    0.231270    1.286750
  H     -3.344070   -0.671510    2.484930
  H     -2.716860   -0.781890    0.935880
  H     -1.968530    1.400780    0.864320
  H     -1.206090    0.419540    2.092700
  H     -2.431510    1.582260    2.539370

 Total Charge           Charge          ....    1
 Multiplicity           Mult            ....    1
 Number of Electrons    NEL             ....   18
 Basis Dimension        Dim             ....   58

ORBITAL ENERGIES
----------------

  NO   OCC          E(Eh)            E(eV)
   0   2.0000     -14.788625      -402.4189
   1   2.0000     -10.548102      -287.0284
   2   2.0000      -1.336922       -36.3795
   3   2.0000      -1.044362       -28.4185
   4   2.0000      -0.925008       -25.1707
   5   2.0000      -0.912607       -24.8333
   6   2.0000      -0.809444       -22.0261
   7   2.0000      -0.726952       -19.7814
   8   2.0000      -0.723393       -19.6845
   9   0.0000      -0.103210        -2.8085
  10   0.0000      -0.033257        -0.9050
  11   0.0000      -0.030955        -0.8423
  12   0.0000      -0.001392        -0.0379
  13   0.0000       0.036601         0.9960

MULLIKEN ATOMIC CHARGES
-----------------------
   0 C :   -0.022895
   1 N :   -0.053082
   2 H :    0.236375
   3 H :    0.232668
   4 H :    0.235158
   5 H :    0.125027
   6 H :    0.123290
   7 H :    0.123459
Sum of atomic charges:    1.0000000

LOEWDIN ATOMIC CHARGES
----------------------
   0 C :    0.069508
   1 N :    0.293829
   2 H :    0.150552
   3 H :    0.151543
   4 H :    0.153926
   5 H :    0.060931
   6 H :    0.060547
   7 H :    0.059163

  Mayer bond orders larger than 0.100000
B(  0-C ,  1-N ) :   0.9334 B(  0-C ,  5-H ) :   0.9725 B(  0-C ,  6-H ) :   0.9727
B(  0-C ,  7-H ) :   0.9751 B(  1-N ,  2-H ) :   0.9294 B(  1-N ,  3-H ) :   0.9317
B(  1-N ,  4-H ) :   0.9364

Dispersion correction           -0.000488334
FINAL SINGLE POINT ENERGY       -96.115017747301

DIPOLE MOMENT
-------------
                                X             Y             Z
Electronic contribution:     -0.86102      -0.79542      -0.13594
Nuclear contribution   :      0.30442       0.18283       0.03339
                        -----------------------------------------
Total Dipole Moment    :     -0.55660      -0.61259      -0.10255
                        -----------------------------------------
Magnitude (a.u.)       :      0.83401
Magnitude (Debye)      :      2.11989

Rotational constants in cm-1:     2.844840     0.686092     0.683099
Rotational constants in MHz : 85286.171795 20568.516729 20478.789944

                             ****ORCA TERMINATED NORMALLY****
TOTAL RUN TIME: 0 days 0 hours 0 minutes 3 seconds 588 msec
