                         Program Version 5.0.0 -  RELEASE  -
|  1> !wB97X-D3 RIJCOSX def2-SVP def2/J TightSCF
|  2> *xyz 0 1
|  3> C         -0.60249       -0.63071        0.49224
|  4> F         -1.71206       -1.37684        0.20253
|  5> H          0.27695       -1.19720        0.26733
|  6> H         -0.60598       -0.37494        1.53122
|  7> H         -0.61066        0.26355       -0.09525
|  8> *
|  9> %MaxCore 64000
| 10>
| 11> %pal nprocs 8
| 12> end
| 13> %scf
| 14>   MaxIter 150
| 15> end
| 16>
| 17>                          ****END OF INPUT****

CARTESIAN COORDINATES (ANGSTROEM)
---------------------------------
  C     -0.602490   -0.630710    0.492240
  F     -1.712060   -1.376840    0.202530
  H      0.276950   -1.197200    0.267330
  H     -0.605980   -0.374940    1.531220
  H     -0.610660    0.263550   -0.095250

 Total Charge           Charge          ....    0
 Multiplicity           Mult            ....    1
 Number of Electrons    NEL             ....   18
 Basis Dimension        Dim             ....   43

ORBITAL ENERGIES
----------------

  NO   OCC          E(Eh)            E(eV)
   0   2.0000     -24.758947      -673.7252
   1   2.0000     -10.351354      -281.6747
   2   2.0000      -1.278533       -34.7907
   3   2.0000      -0.806485       -21.9456
   4   2.0000      -0.583328       -15.8732
   5   2.0000      -0.583308       -15.8726
   6   2.0000      -0.583290       -15.8721
   7   2.0000      -0.435300       -11.8451
   8   2.0000      -0.435283       -11.8447
   9   0.0000       0.165399         4.5007
  10   0.0000       0.219637         5.9766
  11   0.0000       0.226005         6.1499
  12   0.0000       0.226017         6.1502
  13   0.0000       0.544914        14.8279

MULLIKEN ATOMIC CHARGES
-----------------------
   0 C :    0.228737
   1 F :   -0.299392
   2 H :    0.023540
   3 H :    0.023587
   4 H :    0.023528
Sum of atomic charges:    0.0000000

LOEWDIN ATOMIC CHARGES
----------------------
   0 C :    0.125182
   1 F :   -0.155520
   2 H :    0.010102
   3 H :    0.010122
   4 H :    0.010113

  Mayer bond orders larger than 0.100000
B(  0-C ,  1-F ) :   0.9717 B(  0-C ,  2-H ) :   0.9828 B(  0-C ,  3-H ) :   0.9827
B(  0-C ,  4-H ) :   0.9828

Dispersion correction           -0.000129194
FINAL SINGLE POINT ENERGY      -139.592173965946

DIPOLE MOMENT
-------------
                                X             Y             Z
Electronic contribution:     -2.37732      -1.59853      -0.62060
Nuclear contribution   :      2.96306       1.99251       0.77366
                        -----------------------------------------
Total Dipole Moment    :      0.58574       0.39398       0.15306
                        -----------------------------------------
Magnitude (a.u.)       :      0.72231
Magnitude (Debye)      :      1.83598

Rotational constants in cm-1:     5.477665     0.875886     0.875886
Rotational constants in MHz : 164216.266994 26258.396768 26258.386731

                             ****ORCA TERMINATED NORMALLY****
TOTAL RUN TIME: 0 days 0 hours 0 minutes 2 seconds 706 msec
