                         Program Version 5.0.0 -  RELEASE  -
|  1> !wB97X-D3 RIJCOSX def2-SVP def2/J TightSCF
|  2> *xyz 0 1
|  3> C         -2.12050        0.88520        1.78951
|  4> C         -3.17690       -0.15948        1.61070
|  5> H         -4.06474        0.23127        1.28675
|  6> H         -3.34407       -0.67151        2.48493
|  7> H         -2.71686       -0.78189        0.93588
|  8> H         -1.96853        1.40078        0.86432
|  9> H         -1.20609        0.41954        2.09270
| 10> H         -2.43151        1.58226        2.53937
| 11> *
| 12> %MaxCore 64000
| 13>
| 14> %pal nprocs 8
| 15> end
| 16>
| 17> %scf
| 18>   MaxIter 150
| 19> end
| 20>
| 21>
| 22>                          ****END OF INPUT****

CARTESIAN COORDINATES (ANGSTROEM)
---------------------------------
  C     -2.120500    0.885200    1.789510
  C     -3.176900   -0.159480    1.610700
  H     -4.064740    0.231270    1.286750
  H     -3.344070   -0.671510    2.484930
  H     -2.716860   -0.781890    0.935880
  H     -1.968530    1.400780    0.864320
  H     -1.206090    0.419540    2.092700
  H     -2.431510    1.582260    2.539370

 Total Charge           Charge          ....    0
 Multiplicity           Mult            ....    1
 Number of Electrons    NEL             ....   18
 Basis Dimension        Dim             ....   58

ORBITAL ENERGIES
----------------

  NO   OCC          E(Eh)            E(eV)
   0   2.0000     -10.264690      -279.3164
   1   2.0000     -10.251598      -278.9602
   2   2.0000      -0.877924       -23.8895
   3   2.0000      -0.722117       -19.6498
   4   2.0000      -0.555001       -15.1023
   5   2.0000      -0.546065       -14.8592
   6   2.0000      -0.461024       -12.5451
   7   2.0000      -0.441511       -12.0141
   8   2.0000      -0.432362       -11.7652
   9   0.0000       0.157570         4.2877
  10   0.0000       0.214835         5.8460
  11   0.0000       0.224307         6.1037
  12   0.0000       0.227404         6.1880
  13   0.0000       0.252299         6.8654

MULLIKEN ATOMIC CHARGES
-----------------------
   0 C :   -0.094747
   1 C :   -0.016996
   2 H :    0.016275
   3 H :    0.010284
   4 H :    0.011264
   5 H :    0.026021
   6 H :    0.025327
   7 H :    0.022572
Sum of atomic charges:   -0.0000000

LOEWDIN ATOMIC CHARGES
----------------------
   0 C :   -0.056902
   1 C :   -0.048207
   2 H :    0.013662
   3 H :    0.014578
   4 H :    0.018070
   5 H :    0.020575
   6 H :    0.020898
   7 H :    0.017326

  Mayer bond orders larger than 0.100000
B(  0-C ,  1-C ) :   1.1007 B(  0-C ,  5-H ) :   0.9824 B(  0-C ,  6-H ) :   0.9827
B(  0-C ,  7-H ) :   0.9823 B(  1-C ,  2-H ) :   0.9801 B(  1-C ,  3-H ) :   0.9785
B(  1-C ,  4-H ) :   0.9813

Dispersion correction           -0.000477140
FINAL SINGLE POINT ENERGY       -79.728612577371

DIPOLE MOMENT
-------------
                                X             Y             Z
Electronic contribution:     -0.12355      -0.02125      -0.00400
Nuclear contribution   :      0.12022       0.00247       0.00249
                        -----------------------------------------
Total Dipole Moment    :     -0.00333      -0.01878      -0.00151
                        -----------------------------------------
Magnitude (a.u.)       :      0.01913
Magnitude (Debye)      :      0.04863

Rotational constants in cm-1:     2.844858     0.716988     0.713720
Rotational constants in MHz : 85286.697487 21494.771942 21396.773512

                             ****ORCA TERMINATED NORMALLY****
TOTAL RUN TIME: 0 days 0 hours 0 minutes 3 seconds 315 msec
