                         Program Version 5.0.0 -  RELEASE  -
|  1> !M062X D3Zero RIJCOSX def2-SVP def2/J TightSCF
|  2> *xyz -1 1
|  3> C          0.13297        2.38587       -4.02462
|  4> C         -1.36646        2.47911       -4.31393
|  5> C         -2.35773        2.30686       -3.13675
|  6> H         -1.63680        1.72709       -5.06399
|  7> H         -1.58235        3.44561       -4.76869
|  8> O         -3.44376        2.84652       -3.25274
|  9> O         -1.97092        1.58304       -2.15123
| 10> H          0.68084        2.52514       -4.93310
| 11> H          0.35823        1.42282       -3.61633
| 12> H          0.40851        3.14443       -3.32208
| 13> *
| 14> %MaxCore 64000
| 15>
| 16> %pal nprocs 4
| 17> end
| 18>
| 19> %scf
| 20>   MaxIter 150
| 21> end
| 22>
| 23>
| 24>                          ****END OF INPUT****

CARTESIAN COORDINATES (ANGSTROEM)
---------------------------------
  C      0.132970    2.385870   -4.024620
  C     -1.366460    2.479110   -4.313930
  C     -2.357730    2.306860   -3.136750
  H     -1.636800    1.727090   -5.063990
  H     -1.582350    3.445610   -4.768690
  O     -3.443760    2.846520   -3.252740
  O     -1.970920    1.583040   -2.151230
  H      0.680840    2.525140   -4.933100
  H      0.358230    1.422820   -3.616330
  H      0.408510    3.144430   -3.322080

 Total Charge           Charge          ....   -1
 Multiplicity           Mult            ....    1
 Number of Electrons    NEL             ....   40
 Basis Dimension        Dim             ....   95

ORBITAL ENERGIES
----------------

  NO   OCC          E(Eh)            E(eV)
   0   2.0000     -19.338351      -526.2233
   1   2.0000     -19.327250      -525.9212
   2   2.0000     -10.409316      -283.2519
   3   2.0000     -10.378468      -282.4125
   4   2.0000     -10.359923      -281.9078
   5   2.0000      -0.904462       -24.6117
   6   2.0000      -0.795702       -21.6521
   7   2.0000      -0.679101       -18.4793
   8   2.0000      -0.539840       -14.6898
   9   2.0000      -0.371485       -10.1086
  10   2.0000      -0.351644        -9.5687
  11   2.0000      -0.314737        -8.5644
  12   2.0000      -0.280369        -7.6292
  13   2.0000      -0.267886        -7.2896
  14   2.0000      -0.259544        -7.0626
  15   2.0000      -0.225865        -6.1461
  16   2.0000      -0.208973        -5.6864
  17   2.0000      -0.081346        -2.2135
  18   2.0000      -0.078288        -2.1303
  19   2.0000      -0.071597        -1.9483
  20   0.0000       0.253428         6.8961
  21   0.0000       0.305868         8.3231
  22   0.0000       0.312448         8.5021
  23   0.0000       0.320959         8.7337
  24   0.0000       0.330858         9.0031

MULLIKEN ATOMIC CHARGES
-----------------------
   0 C :   -0.018518
   1 C :   -0.112655
   2 C :    0.119497
   3 H :   -0.008308
   4 H :   -0.022982
   5 O :   -0.430505
   6 O :   -0.513517
   7 H :   -0.032922
   8 H :    0.014584
   9 H :    0.005326
Sum of atomic charges:   -1.0000000

LOEWDIN ATOMIC CHARGES
----------------------
   0 C :   -0.071603
   1 C :   -0.108260
   2 C :   -0.033846
   3 H :    0.010645
   4 H :    0.001109
   5 O :   -0.367423
   6 O :   -0.451198
   7 H :   -0.005135
   8 H :    0.013842
   9 H :    0.011869

  Mayer bond orders larger than 0.100000
B(  0-C ,  1-C ) :   1.0645 B(  0-C ,  7-H ) :   0.9630 B(  0-C ,  8-H ) :   0.9662
B(  0-C ,  9-H ) :   0.9776 B(  1-C ,  2-C ) :   0.8975 B(  1-C ,  3-H ) :   0.9461
B(  1-C ,  4-H ) :   0.9489 B(  2-C ,  5-O ) :   1.8779 B(  2-C ,  6-O ) :   1.7985
B(  5-O ,  6-O ) :   0.1045

Dispersion correction           -0.000092436
FINAL SINGLE POINT ENERGY      -267.493670752717

DIPOLE MOMENT
-------------
                                X             Y             Z
Electronic contribution:     -5.37088      -0.41161       3.31097
Nuclear contribution   :      6.75610       0.63068      -4.53972
                        -----------------------------------------
Total Dipole Moment    :      1.38522       0.21907      -1.22876
                        -----------------------------------------
Magnitude (a.u.)       :      1.86458
Magnitude (Debye)      :      4.73938

Rotational constants in cm-1:     0.335096     0.130241     0.099025
Rotational constants in MHz : 10045.924902  3904.536250  2968.708333

                             ****ORCA TERMINATED NORMALLY****
TOTAL RUN TIME: 0 days 0 hours 0 minutes 11 seconds 3 msec
