                         Program Version 5.0.0 -  RELEASE  -
|  1> !M062X D3Zero RIJCOSX def2-SVP def2/J TightSCF
|  2> *xyz 1 1
|  3> C          0.64866        1.00359       -3.64560
|  4> N          0.28128        0.67645       -2.24018
|  5> C          0.13297        2.38587       -4.02462
|  6> H          0.39079       -0.31925       -2.02649
|  7> H         -0.69269        0.99010       -2.13812
|  8> H          0.85421        1.21221       -1.57528
|  9> H          0.19099        0.23965       -4.27575
| 10> H          1.73157        0.93173       -3.75075
| 11> H          0.40589        2.60338       -5.03610
| 12> H          0.56342        3.11797       -3.37374
| 13> H         -0.93265        2.40724       -3.93025
| 14> *
| 15> %MaxCore 64000
| 16>
| 17> %pal nprocs 4
| 18> end
| 19>
| 20> %scf
| 21>   MaxIter 150
| 22> end
| 23>
| 24>
| 25>                          ****END OF INPUT****

CARTESIAN COORDINATES (ANGSTROEM)
---------------------------------
  C      0.648660    1.003590   -3.645600
  N      0.281280    0.676450   -2.240180
  C      0.132970    2.385870   -4.024620
  H      0.390790   -0.319250   -2.026490
  H     -0.692690    0.990100   -2.138120
  H      0.854210    1.212210   -1.575280
  H      0.190990    0.239650   -4.275750
  H      1.731570    0.931730   -3.750750
  H      0.405890    2.603380   -5.036100
  H      0.563420    3.117970   -3.373740
  H     -0.932650    2.407240   -3.930250

 Total Charge           Charge          ....    1
 Multiplicity           Mult            ....    1
 Number of Electrons    NEL             ....   26
 Basis Dimension        Dim             ....   82

ORBITAL ENERGIES
----------------

  NO   OCC          E(Eh)            E(eV)
   0   2.0000     -15.098898      -410.8619
   1   2.0000     -10.805641      -294.0364
   2   2.0000     -10.728789      -291.9452
   3   2.0000      -1.316256       -35.8171
   4   2.0000      -1.054244       -28.6874
   5   2.0000      -0.925672       -25.1888
   6   2.0000      -0.877526       -23.8787
   7   2.0000      -0.869833       -23.6694
   8   2.0000      -0.764769       -20.8104
   9   2.0000      -0.711052       -19.3487
  10   2.0000      -0.648251       -17.6398
  11   2.0000      -0.633716       -17.2443
  12   2.0000      -0.615982       -16.7617
  13   0.0000      -0.146179        -3.9777
  14   0.0000      -0.085524        -2.3272
  15   0.0000      -0.081888        -2.2283
  16   0.0000      -0.050745        -1.3808
  17   0.0000      -0.009731        -0.2648

MULLIKEN ATOMIC CHARGES
-----------------------
   0 C :   -0.085345
   1 N :   -0.048079
   2 C :   -0.090516
   3 H :    0.236056
   4 H :    0.226558
   5 H :    0.229786
   6 H :    0.123805
   7 H :    0.127715
   8 H :    0.119107
   9 H :    0.080887
  10 H :    0.080025
Sum of atomic charges:    1.0000000

LOEWDIN ATOMIC CHARGES
----------------------
   0 C :    0.049408
   1 N :    0.284470
   2 C :   -0.045550
   3 H :    0.150234
   4 H :    0.146984
   5 H :    0.149221
   6 H :    0.057141
   7 H :    0.057580
   8 H :    0.067443
   9 H :    0.041996
  10 H :    0.041073

  Mayer bond orders larger than 0.100000
B(  0-C ,  1-N ) :   0.9113 B(  0-C ,  2-C ) :   1.0862 B(  0-C ,  6-H ) :   0.9511
B(  0-C ,  7-H ) :   0.9511 B(  1-N ,  3-H ) :   0.9244 B(  1-N ,  4-H ) :   0.9291
B(  1-N ,  5-H ) :   0.9287 B(  2-C ,  8-H ) :   0.9573 B(  2-C ,  9-H ) :   0.9713
B(  2-C , 10-H ) :   0.9648

Dispersion correction           -0.000050982
FINAL SINGLE POINT ENERGY      -135.349346346040

DIPOLE MOMENT
-------------
                                X             Y             Z
Electronic contribution:      0.16444      -1.32697       1.36386
Nuclear contribution   :     -0.22655       0.48066      -0.09136
                        -----------------------------------------
Total Dipole Moment    :     -0.06211      -0.84631       1.27250
                        -----------------------------------------
Magnitude (a.u.)       :      1.52950
Magnitude (Debye)      :      3.88767

Rotational constants in cm-1:     0.998155     0.284845     0.251232
Rotational constants in MHz : 29923.943568  8539.431565  7531.732866

                             ****ORCA TERMINATED NORMALLY****
TOTAL RUN TIME: 0 days 0 hours 0 minutes 9 seconds 372 msec
