                         Program Version 5.0.0 -  RELEASE  -
|  1> !M062X D3Zero RIJCOSX def2-SVP def2/J TightSCF
|  2> *xyz 0 1
|  3> C          0.13297        2.38587       -4.02462
|  4> C         -1.36646        2.47911       -4.31393
|  5> C         -2.35773        2.30686       -3.13675
|  6> H         -1.63680        1.72709       -5.06399
|  7> H         -1.58235        3.44561       -4.76869
|  8> F         -3.44376        2.84652       -3.25274
|  9> O         -1.97092        1.58304       -2.15123
| 10> H          0.68084        2.52514       -4.93310
| 11> H          0.35823        1.42282       -3.61633
| 12> H          0.40851        3.14443       -3.32208
| 13> *
| 14> %MaxCore 64000
| 15>
| 16> %pal nprocs 4
| 17> end
| 18>
| 19> %scf
| 20>   MaxIter 150
| 21> end
| 22>
| 23>
| 24>                          ****END OF INPUT****

CARTESIAN COORDINATES (ANGSTROEM)
---------------------------------
  C      0.132970    2.385870   -4.024620
  C     -1.366460    2.479110   -4.313930
  C     -2.357730    2.306860   -3.136750
  H     -1.636800    1.727090   -5.063990
  H     -1.582350    3.445610   -4.768690
  F     -3.443760    2.846520   -3.252740
  O     -1.970920    1.583040   -2.151230
  H      0.680840    2.525140   -4.933100
  H      0.358230    1.422820   -3.616330
  H      0.408510    3.144430   -3.322080

 Total Charge           Charge          ....    0
 Multiplicity           Mult            ....    1
 Number of Electrons    NEL             ....   40
 Basis Dimension        Dim             ....   95

ORBITAL ENERGIES
----------------

  NO   OCC          E(Eh)            E(eV)
   0   2.0000     -25.328459      -689.2224
   1   2.0000     -19.630970      -534.1859
   2   2.0000     -10.731463      -292.0180
   3   2.0000     -10.580302      -287.9047
   4   2.0000     -10.551593      -287.1234
   5   2.0000      -1.466351       -39.9014
   6   2.0000      -1.117138       -30.3989
   7   2.0000      -0.884509       -24.0687
   8   2.0000      -0.786791       -21.4097
   9   2.0000      -0.729664       -19.8552
  10   2.0000      -0.654935       -17.8217
  11   2.0000      -0.636095       -17.3090
  12   2.0000      -0.581136       -15.8135
  13   2.0000      -0.534952       -14.5568
  14   2.0000      -0.498702       -13.5704
  15   2.0000      -0.455050       -12.3825
  16   2.0000      -0.437581       -11.9072
  17   2.0000      -0.434277       -11.8173
  18   2.0000      -0.401569       -10.9272
  19   2.0000      -0.356511        -9.7012
  20   0.0000       0.026795         0.7291
  21   0.0000       0.095620         2.6019
  22   0.0000       0.143856         3.9145
  23   0.0000       0.153621         4.1802
  24   0.0000       0.167804         4.5662

MULLIKEN ATOMIC CHARGES
-----------------------
   0 C :   -0.027980
   1 C :   -0.183196
   2 C :    0.299721
   3 H :    0.081420
   4 H :    0.053897
   5 F :   -0.058917
   6 O :   -0.315932
   7 H :    0.041332
   8 H :    0.061164
   9 H :    0.048490
Sum of atomic charges:   -0.0000000

LOEWDIN ATOMIC CHARGES
----------------------
   0 C :   -0.044252
   1 C :   -0.086638
   2 C :    0.112762
   3 H :    0.051726
   4 H :    0.033159
   5 F :    0.076504
   6 O :   -0.237949
   7 H :    0.030301
   8 H :    0.034046
   9 H :    0.030340

  Mayer bond orders larger than 0.100000
B(  0-C ,  1-C ) :   1.0866 B(  0-C ,  7-H ) :   0.9662 B(  0-C ,  8-H ) :   0.9697
B(  0-C ,  9-H ) :   0.9805 B(  1-C ,  2-C ) :   0.9908 B(  1-C ,  3-H ) :   0.9282
B(  1-C ,  4-H ) :   0.9422 B(  2-C ,  5-F ) :   1.2089 B(  2-C ,  6-O ) :   2.0362

Dispersion correction           -0.000090785
FINAL SINGLE POINT ENERGY      -292.033214223449

DIPOLE MOMENT
-------------
                                X             Y             Z
Electronic contribution:     -8.39824       0.44282       3.61914
Nuclear contribution   :      8.54799       0.05434      -4.66633
                        -----------------------------------------
Total Dipole Moment    :      0.14974       0.49716      -1.04719
                        -----------------------------------------
Magnitude (a.u.)       :      1.16885
Magnitude (Debye)      :      2.97097

Rotational constants in cm-1:     0.325803     0.123345     0.094275
Rotational constants in MHz :  9767.324172  3697.779805  2826.305733

                             ****ORCA TERMINATED NORMALLY****
TOTAL RUN TIME: 0 days 0 hours 0 minutes 12 seconds 271 msec
