                         Program Version 5.0.0 -  RELEASE  -
|  1> !M062X D3Zero RIJCOSX def2-SVP def2/J TightSCF
|  2> *xyz 0 1
|  3> C          0.64866        1.00359       -3.64560
|  4> C          0.28128        0.67645       -2.24018
|  5> C          0.13297        2.38587       -4.02462
|  6> H          0.39079       -0.31925       -2.02649
|  7> H         -0.69269        0.99010       -2.13812
|  8> H          0.85421        1.21221       -1.57528
|  9> H          0.19099        0.23965       -4.27575
| 10> H          1.73157        0.93173       -3.75075
| 11> H          0.40589        2.60338       -5.03610
| 12> H          0.56342        3.11797       -3.37374
| 13> H         -0.93265        2.40724       -3.93025
| 14> *
| 15> %MaxCore 64000
| 16>
| 17> %pal nprocs 4
| 18> end
| 19>
| 20> %scf
| 21>   MaxIter 150
| 22> end
| 23>
| 24>
| 25>                          ****END OF INPUT****

CARTESIAN COORDINATES (ANGSTROEM)
---------------------------------
  C      0.648660    1.003590   -3.645600
  C      0.281280    0.676450   -2.240180
  C      0.132970    2.385870   -4.024620
  H      0.390790   -0.319250   -2.026490
  H     -0.692690    0.990100   -2.138120
  H      0.854210    1.212210   -1.575280
  H      0.190990    0.239650   -4.275750
  H      1.731570    0.931730   -3.750750
  H      0.405890    2.603380   -5.036100
  H      0.563420    3.117970   -3.373740
  H     -0.932650    2.407240   -3.930250

 Total Charge           Charge          ....    0
 Multiplicity           Mult            ....    1
 Number of Electrons    NEL             ....   26
 Basis Dimension        Dim             ....   82

ORBITAL ENERGIES
----------------

  NO   OCC          E(Eh)            E(eV)
   0   2.0000     -10.534520      -286.6589
   1   2.0000     -10.529107      -286.5116
   2   2.0000     -10.511648      -286.0365
   3   2.0000      -0.882441       -24.0124
   4   2.0000      -0.771019       -20.9805
   5   2.0000      -0.660480       -17.9726
   6   2.0000      -0.537376       -14.6227
   7   2.0000      -0.517407       -14.0794
   8   2.0000      -0.466910       -12.7053
   9   2.0000      -0.450207       -12.2507
  10   2.0000      -0.396884       -10.7998
  11   2.0000      -0.393099       -10.6968
  12   2.0000      -0.386290       -10.5115
  13   0.0000       0.103290         2.8107
  14   0.0000       0.152717         4.1556
  15   0.0000       0.154354         4.2002
  16   0.0000       0.158925         4.3246
  17   0.0000       0.186144         5.0652

MULLIKEN ATOMIC CHARGES
-----------------------
   0 C :   -0.148179
   1 C :    0.014582
   2 C :   -0.058749
   3 H :    0.015845
   4 H :    0.004250
   5 H :    0.010667
   6 H :    0.031324
   7 H :    0.032887
   8 H :    0.034719
   9 H :    0.030863
  10 H :    0.031793
Sum of atomic charges:   -0.0000000

LOEWDIN ATOMIC CHARGES
----------------------
   0 C :   -0.047784
   1 C :   -0.047230
   2 C :   -0.058273
   3 H :    0.015333
   4 H :    0.014820
   5 H :    0.015132
   6 H :    0.021233
   7 H :    0.020186
   8 H :    0.023141
   9 H :    0.021880
  10 H :    0.021562

  Mayer bond orders larger than 0.100000
B(  0-C ,  1-C ) :   1.0910 B(  0-C ,  2-C ) :   1.0911 B(  0-C ,  6-H ) :   0.9592
B(  0-C ,  7-H ) :   0.9588 B(  1-C ,  3-H ) :   0.9692 B(  1-C ,  4-H ) :   0.9743
B(  1-C ,  5-H ) :   0.9721 B(  2-C ,  8-H ) :   0.9726 B(  2-C ,  9-H ) :   0.9778
B(  2-C , 10-H ) :   0.9737

Dispersion correction           -0.000049624
FINAL SINGLE POINT ENERGY      -118.956362490727

DIPOLE MOMENT
-------------
                                X             Y             Z
Electronic contribution:      0.25143      -0.27082      -0.23927
Nuclear contribution   :     -0.24754       0.26111       0.24628
                        -----------------------------------------
Total Dipole Moment    :      0.00390      -0.00971       0.00700
                        -----------------------------------------
Magnitude (a.u.)       :      0.01259
Magnitude (Debye)      :      0.03201

Rotational constants in cm-1:     1.006509     0.299509     0.263145
Rotational constants in MHz : 30174.379724  8979.049324  7888.875355

                             ****ORCA TERMINATED NORMALLY****
TOTAL RUN TIME: 0 days 0 hours 0 minutes 9 seconds 188 msec
