                         Program Version 5.0.0 -  RELEASE  -
|  1> !M062X D3Zero RIJCOSX def2-SVP def2/J TightSCF
|  2> *xyz 0 1
|  3> C          0.13297        2.38587       -4.02462
|  4> C         -1.36646        2.47911       -4.31393
|  5> C         -2.35773        2.30686       -3.13675
|  6> H         -1.63680        1.72709       -5.06399
|  7> H         -1.58235        3.44561       -4.76869
|  8> O         -3.44376        2.84652       -3.25274
|  9> F         -1.97092        1.58304       -2.15123
| 10> H          0.68084        2.52514       -4.93310
| 11> H          0.35823        1.42282       -3.61633
| 12> H          0.40851        3.14443       -3.32208
| 13> *
| 14> %MaxCore 64000
| 15>
| 16> %pal nprocs 4
| 17> end
| 18>
| 19> %scf
| 20>   MaxIter 150
| 21> end
| 22>
| 23>
| 24>                          ****END OF INPUT****

CARTESIAN COORDINATES (ANGSTROEM)
---------------------------------
  C      0.132970    2.385870   -4.024620
  C     -1.366460    2.479110   -4.313930
  C     -2.357730    2.306860   -3.136750
  H     -1.636800    1.727090   -5.063990
  H     -1.582350    3.445610   -4.768690
  O     -3.443760    2.846520   -3.252740
  F     -1.970920    1.583040   -2.151230
  H      0.680840    2.525140   -4.933100
  H      0.358230    1.422820   -3.616330
  H      0.408510    3.144430   -3.322080

 Total Charge           Charge          ....    0
 Multiplicity           Mult            ....    1
 Number of Electrons    NEL             ....   40
 Basis Dimension        Dim             ....   95

ORBITAL ENERGIES
----------------

  NO   OCC          E(Eh)            E(eV)
   0   2.0000     -25.304228      -688.5631
   1   2.0000     -19.640606      -534.4481
   2   2.0000     -10.726346      -291.8787
   3   2.0000     -10.578726      -287.8618
   4   2.0000     -10.556418      -287.2547
   5   2.0000      -1.416059       -38.5329
   6   2.0000      -1.159679       -31.5565
   7   2.0000      -0.886880       -24.1332
   8   2.0000      -0.764102       -20.7923
   9   2.0000      -0.720655       -19.6100
  10   2.0000      -0.626483       -17.0475
  11   2.0000      -0.621694       -16.9171
  12   2.0000      -0.573505       -15.6059
  13   2.0000      -0.535741       -14.5783
  14   2.0000      -0.503659       -13.7052
  15   2.0000      -0.474388       -12.9088
  16   2.0000      -0.455742       -12.4014
  17   2.0000      -0.436726       -11.8839
  18   2.0000      -0.415430       -11.3044
  19   2.0000      -0.365692        -9.9510
  20   0.0000       0.032077         0.8729
  21   0.0000       0.090523         2.4633
  22   0.0000       0.143318         3.8999
  23   0.0000       0.153948         4.1891
  24   0.0000       0.165574         4.5055

MULLIKEN ATOMIC CHARGES
-----------------------
   0 C :   -0.052471
   1 C :   -0.180996
   2 C :    0.309884
   3 H :    0.083628
   4 H :    0.077697
   5 O :   -0.244487
   6 F :   -0.139426
   7 H :    0.047893
   8 H :    0.049068
   9 H :    0.049209
Sum of atomic charges:    0.0000000

LOEWDIN ATOMIC CHARGES
----------------------
   0 C :   -0.057942
   1 C :   -0.083125
   2 C :    0.123129
   3 H :    0.051951
   4 H :    0.048275
   5 O :   -0.165458
   6 F :   -0.005419
   7 H :    0.032955
   8 H :    0.027327
   9 H :    0.028308

  Mayer bond orders larger than 0.100000
B(  0-C ,  1-C ) :   1.0594 B(  0-C ,  7-H ) :   0.9661 B(  0-C ,  8-H ) :   0.9736
B(  0-C ,  9-H ) :   0.9802 B(  1-C ,  2-C ) :   0.9893 B(  1-C ,  3-H ) :   0.9359
B(  1-C ,  4-H ) :   0.9520 B(  2-C ,  5-O ) :   2.1114 B(  2-C ,  6-F ) :   1.1274

Dispersion correction           -0.000098456
FINAL SINGLE POINT ENERGY      -292.051476341896

DIPOLE MOMENT
-------------
                                X             Y             Z
Electronic contribution:     -5.95850      -1.62177       5.40860
Nuclear contribution   :      6.94213       1.43193      -5.86732
                        -----------------------------------------
Total Dipole Moment    :      0.98364      -0.18984      -0.45871
                        -----------------------------------------
Magnitude (a.u.)       :      1.10181
Magnitude (Debye)      :      2.80059

Rotational constants in cm-1:     0.306336     0.129048     0.095707
Rotational constants in MHz :  9183.725605  3868.769583  2869.236577

                             ****ORCA TERMINATED NORMALLY****
TOTAL RUN TIME: 0 days 0 hours 0 minutes 11 seconds 910 msec
