                         Program Version 5.0.0 -  RELEASE  -
|  1> !M062X D3Zero RIJCOSX def2-TZVP def2/J TightSCF xyzfile
|  2>
|  3> *xyzfile 0 1 D1.xyz
|  4>
|  5> %MaxCore 64000
|  6>
|  7> %pal nprocs 18
|  8> end
|  9>
| 10> %scf
| 11>   MaxIter 150
| 12> end
| 13>
| 14>
| 15>                          ****END OF INPUT****

CARTESIAN COORDINATES (ANGSTROEM)
---------------------------------
  C      0.648656    1.003595   -3.645601
  C      0.281280    0.676454   -2.240179
  C      0.132968    2.385869   -4.024618
  C     -1.366462    2.479106   -4.313932
  C     -2.357732    2.306858   -3.136753
  H     -1.636802    1.727095   -5.063993
  H     -1.582347    3.445605   -4.768687
  H      0.390790   -0.319253   -2.026495
  H     -0.692686    0.990104   -2.138123
  H      0.854206    1.212214   -1.575279
  F     -3.443763    2.846518   -3.252744
  O     -1.970922    1.583042   -2.151229
  H      0.190993    0.239655   -4.275752
  H      1.731572    0.931729   -3.750751
  H      0.414839    3.102847   -3.245165
  H      0.683167    2.687560   -4.919721

 Total Charge           Charge          ....    0
 Multiplicity           Mult            ....    1
 Number of Electrons    NEL             ....   56
 Basis Dimension        Dim             ....  271

ORBITAL ENERGIES
----------------

  NO   OCC          E(Eh)            E(eV)
   0   2.0000     -25.340219      -689.5424
   1   2.0000     -19.638161      -534.3815
   2   2.0000     -10.739851      -292.2462
   3   2.0000     -10.574186      -287.7382
   4   2.0000     -10.543177      -286.8944
   5   2.0000     -10.513832      -286.0959
   6   2.0000     -10.441863      -284.1375
   7   2.0000      -1.504950       -40.9518
   8   2.0000      -1.163217       -31.6528
   9   2.0000      -0.916788       -24.9471
  10   2.0000      -0.857358       -23.3299
  11   2.0000      -0.790004       -21.4971
  12   2.0000      -0.751097       -20.4384
  13   2.0000      -0.674638       -18.3578
  14   2.0000      -0.664285       -18.0761
  15   2.0000      -0.654841       -17.8191
  16   2.0000      -0.608254       -16.5514
  17   2.0000      -0.557554       -15.1718
  18   2.0000      -0.525620       -14.3028
  19   2.0000      -0.504409       -13.7257
  20   2.0000      -0.481515       -13.1027
  21   2.0000      -0.451136       -12.2760
  22   2.0000      -0.443545       -12.0695
  23   2.0000      -0.421507       -11.4698
  24   2.0000      -0.408519       -11.1164
  25   2.0000      -0.381023       -10.3682
  26   2.0000      -0.371487       -10.1087
  27   2.0000      -0.313349        -8.5267
  28   0.0000       0.002885         0.0785
  29   0.0000       0.061155         1.6641
  30   0.0000       0.093400         2.5415
  31   0.0000       0.102654         2.7934
  32   0.0000       0.114525         3.1164

MULLIKEN ATOMIC CHARGES
-----------------------
   0 C :   -0.239006
   1 C :   -0.490230
   2 C :   -0.286475
   3 C :   -0.368682
   4 C :    0.442565
   5 H :    0.176201
   6 H :    0.164321
   7 H :    0.115147
   8 H :    0.233452
   9 H :    0.123100
  10 F :   -0.073578
  11 O :   -0.341319
  12 H :    0.119021
  13 H :    0.121764
  14 H :    0.159059
  15 H :    0.144660
Sum of atomic charges:   -0.0000000

LOEWDIN ATOMIC CHARGES
----------------------
   0 C :   -0.305531
   1 C :   -0.321526
   2 C :   -0.262176
   3 C :   -0.236256
   4 C :   -0.472683
   5 H :    0.161138
   6 H :    0.149160
   7 H :    0.099174
   8 H :    0.071730
   9 H :    0.102386
  10 F :    0.383676
  11 O :    0.075847
  12 H :    0.134947
  13 H :    0.132019
  14 H :    0.145495
  15 H :    0.142599

  Mayer bond orders larger than 0.100000
B(  0-C ,  1-C ) :   0.8994 B(  0-C ,  2-C ) :   0.9194 B(  0-C , 12-H ) :   0.9838
B(  0-C , 13-H ) :   0.9805 B(  1-C ,  7-H ) :   0.9916 B(  1-C ,  8-H ) :   0.9190
B(  1-C ,  9-H ) :   0.9888 B(  2-C ,  3-C ) :   0.9222 B(  2-C , 14-H ) :   0.9782
B(  2-C , 15-H ) :   0.9780 B(  3-C ,  4-C ) :   0.9937 B(  3-C ,  5-H ) :   0.9356
B(  3-C ,  6-H ) :   0.9661 B(  4-C , 10-F ) :   1.1984 B(  4-C , 11-O ) :   1.9434

Dispersion correction           -0.000311909
FINAL SINGLE POINT ENERGY      -370.936942782643

DIPOLE MOMENT
-------------
                                X             Y             Z
Electronic contribution:    -12.99421       4.59014       1.40343
Nuclear contribution   :     12.79331      -3.91961      -2.45895
                        -----------------------------------------
Total Dipole Moment    :     -0.20090       0.67053      -1.05552
                        -----------------------------------------
Magnitude (a.u.)       :      1.26653
Magnitude (Debye)      :      3.21925

Rotational constants in cm-1:     0.162888     0.059977     0.046450
Rotational constants in MHz :  4883.250030  1798.063289  1392.548669

                             ****ORCA TERMINATED NORMALLY****
TOTAL RUN TIME: 0 days 0 hours 0 minutes 15 seconds 53 msec
