                         Program Version 5.0.0 -  RELEASE  -
|  1> !TPSS D3BJ RIJCOSX def2-SVPD def2/J TightSCF
|  2> *xyz -1 1
|  3> C         -1.78916       -0.63923        4.55750
|  4> C         -2.79070       -0.78527        5.70281
|  5> H         -2.86731       -1.83565        6.00167
|  6> H         -3.77455       -0.48658        5.33481
|  7> C         -2.45380        0.05510        6.94145
|  8> C         -2.07842        1.48042        6.56410
|  9> H         -1.62558       -0.38216        7.49891
| 10> H         -3.32527        0.08775        7.59917
| 11> O         -0.90125        1.85816        6.82810
| 12> O         -2.93658        2.17731        5.96415
| 13> H         -2.09421       -1.25377        3.73641
| 14> H         -0.81933       -0.94475        4.89064
| 15> H         -1.75281        0.38306        4.24366
| 16> *
| 17> %MaxCore 64000
| 18>
| 19> %pal nprocs 4
| 20> end
| 21>
| 22> %scf
| 23>   MaxIter 150
| 24> end
| 25>
| 26>
| 27>                          ****END OF INPUT****

CARTESIAN COORDINATES (ANGSTROEM)
---------------------------------
  C     -1.789160   -0.639230    4.557500
  C     -2.790700   -0.785270    5.702810
  H     -2.867310   -1.835650    6.001670
  H     -3.774550   -0.486580    5.334810
  C     -2.453800    0.055100    6.941450
  C     -2.078420    1.480420    6.564100
  H     -1.625580   -0.382160    7.498910
  H     -3.325270    0.087750    7.599170
  O     -0.901250    1.858160    6.828100
  O     -2.936580    2.177310    5.964150
  H     -2.094210   -1.253770    3.736410
  H     -0.819330   -0.944750    4.890640
  H     -1.752810    0.383060    4.243660

 Total Charge           Charge          ....   -1
 Multiplicity           Mult            ....    1
 Number of Electrons    NEL             ....   48
 Basis Dimension        Dim             ....  182

ORBITAL ENERGIES
----------------

  NO   OCC          E(Eh)            E(eV)
   0   2.0000     -18.641584      -507.2633
   1   2.0000     -18.640142      -507.2240
   2   2.0000      -9.878476      -268.8070
   3   2.0000      -9.853054      -268.1152
   4   2.0000      -9.844538      -267.8835
   5   2.0000      -9.827289      -267.4141
   6   2.0000      -0.740836       -20.1592
   7   2.0000      -0.650771       -17.7084
   8   2.0000      -0.572848       -15.5880
   9   2.0000      -0.482353       -13.1255
  10   2.0000      -0.392214       -10.6727
  11   2.0000      -0.282066        -7.6754
  12   2.0000      -0.262826        -7.1519
  13   2.0000      -0.243889        -6.6366
  14   2.0000      -0.213485        -5.8092
  15   2.0000      -0.187671        -5.1068
  16   2.0000      -0.172162        -4.6848
  17   2.0000      -0.164813        -4.4848
  18   2.0000      -0.155635        -4.2350
  19   2.0000      -0.133347        -3.6286
  20   2.0000      -0.123894        -3.3713
  21   2.0000      -0.015685        -0.4268
  22   2.0000      -0.003153        -0.0858
  23   2.0000       0.014157         0.3852
  24   0.0000       0.137566         3.7433
  25   0.0000       0.161763         4.4018
  26   0.0000       0.178579         4.8594
  27   0.0000       0.189127         5.1464
  28   0.0000       0.205117         5.5815

MULLIKEN ATOMIC CHARGES
-----------------------
   0 C :    0.570922
   1 C :   -0.451544
   2 H :   -0.162243
   3 H :    0.025441
   4 C :    0.151359
   5 C :    0.395477
   6 H :   -0.002426
   7 H :   -0.007211
   8 O :   -0.692146
   9 O :   -0.732280
  10 H :   -0.082527
  11 H :   -0.015581
  12 H :    0.002758
Sum of atomic charges:   -1.0000000

LOEWDIN ATOMIC CHARGES
----------------------
   0 C :    0.123129
   1 C :   -0.079826
   2 H :   -0.007890
   3 H :    0.006499
   4 C :    0.002294
   5 C :   -0.310634
   6 H :   -0.003955
   7 H :    0.002486
   8 O :   -0.326190
   9 O :   -0.316707
  10 H :   -0.041839
  11 H :   -0.024801
  12 H :   -0.022568

  Mayer bond orders larger than 0.100000
B(  0-C ,  1-C ) :   1.3305 B(  0-C , 10-H ) :   0.7777 B(  0-C , 11-H ) :   0.8083
B(  0-C , 12-H ) :   0.8413 B(  1-C ,  2-H ) :   1.0037 B(  1-C ,  3-H ) :   0.9078
B(  1-C ,  4-C ) :   1.1905 B(  1-C ,  6-H ) :   0.1383 B(  1-C ,  7-H ) :   0.1249
B(  1-C , 10-H ) :   0.2163 B(  1-C , 11-H ) :   0.1922 B(  1-C , 12-H ) :   0.2068
B(  3-H ,  4-C ) :   0.1103 B(  4-C ,  5-C ) :   1.0446 B(  4-C ,  6-H ) :   0.8856
B(  4-C ,  7-H ) :   0.8385 B(  5-C ,  6-H ) :   0.2121 B(  5-C ,  7-H ) :   0.1234
B(  5-C ,  8-O ) :   1.4131 B(  5-C ,  9-O ) :   1.4555

Dispersion correction           -0.012357446
FINAL SINGLE POINT ENERGY      -307.001774200253

DIPOLE MOMENT
-------------
                                X             Y             Z
Electronic contribution:      0.64554       6.45898       2.67566
Nuclear contribution   :     -1.12936      -8.75108      -3.05770
                        -----------------------------------------
Total Dipole Moment    :     -0.48383      -2.29210      -0.38205
                        -----------------------------------------
Magnitude (a.u.)       :      2.37356
Magnitude (Debye)      :      6.03310

Rotational constants in cm-1:     0.189092     0.083831     0.082013
Rotational constants in MHz :  5668.846461  2513.177001  2458.689996

                             ****ORCA TERMINATED NORMALLY****
TOTAL RUN TIME: 0 days 0 hours 0 minutes 9 seconds 660 msec
