                         Program Version 5.0.0 -  RELEASE  -
|  1> !TPSS D3BJ RIJCOSX def2-SVPD def2/J TightSCF
|  2> *xyz 1 1
|  3> C         -0.69912        3.48945        3.75516
|  4> H         -0.96672        4.34901        3.14049
|  5> N         -1.08067        3.79296        5.15686
|  6> C          0.77696        3.13839        3.61741
|  7> H         -1.33146        2.65651        3.44632
|  8> H          1.37140        3.88834        4.14974
|  9> H          1.04693        3.23206        2.56133
| 10> C          1.11892        1.73117        4.11516
| 11> H         -0.87449        4.76274        5.42734
| 12> H         -0.68079        3.13476        5.83900
| 13> H         -2.05755        3.53169        5.34620
| 14> H          0.52974        1.01235        3.58499
| 15> H          0.90870        1.66226        5.16204
| 16> H          2.15725        1.53562        3.94624
| 17> *
| 18> %MaxCore 64000
| 19>
| 20> %pal nprocs 4
| 21> end
| 22>
| 23> %scf
| 24>   MaxIter 150
| 25> end
| 26>
| 27>
| 28>                          ****END OF INPUT****

CARTESIAN COORDINATES (ANGSTROEM)
---------------------------------
  C     -0.699120    3.489450    3.755160
  H     -0.966720    4.349010    3.140490
  N     -1.080670    3.792960    5.156860
  C      0.776960    3.138390    3.617410
  H     -1.331460    2.656510    3.446320
  H      1.371400    3.888340    4.149740
  H      1.046930    3.232060    2.561330
  C      1.118920    1.731170    4.115160
  H     -0.874490    4.762740    5.427340
  H     -0.680790    3.134760    5.839000
  H     -2.057550    3.531690    5.346200
  H      0.529740    1.012350    3.584990
  H      0.908700    1.662260    5.162040
  H      2.157250    1.535620    3.946240

 Total Charge           Charge          ....    1
 Multiplicity           Mult            ....    1
 Number of Electrons    NEL             ....   34
 Basis Dimension        Dim             ....  160

ORBITAL ENERGIES
----------------

  NO   OCC          E(Eh)            E(eV)
   0   2.0000     -14.448410      -393.1612
   1   2.0000     -10.248251      -278.8691
   2   2.0000     -10.179767      -277.0056
   3   2.0000     -10.147582      -276.1297
   4   2.0000      -1.143860       -31.1260
   5   2.0000      -0.912153       -24.8209
   6   2.0000      -0.827541       -22.5185
   7   2.0000      -0.767412       -20.8823
   8   2.0000      -0.737606       -20.0713
   9   2.0000      -0.714648       -19.4466
  10   2.0000      -0.651777       -17.7358
  11   2.0000      -0.591168       -16.0865
  12   2.0000      -0.567509       -15.4427
  13   2.0000      -0.546638       -14.8748
  14   2.0000      -0.489330       -13.3153
  15   2.0000      -0.483408       -13.1542
  16   2.0000      -0.479596       -13.0505
  17   0.0000      -0.205575        -5.5940
  18   0.0000      -0.151886        -4.1330
  19   0.0000      -0.148873        -4.0510
  20   0.0000      -0.127794        -3.4775
  21   0.0000      -0.104672        -2.8483

MULLIKEN ATOMIC CHARGES
-----------------------
   0 C :    0.605200
   1 H :   -0.069331
   2 N :   -0.924115
   3 C :   -0.326827
   4 H :    0.016870
   5 H :   -0.020979
   6 H :    0.006040
   7 C :    0.670640
   8 H :    0.441288
   9 H :    0.363604
  10 H :    0.384499
  11 H :    0.033473
  12 H :   -0.167178
  13 H :   -0.013183
Sum of atomic charges:    1.0000000

LOEWDIN ATOMIC CHARGES
----------------------
   0 C :    0.097352
   1 H :    0.049601
   2 N :    0.331635
   3 C :   -0.035445
   4 H :    0.048584
   5 H :    0.030293
   6 H :    0.041862
   7 C :    0.160670
   8 H :    0.112756
   9 H :    0.089248
  10 H :    0.104665
  11 H :   -0.005199
  12 H :   -0.028421
  13 H :    0.002399

  Mayer bond orders larger than 0.100000
B(  0-C ,  1-H ) :   0.8950 B(  0-C ,  2-N ) :   0.6772 B(  0-C ,  3-C ) :   1.1882
B(  0-C ,  4-H ) :   0.8882 B(  1-H ,  2-N ) :   0.1151 B(  2-N ,  8-H ) :   0.6445
B(  2-N ,  9-H ) :   0.7312 B(  2-N , 10-H ) :   0.6990 B(  3-C ,  5-H ) :   0.9500
B(  3-C ,  6-H ) :   0.9246 B(  3-C ,  7-C ) :   1.2890 B(  3-C , 11-H ) :   0.1624
B(  3-C , 12-H ) :   0.1782 B(  3-C , 13-H ) :   0.1951 B(  7-C , 11-H ) :   0.8043
B(  7-C , 12-H ) :   0.8435 B(  7-C , 13-H ) :   0.8104 B( 11-H , 12-H ) :   0.1001

Dispersion correction           -0.011336450
FINAL SINGLE POINT ENERGY      -174.767998738073

DIPOLE MOMENT
-------------
                                X             Y             Z
Electronic contribution:     -1.65532       1.66983       0.71639
Nuclear contribution   :      0.19356      -0.71099       0.46987
                        -----------------------------------------
Total Dipole Moment    :     -1.46176       0.95883       1.18626
                        -----------------------------------------
Magnitude (a.u.)       :      2.11265
Magnitude (Debye)      :      5.36993

Rotational constants in cm-1:     0.465349     0.150671     0.132807
Rotational constants in MHz : 13950.800968  4516.999758  3981.442177

                             ****ORCA TERMINATED NORMALLY****
TOTAL RUN TIME: 0 days 0 hours 0 minutes 7 seconds 634 msec
