                         Program Version 5.0.0 -  RELEASE  -
|  1> !TPSS D3BJ RIJCOSX def2-SVPD def2/J TightSCF
|  2> *xyz 0 1
|  3> C         -1.78916       -0.63923        4.55750
|  4> C         -2.79070       -0.78527        5.70281
|  5> H         -2.86731       -1.83565        6.00167
|  6> H         -3.77455       -0.48658        5.33481
|  7> C         -2.45380        0.05510        6.94145
|  8> C         -2.07842        1.48042        6.56410
|  9> H         -1.62558       -0.38216        7.49891
| 10> H         -3.32527        0.08775        7.59917
| 11> F         -0.90125        1.85816        6.82810
| 12> O         -2.93658        2.17731        5.96415
| 13> H         -2.09421       -1.25377        3.73641
| 14> H         -0.81933       -0.94475        4.89064
| 15> H         -1.75281        0.38306        4.24366
| 16> *
| 17> %MaxCore 64000
| 18>
| 19> %pal nprocs 4
| 20> end
| 21>
| 22> %scf
| 23>   MaxIter 150
| 24> end
| 25>
| 26>
| 27>                          ****END OF INPUT****

CARTESIAN COORDINATES (ANGSTROEM)
---------------------------------
  C     -1.789160   -0.639230    4.557500
  C     -2.790700   -0.785270    5.702810
  H     -2.867310   -1.835650    6.001670
  H     -3.774550   -0.486580    5.334810
  C     -2.453800    0.055100    6.941450
  C     -2.078420    1.480420    6.564100
  H     -1.625580   -0.382160    7.498910
  H     -3.325270    0.087750    7.599170
  F     -0.901250    1.858160    6.828100
  O     -2.936580    2.177310    5.964150
  H     -2.094210   -1.253770    3.736410
  H     -0.819330   -0.944750    4.890640
  H     -1.752810    0.383060    4.243660

 Total Charge           Charge          ....    0
 Multiplicity           Mult            ....    1
 Number of Electrons    NEL             ....   48
 Basis Dimension        Dim             ....  182

ORBITAL ENERGIES
----------------

  NO   OCC          E(Eh)            E(eV)
   0   2.0000     -24.493852      -666.5116
   1   2.0000     -18.906984      -514.4852
   2   2.0000     -10.170422      -276.7513
   3   2.0000     -10.031831      -272.9800
   4   2.0000     -10.018024      -272.6043
   5   2.0000      -9.997091      -272.0347
   6   2.0000      -1.219135       -33.1743
   7   2.0000      -0.953942       -25.9581
   8   2.0000      -0.751784       -20.4571
   9   2.0000      -0.670587       -18.2476
  10   2.0000      -0.602701       -16.4003
  11   2.0000      -0.558269       -15.1913
  12   2.0000      -0.492913       -13.4129
  13   2.0000      -0.476463       -12.9652
  14   2.0000      -0.459109       -12.4930
  15   2.0000      -0.424566       -11.5530
  16   2.0000      -0.413324       -11.2471
  17   2.0000      -0.380932       -10.3657
  18   2.0000      -0.359218        -9.7748
  19   2.0000      -0.336119        -9.1463
  20   2.0000      -0.322665        -8.7802
  21   2.0000      -0.314422        -8.5559
  22   2.0000      -0.309450        -8.4206
  23   2.0000      -0.250567        -6.8183
  24   0.0000      -0.067593        -1.8393
  25   0.0000       0.004688         0.1276
  26   0.0000       0.032749         0.8911
  27   0.0000       0.036473         0.9925
  28   0.0000       0.047059         1.2805

MULLIKEN ATOMIC CHARGES
-----------------------
   0 C :    0.580527
   1 C :   -0.386567
   2 H :   -0.123692
   3 H :    0.032975
   4 C :    0.074351
   5 C :    0.783156
   6 H :    0.030931
   7 H :    0.040229
   8 F :   -0.382613
   9 O :   -0.557542
  10 H :   -0.052803
  11 H :   -0.014894
  12 H :   -0.024058
Sum of atomic charges:    0.0000000

LOEWDIN ATOMIC CHARGES
----------------------
   0 C :    0.140902
   1 C :   -0.049606
   2 H :    0.020284
   3 H :    0.024466
   4 C :    0.047316
   5 C :   -0.019835
   6 H :    0.019302
   7 H :    0.035689
   8 F :   -0.033580
   9 O :   -0.128827
  10 H :   -0.017400
  11 H :   -0.016193
  12 H :   -0.022518

  Mayer bond orders larger than 0.100000
B(  0-C ,  1-C ) :   1.3547 B(  0-C , 10-H ) :   0.7826 B(  0-C , 11-H ) :   0.8138
B(  0-C , 12-H ) :   0.8496 B(  1-C ,  2-H ) :   0.9856 B(  1-C ,  3-H ) :   0.9046
B(  1-C ,  4-C ) :   1.2165 B(  1-C ,  6-H ) :   0.1318 B(  1-C ,  7-H ) :   0.1225
B(  1-C , 10-H ) :   0.1985 B(  1-C , 11-H ) :   0.1798 B(  1-C , 12-H ) :   0.1895
B(  4-C ,  5-C ) :   1.0865 B(  4-C ,  6-H ) :   0.8914 B(  4-C ,  7-H ) :   0.8332
B(  5-C ,  8-F ) :   0.6744 B(  5-C ,  9-O ) :   1.7343 B(  8-F ,  9-O ) :   0.1062

Dispersion correction           -0.011855601
FINAL SINGLE POINT ENERGY      -331.537847354068

DIPOLE MOMENT
-------------
                                X             Y             Z
Electronic contribution:      2.79783       8.98853       4.26240
Nuclear contribution   :     -2.53960     -10.05333      -3.90042
                        -----------------------------------------
Total Dipole Moment    :      0.25823      -1.06480       0.36198
                        -----------------------------------------
Magnitude (a.u.)       :      1.15391
Magnitude (Debye)      :      2.93301

Rotational constants in cm-1:     0.183043     0.080991     0.078218
Rotational constants in MHz :  5487.486217  2428.040459  2344.904824

                             ****ORCA TERMINATED NORMALLY****
TOTAL RUN TIME: 0 days 0 hours 0 minutes 9 seconds 469 msec
