                         Program Version 5.0.0 -  RELEASE  -
|  1> !TPSS D3BJ RIJCOSX def2-SVPD def2/J TightSCF
|  2> *xyz 0 1
|  3> C         -0.69912        3.48945        3.75516
|  4> H         -0.96672        4.34901        3.14049
|  5> C         -1.08067        3.79296        5.15686
|  6> C          0.77696        3.13839        3.61741
|  7> H         -1.33146        2.65651        3.44632
|  8> H          1.37140        3.88834        4.14974
|  9> H          1.04693        3.23206        2.56133
| 10> C          1.11892        1.73117        4.11516
| 11> H         -0.87449        4.76274        5.42734
| 12> H         -0.68079        3.13476        5.83900
| 13> H         -2.05755        3.53169        5.34620
| 14> H          0.52974        1.01235        3.58499
| 15> H          0.90870        1.66226        5.16204
| 16> H          2.15725        1.53562        3.94624
| 17> *
| 18> %MaxCore 64000
| 19>
| 20> %pal nprocs 4
| 21> end
| 22>
| 23> %scf
| 24>   MaxIter 150
| 25> end
| 26>
| 27>
| 28>                          ****END OF INPUT****

CARTESIAN COORDINATES (ANGSTROEM)
---------------------------------
  C     -0.699120    3.489450    3.755160
  H     -0.966720    4.349010    3.140490
  C     -1.080670    3.792960    5.156860
  C      0.776960    3.138390    3.617410
  H     -1.331460    2.656510    3.446320
  H      1.371400    3.888340    4.149740
  H      1.046930    3.232060    2.561330
  C      1.118920    1.731170    4.115160
  H     -0.874490    4.762740    5.427340
  H     -0.680790    3.134760    5.839000
  H     -2.057550    3.531690    5.346200
  H      0.529740    1.012350    3.584990
  H      0.908700    1.662260    5.162040
  H      2.157250    1.535620    3.946240

 Total Charge           Charge          ....    0
 Multiplicity           Mult            ....    1
 Number of Electrons    NEL             ....   34
 Basis Dimension        Dim             ....  160

ORBITAL ENERGIES
----------------

  NO   OCC          E(Eh)            E(eV)
   0   2.0000      -9.990382      -271.8521
   1   2.0000      -9.986444      -271.7449
   2   2.0000      -9.982806      -271.6460
   3   2.0000      -9.963867      -271.1306
   4   2.0000      -0.736755       -20.0481
   5   2.0000      -0.669329       -18.2134
   6   2.0000      -0.588868       -16.0239
   7   2.0000      -0.519052       -14.1241
   8   2.0000      -0.425831       -11.5875
   9   2.0000      -0.416402       -11.3309
  10   2.0000      -0.387839       -10.5536
  11   2.0000      -0.348520        -9.4837
  12   2.0000      -0.340954        -9.2778
  13   2.0000      -0.327500        -8.9117
  14   2.0000      -0.289822        -7.8865
  15   2.0000      -0.286741        -7.8026
  16   2.0000      -0.280839        -7.6420
  17   0.0000       0.016551         0.4504
  18   0.0000       0.042246         1.1496
  19   0.0000       0.043349         1.1796
  20   0.0000       0.049885         1.3574
  21   0.0000       0.085011         2.3133

MULLIKEN ATOMIC CHARGES
-----------------------
   0 C :   -0.232291
   1 H :   -0.129125
   2 C :    1.023184
   3 C :   -0.295621
   4 H :    0.024134
   5 H :   -0.066370
   6 H :   -0.070625
   7 C :    0.655043
   8 H :   -0.111900
   9 H :   -0.456194
  10 H :   -0.167360
  11 H :    0.037999
  12 H :   -0.175157
  13 H :   -0.035718
Sum of atomic charges:    0.0000000

LOEWDIN ATOMIC CHARGES
----------------------
   0 C :   -0.067226
   1 H :    0.017127
   2 C :    0.129160
   3 C :   -0.070981
   4 H :    0.018034
   5 H :    0.018608
   6 H :    0.010131
   7 C :    0.134498
   8 H :   -0.027481
   9 H :   -0.047484
  10 H :   -0.037600
  11 H :   -0.020992
  12 H :   -0.031893
  13 H :   -0.023901

  Mayer bond orders larger than 0.100000
B(  0-C ,  1-H ) :   0.9573 B(  0-C ,  2-C ) :   1.2314 B(  0-C ,  3-C ) :   1.1870
B(  0-C ,  4-H ) :   0.8757 B(  0-C ,  5-H ) :   0.1254 B(  0-C ,  8-H ) :   0.1890
B(  0-C ,  9-H ) :   0.2547 B(  0-C , 10-H ) :   0.2073 B(  1-H ,  3-C ) :   0.1080
B(  2-C ,  4-H ) :   0.1204 B(  2-C ,  8-H ) :   0.7630 B(  2-C ,  9-H ) :   0.5766
B(  2-C , 10-H ) :   0.5831 B(  3-C ,  5-H ) :   0.9399 B(  3-C ,  6-H ) :   0.9513
B(  3-C ,  7-C ) :   1.2652 B(  3-C , 11-H ) :   0.1940 B(  3-C , 12-H ) :   0.1976
B(  3-C , 13-H ) :   0.1979 B(  7-C , 11-H ) :   0.7863 B(  7-C , 12-H ) :   0.8647
B(  7-C , 13-H ) :   0.7914 B(  9-H , 10-H ) :   0.3573

Dispersion correction           -0.011382359
FINAL SINGLE POINT ENERGY      -158.365796302042

DIPOLE MOMENT
-------------
                                X             Y             Z
Electronic contribution:      0.12686       0.47305      -0.75908
Nuclear contribution   :     -0.14518      -0.47660       0.76944
                        -----------------------------------------
Total Dipole Moment    :     -0.01832      -0.00354       0.01036
                        -----------------------------------------
Magnitude (a.u.)       :      0.02134
Magnitude (Debye)      :      0.05424

Rotational constants in cm-1:     0.472466     0.157481     0.138592
Rotational constants in MHz : 14164.171374  4721.163669  4154.874787

                             ****ORCA TERMINATED NORMALLY****
TOTAL RUN TIME: 0 days 0 hours 0 minutes 7 seconds 473 msec
