                         Program Version 5.0.0 -  RELEASE  -
|  1> !TPSS D3BJ RIJCOSX def2-SVPD def2/J TightSCF
|  2> *xyz 0 1
|  3> C         -1.78916       -0.63923        4.55750
|  4> C         -2.79070       -0.78527        5.70281
|  5> H         -2.86731       -1.83565        6.00167
|  6> H         -3.77455       -0.48658        5.33481
|  7> C         -2.45380        0.05510        6.94145
|  8> C         -2.07842        1.48042        6.56410
|  9> H         -1.62558       -0.38216        7.49891
| 10> H         -3.32527        0.08775        7.59917
| 11> O         -0.90125        1.85816        6.82810
| 12> F         -2.93658        2.17731        5.96415
| 13> H         -2.09421       -1.25377        3.73641
| 14> H         -0.81933       -0.94475        4.89064
| 15> H         -1.75281        0.38306        4.24366
| 16> *
| 17> %MaxCore 64000
| 18>
| 19> %pal nprocs 4
| 20> end
| 21>
| 22> %scf
| 23>   MaxIter 150
| 24> end
| 25>
| 26>
| 27>                          ****END OF INPUT****

CARTESIAN COORDINATES (ANGSTROEM)
---------------------------------
  C     -1.789160   -0.639230    4.557500
  C     -2.790700   -0.785270    5.702810
  H     -2.867310   -1.835650    6.001670
  H     -3.774550   -0.486580    5.334810
  C     -2.453800    0.055100    6.941450
  C     -2.078420    1.480420    6.564100
  H     -1.625580   -0.382160    7.498910
  H     -3.325270    0.087750    7.599170
  O     -0.901250    1.858160    6.828100
  F     -2.936580    2.177310    5.964150
  H     -2.094210   -1.253770    3.736410
  H     -0.819330   -0.944750    4.890640
  H     -1.752810    0.383060    4.243660

 Total Charge           Charge          ....    0
 Multiplicity           Mult            ....    1
 Number of Electrons    NEL             ....   48
 Basis Dimension        Dim             ....  182

ORBITAL ENERGIES
----------------

  NO   OCC          E(Eh)            E(eV)
   0   2.0000     -24.496991      -666.5970
   1   2.0000     -18.905018      -514.4317
   2   2.0000     -10.170011      -276.7401
   3   2.0000     -10.031265      -272.9646
   4   2.0000     -10.021169      -272.6899
   5   2.0000      -9.999239      -272.0931
   6   2.0000      -1.224415       -33.3180
   7   2.0000      -0.948886       -25.8205
   8   2.0000      -0.754736       -20.5374
   9   2.0000      -0.670522       -18.2458
  10   2.0000      -0.603071       -16.4104
  11   2.0000      -0.563250       -15.3268
  12   2.0000      -0.497477       -13.5370
  13   2.0000      -0.484633       -13.1875
  14   2.0000      -0.445026       -12.1098
  15   2.0000      -0.432316       -11.7639
  16   2.0000      -0.415123       -11.2961
  17   2.0000      -0.379836       -10.3359
  18   2.0000      -0.358021        -9.7422
  19   2.0000      -0.337187        -9.1753
  20   2.0000      -0.327902        -8.9227
  21   2.0000      -0.317582        -8.6419
  22   2.0000      -0.310697        -8.4545
  23   2.0000      -0.244193        -6.6448
  24   0.0000      -0.065031        -1.7696
  25   0.0000       0.001397         0.0380
  26   0.0000       0.033888         0.9222
  27   0.0000       0.037366         1.0168
  28   0.0000       0.044455         1.2097

MULLIKEN ATOMIC CHARGES
-----------------------
   0 C :    0.597906
   1 C :   -0.411325
   2 H :   -0.128599
   3 H :    0.010850
   4 C :    0.098395
   5 C :    0.803102
   6 H :    0.015243
   7 H :    0.033217
   8 O :   -0.526801
   9 F :   -0.414113
  10 H :   -0.061703
  11 H :    0.002470
  12 H :   -0.018640
Sum of atomic charges:   -0.0000000

LOEWDIN ATOMIC CHARGES
----------------------
   0 C :    0.141971
   1 C :   -0.056651
   2 H :    0.020502
   3 H :    0.018489
   4 C :    0.050656
   5 C :   -0.024204
   6 H :    0.031429
   7 H :    0.029687
   8 O :   -0.134216
   9 F :   -0.026501
  10 H :   -0.018047
  11 H :   -0.010491
  12 H :   -0.022624

  Mayer bond orders larger than 0.100000
B(  0-C ,  1-C ) :   1.3550 B(  0-C , 10-H ) :   0.7762 B(  0-C , 11-H ) :   0.8109
B(  0-C , 12-H ) :   0.8457 B(  1-C ,  2-H ) :   0.9869 B(  1-C ,  3-H ) :   0.9096
B(  1-C ,  4-C ) :   1.1958 B(  1-C ,  6-H ) :   0.1268 B(  1-C ,  7-H ) :   0.1210
B(  1-C , 10-H ) :   0.2063 B(  1-C , 11-H ) :   0.1861 B(  1-C , 12-H ) :   0.1875
B(  4-C ,  5-C ) :   1.0539 B(  4-C ,  6-H ) :   0.9132 B(  4-C ,  7-H ) :   0.8362
B(  5-C ,  6-H ) :   0.1360 B(  5-C ,  8-O ) :   1.7212 B(  5-C ,  9-F ) :   0.6534
B(  8-O ,  9-F ) :   0.1163

Dispersion correction           -0.011813299
FINAL SINGLE POINT ENERGY      -331.535450682216

DIPOLE MOMENT
-------------
                                X             Y             Z
Electronic contribution:     -0.61014       9.49704       2.80953
Nuclear contribution   :     -0.24054     -10.41383      -2.92452
                        -----------------------------------------
Total Dipole Moment    :     -0.85068      -0.91679      -0.11500
                        -----------------------------------------
Magnitude (a.u.)       :      1.25594
Magnitude (Debye)      :      3.19236

Rotational constants in cm-1:     0.180403     0.081943     0.079197
Rotational constants in MHz :  5408.335479  2456.587956  2374.272438

                             ****ORCA TERMINATED NORMALLY****
TOTAL RUN TIME: 0 days 0 hours 0 minutes 9 seconds 402 msec
