                         Program Version 5.0.0 -  RELEASE  -
|  1> !TPSS D3BJ RIJCOSX def2-SVPD def2/J TightSCF xyzfile
|  2>
|  3> *xyzfile 0 1 D1.xyz
|  4>
|  5> %MaxCore 64000
|  6>
|  7> %pal nprocs 4
|  8> end
|  9>
| 10> %scf
| 11>   MaxIter 150
| 12> end
| 13>
| 14>
| 15>                          ****END OF INPUT****

CARTESIAN COORDINATES (ANGSTROEM)
---------------------------------
  C     -0.699123    3.489451    3.755163
  H     -0.966716    4.349013    3.140491
  C     -1.080669    3.792957    5.156857
  C      0.776956    3.138391    3.617408
  H     -1.331455    2.656510    3.446323
  H      1.371398    3.888342    4.149744
  H      1.046926    3.232057    2.561331
  C      1.118917    1.731170    4.115155
  H      2.200573    1.654226    4.254882
  C      0.659466    0.635182    3.153306
  H      0.677024    1.576674    5.103150
  H      1.312288    0.638870    2.274207
  H     -0.339563    0.868049    2.772876
  C      0.639957   -0.771175    3.755619
  C     -0.341821   -0.965537    4.915046
  H      1.648266   -1.028665    4.097015
  H      0.398568   -1.482386    2.958453
  H     -0.279892   -2.005646    5.252547
  C     -1.789164   -0.639231    4.557496
  H     -0.032380   -0.352918    5.765118
  H     -2.107151   -1.270102    3.719619
  H     -1.856352    0.391636    4.197604
  C     -2.790700   -0.785275    5.702812
  H     -2.867308   -1.835651    6.001675
  H     -3.774554   -0.486577    5.334807
  C     -2.453797    0.055101    6.941445
  C     -2.078419    1.480421    6.564098
  H     -1.625584   -0.382163    7.498914
  H     -3.325274    0.087746    7.599175
  H     -0.874488    4.762737    5.427344
  H     -0.680793    3.134762    5.839000
  H     -2.057550    3.531691    5.346197
  F     -0.901252    1.858156    6.828104
  O     -2.936582    2.177309    5.964151

 Total Charge           Charge          ....    0
 Multiplicity           Mult            ....    1
 Number of Electrons    NEL             ....  104
 Basis Dimension        Dim             ....  434

ORBITAL ENERGIES
----------------

  NO   OCC          E(Eh)            E(eV)
   0   2.0000     -24.504455      -666.8001
   1   2.0000     -18.913653      -514.6667
   2   2.0000     -10.180290      -277.0198
   3   2.0000     -10.035494      -273.0797
   4   2.0000     -10.018740      -272.6238
   5   2.0000     -10.004308      -272.2311
   6   2.0000     -10.001425      -272.1526
   7   2.0000      -9.995954      -272.0037
   8   2.0000      -9.989259      -271.8216
   9   2.0000      -9.986614      -271.7496
  10   2.0000      -9.979069      -271.5443
  11   2.0000      -9.969655      -271.2881
  12   2.0000      -9.919332      -269.9187
  13   2.0000      -1.234963       -33.6051
  14   2.0000      -0.967042       -26.3145
  15   2.0000      -0.766337       -20.8531
  16   2.0000      -0.742764       -20.2116
  17   2.0000      -0.714114       -19.4320
  18   2.0000      -0.687331       -18.7032
  19   2.0000      -0.647796       -17.6274
  20   2.0000      -0.625602       -17.0235
  21   2.0000      -0.599780       -16.3208
  22   2.0000      -0.570909       -15.5352
  23   2.0000      -0.554335       -15.0842
  24   2.0000      -0.516344       -14.0504
  25   2.0000      -0.508289       -13.8312
  26   2.0000      -0.501757       -13.6535
  27   2.0000      -0.483407       -13.1542
  28   2.0000      -0.470221       -12.7954
  29   2.0000      -0.436575       -11.8798
  30   2.0000      -0.433513       -11.7965
  31   2.0000      -0.418301       -11.3825
  32   2.0000      -0.414321       -11.2742
  33   2.0000      -0.396524       -10.7900
  34   2.0000      -0.385452       -10.4887
  35   2.0000      -0.371689       -10.1142
  36   2.0000      -0.368037       -10.0148
  37   2.0000      -0.361217        -9.8292
  38   2.0000      -0.350760        -9.5447
  39   2.0000      -0.340666        -9.2700
  40   2.0000      -0.330420        -8.9912
  41   2.0000      -0.322798        -8.7838
  42   2.0000      -0.315703        -8.5907
  43   2.0000      -0.310285        -8.4433
  44   2.0000      -0.301744        -8.2109
  45   2.0000      -0.293558        -7.9881
  46   2.0000      -0.287701        -7.8287
  47   2.0000      -0.278757        -7.5854
  48   2.0000      -0.274140        -7.4597
  49   2.0000      -0.265335        -7.2201
  50   2.0000      -0.259877        -7.0716
  51   2.0000      -0.227566        -6.1924
  52   0.0000      -0.077936        -2.1208
  53   0.0000       0.003534         0.0962
  54   0.0000       0.019086         0.5193
  55   0.0000       0.022016         0.5991
  56   0.0000       0.028281         0.7696

MULLIKEN ATOMIC CHARGES
-----------------------
   0 C :   -0.027475
   1 H :   -0.274598
   2 C :    1.755430
   3 C :    0.470589
   4 H :   -0.201903
   5 H :   -0.056069
   6 H :   -0.092722
   7 C :    0.572764
   8 H :    0.032597
   9 C :   -0.029063
  10 H :   -0.697373
  11 H :   -0.215447
  12 H :   -0.081350
  13 C :    0.627978
  14 C :   -0.047807
  15 H :   -0.107053
  16 H :    0.057563
  17 H :   -0.257850
  18 C :    0.262686
  19 H :    0.004201
  20 H :   -0.037945
  21 H :   -0.513071
  22 C :    0.400299
  23 H :   -0.149707
  24 H :    0.112562
  25 C :    0.236575
  26 C :    0.601622
  27 H :    0.171021
  28 H :   -0.148449
  29 H :   -0.269707
  30 H :   -0.696194
  31 H :   -0.241991
  32 F :   -0.541588
  33 O :   -0.618525
Sum of atomic charges:    0.0000000

LOEWDIN ATOMIC CHARGES
----------------------
   0 C :   -0.030027
   1 H :    0.017680
   2 C :    0.142956
   3 C :   -0.019010
   4 H :   -0.000159
   5 H :    0.019940
   6 H :    0.012607
   7 C :   -0.006828
   8 H :    0.020681
   9 C :   -0.022853
  10 H :   -0.018634
  11 H :    0.020804
  12 H :   -0.002856
  13 C :   -0.019550
  14 C :   -0.019605
  15 H :    0.018992
  16 H :    0.018117
  17 H :    0.022235
  18 C :   -0.014951
  19 H :   -0.007999
  20 H :    0.029921
  21 H :   -0.002813
  22 C :    0.000075
  23 H :    0.023664
  24 H :    0.026994
  25 C :    0.064060
  26 C :    0.038314
  27 H :    0.019228
  28 H :    0.037553
  29 H :   -0.021692
  30 H :   -0.098949
  31 H :   -0.099439
  32 F :   -0.043437
  33 O :   -0.105023

  Mayer bond orders larger than 0.100000
B(  0-C ,  1-H ) :   0.9153 B(  0-C ,  2-C ) :   0.8738 B(  0-C ,  3-C ) :   1.1690
B(  0-C ,  4-H ) :   0.7547 B(  0-C ,  5-H ) :   0.1544 B(  0-C ,  6-H ) :   0.1618
B(  0-C ,  7-C ) :   0.1726 B(  0-C , 10-H ) :  -0.1312 B(  0-C , 29-H ) :   0.1280
B(  0-C , 30-H ) :   0.5498 B(  0-C , 31-H ) :   0.3402 B(  1-H , 30-H ) :   0.1256
B(  2-C ,  4-H ) :   0.2132 B(  2-C , 29-H ) :   0.5607 B(  2-C , 30-H ) :  -0.2008
B(  2-C , 31-H ) :   0.3338 B(  3-C ,  4-H ) :   0.1243 B(  3-C ,  5-H ) :   0.7235
B(  3-C ,  6-H ) :   0.7519 B(  3-C ,  7-C ) :   1.1602 B(  3-C , 10-H ) :   0.2315
B(  3-C , 30-H ) :  -0.1341 B(  4-H , 12-H ) :   0.1065 B(  4-H , 21-H ) :   0.1560
B(  5-H ,  6-H ) :  -0.1204 B(  5-H ,  7-C ) :   0.1455 B(  5-H , 10-H ) :   0.1051
B(  6-H ,  7-C ) :   0.1316 B(  7-C ,  8-H ) :   0.6898 B(  7-C ,  9-C ) :   1.1252
B(  7-C , 10-H ) :   0.5138 B(  7-C , 11-H ) :   0.1884 B(  7-C , 12-H ) :   0.1150
B(  8-H ,  9-C ) :   0.1951 B(  9-C , 10-H ) :   0.2506 B(  9-C , 11-H ) :   0.8994
B(  9-C , 12-H ) :   0.8962 B(  9-C , 13-C ) :   1.1874 B(  9-C , 14-C ) :   0.1220
B(  9-C , 15-H ) :   0.1466 B(  9-C , 16-H ) :   0.2137 B( 10-H , 19-H ) :   0.1104
B( 10-H , 30-H ) :   0.1094 B( 13-C , 14-C ) :   1.1429 B( 13-C , 15-H ) :   0.7000
B( 13-C , 16-H ) :   0.6892 B( 14-C , 15-H ) :   0.2672 B( 14-C , 17-H ) :   0.9443
B( 14-C , 18-C ) :   1.1575 B( 14-C , 19-H ) :   0.8607 B( 14-C , 20-H ) :   0.1565
B( 14-C , 21-H ) :   0.2420 B( 15-H , 16-H ) :  -0.1126 B( 17-H , 18-C ) :   0.1473
B( 18-C , 19-H ) :   0.1020 B( 18-C , 20-H ) :   0.7240 B( 18-C , 21-H ) :   0.7570
B( 18-C , 22-C ) :   1.2359 B( 18-C , 23-H ) :   0.1556 B( 18-C , 24-H ) :   0.2255
B( 18-C , 25-C ) :   0.1333 B( 21-H , 22-C ) :   0.1585 B( 22-C , 23-H ) :   0.8237
B( 22-C , 24-H ) :   0.6812 B( 22-C , 25-C ) :   1.1440 B( 22-C , 28-H ) :   0.1691
B( 23-H , 24-H ) :  -0.1225 B( 23-H , 25-C ) :   0.1254 B( 25-C , 26-C ) :   1.2193
B( 25-C , 27-H ) :   0.7957 B( 25-C , 28-H ) :   0.6807 B( 25-C , 33-O ) :   0.1007
B( 26-C , 27-H ) :   0.1340 B( 26-C , 28-H ) :   0.2777 B( 26-C , 30-H ) :   0.1138
B( 26-C , 32-F ) :   0.5961 B( 26-C , 33-O ) :   1.6043 B( 29-H , 30-H ) :   0.1832
B( 30-H , 31-H ) :   0.3876 B( 30-H , 32-F ) :   0.2482 B( 31-H , 33-O ) :   0.1924

Dispersion correction           -0.046840589
FINAL SINGLE POINT ENERGY      -606.564878824025

DIPOLE MOMENT
-------------
                                X             Y             Z
Electronic contribution:     -5.47208       2.51845      10.82370
Nuclear contribution   :      5.54676      -3.70047     -10.28793
                        -----------------------------------------
Total Dipole Moment    :      0.07468      -1.18201       0.53577
                        -----------------------------------------
Magnitude (a.u.)       :      1.29991
Magnitude (Debye)      :      3.30412

Rotational constants in cm-1:     0.028503     0.023389     0.015214
Rotational constants in MHz :   854.502405   701.197575   456.108322

                             ****ORCA TERMINATED NORMALLY****
TOTAL RUN TIME: 0 days 0 hours 1 minutes 14 seconds 362 msec
