                         Program Version 5.0.0 -  RELEASE  -
|  1> !TPSS D3BJ RIJCOSX def2-SVPD def2/J TightSCF xyzfile
|  2>
|  3> *xyzfile 0 1 D2.xyz
|  4>
|  5> %MaxCore 64000
|  6>
|  7> %pal nprocs 4
|  8> end
|  9>
| 10> %scf
| 11>   MaxIter 150
| 12> end
| 13>
| 14>
| 15>                          ****END OF INPUT****

CARTESIAN COORDINATES (ANGSTROEM)
---------------------------------
  C     -0.699123    3.489451    3.755163
  H     -0.966716    4.349013    3.140491
  C     -1.080669    3.792957    5.156857
  C      0.776956    3.138391    3.617408
  H     -1.331455    2.656510    3.446323
  H      1.371398    3.888342    4.149744
  H      1.046926    3.232057    2.561331
  C      1.118917    1.731170    4.115155
  H      2.200573    1.654226    4.254882
  C      0.659466    0.635182    3.153306
  H      0.677024    1.576674    5.103150
  H      1.312288    0.638870    2.274207
  H     -0.339563    0.868049    2.772876
  C      0.639957   -0.771175    3.755619
  C     -0.341821   -0.965537    4.915046
  H      1.648266   -1.028665    4.097015
  H      0.398568   -1.482386    2.958453
  H     -0.279892   -2.005646    5.252547
  C     -1.789164   -0.639231    4.557496
  H     -0.032380   -0.352918    5.765118
  H     -2.107151   -1.270102    3.719619
  H     -1.856352    0.391636    4.197604
  C     -2.790700   -0.785275    5.702812
  H     -2.867308   -1.835651    6.001675
  H     -3.774554   -0.486577    5.334807
  C     -2.453797    0.055101    6.941445
  C     -2.078419    1.480421    6.564098
  H     -1.625584   -0.382163    7.498914
  H     -3.325274    0.087746    7.599175
  H     -0.874488    4.762737    5.427344
  H     -0.680793    3.134762    5.839000
  H     -2.057550    3.531691    5.346197
  O     -0.901252    1.858156    6.828104
  F     -2.936582    2.177309    5.964151

 Total Charge           Charge          ....    0
 Multiplicity           Mult            ....    1
 Number of Electrons    NEL             ....  104
 Basis Dimension        Dim             ....  434

ORBITAL ENERGIES
----------------

  NO   OCC          E(Eh)            E(eV)
   0   2.0000     -24.507614      -666.8861
   1   2.0000     -18.913530      -514.6633
   2   2.0000     -10.181657      -277.0570
   3   2.0000     -10.035856      -273.0895
   4   2.0000     -10.021750      -272.7057
   5   2.0000     -10.006329      -272.2860
   6   2.0000      -9.996125      -272.0084
   7   2.0000      -9.992062      -271.8978
   8   2.0000      -9.985330      -271.7146
   9   2.0000      -9.978773      -271.5362
  10   2.0000      -9.975865      -271.4571
  11   2.0000      -9.969547      -271.2852
  12   2.0000      -9.918133      -269.8861
  13   2.0000      -1.238466       -33.7004
  14   2.0000      -0.966444       -26.2983
  15   2.0000      -0.767530       -20.8855
  16   2.0000      -0.739878       -20.1331
  17   2.0000      -0.712315       -19.3831
  18   2.0000      -0.685803       -18.6616
  19   2.0000      -0.644726       -17.5439
  20   2.0000      -0.622886       -16.9496
  21   2.0000      -0.601685       -16.3727
  22   2.0000      -0.567439       -15.4408
  23   2.0000      -0.555268       -15.1096
  24   2.0000      -0.513620       -13.9763
  25   2.0000      -0.509599       -13.8669
  26   2.0000      -0.502082       -13.6624
  27   2.0000      -0.485462       -13.2101
  28   2.0000      -0.465677       -12.6717
  29   2.0000      -0.439173       -11.9505
  30   2.0000      -0.434640       -11.8272
  31   2.0000      -0.416618       -11.3368
  32   2.0000      -0.410007       -11.1568
  33   2.0000      -0.391794       -10.6612
  34   2.0000      -0.382061       -10.3964
  35   2.0000      -0.371998       -10.1226
  36   2.0000      -0.368810       -10.0358
  37   2.0000      -0.362342        -9.8598
  38   2.0000      -0.348914        -9.4944
  39   2.0000      -0.337449        -9.1824
  40   2.0000      -0.332630        -9.0513
  41   2.0000      -0.329996        -8.9796
  42   2.0000      -0.314540        -8.5591
  43   2.0000      -0.307764        -8.3747
  44   2.0000      -0.301248        -8.1974
  45   2.0000      -0.291274        -7.9260
  46   2.0000      -0.286242        -7.7891
  47   2.0000      -0.276969        -7.5367
  48   2.0000      -0.270072        -7.3490
  49   2.0000      -0.262266        -7.1366
  50   2.0000      -0.258230        -7.0268
  51   2.0000      -0.218818        -5.9543
  52   0.0000      -0.077347        -2.1047
  53   0.0000      -0.000099        -0.0027
  54   0.0000       0.020506         0.5580
  55   0.0000       0.021974         0.5979
  56   0.0000       0.028497         0.7754

MULLIKEN ATOMIC CHARGES
-----------------------
   0 C :   -0.053523
   1 H :   -0.261469
   2 C :    1.739230
   3 C :    0.454734
   4 H :   -0.188951
   5 H :   -0.052546
   6 H :   -0.098127
   7 C :    0.613181
   8 H :    0.046928
   9 C :   -0.036751
  10 H :   -0.724400
  11 H :   -0.220634
  12 H :   -0.080173
  13 C :    0.638582
  14 C :   -0.047802
  15 H :   -0.105013
  16 H :    0.053350
  17 H :   -0.251279
  18 C :    0.289227
  19 H :    0.016437
  20 H :   -0.057034
  21 H :   -0.518030
  22 C :    0.389606
  23 H :   -0.151275
  24 H :    0.077630
  25 C :    0.268369
  26 C :    0.678935
  27 H :    0.139243
  28 H :   -0.124094
  29 H :   -0.261262
  30 H :   -0.605907
  31 H :   -0.360911
  32 O :   -0.693985
  33 F :   -0.512288
Sum of atomic charges:   -0.0000000

LOEWDIN ATOMIC CHARGES
----------------------
   0 C :   -0.034038
   1 H :    0.014686
   2 C :    0.143150
   3 C :   -0.016514
   4 H :   -0.003844
   5 H :    0.021096
   6 H :    0.011720
   7 C :   -0.001224
   8 H :    0.021103
   9 C :   -0.023836
  10 H :   -0.017363
  11 H :    0.019638
  12 H :   -0.004788
  13 C :   -0.019350
  14 C :   -0.014767
  15 H :    0.019523
  16 H :    0.016559
  17 H :    0.022043
  18 C :   -0.016450
  19 H :   -0.004378
  20 H :    0.028864
  21 H :   -0.004167
  22 C :   -0.007343
  23 H :    0.023742
  24 H :    0.021376
  25 C :    0.068764
  26 C :    0.042101
  27 H :    0.030673
  28 H :    0.032642
  29 H :   -0.020833
  30 H :   -0.126217
  31 H :   -0.078572
  32 O :   -0.121533
  33 F :   -0.022463

  Mayer bond orders larger than 0.100000
B(  0-C ,  1-H ) :   0.9135 B(  0-C ,  2-C ) :   0.8695 B(  0-C ,  3-C ) :   1.1813
B(  0-C ,  4-H ) :   0.7564 B(  0-C ,  5-H ) :   0.1672 B(  0-C ,  6-H ) :   0.1635
B(  0-C ,  7-C ) :   0.1703 B(  0-C , 10-H ) :  -0.1222 B(  0-C , 29-H ) :   0.1239
B(  0-C , 30-H ) :   0.5436 B(  0-C , 31-H ) :   0.3537 B(  1-H , 30-H ) :   0.1092
B(  2-C ,  4-H ) :   0.2017 B(  2-C , 29-H ) :   0.5546 B(  2-C , 31-H ) :   0.2401
B(  3-C ,  4-H ) :   0.1320 B(  3-C ,  5-H ) :   0.7180 B(  3-C ,  6-H ) :   0.7450
B(  3-C ,  7-C ) :   1.1606 B(  3-C , 10-H ) :   0.2445 B(  3-C , 30-H ) :  -0.1434
B(  4-H , 12-H ) :   0.1038 B(  4-H , 21-H ) :   0.1550 B(  5-H ,  6-H ) :  -0.1211
B(  5-H ,  7-C ) :   0.1455 B(  5-H , 10-H ) :   0.1028 B(  6-H ,  7-C ) :   0.1485
B(  7-C ,  8-H ) :   0.6739 B(  7-C ,  9-C ) :   1.1130 B(  7-C , 10-H ) :   0.4732
B(  7-C , 11-H ) :   0.1795 B(  7-C , 12-H ) :   0.1140 B(  8-H ,  9-C ) :   0.1882
B(  9-C , 10-H ) :   0.2614 B(  9-C , 11-H ) :   0.9046 B(  9-C , 12-H ) :   0.8947
B(  9-C , 13-C ) :   1.1883 B(  9-C , 14-C ) :   0.1203 B(  9-C , 15-H ) :   0.1450
B(  9-C , 16-H ) :   0.2134 B( 10-H , 19-H ) :   0.1175 B( 10-H , 30-H ) :   0.1069
B( 13-C , 14-C ) :   1.1392 B( 13-C , 15-H ) :   0.7008 B( 13-C , 16-H ) :   0.6892
B( 14-C , 15-H ) :   0.2668 B( 14-C , 17-H ) :   0.9356 B( 14-C , 18-C ) :   1.1610
B( 14-C , 19-H ) :   0.8617 B( 14-C , 20-H ) :   0.1545 B( 14-C , 21-H ) :   0.2564
B( 15-H , 16-H ) :  -0.1143 B( 17-H , 18-C ) :   0.1501 B( 18-C , 19-H ) :   0.1089
B( 18-C , 20-H ) :   0.7342 B( 18-C , 21-H ) :   0.7255 B( 18-C , 22-C ) :   1.2204
B( 18-C , 23-H ) :   0.1515 B( 18-C , 24-H ) :   0.2270 B( 18-C , 25-C ) :   0.1135
B( 20-H , 21-H ) :   0.1007 B( 21-H , 22-C ) :   0.1531 B( 22-C , 23-H ) :   0.8293
B( 22-C , 24-H ) :   0.6864 B( 22-C , 25-C ) :   1.1407 B( 22-C , 28-H ) :   0.1659
B( 23-H , 24-H ) :  -0.1242 B( 23-H , 25-C ) :   0.1263 B( 25-C , 26-C ) :   1.1658
B( 25-C , 27-H ) :   0.8210 B( 25-C , 28-H ) :   0.6821 B( 26-C , 27-H ) :   0.1303
B( 26-C , 28-H ) :   0.2598 B( 26-C , 32-O ) :   1.6134 B( 26-C , 33-F ) :   0.4883
B( 29-H , 30-H ) :   0.2029 B( 30-H , 31-H ) :   0.4257 B( 30-H , 32-O ) :   0.1603
B( 31-H , 33-F ) :   0.2151 B( 32-O , 33-F ) :   0.1257

Dispersion correction           -0.046961951
FINAL SINGLE POINT ENERGY      -606.563483646515

DIPOLE MOMENT
-------------
                                X             Y             Z
Electronic contribution:     -8.91872       3.04833       9.45191
Nuclear contribution   :      8.07181      -4.09641      -9.21610
                        -----------------------------------------
Total Dipole Moment    :     -0.84691      -1.04808       0.23581
                        -----------------------------------------
Magnitude (a.u.)       :      1.36797
Magnitude (Debye)      :      3.47709

Rotational constants in cm-1:     0.028400     0.023377     0.015073
Rotational constants in MHz :   851.414727   700.831775   451.871218

                             ****ORCA TERMINATED NORMALLY****
TOTAL RUN TIME: 0 days 0 hours 1 minutes 13 seconds 932 msec
