                         Program Version 5.0.0 -  RELEASE  -
|  1> !BLYP D3BJ RIJCOSX def2-TZVPD def2/J TightSCF
|  2> *xyz -1 1
|  3> C          3.76678       -2.26611       -6.51175
|  4> C          2.49670       -1.84416       -5.73570
|  5> H          1.62642       -2.21743       -6.30895
|  6> H          2.48182       -2.45607       -4.79341
|  7> O          2.45973       -0.50920       -5.50576
|  8> H          3.82914       -1.70941       -7.42340
|  9> H          3.71764       -3.31144       -6.73483
| 10> H          4.63199       -2.06931       -5.91377
| 11> *
| 12>
| 13> %MaxCore 64000
| 14>
| 15> %pal nprocs 4
| 16> end
| 17>
| 18> %scf
| 19>   MaxIter 150
| 20> end
| 21>
| 22>
| 23>                          ****END OF INPUT****

CARTESIAN COORDINATES (ANGSTROEM)
---------------------------------
  C      3.766780   -2.266110   -6.511750
  C      2.496700   -1.844160   -5.735700
  H      1.626420   -2.217430   -6.308950
  H      2.481820   -2.456070   -4.793410
  O      2.459730   -0.509200   -5.505760
  H      3.829140   -1.709410   -7.423400
  H      3.717640   -3.311440   -6.734830
  H      4.631990   -2.069310   -5.913770

 Total Charge           Charge          ....   -1
 Multiplicity           Mult            ....    1
 Number of Electrons    NEL             ....   26
 Basis Dimension        Dim             ....  159

ORBITAL ENERGIES
----------------

  NO   OCC          E(Eh)            E(eV)
   0   2.0000     -18.458333      -502.2768
   1   2.0000      -9.723919      -264.6013
   2   2.0000      -9.696503      -263.8553
   3   2.0000      -0.607193       -16.5226
   4   2.0000      -0.452100       -12.3023
   5   2.0000      -0.312128        -8.4934
   6   2.0000      -0.200067        -5.4441
   7   2.0000      -0.179009        -4.8711
   8   2.0000      -0.129884        -3.5343
   9   2.0000      -0.114372        -3.1122
  10   2.0000      -0.077440        -2.1073
  11   2.0000       0.061257         1.6669
  12   2.0000       0.064432         1.7533
  13   0.0000       0.141229         3.8430
  14   0.0000       0.163942         4.4611
  15   0.0000       0.188628         5.1328
  16   0.0000       0.193635         5.2691
  17   0.0000       0.214241         5.8298

MULLIKEN ATOMIC CHARGES
-----------------------
   0 C :   -1.209357
   1 C :   -0.260252
   2 H :    0.214695
   3 H :    0.205575
   4 O :   -0.905743
   5 H :    0.275630
   6 H :    0.412168
   7 H :    0.267285
Sum of atomic charges:   -1.0000000

LOEWDIN ATOMIC CHARGES
----------------------
   0 C :   -0.173788
   1 C :   -0.631333
   2 H :    0.043606
   3 H :    0.048906
   4 O :   -0.364072
   5 H :    0.031661
   6 H :    0.014632
   7 H :    0.030388

  Mayer bond orders larger than 0.100000
B(  0-C ,  1-C ) :   0.7352 B(  0-C ,  4-O ) :   0.6017 B(  0-C ,  5-H ) :   0.9826
B(  0-C ,  6-H ) :   0.9079 B(  0-C ,  7-H ) :   0.9843 B(  1-C ,  2-H ) :   1.0575
B(  1-C ,  3-H ) :   1.0503 B(  1-C ,  4-O ) :   0.8327 B(  2-H ,  3-H ) :   0.1235
B(  4-O ,  6-H ) :  -0.1238

Dispersion correction           -0.007746066
FINAL SINGLE POINT ENERGY      -154.441848668111

DIPOLE MOMENT
-------------
                                X             Y             Z
Electronic contribution:     -1.18875       2.75395       1.05254
Nuclear contribution   :      1.63615      -3.79938      -1.48621
                        -----------------------------------------
Total Dipole Moment    :      0.44741      -1.04543      -0.43367
                        -----------------------------------------
Magnitude (a.u.)       :      1.21704
Magnitude (Debye)      :      3.09346

Rotational constants in cm-1:     1.265582     0.329289     0.289024
Rotational constants in MHz : 37941.194363  9871.829581  8664.719106

                             ****ORCA TERMINATED NORMALLY****
TOTAL RUN TIME: 0 days 0 hours 0 minutes 8 seconds 654 msec
