                         Program Version 5.0.0 -  RELEASE  -
|  1> !BLYP D3BJ RIJCOSX def2-TZVPD def2/J TightSCF
|  2> *xyz 1 1
|  3> C          4.99986       -1.59613       -5.92488
|  4> N          5.28156       -1.97413       -4.53576
|  5> C          3.76678       -2.26611       -6.51175
|  6> C          4.79250       -1.36132       -3.45730
|  7> N          3.93990       -0.37492       -3.55736
|  8> N          5.25986       -1.75422       -2.23913
|  9> H          5.92282       -2.52145       -2.18672
| 10> H          4.65468       -1.64040       -1.44202
| 11> H          5.70914       -2.87560       -4.38702
| 12> H          3.33010       -0.31764       -4.36125
| 13> H          3.69849        0.11447       -2.70833
| 14> H          4.84333       -0.51793       -5.94302
| 15> H          5.90170       -1.82250       -6.49647
| 16> H          3.63046       -1.94025       -7.52177
| 17> H          2.90710       -2.00116       -5.93240
| 18> H          3.89538       -3.32820       -6.49392
| 19> *
| 20>
| 21> %MaxCore 64000
| 22>
| 23> %pal nprocs 4
| 24> end
| 25>
| 26> %scf
| 27>   MaxIter 150
| 28> end
| 29>
| 30>
| 31>                          ****END OF INPUT****

CARTESIAN COORDINATES (ANGSTROEM)
---------------------------------
  C      4.999860   -1.596130   -5.924880
  N      5.281560   -1.974130   -4.535760
  C      3.766780   -2.266110   -6.511750
  C      4.792500   -1.361320   -3.457300
  N      3.939900   -0.374920   -3.557360
  N      5.259860   -1.754220   -2.239130
  H      5.922820   -2.521450   -2.186720
  H      4.654680   -1.640400   -1.442020
  H      5.709140   -2.875600   -4.387020
  H      3.330100   -0.317640   -4.361250
  H      3.698490    0.114470   -2.708330
  H      4.843330   -0.517930   -5.943020
  H      5.901700   -1.822500   -6.496470
  H      3.630460   -1.940250   -7.521770
  H      2.907100   -2.001160   -5.932400
  H      3.895380   -3.328200   -6.493920

 Total Charge           Charge          ....    1
 Multiplicity           Mult            ....    1
 Number of Electrons    NEL             ....   48
 Basis Dimension        Dim             ....  312

ORBITAL ENERGIES
----------------

  NO   OCC          E(Eh)            E(eV)
   0   2.0000     -14.231740      -387.2653
   1   2.0000     -14.227900      -387.1608
   2   2.0000     -14.222733      -387.0202
   3   2.0000     -10.229361      -278.3551
   4   2.0000     -10.109866      -275.1035
   5   2.0000     -10.044207      -273.3168
   6   2.0000      -1.121417       -30.5153
   7   2.0000      -1.020601       -27.7720
   8   2.0000      -1.006120       -27.3779
   9   2.0000      -0.855535       -23.2803
  10   2.0000      -0.775912       -21.1136
  11   2.0000      -0.738610       -20.0986
  12   2.0000      -0.728493       -19.8233
  13   2.0000      -0.681358       -18.5407
  14   2.0000      -0.642608       -17.4863
  15   2.0000      -0.639426       -17.3997
  16   2.0000      -0.590953       -16.0806
  17   2.0000      -0.574805       -15.6412
  18   2.0000      -0.556523       -15.1438
  19   2.0000      -0.513442       -13.9715
  20   2.0000      -0.488621       -13.2961
  21   2.0000      -0.470998       -12.8165
  22   2.0000      -0.435052       -11.8384
  23   2.0000      -0.410080       -11.1589
  24   0.0000      -0.207392        -5.6434
  25   0.0000      -0.181960        -4.9514
  26   0.0000      -0.152245        -4.1428
  27   0.0000      -0.140914        -3.8345
  28   0.0000      -0.124450        -3.3865

MULLIKEN ATOMIC CHARGES
-----------------------
   0 C :   -0.481475
   1 N :   -0.100361
   2 C :   -1.025919
   3 C :    0.541906
   4 N :   -0.232051
   5 N :   -0.318833
   6 H :    0.193938
   7 H :    0.206891
   8 H :    0.193510
   9 H :    0.215144
  10 H :    0.184110
  11 H :    0.352113
  12 H :    0.276988
  13 H :    0.330116
  14 H :    0.340260
  15 H :    0.323663
Sum of atomic charges:    1.0000000

LOEWDIN ATOMIC CHARGES
----------------------
   0 C :   -0.198474
   1 N :    0.098589
   2 C :   -0.052218
   3 C :   -0.445114
   4 N :    0.238027
   5 N :    0.208228
   6 H :    0.129116
   7 H :    0.123033
   8 H :    0.159622
   9 H :    0.129016
  10 H :    0.141157
  11 H :    0.117055
  12 H :    0.129245
  13 H :    0.082911
  14 H :    0.063499
  15 H :    0.076307

  Mayer bond orders larger than 0.100000
B(  0-C ,  1-N ) :   0.8460 B(  0-C ,  2-C ) :   0.5799 B(  0-C , 11-H ) :   0.8706
B(  0-C , 12-H ) :   0.9283 B(  1-N ,  3-C ) :   1.2438 B(  1-N ,  8-H ) :   0.9671
B(  2-C , 13-H ) :   0.9766 B(  2-C , 14-H ) :   0.9175 B(  2-C , 15-H ) :   0.9686
B(  3-C ,  4-N ) :   1.2432 B(  3-C ,  5-N ) :   1.0907 B(  4-N ,  9-H ) :   0.9278
B(  4-N , 10-H ) :   0.9934 B(  5-N ,  6-H ) :   0.9616 B(  5-N ,  7-H ) :   0.9776

Dispersion correction           -0.024975237
FINAL SINGLE POINT ENERGY      -284.408087048108

DIPOLE MOMENT
-------------
                                X             Y             Z
Electronic contribution:      1.76085       1.09903       4.69608
Nuclear contribution   :     -1.95709      -1.20097      -3.70214
                        -----------------------------------------
Total Dipole Moment    :     -0.19624      -0.10194       0.99395
                        -----------------------------------------
Magnitude (a.u.)       :      1.01825
Magnitude (Debye)      :      2.58819

Rotational constants in cm-1:     0.241661     0.071598     0.061743
Rotational constants in MHz :  7244.800091  2146.442409  1851.001864

                             ****ORCA TERMINATED NORMALLY****
TOTAL RUN TIME: 0 days 0 hours 0 minutes 19 seconds 532 msec
