                         Program Version 5.0.0 -  RELEASE  -
|  1> !BLYP D3BJ RIJCOSX def2-TZVPD def2/J TightSCF xyzfile
|  2>
|  3> *xyzfile 0 1 B.xyz
|  4>
|  5> %MaxCore 64000
|  6>
|  7> %pal nprocs 4
|  8> end
|  9>
| 10> %scf
| 11>   MaxIter 150
| 12> end
| 13>
| 14>
| 15>                          ****END OF INPUT****

CARTESIAN COORDINATES (ANGSTROEM)
---------------------------------
  C      4.999862   -1.596133   -5.924876
  N      5.281560   -1.974132   -4.535764
  C      3.766779   -2.266110   -6.511752
  C      2.496702   -1.844161   -5.735704
  H      1.626416   -2.217434   -6.308950
  H      2.481824   -2.456069   -4.793414
  O      2.459729   -0.509204   -5.505757
  C      4.792500   -1.361316   -3.457295
  N      3.939898   -0.374925   -3.557359
  N      5.259860   -1.754224   -2.239133
  H      5.922824   -2.521451   -2.186720
  H      4.654678   -1.640404   -1.442016
  H      5.709139   -2.875599   -4.387021
  H      3.330101   -0.317639   -4.361247
  H      3.698494    0.114468   -2.708333
  H      4.843333   -0.517930   -5.943019
  H      5.901695   -1.822503   -6.496467
  H      3.886191   -3.357076   -6.533604
  H      3.685602   -1.922168   -7.547128

 Total Charge           Charge          ....    0
 Multiplicity           Mult            ....    1
 Number of Electrons    NEL             ....   64
 Basis Dimension        Dim             ....  398

ORBITAL ENERGIES
----------------

  NO   OCC          E(Eh)            E(eV)
   0   2.0000     -18.637361      -507.1484
   1   2.0000     -14.066414      -382.7666
   2   2.0000     -14.059708      -382.5841
   3   2.0000     -14.018919      -381.4742
   4   2.0000     -10.051831      -273.5242
   5   2.0000      -9.937549      -270.4144
   6   2.0000      -9.889817      -269.1156
   7   2.0000      -9.874999      -268.7124
   8   2.0000      -0.947160       -25.7735
   9   2.0000      -0.849251       -23.1093
  10   2.0000      -0.833527       -22.6814
  11   2.0000      -0.796727       -21.6800
  12   2.0000      -0.681292       -18.5389
  13   2.0000      -0.608489       -16.5578
  14   2.0000      -0.568562       -15.4714
  15   2.0000      -0.551060       -14.9951
  16   2.0000      -0.525825       -14.3084
  17   2.0000      -0.482867       -13.1395
  18   2.0000      -0.468110       -12.7379
  19   2.0000      -0.448162       -12.1951
  20   2.0000      -0.418160       -11.3787
  21   2.0000      -0.404315       -11.0020
  22   2.0000      -0.384012       -10.4495
  23   2.0000      -0.355815        -9.6822
  24   2.0000      -0.316488        -8.6121
  25   2.0000      -0.296435        -8.0664
  26   2.0000      -0.286168        -7.7870
  27   2.0000      -0.263415        -7.1679
  28   2.0000      -0.255572        -6.9545
  29   2.0000      -0.236685        -6.4405
  30   2.0000      -0.128009        -3.4833
  31   2.0000      -0.121460        -3.3051
  32   0.0000      -0.052454        -1.4273
  33   0.0000      -0.031695        -0.8625
  34   0.0000      -0.015238        -0.4146
  35   0.0000      -0.000011        -0.0003
  36   0.0000       0.020912         0.5690

MULLIKEN ATOMIC CHARGES
-----------------------
   0 C :   -0.449466
   1 N :   -0.143465
   2 C :   -0.316790
   3 C :   -0.414494
   4 H :    0.272701
   5 H :    0.195700
   6 O :   -0.910771
   7 C :    0.409789
   8 N :   -0.232500
   9 N :   -0.365022
  10 H :    0.151668
  11 H :    0.173504
  12 H :    0.176293
  13 H :    0.323183
  14 H :    0.130769
  15 H :    0.261440
  16 H :    0.265954
  17 H :    0.256829
  18 H :    0.214676
Sum of atomic charges:   -0.0000000

LOEWDIN ATOMIC CHARGES
----------------------
   0 C :   -0.177822
   1 N :    0.089831
   2 C :   -0.179737
   3 C :   -0.451602
   4 H :    0.091968
   5 H :    0.086188
   6 O :   -0.257806
   7 C :   -0.470277
   8 N :    0.224532
   9 N :    0.164183
  10 H :    0.103527
  11 H :    0.103459
  12 H :    0.143217
  13 H :   -0.022333
  14 H :    0.123238
  15 H :    0.117053
  16 H :    0.111457
  17 H :    0.096219
  18 H :    0.104706

  Mayer bond orders larger than 0.100000
B(  0-C ,  1-N ) :   0.8427 B(  0-C ,  2-C ) :   0.8474 B(  0-C , 15-H ) :   0.8591
B(  0-C , 16-H ) :   0.8880 B(  1-N ,  7-C ) :   1.2232 B(  1-N , 12-H ) :   0.9623
B(  2-C ,  3-C ) :   0.8558 B(  2-C , 17-H ) :   0.9886 B(  2-C , 18-H ) :   0.9387
B(  3-C ,  4-H ) :   0.9905 B(  3-C ,  5-H ) :   0.9685 B(  3-C ,  6-O ) :   1.0276
B(  6-O , 13-H ) :   0.2077 B(  7-C ,  8-N ) :   1.3342 B(  7-C ,  9-N ) :   0.9719
B(  8-N , 13-H ) :   0.6664 B(  8-N , 14-H ) :   1.0357 B(  9-N , 10-H ) :   0.9961
B(  9-N , 11-H ) :   1.0031

Dispersion correction           -0.035597055
FINAL SINGLE POINT ENERGY      -398.536354594211

DIPOLE MOMENT
-------------
                                X             Y             Z
Electronic contribution:      1.79421       2.06238       3.58013
Nuclear contribution   :      0.51577      -3.31768      -1.36804
                        -----------------------------------------
Total Dipole Moment    :      2.30998      -1.25530       2.21209
                        -----------------------------------------
Magnitude (a.u.)       :      3.43586
Magnitude (Debye)      :      8.73327

Rotational constants in cm-1:     0.111492     0.050787     0.040163
Rotational constants in MHz :  3342.457536  1522.560798  1204.057148

                             ****ORCA TERMINATED NORMALLY****
TOTAL RUN TIME: 0 days 0 hours 0 minutes 30 seconds 523 msec
