                         Program Version 5.0.0 -  RELEASE  -
|  1> !BLYP D3BJ RIJCOSX def2-TZVPD def2/J TightSCF
|  2> *xyz 0 1
|  3> C          3.76678       -2.26611       -6.51175
|  4> C          2.49670       -1.84416       -5.73570
|  5> H          1.62642       -2.21743       -6.30895
|  6> H          2.48182       -2.45607       -4.79341
|  7> F          2.45973       -0.50920       -5.50576
|  8> H          3.82914       -1.70941       -7.42340
|  9> H          3.71764       -3.31144       -6.73483
| 10> H          4.63199       -2.06931       -5.91377
| 11> *
| 12>
| 13> %MaxCore 64000
| 14>
| 15> %pal nprocs 4
| 16> end
| 17>
| 18> %scf
| 19>   MaxIter 150
| 20> end
| 21>
| 22>
| 23>                          ****END OF INPUT****

CARTESIAN COORDINATES (ANGSTROEM)
---------------------------------
  C      3.766780   -2.266110   -6.511750
  C      2.496700   -1.844160   -5.735700
  H      1.626420   -2.217430   -6.308950
  H      2.481820   -2.456070   -4.793410
  F      2.459730   -0.509200   -5.505760
  H      3.829140   -1.709410   -7.423400
  H      3.717640   -3.311440   -6.734830
  H      4.631990   -2.069310   -5.913770

 Total Charge           Charge          ....    0
 Multiplicity           Mult            ....    1
 Number of Electrons    NEL             ....   26
 Basis Dimension        Dim             ....  159

ORBITAL ENERGIES
----------------

  NO   OCC          E(Eh)            E(eV)
   0   2.0000     -24.276871      -660.6072
   1   2.0000      -9.982416      -271.6353
   2   2.0000      -9.898584      -269.3542
   3   2.0000      -1.100021       -29.9331
   4   2.0000      -0.684497       -18.6261
   5   2.0000      -0.564501       -15.3609
   6   2.0000      -0.455592       -12.3973
   7   2.0000      -0.437163       -11.8958
   8   2.0000      -0.402250       -10.9458
   9   2.0000      -0.353495        -9.6191
  10   2.0000      -0.352480        -9.5915
  11   2.0000      -0.284495        -7.7415
  12   2.0000      -0.281258        -7.6534
  13   0.0000      -0.006590        -0.1793
  14   0.0000       0.020588         0.5602
  15   0.0000       0.034192         0.9304
  16   0.0000       0.039394         1.0720
  17   0.0000       0.065292         1.7767

MULLIKEN ATOMIC CHARGES
-----------------------
   0 C :   -0.951581
   1 C :   -0.082019
   2 H :    0.226381
   3 H :    0.213188
   4 F :   -0.295064
   5 H :    0.286396
   6 H :    0.322816
   7 H :    0.279883
Sum of atomic charges:   -0.0000000

LOEWDIN ATOMIC CHARGES
----------------------
   0 C :   -0.074965
   1 C :   -0.309481
   2 H :    0.105055
   3 H :    0.112617
   4 F :   -0.014569
   5 H :    0.060148
   6 H :    0.061932
   7 H :    0.059262

  Mayer bond orders larger than 0.100000
B(  0-C ,  1-C ) :   0.7406 B(  0-C ,  5-H ) :   0.9538 B(  0-C ,  6-H ) :   0.9257
B(  0-C ,  7-H ) :   0.9573 B(  1-C ,  2-H ) :   0.9662 B(  1-C ,  3-H ) :   0.9653
B(  1-C ,  4-F ) :   0.8320

Dispersion correction           -0.007135539
FINAL SINGLE POINT ENERGY      -179.082331864796

DIPOLE MOMENT
-------------
                                X             Y             Z
Electronic contribution:     -2.08066       4.37598       1.81789
Nuclear contribution   :      2.16248      -5.01128      -1.96962
                        -----------------------------------------
Total Dipole Moment    :      0.08182      -0.63531      -0.15173
                        -----------------------------------------
Magnitude (a.u.)       :      0.65828
Magnitude (Debye)      :      1.67321

Rotational constants in cm-1:     1.244010     0.306580     0.270375
Rotational constants in MHz : 37294.476802  9191.037795  8105.639967

                             ****ORCA TERMINATED NORMALLY****
TOTAL RUN TIME: 0 days 0 hours 0 minutes 7 seconds 82 msec
