                         Program Version 5.0.0 -  RELEASE  -
|  1> !BLYP D3BJ RIJCOSX def2-TZVPD def2/J TightSCF
|  2> *xyz 0 1
|  3> C          4.99986       -1.59613       -5.92488
|  4> C          5.28156       -1.97413       -4.53576
|  5> C          3.76678       -2.26611       -6.51175
|  6> C          4.79250       -1.36132       -3.45730
|  7> N          3.93990       -0.37492       -3.55736
|  8> N          5.25986       -1.75422       -2.23913
|  9> H          5.92282       -2.52145       -2.18672
| 10> H          4.65468       -1.64040       -1.44202
| 11> H          5.70914       -2.87560       -4.38702
| 12> H          3.33010       -0.31764       -4.36125
| 13> H          3.69849        0.11447       -2.70833
| 14> H          4.84333       -0.51793       -5.94302
| 15> H          5.90170       -1.82250       -6.49647
| 16> H          3.63046       -1.94025       -7.52177
| 17> H          2.90710       -2.00116       -5.93240
| 18> H          3.89538       -3.32820       -6.49392
| 19> *
| 20>
| 21> %MaxCore 64000
| 22>
| 23> %pal nprocs 4
| 24> end
| 25>
| 26> %scf
| 27>   MaxIter 150
| 28> end
| 29>
| 30>
| 31>                          ****END OF INPUT****

CARTESIAN COORDINATES (ANGSTROEM)
---------------------------------
  C      4.999860   -1.596130   -5.924880
  C      5.281560   -1.974130   -4.535760
  C      3.766780   -2.266110   -6.511750
  C      4.792500   -1.361320   -3.457300
  N      3.939900   -0.374920   -3.557360
  N      5.259860   -1.754220   -2.239130
  H      5.922820   -2.521450   -2.186720
  H      4.654680   -1.640400   -1.442020
  H      5.709140   -2.875600   -4.387020
  H      3.330100   -0.317640   -4.361250
  H      3.698490    0.114470   -2.708330
  H      4.843330   -0.517930   -5.943020
  H      5.901700   -1.822500   -6.496470
  H      3.630460   -1.940250   -7.521770
  H      2.907100   -2.001160   -5.932400
  H      3.895380   -3.328200   -6.493920

 Total Charge           Charge          ....    0
 Multiplicity           Mult            ....    1
 Number of Electrons    NEL             ....   48
 Basis Dimension        Dim             ....  312

ORBITAL ENERGIES
----------------

  NO   OCC          E(Eh)            E(eV)
   0   2.0000     -14.011493      -381.2721
   1   2.0000     -14.003107      -381.0439
   2   2.0000      -9.942549      -270.5505
   3   2.0000      -9.877519      -268.7810
   4   2.0000      -9.872431      -268.6425
   5   2.0000      -9.830837      -267.5107
   6   2.0000      -0.873563       -23.7709
   7   2.0000      -0.789224       -21.4759
   8   2.0000      -0.693466       -18.8702
   9   2.0000      -0.621506       -16.9121
  10   2.0000      -0.550360       -14.9761
  11   2.0000      -0.517078       -14.0704
  12   2.0000      -0.489605       -13.3228
  13   2.0000      -0.448724       -12.2104
  14   2.0000      -0.427486       -11.6325
  15   2.0000      -0.391995       -10.6667
  16   2.0000      -0.365339        -9.9414
  17   2.0000      -0.344414        -9.3720
  18   2.0000      -0.334460        -9.1011
  19   2.0000      -0.305435        -8.3113
  20   2.0000      -0.282700        -7.6927
  21   2.0000      -0.276193        -7.5156
  22   2.0000      -0.220732        -6.0064
  23   2.0000      -0.130241        -3.5440
  24   0.0000      -0.022227        -0.6048
  25   0.0000       0.004838         0.1317
  26   0.0000       0.015506         0.4219
  27   0.0000       0.025933         0.7057
  28   0.0000       0.039595         1.0774

MULLIKEN ATOMIC CHARGES
-----------------------
   0 C :   -0.561589
   1 C :   -0.467348
   2 C :   -1.086579
   3 C :    0.490960
   4 N :   -0.279783
   5 N :   -0.390754
   6 H :    0.145030
   7 H :    0.141918
   8 H :    0.288662
   9 H :    0.159635
  10 H :    0.140889
  11 H :    0.272506
  12 H :    0.211716
  13 H :    0.278767
  14 H :    0.335519
  15 H :    0.320451
Sum of atomic charges:   -0.0000000

LOEWDIN ATOMIC CHARGES
----------------------
   0 C :   -0.279044
   1 C :   -0.129856
   2 C :   -0.102897
   3 C :   -0.549880
   4 N :    0.147316
   5 N :    0.114276
   6 H :    0.097878
   7 H :    0.077436
   8 H :    0.058799
   9 H :    0.101547
  10 H :    0.099755
  11 H :    0.093394
  12 H :    0.099145
  13 H :    0.055557
  14 H :    0.053862
  15 H :    0.062713

  Mayer bond orders larger than 0.100000
B(  0-C ,  1-C ) :   0.6192 B(  0-C ,  2-C ) :   0.4673 B(  0-C ,  3-C ) :   0.1420
B(  0-C , 11-H ) :   0.9935 B(  0-C , 12-H ) :   1.0694 B(  1-C ,  3-C ) :   1.3406
B(  1-C ,  4-N ) :   0.1150 B(  1-C ,  5-N ) :   0.1222 B(  1-C ,  8-H ) :   1.0334
B(  2-C , 13-H ) :   0.9828 B(  2-C , 14-H ) :   0.9343 B(  2-C , 15-H ) :   0.9844
B(  3-C ,  4-N ) :   1.0180 B(  3-C ,  5-N ) :   0.8898 B(  3-C ,  8-H ) :  -0.1425
B(  4-N ,  9-H ) :   0.9721 B(  4-N , 10-H ) :   1.0287 B(  5-N ,  6-H ) :   0.9991
B(  5-N ,  7-H ) :   1.0442

Dispersion correction           -0.026108405
FINAL SINGLE POINT ENERGY      -267.915228557944

DIPOLE MOMENT
-------------
                                X             Y             Z
Electronic contribution:      1.25521       1.39103       4.49590
Nuclear contribution   :     -1.82485      -1.28952      -3.74132
                        -----------------------------------------
Total Dipole Moment    :     -0.56964       0.10151       0.75458
                        -----------------------------------------
Magnitude (a.u.)       :      0.95089
Magnitude (Debye)      :      2.41697

Rotational constants in cm-1:     0.245790     0.071632     0.062004
Rotational constants in MHz :  7368.599517  2147.482078  1858.844841

                             ****ORCA TERMINATED NORMALLY****
TOTAL RUN TIME: 0 days 0 hours 0 minutes 19 seconds 764 msec
