                         Program Version 5.0.0 -  RELEASE  -
|  1> !BLYP D3BJ RIJCOSX def2-TZVPD def2/J TightSCF
|  2> *xyz 0 1
|  3> C          4.99986       -1.59613       -5.92488
|  4> N          5.28156       -1.97413       -4.53576
|  5> C          3.76678       -2.26611       -6.51175
|  6> C          4.79250       -1.36132       -3.45730
|  7> C          3.93990       -0.37492       -3.55736
|  8> N          5.25986       -1.75422       -2.23913
|  9> H          5.92282       -2.52145       -2.18672
| 10> H          4.65468       -1.64040       -1.44202
| 11> H          5.70914       -2.87560       -4.38702
| 12> H          3.33010       -0.31764       -4.36125
| 13> H          3.69849        0.11447       -2.70833
| 14> H          4.84333       -0.51793       -5.94302
| 15> H          5.90170       -1.82250       -6.49647
| 16> H          3.63046       -1.94025       -7.52177
| 17> H          2.90710       -2.00116       -5.93240
| 18> H          3.89538       -3.32820       -6.49392
| 19> *
| 20>
| 21> %MaxCore 64000
| 22>
| 23> %pal nprocs 4
| 24> end
| 25>
| 26> %scf
| 27>   MaxIter 150
| 28> end
| 29>
| 30>
| 31>                          ****END OF INPUT****

CARTESIAN COORDINATES (ANGSTROEM)
---------------------------------
  C      4.999860   -1.596130   -5.924880
  N      5.281560   -1.974130   -4.535760
  C      3.766780   -2.266110   -6.511750
  C      4.792500   -1.361320   -3.457300
  C      3.939900   -0.374920   -3.557360
  N      5.259860   -1.754220   -2.239130
  H      5.922820   -2.521450   -2.186720
  H      4.654680   -1.640400   -1.442020
  H      5.709140   -2.875600   -4.387020
  H      3.330100   -0.317640   -4.361250
  H      3.698490    0.114470   -2.708330
  H      4.843330   -0.517930   -5.943020
  H      5.901700   -1.822500   -6.496470
  H      3.630460   -1.940250   -7.521770
  H      2.907100   -2.001160   -5.932400
  H      3.895380   -3.328200   -6.493920

 Total Charge           Charge          ....    0
 Multiplicity           Mult            ....    1
 Number of Electrons    NEL             ....   48
 Basis Dimension        Dim             ....  312

ORBITAL ENERGIES
----------------

  NO   OCC          E(Eh)            E(eV)
   0   2.0000     -14.007986      -381.1767
   1   2.0000     -14.003793      -381.0626
   2   2.0000      -9.943527      -270.5771
   3   2.0000      -9.934568      -270.3333
   4   2.0000      -9.888843      -269.0891
   5   2.0000      -9.819923      -267.2137
   6   2.0000      -0.872267       -23.7356
   7   2.0000      -0.795537       -21.6477
   8   2.0000      -0.679695       -18.4954
   9   2.0000      -0.641613       -17.4592
  10   2.0000      -0.570767       -15.5314
  11   2.0000      -0.504262       -13.7217
  12   2.0000      -0.486109       -13.2277
  13   2.0000      -0.457002       -12.4357
  14   2.0000      -0.406532       -11.0623
  15   2.0000      -0.394741       -10.7414
  16   2.0000      -0.372743       -10.1429
  17   2.0000      -0.350661        -9.5420
  18   2.0000      -0.336641        -9.1605
  19   2.0000      -0.326330        -8.8799
  20   2.0000      -0.308260        -8.3882
  21   2.0000      -0.299683        -8.1548
  22   2.0000      -0.206644        -5.6231
  23   2.0000      -0.139562        -3.7977
  24   0.0000      -0.019304        -0.5253
  25   0.0000       0.004576         0.1245
  26   0.0000       0.013891         0.3780
  27   0.0000       0.022342         0.6080
  28   0.0000       0.041186         1.1207

MULLIKEN ATOMIC CHARGES
-----------------------
   0 C :   -0.484340
   1 N :   -0.164341
   2 C :   -1.067819
   3 C :    0.611661
   4 C :   -1.161349
   5 N :   -0.344561
   6 H :    0.136130
   7 H :    0.173274
   8 H :    0.158017
   9 H :    0.262941
  10 H :    0.319330
  11 H :    0.367728
  12 H :    0.257223
  13 H :    0.319985
  14 H :    0.318063
  15 H :    0.298058
Sum of atomic charges:    0.0000000

LOEWDIN ATOMIC CHARGES
----------------------
   0 C :   -0.235796
   1 N :    0.024621
   2 C :   -0.079851
   3 C :   -0.559971
   4 C :    0.011530
   5 N :    0.120556
   6 H :    0.086387
   7 H :    0.092464
   8 H :    0.126441
   9 H :    0.006049
  10 H :    0.012372
  11 H :    0.105790
  12 H :    0.107115
  13 H :    0.062502
  14 H :    0.059368
  15 H :    0.060421

  Mayer bond orders larger than 0.100000
B(  0-C ,  1-N ) :   0.8365 B(  0-C ,  2-C ) :   0.5399 B(  0-C ,  4-C ) :   0.1770
B(  0-C , 11-H ) :   0.8927 B(  0-C , 12-H ) :   0.9107 B(  1-N ,  3-C ) :   1.0473
B(  1-N ,  8-H ) :   0.9877 B(  2-C , 13-H ) :   0.9625 B(  2-C , 14-H ) :   0.9729
B(  2-C , 15-H ) :   0.9671 B(  3-C ,  4-C ) :   1.3227 B(  3-C ,  5-N ) :   0.9080
B(  4-C ,  9-H ) :   0.9629 B(  4-C , 10-H ) :   1.0224 B(  5-N ,  6-H ) :   1.0176
B(  5-N ,  7-H ) :   0.9914

Dispersion correction           -0.025979641
FINAL SINGLE POINT ENERGY      -267.909595159565

DIPOLE MOMENT
-------------
                                X             Y             Z
Electronic contribution:      2.40626      -0.06272       3.49110
Nuclear contribution   :     -2.10948      -0.95026      -3.53375
                        -----------------------------------------
Total Dipole Moment    :      0.29679      -1.01298      -0.04265
                        -----------------------------------------
Magnitude (a.u.)       :      1.05642
Magnitude (Debye)      :      2.68522

Rotational constants in cm-1:     0.255209     0.072067     0.062929
Rotational constants in MHz :  7650.964615  2160.525743  1886.569524

                             ****ORCA TERMINATED NORMALLY****
TOTAL RUN TIME: 0 days 0 hours 0 minutes 19 seconds 51 msec
