                         Program Version 5.0.0 -  RELEASE  -
|  1> !BLYP D3BJ RIJCOSX def2-TZVPD def2/J TightSCF
|  2> *xyz 0 1
|  3> C          4.99986       -1.59613       -5.92488
|  4> N          5.28156       -1.97413       -4.53576
|  5> C          3.76678       -2.26611       -6.51175
|  6> C          4.79250       -1.36132       -3.45730
|  7> N          3.93990       -0.37492       -3.55736
|  8> C          5.25986       -1.75422       -2.23913
|  9> H          5.92282       -2.52145       -2.18672
| 10> H          4.65468       -1.64040       -1.44202
| 11> H          5.70914       -2.87560       -4.38702
| 12> H          3.33010       -0.31764       -4.36125
| 13> H          3.69849        0.11447       -2.70833
| 14> H          4.84333       -0.51793       -5.94302
| 15> H          5.90170       -1.82250       -6.49647
| 16> H          3.63046       -1.94025       -7.52177
| 17> H          2.90710       -2.00116       -5.93240
| 18> H          3.89538       -3.32820       -6.49392
| 19> *
| 20>
| 21> %MaxCore 64000
| 22>
| 23> %pal nprocs 4
| 24> end
| 25>
| 26> %scf
| 27>   MaxIter 150
| 28> end
| 29>
| 30>
| 31>                          ****END OF INPUT****

CARTESIAN COORDINATES (ANGSTROEM)
---------------------------------
  C      4.999860   -1.596130   -5.924880
  N      5.281560   -1.974130   -4.535760
  C      3.766780   -2.266110   -6.511750
  C      4.792500   -1.361320   -3.457300
  N      3.939900   -0.374920   -3.557360
  C      5.259860   -1.754220   -2.239130
  H      5.922820   -2.521450   -2.186720
  H      4.654680   -1.640400   -1.442020
  H      5.709140   -2.875600   -4.387020
  H      3.330100   -0.317640   -4.361250
  H      3.698490    0.114470   -2.708330
  H      4.843330   -0.517930   -5.943020
  H      5.901700   -1.822500   -6.496470
  H      3.630460   -1.940250   -7.521770
  H      2.907100   -2.001160   -5.932400
  H      3.895380   -3.328200   -6.493920

 Total Charge           Charge          ....    0
 Multiplicity           Mult            ....    1
 Number of Electrons    NEL             ....   48
 Basis Dimension        Dim             ....  312

ORBITAL ENERGIES
----------------

  NO   OCC          E(Eh)            E(eV)
   0   2.0000     -14.010873      -381.2552
   1   2.0000     -14.008072      -381.1790
   2   2.0000      -9.947478      -270.6846
   3   2.0000      -9.943056      -270.5643
   4   2.0000      -9.899226      -269.3716
   5   2.0000      -9.816669      -267.1251
   6   2.0000      -0.882232       -24.0067
   7   2.0000      -0.806202       -21.9379
   8   2.0000      -0.695639       -18.9293
   9   2.0000      -0.623604       -16.9691
  10   2.0000      -0.562366       -15.3028
  11   2.0000      -0.542531       -14.7630
  12   2.0000      -0.489049       -13.3077
  13   2.0000      -0.446129       -12.1398
  14   2.0000      -0.430628       -11.7180
  15   2.0000      -0.395882       -10.7725
  16   2.0000      -0.379401       -10.3240
  17   2.0000      -0.356093        -9.6898
  18   2.0000      -0.338822        -9.2198
  19   2.0000      -0.321869        -8.7585
  20   2.0000      -0.319563        -8.6957
  21   2.0000      -0.301025        -8.1913
  22   2.0000      -0.213631        -5.8132
  23   2.0000      -0.127124        -3.4592
  24   0.0000      -0.021743        -0.5917
  25   0.0000       0.006834         0.1860
  26   0.0000       0.009952         0.2708
  27   0.0000       0.016444         0.4475
  28   0.0000       0.036852         1.0028

MULLIKEN ATOMIC CHARGES
-----------------------
   0 C :   -0.469901
   1 N :   -0.142243
   2 C :   -1.053497
   3 C :    0.553669
   4 N :   -0.300291
   5 C :   -1.158152
   6 H :    0.284201
   7 H :    0.275362
   8 H :    0.147411
   9 H :    0.158996
  10 H :    0.158162
  11 H :    0.347397
  12 H :    0.260249
  13 H :    0.323292
  14 H :    0.330684
  15 H :    0.284660
Sum of atomic charges:    0.0000000

LOEWDIN ATOMIC CHARGES
----------------------
   0 C :   -0.238345
   1 N :    0.034644
   2 C :   -0.083133
   3 C :   -0.573206
   4 N :    0.142153
   5 C :    0.002609
   6 H :   -0.004578
   7 H :   -0.010896
   8 H :    0.136470
   9 H :    0.090967
  10 H :    0.111498
  11 H :    0.102941
  12 H :    0.107897
  13 H :    0.061943
  14 H :    0.055843
  15 H :    0.063193

  Mayer bond orders larger than 0.100000
B(  0-C ,  1-N ) :   0.8232 B(  0-C ,  2-C ) :   0.5319 B(  0-C ,  4-N ) :   0.1140
B(  0-C , 11-H ) :   0.8976 B(  0-C , 12-H ) :   0.9491 B(  1-N ,  3-C ) :   1.0880
B(  1-N ,  8-H ) :   0.9765 B(  2-C , 13-H ) :   0.9730 B(  2-C , 14-H ) :   0.9486
B(  2-C , 15-H ) :   0.9933 B(  3-C ,  4-N ) :   1.1091 B(  3-C ,  5-C ) :   1.1280
B(  4-N ,  5-C ) :   0.1016 B(  4-N ,  9-H ) :   0.9752 B(  4-N , 10-H ) :   1.0136
B(  5-C ,  6-H ) :   1.0015 B(  5-C ,  7-H ) :   1.0757

Dispersion correction           -0.025791016
FINAL SINGLE POINT ENERGY      -267.903827124005

DIPOLE MOMENT
-------------
                                X             Y             Z
Electronic contribution:      1.18356       1.24556       2.16280
Nuclear contribution   :     -1.82946      -1.24287      -3.25410
                        -----------------------------------------
Total Dipole Moment    :     -0.64589       0.00270      -1.09130
                        -----------------------------------------
Magnitude (a.u.)       :      1.26812
Magnitude (Debye)      :      3.22329

Rotational constants in cm-1:     0.244672     0.074506     0.064043
Rotational constants in MHz :  7335.067153  2233.624025  1919.970379

                             ****ORCA TERMINATED NORMALLY****
TOTAL RUN TIME: 0 days 0 hours 0 minutes 20 seconds 586 msec
