                         Program Version 5.0.0 -  RELEASE  -
|  1> !BLYP D3BJ RIJCOSX def2-TZVPD def2/J TightSCF xyzfile
|  2>
|  3> *xyzfile 0 1 D1.xyz
|  4>
|  5> %MaxCore 64000
|  6>
|  7> %pal nprocs 4
|  8> end
|  9>
| 10> %scf
| 11>   MaxIter 150
| 12> end
| 13>
| 14>
| 15>                          ****END OF INPUT****

CARTESIAN COORDINATES (ANGSTROEM)
---------------------------------
  C      4.999862   -1.596133   -5.924876
  C      5.281560   -1.974132   -4.535764
  C      3.766779   -2.266110   -6.511752
  C      2.496702   -1.844161   -5.735704
  H      1.626416   -2.217434   -6.308950
  H      2.481824   -2.456069   -4.793414
  F      2.459729   -0.509204   -5.505757
  C      4.792500   -1.361316   -3.457295
  N      3.939898   -0.374925   -3.557359
  N      5.259860   -1.754224   -2.239133
  H      5.922824   -2.521451   -2.186720
  H      4.654678   -1.640404   -1.442016
  H      5.709139   -2.875599   -4.387021
  H      3.330101   -0.317639   -4.361247
  H      3.698494    0.114468   -2.708333
  H      4.843333   -0.517930   -5.943019
  H      5.901695   -1.822503   -6.496467
  H      3.886191   -3.357076   -6.533604
  H      3.685602   -1.922168   -7.547128

 Total Charge           Charge          ....    0
 Multiplicity           Mult            ....    1
 Number of Electrons    NEL             ....   64
 Basis Dimension        Dim             ....  398

ORBITAL ENERGIES
----------------

  NO   OCC          E(Eh)            E(eV)
   0   2.0000     -24.308044      -661.4555
   1   2.0000     -13.997503      -380.8914
   2   2.0000     -13.983723      -380.5164
   3   2.0000      -9.985419      -271.7171
   4   2.0000      -9.936473      -270.3852
   5   2.0000      -9.899378      -269.3758
   6   2.0000      -9.879845      -268.8443
   7   2.0000      -9.826892      -267.4033
   8   2.0000      -1.139376       -31.0040
   9   2.0000      -0.862116       -23.4594
  10   2.0000      -0.779046       -21.1989
  11   2.0000      -0.714317       -19.4376
  12   2.0000      -0.648576       -17.6487
  13   2.0000      -0.601400       -16.3649
  14   2.0000      -0.536266       -14.5925
  15   2.0000      -0.525374       -14.2961
  16   2.0000      -0.484761       -13.1910
  17   2.0000      -0.470795       -12.8110
  18   2.0000      -0.457444       -12.4477
  19   2.0000      -0.441751       -12.0207
  20   2.0000      -0.430308       -11.7093
  21   2.0000      -0.402999       -10.9662
  22   2.0000      -0.372169       -10.1272
  23   2.0000      -0.353042        -9.6068
  24   2.0000      -0.344532        -9.3752
  25   2.0000      -0.322818        -8.7843
  26   2.0000      -0.302286        -8.2256
  27   2.0000      -0.290798        -7.9130
  28   2.0000      -0.281681        -7.6649
  29   2.0000      -0.272070        -7.4034
  30   2.0000      -0.209712        -5.7066
  31   2.0000      -0.126462        -3.4412
  32   0.0000      -0.014787        -0.4024
  33   0.0000       0.002216         0.0603
  34   0.0000       0.012745         0.3468
  35   0.0000       0.017534         0.4771
  36   0.0000       0.031061         0.8452

MULLIKEN ATOMIC CHARGES
-----------------------
   0 C :   -0.389681
   1 C :   -0.842061
   2 C :   -0.398365
   3 C :   -0.269447
   4 H :    0.280977
   5 H :    0.258567
   6 F :   -0.400242
   7 C :    0.632642
   8 N :   -0.356449
   9 N :   -0.414761
  10 H :    0.133575
  11 H :    0.139317
  12 H :    0.258107
  13 H :    0.346680
  14 H :    0.095973
  15 H :    0.221974
  16 H :    0.217388
  17 H :    0.284392
  18 H :    0.201414
Sum of atomic charges:    0.0000000

LOEWDIN ATOMIC CHARGES
----------------------
   0 C :   -0.228192
   1 C :   -0.123828
   2 C :   -0.169961
   3 C :   -0.228184
   4 H :    0.115353
   5 H :    0.126516
   6 F :   -0.006066
   7 C :   -0.545580
   8 N :    0.161490
   9 N :    0.116452
  10 H :    0.095471
  11 H :    0.077100
  12 H :    0.058223
  13 H :    0.024422
  14 H :    0.103085
  15 H :    0.104295
  16 H :    0.104730
  17 H :    0.115220
  18 H :    0.099454

  Mayer bond orders larger than 0.100000
B(  0-C ,  1-C ) :   0.6573 B(  0-C ,  2-C ) :   0.7098 B(  0-C , 15-H ) :   0.9550
B(  0-C , 16-H ) :   1.0883 B(  1-C ,  7-C ) :   1.3508 B(  1-C ,  8-N ) :   0.1707
B(  1-C , 12-H ) :   1.1000 B(  2-C ,  3-C ) :   0.9341 B(  2-C , 17-H ) :   0.9520
B(  2-C , 18-H ) :   0.9484 B(  3-C ,  4-H ) :   0.9293 B(  3-C ,  5-H ) :   0.9418
B(  3-C ,  6-F ) :   0.7684 B(  7-C ,  8-N ) :   0.9747 B(  7-C ,  9-N ) :   0.8605
B(  7-C , 12-H ) :  -0.1545 B(  8-N , 13-H ) :   0.7775 B(  8-N , 14-H ) :   1.0716
B(  9-N , 10-H ) :   1.0089 B(  9-N , 11-H ) :   1.0483

Dispersion correction           -0.035654829
FINAL SINGLE POINT ENERGY      -406.488140822008

DIPOLE MOMENT
-------------
                                X             Y             Z
Electronic contribution:     -3.31353       4.03340       0.77571
Nuclear contribution   :      2.63975      -4.51113      -0.34926
                        -----------------------------------------
Total Dipole Moment    :     -0.67378      -0.47773       0.42645
                        -----------------------------------------
Magnitude (a.u.)       :      0.92955
Magnitude (Debye)      :      2.36273

Rotational constants in cm-1:     0.109429     0.049838     0.039337
Rotational constants in MHz :  3280.611039  1494.113088  1179.280063

                             ****ORCA TERMINATED NORMALLY****
TOTAL RUN TIME: 0 days 0 hours 0 minutes 28 seconds 319 msec
