                         Program Version 5.0.0 -  RELEASE  -
|  1> !BLYP D3BJ RIJCOSX def2-TZVPD def2/J TightSCF xyzfile
|  2>
|  3> *xyzfile 0 1 D2.xyz
|  4>
|  5> %MaxCore 64000
|  6>
|  7> %pal nprocs 4
|  8> end
|  9>
| 10> %scf
| 11>   MaxIter 150
| 12> end
| 13>
| 14>
| 15>                          ****END OF INPUT****

CARTESIAN COORDINATES (ANGSTROEM)
---------------------------------
  C      4.999862   -1.596133   -5.924876
  N      5.281560   -1.974132   -4.535764
  C      3.766779   -2.266110   -6.511752
  C      2.496702   -1.844161   -5.735704
  H      1.626416   -2.217434   -6.308950
  H      2.481824   -2.456069   -4.793414
  F      2.459729   -0.509204   -5.505757
  C      4.792500   -1.361316   -3.457295
  C      3.939898   -0.374925   -3.557359
  N      5.259860   -1.754224   -2.239133
  H      5.922824   -2.521451   -2.186720
  H      4.654678   -1.640404   -1.442016
  H      5.709139   -2.875599   -4.387021
  H      3.330101   -0.317639   -4.361247
  H      3.698494    0.114468   -2.708333
  H      4.843333   -0.517930   -5.943019
  H      5.901695   -1.822503   -6.496467
  H      3.886191   -3.357076   -6.533604
  H      3.685602   -1.922168   -7.547128

 Total Charge           Charge          ....    0
 Multiplicity           Mult            ....    1
 Number of Electrons    NEL             ....   64
 Basis Dimension        Dim             ....  398

ORBITAL ENERGIES
----------------

  NO   OCC          E(Eh)            E(eV)
   0   2.0000     -24.286059      -660.8573
   1   2.0000     -14.005222      -381.1015
   2   2.0000     -13.996222      -380.8566
   3   2.0000      -9.984551      -271.6934
   4   2.0000      -9.937187      -270.4046
   5   2.0000      -9.933000      -270.2907
   6   2.0000      -9.914488      -269.7869
   7   2.0000      -9.795043      -266.5367
   8   2.0000      -1.119776       -30.4707
   9   2.0000      -0.867858       -23.6156
  10   2.0000      -0.791836       -21.5470
  11   2.0000      -0.706077       -19.2133
  12   2.0000      -0.636712       -17.3258
  13   2.0000      -0.621227       -16.9044
  14   2.0000      -0.548535       -14.9264
  15   2.0000      -0.507488       -13.8095
  16   2.0000      -0.489158       -13.3107
  17   2.0000      -0.460409       -12.5284
  18   2.0000      -0.458202       -12.4683
  19   2.0000      -0.440935       -11.9984
  20   2.0000      -0.425656       -11.5827
  21   2.0000      -0.405643       -11.0381
  22   2.0000      -0.373197       -10.1552
  23   2.0000      -0.357132        -9.7181
  24   2.0000      -0.338645        -9.2150
  25   2.0000      -0.329376        -8.9628
  26   2.0000      -0.315612        -8.5882
  27   2.0000      -0.297086        -8.0841
  28   2.0000      -0.288225        -7.8430
  29   2.0000      -0.256881        -6.9901
  30   2.0000      -0.203087        -5.5263
  31   2.0000      -0.129430        -3.5220
  32   0.0000      -0.021088        -0.5738
  33   0.0000      -0.000386        -0.0105
  34   0.0000       0.009211         0.2506
  35   0.0000       0.017016         0.4630
  36   0.0000       0.030248         0.8231

MULLIKEN ATOMIC CHARGES
-----------------------
   0 C :   -0.531306
   1 N :   -0.203662
   2 C :   -0.371705
   3 C :   -0.293376
   4 H :    0.280872
   5 H :    0.272140
   6 F :   -0.334648
   7 C :    0.708480
   8 C :   -1.508793
   9 N :   -0.385131
  10 H :    0.128404
  11 H :    0.164247
  12 H :    0.144609
  13 H :    0.561609
  14 H :    0.312785
  15 H :    0.307945
  16 H :    0.270070
  17 H :    0.249648
  18 H :    0.227812
Sum of atomic charges:   -0.0000000

LOEWDIN ATOMIC CHARGES
----------------------
   0 C :   -0.184324
   1 N :    0.035105
   2 C :   -0.153609
   3 C :   -0.231509
   4 H :    0.115047
   5 H :    0.125757
   6 F :   -0.023057
   7 C :   -0.554129
   8 C :    0.027513
   9 N :    0.117952
  10 H :    0.082287
  11 H :    0.090858
  12 H :    0.126026
  13 H :   -0.041851
  14 H :    0.022442
  15 H :    0.116847
  16 H :    0.112656
  17 H :    0.111422
  18 H :    0.104565

  Mayer bond orders larger than 0.100000
B(  0-C ,  1-N ) :   0.8551 B(  0-C ,  2-C ) :   0.8131 B(  0-C , 15-H ) :   0.8623
B(  0-C , 16-H ) :   0.9256 B(  1-N ,  7-C ) :   0.9920 B(  1-N , 12-H ) :   0.9988
B(  2-C ,  3-C ) :   0.9523 B(  2-C , 17-H ) :   0.9573 B(  2-C , 18-H ) :   0.9597
B(  3-C ,  4-H ) :   0.9230 B(  3-C ,  5-H ) :   0.9314 B(  3-C ,  6-F ) :   0.8116
B(  6-F ,  8-C ) :   0.1314 B(  6-F , 13-H ) :  -0.2592 B(  7-C ,  8-C ) :   1.1400
B(  7-C ,  9-N ) :   0.8450 B(  7-C , 13-H ) :  -0.1128 B(  8-C , 13-H ) :   0.8229
B(  8-C , 14-H ) :   1.1200 B(  9-N , 10-H ) :   1.0288 B(  9-N , 11-H ) :   1.0032

Dispersion correction           -0.035545129
FINAL SINGLE POINT ENERGY      -406.458333637785

DIPOLE MOMENT
-------------
                                X             Y             Z
Electronic contribution:     -2.27770       2.76481      -0.14122
Nuclear contribution   :      2.43398      -4.26587      -0.19921
                        -----------------------------------------
Total Dipole Moment    :      0.15628      -1.50106      -0.34043
                        -----------------------------------------
Magnitude (a.u.)       :      1.54709
Magnitude (Debye)      :      3.93240

Rotational constants in cm-1:     0.110089     0.049944     0.039407
Rotational constants in MHz :  3300.378855  1497.273856  1181.385913

                             ****ORCA TERMINATED NORMALLY****
TOTAL RUN TIME: 0 days 0 hours 0 minutes 26 seconds 177 msec
