                         Program Version 5.0.0 -  RELEASE  -
|  1> !BLYP D3BJ RIJCOSX def2-TZVPD def2/J TightSCF xyzfile
|  2>
|  3> *xyzfile 0 1 D3.xyz
|  4>
|  5> %MaxCore 64000
|  6>
|  7> %pal nprocs 4
|  8> end
|  9>
| 10> %scf
| 11>   MaxIter 150
| 12> end
| 13>
| 14>
| 15>                          ****END OF INPUT****

CARTESIAN COORDINATES (ANGSTROEM)
---------------------------------
  C      4.999862   -1.596133   -5.924876
  N      5.281560   -1.974132   -4.535764
  C      3.766779   -2.266110   -6.511752
  C      2.496702   -1.844161   -5.735704
  H      1.626416   -2.217434   -6.308950
  H      2.481824   -2.456069   -4.793414
  F      2.459729   -0.509204   -5.505757
  C      4.792500   -1.361316   -3.457295
  N      3.939898   -0.374925   -3.557359
  C      5.259860   -1.754224   -2.239133
  H      5.922824   -2.521451   -2.186720
  H      4.654678   -1.640404   -1.442016
  H      5.709139   -2.875599   -4.387021
  H      3.330101   -0.317639   -4.361247
  H      3.698494    0.114468   -2.708333
  H      4.843333   -0.517930   -5.943019
  H      5.901695   -1.822503   -6.496467
  H      3.886191   -3.357076   -6.533604
  H      3.685602   -1.922168   -7.547128

 Total Charge           Charge          ....    0
 Multiplicity           Mult            ....    1
 Number of Electrons    NEL             ....   64
 Basis Dimension        Dim             ....  398

ORBITAL ENERGIES
----------------

  NO   OCC          E(Eh)            E(eV)
   0   2.0000     -24.321932      -661.8334
   1   2.0000     -14.005625      -381.1124
   2   2.0000     -13.981345      -380.4517
   3   2.0000     -10.004104      -272.2255
   4   2.0000      -9.945309      -270.6256
   5   2.0000      -9.937911      -270.4243
   6   2.0000      -9.925966      -270.0993
   7   2.0000      -9.807170      -266.8667
   8   2.0000      -1.153621       -31.3916
   9   2.0000      -0.873618       -23.7724
  10   2.0000      -0.797349       -21.6970
  11   2.0000      -0.720876       -19.6160
  12   2.0000      -0.654715       -17.8157
  13   2.0000      -0.599674       -16.3180
  14   2.0000      -0.556167       -15.1341
  15   2.0000      -0.535576       -14.5738
  16   2.0000      -0.511341       -13.9143
  17   2.0000      -0.486777       -13.2459
  18   2.0000      -0.457500       -12.4492
  19   2.0000      -0.447061       -12.1652
  20   2.0000      -0.420470       -11.4416
  21   2.0000      -0.417690       -11.3659
  22   2.0000      -0.383266       -10.4292
  23   2.0000      -0.373125       -10.1532
  24   2.0000      -0.339215        -9.2305
  25   2.0000      -0.331980        -9.0336
  26   2.0000      -0.325178        -8.8486
  27   2.0000      -0.309376        -8.4186
  28   2.0000      -0.299448        -8.1484
  29   2.0000      -0.292595        -7.9619
  30   2.0000      -0.204759        -5.5718
  31   2.0000      -0.118220        -3.2169
  32   0.0000      -0.021217        -0.5773
  33   0.0000       0.000810         0.0220
  34   0.0000       0.005994         0.1631
  35   0.0000       0.007725         0.2102
  36   0.0000       0.031471         0.8564

MULLIKEN ATOMIC CHARGES
-----------------------
   0 C :   -0.495562
   1 N :   -0.178272
   2 C :   -0.364082
   3 C :   -0.272008
   4 H :    0.280399
   5 H :    0.251762
   6 F :   -0.392907
   7 C :    0.467364
   8 N :   -0.363969
   9 C :   -1.217435
  10 H :    0.311044
  11 H :    0.287777
  12 H :    0.144792
  13 H :    0.366229
  14 H :    0.111769
  15 H :    0.294845
  16 H :    0.275419
  17 H :    0.249072
  18 H :    0.243766
Sum of atomic charges:   -0.0000000

LOEWDIN ATOMIC CHARGES
----------------------
   0 C :   -0.186875
   1 N :    0.045123
   2 C :   -0.154081
   3 C :   -0.224274
   4 H :    0.118908
   5 H :    0.130921
   6 F :   -0.005338
   7 C :   -0.574399
   8 N :    0.157771
   9 C :   -0.002965
  10 H :   -0.009749
  11 H :   -0.013347
  12 H :    0.136866
  13 H :    0.019853
  14 H :    0.114613
  15 H :    0.113167
  16 H :    0.113501
  17 H :    0.115031
  18 H :    0.105274

  Mayer bond orders larger than 0.100000
B(  0-C ,  1-N ) :   0.8170 B(  0-C ,  2-C ) :   0.7998 B(  0-C , 15-H ) :   0.8763
B(  0-C , 16-H ) :   0.9467 B(  1-N ,  7-C ) :   1.0619 B(  1-N ,  9-C ) :   0.1246
B(  1-N , 12-H ) :   0.9680 B(  2-C ,  3-C ) :   0.9444 B(  2-C , 17-H ) :   0.9547
B(  2-C , 18-H ) :   0.9738 B(  3-C ,  4-H ) :   0.9299 B(  3-C ,  5-H ) :   0.9431
B(  3-C ,  6-F ) :   0.7849 B(  7-C ,  8-N ) :   1.1206 B(  7-C ,  9-C ) :   1.1251
B(  8-N ,  9-C ) :   0.1204 B(  8-N , 13-H ) :   0.7578 B(  8-N , 14-H ) :   1.0456
B(  9-C , 10-H ) :   0.9841 B(  9-C , 11-H ) :   1.0548

Dispersion correction           -0.035234382
FINAL SINGLE POINT ENERGY      -406.472186481462

DIPOLE MOMENT
-------------
                                X             Y             Z
Electronic contribution:     -3.47816       3.90983      -1.48927
Nuclear contribution   :      2.63642      -4.47741       0.00296
                        -----------------------------------------
Total Dipole Moment    :     -0.84174      -0.56757      -1.48631
                        -----------------------------------------
Magnitude (a.u.)       :      1.79994
Magnitude (Debye)      :      4.57509

Rotational constants in cm-1:     0.108041     0.051979     0.040387
Rotational constants in MHz :  3238.993235  1558.297571  1210.782552

                             ****ORCA TERMINATED NORMALLY****
TOTAL RUN TIME: 0 days 0 hours 0 minutes 25 seconds 749 msec
