                         Program Version 5.0.0 -  RELEASE  -
|  1> !wB97X-D3 RIJCOSX def2-TZVP def2/J TightSCF
|  2> *xyz -1 1
|  3> C          1.72854        1.42432       -5.63944
|  4> S          2.25263       -0.18811       -6.27184
|  5> O          3.56261       -0.44446       -5.63155
|  6> O          2.34494       -0.03374       -7.69650
|  7> O          1.26606       -1.15918       -5.80536
|  8> H          0.77944        1.68154       -6.06127
|  9> H          2.45151        2.16548       -5.90944
| 10> H          1.64478        1.37937       -4.57367
| 11> *
| 12>
| 13> %MaxCore 64000
| 14>
| 15> %pal nprocs 8
| 16> end
| 17>
| 18> %scf
| 19>   MaxIter 150
| 20> end
| 21>
| 22>
| 23>                          ****END OF INPUT****

CARTESIAN COORDINATES (ANGSTROEM)
---------------------------------
  C      1.728540    1.424320   -5.639440
  S      2.252630   -0.188110   -6.271840
  O      3.562610   -0.444460   -5.631550
  O      2.344940   -0.033740   -7.696500
  O      1.266060   -1.159180   -5.805360
  H      0.779440    1.681540   -6.061270
  H      2.451510    2.165480   -5.909440
  H      1.644780    1.379370   -4.573670

 Total Charge           Charge          ....   -1
 Multiplicity           Mult            ....    1
 Number of Electrons    NEL             ....   50
 Basis Dimension        Dim             ....  179

ORBITAL ENERGIES
----------------

  NO   OCC          E(Eh)            E(eV)
   0   2.0000     -88.929087     -2419.8835
   1   2.0000     -19.002375      -517.0809
   2   2.0000     -18.995592      -516.8963
   3   2.0000     -18.987011      -516.6628
   4   2.0000     -10.121800      -275.4282
   5   2.0000      -7.991079      -217.4483
   6   2.0000      -5.945645      -161.7892
   7   2.0000      -5.944016      -161.7449
   8   2.0000      -5.943735      -161.7372
   9   2.0000      -1.030335       -28.0368
  10   2.0000      -0.897768       -24.4295
  11   2.0000      -0.875087       -23.8123
  12   2.0000      -0.691810       -18.8251
  13   2.0000      -0.487327       -13.2608
  14   2.0000      -0.392453       -10.6792
  15   2.0000      -0.383871       -10.4457
  16   2.0000      -0.382874       -10.4185
  17   2.0000      -0.338590        -9.2135
  18   2.0000      -0.336251        -9.1499
  19   2.0000      -0.240672        -6.5490
  20   2.0000      -0.239885        -6.5276
  21   2.0000      -0.202394        -5.5074
  22   2.0000      -0.197008        -5.3609
  23   2.0000      -0.187341        -5.0978
  24   2.0000      -0.148686        -4.0460
  25   0.0000       0.276436         7.5222
  26   0.0000       0.333261         9.0685
  27   0.0000       0.335109         9.1188
  28   0.0000       0.346004         9.4152
  29   0.0000       0.417670        11.3654

MULLIKEN ATOMIC CHARGES
-----------------------
   0 C :   -0.392592
   1 S :    0.849401
   2 O :   -0.605860
   3 O :   -0.556483
   4 O :   -0.582184
   5 H :    0.091896
   6 H :    0.096900
   7 H :    0.098922
Sum of atomic charges:   -1.0000000

LOEWDIN ATOMIC CHARGES
----------------------
   0 C :   -0.460548
   1 S :    0.399794
   2 O :   -0.437559
   3 O :   -0.379026
   4 O :   -0.410345
   5 H :    0.094384
   6 H :    0.096428
   7 H :    0.096874

  Mayer bond orders larger than 0.100000
B(  0-C ,  1-S ) :   0.8693 B(  0-C ,  5-H ) :   0.9670 B(  0-C ,  6-H ) :   0.9692
B(  0-C ,  7-H ) :   0.9703 B(  1-S ,  2-O ) :   1.7553 B(  1-S ,  3-O ) :   1.8078
B(  1-S ,  4-O ) :   1.7807

Dispersion correction           -0.001522137
FINAL SINGLE POINT ENERGY      -663.899585951163

DIPOLE MOMENT
-------------
                                X             Y             Z
Electronic contribution:      1.19674      -3.85187      -1.61954
Nuclear contribution   :     -1.71379       5.17769       1.98321
                        -----------------------------------------
Total Dipole Moment    :     -0.51705       1.32582       0.36367
                        -----------------------------------------
Magnitude (a.u.)       :      1.46881
Magnitude (Debye)      :      3.73342

Rotational constants in cm-1:     0.172739     0.155771     0.153412
Rotational constants in MHz :  5178.588083  4669.889924  4599.189984

                             ****ORCA TERMINATED NORMALLY****
TOTAL RUN TIME: 0 days 0 hours 0 minutes 12 seconds 311 msec
