                         Program Version 5.0.0 -  RELEASE  -
|  1> !wB97X-D3 RIJCOSX def2-TZVP def2/J TightSCF
|  2> *xyz 1 1
|  3> C          2.91632       -1.24259       -1.54313
|  4> C          3.46659       -1.59097       -2.88908
|  5> N          4.65227       -1.14316       -3.25969
|  6> N          2.75226       -2.29204       -3.72803
|  7> H          1.77836       -2.48960       -3.51274
|  8> H          2.94861       -2.20854       -4.71681
|  9> H          5.14672       -0.51251       -2.63385
| 10> H          4.78303       -1.00720       -4.25350
| 11> H          1.95294       -1.69278       -1.42424
| 12> H          2.82618       -0.17973       -1.45886
| 13> H          3.57606       -1.60596       -0.78312
| 14> *
| 15>
| 16> %MaxCore 64000
| 17>
| 18> %pal nprocs 8
| 19> end
| 20>
| 21> %scf
| 22>   MaxIter 150
| 23> end
| 24>
| 25>
| 26>                          ****END OF INPUT****

CARTESIAN COORDINATES (ANGSTROEM)
---------------------------------
  C      2.916320   -1.242590   -1.543130
  C      3.466590   -1.590970   -2.889080
  N      4.652270   -1.143160   -3.259690
  N      2.752260   -2.292040   -3.728030
  H      1.778360   -2.489600   -3.512740
  H      2.948610   -2.208540   -4.716810
  H      5.146720   -0.512510   -2.633850
  H      4.783030   -1.007200   -4.253500
  H      1.952940   -1.692780   -1.424240
  H      2.826180   -0.179730   -1.458860
  H      3.576060   -1.605960   -0.783120

 Total Charge           Charge          ....    1
 Multiplicity           Mult            ....    1
 Number of Electrons    NEL             ....   32
 Basis Dimension        Dim             ....  166

ORBITAL ENERGIES
----------------

  NO   OCC          E(Eh)            E(eV)
   0   2.0000     -14.675862      -399.3505
   1   2.0000     -14.670688      -399.2097
   2   2.0000     -10.612495      -288.7807
   3   2.0000     -10.475116      -285.0424
   4   2.0000      -1.335814       -36.3493
   5   2.0000      -1.233579       -33.5674
   6   2.0000      -1.074423       -29.2365
   7   2.0000      -0.953206       -25.9380
   8   2.0000      -0.879229       -23.9250
   9   2.0000      -0.875775       -23.8310
  10   2.0000      -0.802677       -21.8419
  11   2.0000      -0.770584       -20.9687
  12   2.0000      -0.718013       -19.5381
  13   2.0000      -0.703721       -19.1492
  14   2.0000      -0.674384       -18.3509
  15   2.0000      -0.598092       -16.2749
  16   0.0000      -0.142565        -3.8794
  17   0.0000      -0.078592        -2.1386
  18   0.0000      -0.034135        -0.9289
  19   0.0000      -0.026936        -0.7330
  20   0.0000      -0.004839        -0.1317

MULLIKEN ATOMIC CHARGES
-----------------------
   0 C :   -0.343437
   1 C :    0.329706
   2 N :   -0.374759
   3 N :   -0.366268
   4 H :    0.313191
   5 H :    0.291457
   6 H :    0.316093
   7 H :    0.291153
   8 H :    0.149127
   9 H :    0.196115
  10 H :    0.197622
Sum of atomic charges:    1.0000000

LOEWDIN ATOMIC CHARGES
----------------------
   0 C :   -0.199639
   1 C :   -0.303944
   2 N :    0.098599
   3 N :    0.115134
   4 H :    0.212636
   5 H :    0.203298
   6 H :    0.212379
   7 H :    0.202947
   8 H :    0.145043
   9 H :    0.156452
  10 H :    0.157096

  Mayer bond orders larger than 0.100000
B(  0-C ,  1-C ) :   1.0013 B(  0-C ,  8-H ) :   0.9662 B(  0-C ,  9-H ) :   0.9311
B(  0-C , 10-H ) :   0.9408 B(  1-C ,  2-N ) :   1.4183 B(  1-C ,  3-N ) :   1.4667
B(  2-N ,  6-H ) :   0.8835 B(  2-N ,  7-H ) :   0.8890 B(  3-N ,  4-H ) :   0.8791
B(  3-N ,  5-H ) :   0.8897

Dispersion correction           -0.001676977
FINAL SINGLE POINT ENERGY      -189.730920332525

DIPOLE MOMENT
-------------
                                X             Y             Z
Electronic contribution:      0.89124      -0.71364      -1.80971
Nuclear contribution   :     -1.03256       1.11747       1.26949
                        -----------------------------------------
Total Dipole Moment    :     -0.14133       0.40383      -0.54022
                        -----------------------------------------
Magnitude (a.u.)       :      0.68912
Magnitude (Debye)      :      1.75161

Rotational constants in cm-1:     0.336859     0.298586     0.163958
Rotational constants in MHz : 10098.776812  8951.369850  4915.333652

                             ****ORCA TERMINATED NORMALLY****
TOTAL RUN TIME: 0 days 0 hours 0 minutes 12 seconds 24 msec
