                         Program Version 5.0.0 -  RELEASE  -
|  1> !wB97X-D3 RIJCOSX def2-TZVP def2/J TightSCF
|  2> *xyz 0 1
|  3> C          1.72854        1.42432       -5.63944
|  4> S          2.25263       -0.18811       -6.27184
|  5> F          3.56261       -0.44446       -5.63155
|  6> O          2.34494       -0.03374       -7.69650
|  7> O          1.26606       -1.15918       -5.80536
|  8> H          0.77944        1.68154       -6.06127
|  9> H          2.45151        2.16548       -5.90944
| 10> H          1.64478        1.37937       -4.57367
| 11> *
| 12>
| 13> %MaxCore 64000
| 14>
| 15> %pal nprocs 8
| 16> end
| 17>
| 18> %scf
| 19>   MaxIter 150
| 20> end
| 21>
| 22>
| 23>                          ****END OF INPUT****

CARTESIAN COORDINATES (ANGSTROEM)
---------------------------------
  C      1.728540    1.424320   -5.639440
  S      2.252630   -0.188110   -6.271840
  F      3.562610   -0.444460   -5.631550
  O      2.344940   -0.033740   -7.696500
  O      1.266060   -1.159180   -5.805360
  H      0.779440    1.681540   -6.061270
  H      2.451510    2.165480   -5.909440
  H      1.644780    1.379370   -4.573670

 Total Charge           Charge          ....    0
 Multiplicity           Mult            ....    1
 Number of Electrons    NEL             ....   50
 Basis Dimension        Dim             ....  179

ORBITAL ENERGIES
----------------

  NO   OCC          E(Eh)            E(eV)
   0   2.0000     -89.200626     -2427.2724
   1   2.0000     -24.891140      -677.3223
   2   2.0000     -19.247458      -523.7499
   3   2.0000     -19.240921      -523.5721
   4   2.0000     -10.333563      -281.1905
   5   2.0000      -8.263119      -224.8509
   6   2.0000      -6.220562      -169.2701
   7   2.0000      -6.214613      -169.1082
   8   2.0000      -6.213507      -169.0781
   9   2.0000      -1.472509       -40.0690
  10   2.0000      -1.230336       -33.4791
  11   2.0000      -1.135711       -30.9043
  12   2.0000      -0.914351       -24.8807
  13   2.0000      -0.812648       -22.1133
  14   2.0000      -0.694477       -18.8977
  15   2.0000      -0.673124       -18.3166
  16   2.0000      -0.657653       -17.8956
  17   2.0000      -0.579042       -15.7565
  18   2.0000      -0.577201       -15.7064
  19   2.0000      -0.564358       -15.3570
  20   2.0000      -0.540894       -14.7185
  21   2.0000      -0.490666       -13.3517
  22   2.0000      -0.439426       -11.9574
  23   2.0000      -0.432784       -11.7766
  24   2.0000      -0.415097       -11.2954
  25   0.0000       0.102297         2.7836
  26   0.0000       0.128525         3.4973
  27   0.0000       0.144368         3.9284
  28   0.0000       0.160260         4.3609
  29   0.0000       0.165236         4.4963

MULLIKEN ATOMIC CHARGES
-----------------------
   0 C :   -0.390213
   1 S :    0.871833
   2 F :   -0.123785
   3 O :   -0.413722
   4 O :   -0.438422
   5 H :    0.176593
   6 H :    0.158301
   7 H :    0.159415
Sum of atomic charges:    0.0000000

LOEWDIN ATOMIC CHARGES
----------------------
   0 C :   -0.394991
   1 S :    0.530136
   2 F :    0.051691
   3 O :   -0.263176
   4 O :   -0.292699
   5 H :    0.130521
   6 H :    0.119136
   7 H :    0.119381

  Mayer bond orders larger than 0.100000
B(  0-C ,  1-S ) :   0.9192 B(  0-C ,  5-H ) :   0.9482 B(  0-C ,  6-H ) :   0.9473
B(  0-C ,  7-H ) :   0.9482 B(  1-S ,  2-F ) :   1.1138 B(  1-S ,  3-O ) :   1.9454
B(  1-S ,  4-O ) :   1.9167

Dispersion correction           -0.001528875
FINAL SINGLE POINT ENERGY      -688.435352484175

DIPOLE MOMENT
-------------
                                X             Y             Z
Electronic contribution:      3.37648      -4.20779      -0.52984
Nuclear contribution   :     -3.03874       5.51823       1.39394
                        -----------------------------------------
Total Dipole Moment    :      0.33775       1.31044       0.86409
                        -----------------------------------------
Magnitude (a.u.)       :      1.60561
Magnitude (Debye)      :      4.08114

Rotational constants in cm-1:     0.164301     0.151617     0.146802
Rotational constants in MHz :  4925.615104  4545.361281  4401.017554

                             ****ORCA TERMINATED NORMALLY****
TOTAL RUN TIME: 0 days 0 hours 0 minutes 12 seconds 571 msec
