                         Program Version 5.0.0 -  RELEASE  -
|  1> !wB97X-D3 RIJCOSX def2-TZVP def2/J TightSCF
|  2> *xyz 0 1
|  3> C          2.91632       -1.24259       -1.54313
|  4> C          3.46659       -1.59097       -2.88908
|  5> C          4.65227       -1.14316       -3.25969
|  6> N          2.75226       -2.29204       -3.72803
|  7> H          1.77836       -2.48960       -3.51274
|  8> H          2.94861       -2.20854       -4.71681
|  9> H          5.14672       -0.51251       -2.63385
| 10> H          4.78303       -1.00720       -4.25350
| 11> H          1.95294       -1.69278       -1.42424
| 12> H          2.82618       -0.17973       -1.45886
| 13> H          3.57606       -1.60596       -0.78312
| 14> *
| 15>
| 16> %MaxCore 64000
| 17>
| 18> %pal nprocs 8
| 19> end
| 20>
| 21> %scf
| 22>   MaxIter 150
| 23> end
| 24>
| 25>
| 26>                          ****END OF INPUT****

CARTESIAN COORDINATES (ANGSTROEM)
---------------------------------
  C      2.916320   -1.242590   -1.543130
  C      3.466590   -1.590970   -2.889080
  C      4.652270   -1.143160   -3.259690
  N      2.752260   -2.292040   -3.728030
  H      1.778360   -2.489600   -3.512740
  H      2.948610   -2.208540   -4.716810
  H      5.146720   -0.512510   -2.633850
  H      4.783030   -1.007200   -4.253500
  H      1.952940   -1.692780   -1.424240
  H      2.826180   -0.179730   -1.458860
  H      3.576060   -1.605960   -0.783120

 Total Charge           Charge          ....    0
 Multiplicity           Mult            ....    1
 Number of Electrons    NEL             ....   32
 Basis Dimension        Dim             ....  166

ORBITAL ENERGIES
----------------

  NO   OCC          E(Eh)            E(eV)
   0   2.0000     -14.423043      -392.4710
   1   2.0000     -10.298744      -280.2431
   2   2.0000     -10.265894      -279.3492
   3   2.0000     -10.197862      -277.4979
   4   2.0000      -1.054486       -28.6940
   5   2.0000      -0.874738       -23.8028
   6   2.0000      -0.805068       -21.9070
   7   2.0000      -0.680028       -18.5045
   8   2.0000      -0.626208       -17.0400
   9   2.0000      -0.571684       -15.5563
  10   2.0000      -0.535388       -14.5687
  11   2.0000      -0.496142       -13.5007
  12   2.0000      -0.484248       -13.1771
  13   2.0000      -0.457755       -12.4561
  14   2.0000      -0.427466       -11.6319
  15   2.0000      -0.276879        -7.5343
  16   0.0000       0.105616         2.8740
  17   0.0000       0.121463         3.3052
  18   0.0000       0.153694         4.1822
  19   0.0000       0.160239         4.3603
  20   0.0000       0.200349         5.4518

MULLIKEN ATOMIC CHARGES
-----------------------
   0 C :   -0.317313
   1 C :    0.198093
   2 C :   -0.411477
   3 N :   -0.476355
   4 H :    0.232847
   5 H :    0.239530
   6 H :    0.093269
   7 H :    0.076948
   8 H :    0.089061
   9 H :    0.136117
  10 H :    0.139282
Sum of atomic charges:   -0.0000000

LOEWDIN ATOMIC CHARGES
----------------------
   0 C :   -0.241899
   1 C :   -0.390555
   2 C :   -0.294658
   3 N :   -0.000821
   4 H :    0.168499
   5 H :    0.175515
   6 H :    0.104273
   7 H :    0.099355
   8 H :    0.115956
   9 H :    0.130875
  10 H :    0.133461

  Mayer bond orders larger than 0.100000
B(  0-C ,  1-C ) :   0.9347 B(  0-C ,  8-H ) :   0.9858 B(  0-C ,  9-H ) :   0.9687
B(  0-C , 10-H ) :   0.9798 B(  1-C ,  2-C ) :   1.7567 B(  1-C ,  3-N ) :   1.1738
B(  2-C ,  6-H ) :   1.0059 B(  2-C ,  7-H ) :   0.9918 B(  3-N ,  4-H ) :   0.9232
B(  3-N ,  5-H ) :   0.9197

Dispersion correction           -0.001675319
FINAL SINGLE POINT ENERGY      -173.257306897057

DIPOLE MOMENT
-------------
                                X             Y             Z
Electronic contribution:     -0.20674      -1.17219      -1.31115
Nuclear contribution   :     -0.76183       1.20997       1.18381
                        -----------------------------------------
Total Dipole Moment    :     -0.96857       0.03779      -0.12734
                        -----------------------------------------
Magnitude (a.u.)       :      0.97763
Magnitude (Debye)      :      2.48495

Rotational constants in cm-1:     0.357745     0.302571     0.170012
Rotational constants in MHz : 10724.926457  9070.849165  5096.845195

                             ****ORCA TERMINATED NORMALLY****
TOTAL RUN TIME: 0 days 0 hours 0 minutes 12 seconds 595 msec
