                         Program Version 5.0.0 -  RELEASE  -
|  1> !wB97X-D3 RIJCOSX def2-TZVP def2/J TightSCF
|  2> *xyz 0 1
|  3> C          1.72854        1.42432       -5.63944
|  4> S          2.25263       -0.18811       -6.27184
|  5> O          3.56261       -0.44446       -5.63155
|  6> F          2.34494       -0.03374       -7.69650
|  7> O          1.26606       -1.15918       -5.80536
|  8> H          0.77944        1.68154       -6.06127
|  9> H          2.45151        2.16548       -5.90944
| 10> H          1.64478        1.37937       -4.57367
| 11> *
| 12>
| 13> %MaxCore 64000
| 14>
| 15> %pal nprocs 8
| 16> end
| 17>
| 18> %scf
| 19>   MaxIter 150
| 20> end
| 21>
| 22>
| 23>                          ****END OF INPUT****

CARTESIAN COORDINATES (ANGSTROEM)
---------------------------------
  C      1.728540    1.424320   -5.639440
  S      2.252630   -0.188110   -6.271840
  O      3.562610   -0.444460   -5.631550
  F      2.344940   -0.033740   -7.696500
  O      1.266060   -1.159180   -5.805360
  H      0.779440    1.681540   -6.061270
  H      2.451510    2.165480   -5.909440
  H      1.644780    1.379370   -4.573670

 Total Charge           Charge          ....    0
 Multiplicity           Mult            ....    1
 Number of Electrons    NEL             ....   50
 Basis Dimension        Dim             ....  179

ORBITAL ENERGIES
----------------

  NO   OCC          E(Eh)            E(eV)
   0   2.0000     -89.202923     -2427.3349
   1   2.0000     -24.914103      -677.9472
   2   2.0000     -19.241270      -523.5816
   3   2.0000     -19.232718      -523.3489
   4   2.0000     -10.334380      -281.2128
   5   2.0000      -8.265398      -224.9129
   6   2.0000      -6.222809      -169.3312
   7   2.0000      -6.216652      -169.1637
   8   2.0000      -6.215918      -169.1437
   9   2.0000      -1.509913       -41.0868
  10   2.0000      -1.216185       -33.0941
  11   2.0000      -1.116138       -30.3717
  12   2.0000      -0.917015       -24.9532
  13   2.0000      -0.831557       -22.6278
  14   2.0000      -0.713311       -19.4102
  15   2.0000      -0.699720       -19.0404
  16   2.0000      -0.661421       -17.9982
  17   2.0000      -0.578650       -15.7459
  18   2.0000      -0.574274       -15.6268
  19   2.0000      -0.565074       -15.3764
  20   2.0000      -0.533172       -14.5083
  21   2.0000      -0.483040       -13.1442
  22   2.0000      -0.431296       -11.7362
  23   2.0000      -0.422530       -11.4976
  24   2.0000      -0.399543       -10.8721
  25   0.0000       0.101110         2.7514
  26   0.0000       0.130882         3.5615
  27   0.0000       0.142534         3.8785
  28   0.0000       0.150610         4.0983
  29   0.0000       0.167083         4.5466

MULLIKEN ATOMIC CHARGES
-----------------------
   0 C :   -0.388773
   1 S :    0.866183
   2 O :   -0.452590
   3 F :   -0.090690
   4 O :   -0.428974
   5 H :    0.155500
   6 H :    0.159033
   7 H :    0.180312
Sum of atomic charges:    0.0000000

LOEWDIN ATOMIC CHARGES
----------------------
   0 C :   -0.395466
   1 S :    0.523287
   2 O :   -0.314743
   3 F :    0.105910
   4 O :   -0.288235
   5 H :    0.117749
   6 H :    0.119446
   7 H :    0.132052

  Mayer bond orders larger than 0.100000
B(  0-C ,  1-S ) :   0.9191 B(  0-C ,  5-H ) :   0.9464 B(  0-C ,  6-H ) :   0.9470
B(  0-C ,  7-H ) :   0.9490 B(  1-S ,  2-O ) :   1.8923 B(  1-S ,  3-F ) :   1.1560
B(  1-S ,  4-O ) :   1.9191

Dispersion correction           -0.001531397
FINAL SINGLE POINT ENERGY      -688.416623654016

DIPOLE MOMENT
-------------
                                X             Y             Z
Electronic contribution:      1.30842      -3.52167      -4.01183
Nuclear contribution   :     -1.82220       5.10789       3.45696
                        -----------------------------------------
Total Dipole Moment    :     -0.51378       1.58622      -0.55488
                        -----------------------------------------
Magnitude (a.u.)       :      1.75726
Magnitude (Debye)      :      4.46661

Rotational constants in cm-1:     0.163267     0.154654     0.145086
Rotational constants in MHz :  4894.631475  4636.404456  4349.567403

                             ****ORCA TERMINATED NORMALLY****
TOTAL RUN TIME: 0 days 0 hours 0 minutes 12 seconds 453 msec
