                         Program Version 5.0.0 -  RELEASE  -
|  1> !wB97X-D3 RIJCOSX def2-TZVP def2/J TightSCF
|  2> *xyz 0 1
|  3> C          2.91632       -1.24259       -1.54313
|  4> C          3.46659       -1.59097       -2.88908
|  5> N          4.65227       -1.14316       -3.25969
|  6> C          2.75226       -2.29204       -3.72803
|  7> H          1.77836       -2.48960       -3.51274
|  8> H          2.94861       -2.20854       -4.71681
|  9> H          5.14672       -0.51251       -2.63385
| 10> H          4.78303       -1.00720       -4.25350
| 11> H          1.95294       -1.69278       -1.42424
| 12> H          2.82618       -0.17973       -1.45886
| 13> H          3.57606       -1.60596       -0.78312
| 14> *
| 15>
| 16> %MaxCore 64000
| 17>
| 18> %pal nprocs 8
| 19> end
| 20>
| 21> %scf
| 22>   MaxIter 150
| 23> end
| 24>
| 25>
| 26>                          ****END OF INPUT****

CARTESIAN COORDINATES (ANGSTROEM)
---------------------------------
  C      2.916320   -1.242590   -1.543130
  C      3.466590   -1.590970   -2.889080
  N      4.652270   -1.143160   -3.259690
  C      2.752260   -2.292040   -3.728030
  H      1.778360   -2.489600   -3.512740
  H      2.948610   -2.208540   -4.716810
  H      5.146720   -0.512510   -2.633850
  H      4.783030   -1.007200   -4.253500
  H      1.952940   -1.692780   -1.424240
  H      2.826180   -0.179730   -1.458860
  H      3.576060   -1.605960   -0.783120

 Total Charge           Charge          ....    0
 Multiplicity           Mult            ....    1
 Number of Electrons    NEL             ....   32
 Basis Dimension        Dim             ....  166

ORBITAL ENERGIES
----------------

  NO   OCC          E(Eh)            E(eV)
   0   2.0000     -14.419525      -392.3752
   1   2.0000     -10.297323      -280.2044
   2   2.0000     -10.264706      -279.3169
   3   2.0000     -10.202387      -277.6211
   4   2.0000      -1.048952       -28.5434
   5   2.0000      -0.875404       -23.8210
   6   2.0000      -0.806498       -21.9459
   7   2.0000      -0.673790       -18.3348
   8   2.0000      -0.626821       -17.0567
   9   2.0000      -0.574357       -15.6291
  10   2.0000      -0.536132       -14.5889
  11   2.0000      -0.495547       -13.4845
  12   2.0000      -0.487958       -13.2780
  13   2.0000      -0.453150       -12.3308
  14   2.0000      -0.423146       -11.5144
  15   2.0000      -0.284459        -7.7405
  16   0.0000       0.105964         2.8834
  17   0.0000       0.126500         3.4422
  18   0.0000       0.156928         4.2702
  19   0.0000       0.167627         4.5614
  20   0.0000       0.185451         5.0464

MULLIKEN ATOMIC CHARGES
-----------------------
   0 C :   -0.328871
   1 C :    0.214916
   2 N :   -0.493426
   3 C :   -0.400706
   4 H :    0.090876
   5 H :    0.075924
   6 H :    0.238219
   7 H :    0.242025
   8 H :    0.120238
   9 H :    0.120518
  10 H :    0.120287
Sum of atomic charges:    0.0000000

LOEWDIN ATOMIC CHARGES
----------------------
   0 C :   -0.243857
   1 C :   -0.387809
   2 N :   -0.015612
   3 C :   -0.280090
   4 H :    0.105166
   5 H :    0.099621
   6 H :    0.169957
   7 H :    0.176143
   8 H :    0.131144
   9 H :    0.122820
  10 H :    0.122518

  Mayer bond orders larger than 0.100000
B(  0-C ,  1-C ) :   0.9531 B(  0-C ,  8-H ) :   0.9870 B(  0-C ,  9-H ) :   0.9640
B(  0-C , 10-H ) :   0.9738 B(  1-C ,  2-N ) :   1.1261 B(  1-C ,  3-C ) :   1.7908
B(  2-N ,  6-H ) :   0.9271 B(  2-N ,  7-H ) :   0.9206 B(  3-C ,  4-H ) :   0.9943
B(  3-C ,  5-H ) :   0.9982

Dispersion correction           -0.001687471
FINAL SINGLE POINT ENERGY      -173.261395158310

DIPOLE MOMENT
-------------
                                X             Y             Z
Electronic contribution:      1.53774      -0.13542      -0.91119
Nuclear contribution   :     -1.18794       0.95232       1.07877
                        -----------------------------------------
Total Dipole Moment    :      0.34980       0.81689       0.16759
                        -----------------------------------------
Magnitude (a.u.)       :      0.90430
Magnitude (Debye)      :      2.29855

Rotational constants in cm-1:     0.358436     0.301769     0.169913
Rotational constants in MHz : 10745.629007  9046.806054  5093.859032

                             ****ORCA TERMINATED NORMALLY****
TOTAL RUN TIME: 0 days 0 hours 0 minutes 12 seconds 919 msec
