                         Program Version 5.0.0 -  RELEASE  -
|  1> !wB97X-D3 RIJCOSX def2-TZVP def2/J TightSCF
|  2> *xyz 0 1
|  3> C          1.72854        1.42432       -5.63944
|  4> S          2.25263       -0.18811       -6.27184
|  5> O          3.56261       -0.44446       -5.63155
|  6> O          2.34494       -0.03374       -7.69650
|  7> F          1.26606       -1.15918       -5.80536
|  8> H          0.77944        1.68154       -6.06127
|  9> H          2.45151        2.16548       -5.90944
| 10> H          1.64478        1.37937       -4.57367
| 11> *
| 12>
| 13> %MaxCore 64000
| 14>
| 15> %pal nprocs 8
| 16> end
| 17>
| 18> %scf
| 19>   MaxIter 150
| 20> end
| 21>
| 22>
| 23>                          ****END OF INPUT****

CARTESIAN COORDINATES (ANGSTROEM)
---------------------------------
  C      1.728540    1.424320   -5.639440
  S      2.252630   -0.188110   -6.271840
  O      3.562610   -0.444460   -5.631550
  O      2.344940   -0.033740   -7.696500
  F      1.266060   -1.159180   -5.805360
  H      0.779440    1.681540   -6.061270
  H      2.451510    2.165480   -5.909440
  H      1.644780    1.379370   -4.573670

 Total Charge           Charge          ....    0
 Multiplicity           Mult            ....    1
 Number of Electrons    NEL             ....   50
 Basis Dimension        Dim             ....  179

ORBITAL ENERGIES
----------------

  NO   OCC          E(Eh)            E(eV)
   0   2.0000     -89.201532     -2427.2971
   1   2.0000     -24.902537      -677.6325
   2   2.0000     -19.247781      -523.7588
   3   2.0000     -19.232683      -523.3479
   4   2.0000     -10.333949      -281.2010
   5   2.0000      -8.264055      -224.8764
   6   2.0000      -6.221437      -169.2939
   7   2.0000      -6.215478      -169.1318
   8   2.0000      -6.214485      -169.1047
   9   2.0000      -1.489508       -40.5316
  10   2.0000      -1.226268       -33.3685
  11   2.0000      -1.124401       -30.5965
  12   2.0000      -0.914778       -24.8924
  13   2.0000      -0.821833       -22.3632
  14   2.0000      -0.702590       -19.1185
  15   2.0000      -0.685084       -18.6421
  16   2.0000      -0.659655       -17.9501
  17   2.0000      -0.579092       -15.7579
  18   2.0000      -0.575901       -15.6711
  19   2.0000      -0.565925       -15.3996
  20   2.0000      -0.537304       -14.6208
  21   2.0000      -0.487947       -13.2777
  22   2.0000      -0.437853       -11.9146
  23   2.0000      -0.423638       -11.5278
  24   2.0000      -0.406588       -11.0638
  25   0.0000       0.098491         2.6801
  26   0.0000       0.128317         3.4917
  27   0.0000       0.143525         3.9055
  28   0.0000       0.157953         4.2981
  29   0.0000       0.166950         4.5429

MULLIKEN ATOMIC CHARGES
-----------------------
   0 C :   -0.388546
   1 S :    0.868396
   2 O :   -0.457222
   3 O :   -0.408855
   4 F :   -0.107860
   5 H :    0.155869
   6 H :    0.179361
   7 H :    0.158858
Sum of atomic charges:   -0.0000000

LOEWDIN ATOMIC CHARGES
----------------------
   0 C :   -0.394923
   1 S :    0.527488
   2 O :   -0.316831
   3 O :   -0.260801
   4 F :    0.075970
   5 H :    0.117949
   6 H :    0.131818
   7 H :    0.119330

  Mayer bond orders larger than 0.100000
B(  0-C ,  1-S ) :   0.9198 B(  0-C ,  5-H ) :   0.9466 B(  0-C ,  6-H ) :   0.9482
B(  0-C ,  7-H ) :   0.9483 B(  1-S ,  2-O ) :   1.8907 B(  1-S ,  3-O ) :   1.9466
B(  1-S ,  4-F ) :   1.1335

Dispersion correction           -0.001528799
FINAL SINGLE POINT ENERGY      -688.425615555213

DIPOLE MOMENT
-------------
                                X             Y             Z
Electronic contribution:     -0.51377      -5.41335      -0.83125
Nuclear contribution   :     -0.74433       6.23228       1.56758
                        -----------------------------------------
Total Dipole Moment    :     -1.25810       0.81893       0.73633
                        -----------------------------------------
Magnitude (a.u.)       :      1.67202
Magnitude (Debye)      :      4.24993

Rotational constants in cm-1:     0.164764     0.152261     0.145794
Rotational constants in MHz :  4939.488001  4564.674339  4370.797804

                             ****ORCA TERMINATED NORMALLY****
TOTAL RUN TIME: 0 days 0 hours 0 minutes 12 seconds 704 msec
