                         Program Version 5.0.0 -  RELEASE  -
|  1> !wB97X-D3 RIJCOSX def2-TZVP def2/J TightSCF xyzfile
|  2>
|  3> *xyzfile 0 1 D3.xyz
|  4>
|  5> %MaxCore 64000
|  6>
|  7> %pal nprocs 18
|  8> end
|  9>
| 10> %scf
| 11>   MaxIter 150
| 12> end
| 13>
| 14>
| 15>                          ****END OF INPUT****

CARTESIAN COORDINATES (ANGSTROEM)
---------------------------------
  C      2.916324   -1.242589   -1.543125
  C      0.704661    1.443129   -4.503630
  C      1.728539    1.424320   -5.639443
  H      2.646718    1.953794   -5.381054
  H      1.299916    1.930613   -6.503614
  S      2.252625   -0.188115   -6.271840
  C      3.466585   -1.590971   -2.889082
  C      4.652275   -1.143164   -3.259692
  N      2.752264   -2.292043   -3.728029
  H      1.778364   -2.489604   -3.512738
  H      2.948612   -2.208544   -4.716813
  H      5.146723   -0.512508   -2.633852
  H      4.783030   -1.007203   -4.253498
  O      3.562607   -0.444464   -5.631552
  F      2.344944   -0.033742   -7.696501
  C      2.804084    0.290698   -1.359243
  C      1.052550    0.695659   -3.214915
  H     -0.232483    1.032925   -4.884449
  H      0.511700    2.495794   -4.267966
  C      2.388380    1.093669   -2.597108
  H      3.763425    0.674718   -0.999889
  H      2.094788    0.461222   -0.545756
  O      1.266058   -1.159177   -5.805365
  H      3.167316    1.013242   -3.359430
  H      2.357690    2.149375   -2.310997
  H      1.039284   -0.368429   -3.449329
  H      0.250787    0.865605   -2.488283
  H      1.940472   -1.716529   -1.441161
  H      3.558569   -1.663433   -0.766371

 Total Charge           Charge          ....    0
 Multiplicity           Mult            ....    1
 Number of Electrons    NEL             ....  112
 Basis Dimension        Dim             ....  505

ORBITAL ENERGIES
----------------

  NO   OCC          E(Eh)            E(eV)
   0   2.0000     -89.208857     -2427.4964
   1   2.0000     -24.921204      -678.1404
   2   2.0000     -19.253513      -523.9147
   3   2.0000     -19.244392      -523.6665
   4   2.0000     -14.390737      -391.5919
   5   2.0000     -10.343687      -281.4660
   6   2.0000     -10.306340      -280.4498
   7   2.0000     -10.275944      -279.6226
   8   2.0000     -10.271183      -279.4931
   9   2.0000     -10.267887      -279.4034
  10   2.0000     -10.265791      -279.3464
  11   2.0000     -10.263126      -279.2738
  12   2.0000     -10.170097      -276.7424
  13   2.0000      -8.272548      -225.1075
  14   2.0000      -6.229758      -169.5203
  15   2.0000      -6.223503      -169.3501
  16   2.0000      -6.223212      -169.3422
  17   2.0000      -1.517319       -41.2883
  18   2.0000      -1.231096       -33.4998
  19   2.0000      -1.131460       -30.7886
  20   2.0000      -1.027653       -27.9639
  21   2.0000      -0.957997       -26.0684
  22   2.0000      -0.912803       -24.8386
  23   2.0000      -0.878243       -23.8982
  24   2.0000      -0.841005       -22.8849
  25   2.0000      -0.811371       -22.0785
  26   2.0000      -0.786359       -21.3979
  27   2.0000      -0.744571       -20.2608
  28   2.0000      -0.709976       -19.3194
  29   2.0000      -0.705437       -19.1959
  30   2.0000      -0.680108       -18.5067
  31   2.0000      -0.669610       -18.2210
  32   2.0000      -0.640624       -17.4323
  33   2.0000      -0.607595       -16.5335
  34   2.0000      -0.598321       -16.2811
  35   2.0000      -0.596260       -16.2251
  36   2.0000      -0.579480       -15.7684
  37   2.0000      -0.569160       -15.4876
  38   2.0000      -0.549822       -14.9614
  39   2.0000      -0.535922       -14.5832
  40   2.0000      -0.525313       -14.2945
  41   2.0000      -0.511506       -13.9188
  42   2.0000      -0.499218       -13.5844
  43   2.0000      -0.481046       -13.0899
  44   2.0000      -0.475288       -12.9332
  45   2.0000      -0.458836       -12.4856
  46   2.0000      -0.453245       -12.3334
  47   2.0000      -0.444787       -12.1033
  48   2.0000      -0.437742       -11.9116
  49   2.0000      -0.429870       -11.6974
  50   2.0000      -0.420463       -11.4414
  51   2.0000      -0.416471       -11.3327
  52   2.0000      -0.407080       -11.0772
  53   2.0000      -0.398827       -10.8526
  54   2.0000      -0.392091       -10.6693
  55   2.0000      -0.249854        -6.7989
  56   0.0000       0.092400         2.5143
  57   0.0000       0.096370         2.6224
  58   0.0000       0.120107         3.2683
  59   0.0000       0.127462         3.4684
  60   0.0000       0.130297         3.5456

MULLIKEN ATOMIC CHARGES
-----------------------
   0 C :   -0.222128
   1 C :   -0.169755
   2 C :   -0.333034
   3 H :    0.182774
   4 H :    0.160154
   5 S :    0.921148
   6 C :    0.170990
   7 C :   -0.420942
   8 N :   -0.425390
   9 H :    0.222393
  10 H :    0.230480
  11 H :    0.077616
  12 H :    0.115590
  13 O :   -0.463362
  14 F :   -0.093213
  15 C :   -0.250345
  16 C :   -0.241444
  17 H :    0.132073
  18 H :    0.125166
  19 C :   -0.141619
  20 H :    0.121998
  21 H :    0.097238
  22 O :   -0.457129
  23 H :    0.124344
  24 H :    0.098169
  25 H :    0.096134
  26 H :    0.109506
  27 H :    0.100549
  28 H :    0.132038
Sum of atomic charges:    0.0000000

LOEWDIN ATOMIC CHARGES
----------------------
   0 C :   -0.214925
   1 C :   -0.276400
   2 C :   -0.364206
   3 H :    0.147372
   4 H :    0.137550
   5 S :    0.554868
   6 C :   -0.385340
   7 C :   -0.291093
   8 N :    0.016461
   9 H :    0.159979
  10 H :    0.162977
  11 H :    0.099437
  12 H :    0.099154
  13 O :   -0.287065
  14 F :    0.110199
  15 C :   -0.251699
  16 C :   -0.267013
  17 H :    0.145402
  18 H :    0.148075
  19 C :   -0.267970
  20 H :    0.138299
  21 H :    0.132830
  22 O :   -0.279828
  23 H :    0.141972
  24 H :    0.133387
  25 H :    0.136114
  26 H :    0.138791
  27 H :    0.133034
  28 H :    0.149639

  Mayer bond orders larger than 0.100000
B(  0-C ,  6-C ) :   0.9244 B(  0-C , 15-C ) :   0.9520 B(  0-C , 27-H ) :   0.9888
B(  0-C , 28-H ) :   0.9792 B(  1-C ,  2-C ) :   0.9613 B(  1-C , 16-C ) :   0.9838
B(  1-C , 17-H ) :   0.9758 B(  1-C , 18-H ) :   0.9593 B(  2-C ,  3-H ) :   0.9428
B(  2-C ,  4-H ) :   0.9479 B(  2-C ,  5-S ) :   0.9125 B(  5-S , 13-O ) :   1.8168
B(  5-S , 14-F ) :   1.1656 B(  5-S , 22-O ) :   1.8544 B(  6-C ,  7-C ) :   1.7005
B(  6-C ,  8-N ) :   1.2040 B(  7-C , 11-H ) :   1.0118 B(  7-C , 12-H ) :   1.0065
B(  8-N ,  9-H ) :   0.9270 B(  8-N , 10-H ) :   0.9133 B( 15-C , 19-C ) :   0.9865
B( 15-C , 20-H ) :   0.9811 B( 15-C , 21-H ) :   0.9784 B( 16-C , 19-C ) :   0.9197
B( 16-C , 25-H ) :   0.9768 B( 16-C , 26-H ) :   0.9689 B( 19-C , 23-H ) :   0.9686
B( 19-C , 24-H ) :   0.9672

Dispersion correction           -0.016391803
FINAL SINGLE POINT ENERGY     -1017.733460313983

DIPOLE MOMENT
-------------
                                X             Y             Z
Electronic contribution:      0.02079      -4.14274     -22.56328
Nuclear contribution   :     -1.50273       5.82595      21.72909
                        -----------------------------------------
Total Dipole Moment    :     -1.48194       1.68321      -0.83419
                        -----------------------------------------
Magnitude (a.u.)       :      2.39274
Magnitude (Debye)      :      6.08187

Rotational constants in cm-1:     0.036883     0.018294     0.014745
Rotational constants in MHz :  1105.724679   548.429785   442.050481

                             ****ORCA TERMINATED NORMALLY****
TOTAL RUN TIME: 0 days 0 hours 1 minutes 27 seconds 418 msec
