                         Program Version 5.0.0 -  RELEASE  -
|  1> !wB97X-D3 RIJCOSX def2-SVPD def2/J TightSCF
|  2> *xyz -1 1
|  3> C         -0.81136       -2.90878       -4.60763
|  4> C         -1.91658       -2.48508       -3.64367
|  5> H         -2.55452       -1.71243       -4.09199
|  6> C         -1.36353       -1.98134       -2.29361
|  7> H         -2.55345       -3.35567       -3.45881
|  8> O         -0.35039       -2.74969       -1.79601
|  9> H         -2.22622       -1.90839       -1.60204
| 10> H         -1.05135       -0.91567       -2.44333
| 11> H         -1.24783       -3.24801       -5.52377
| 12> H         -0.24047       -3.70079       -4.16978
| 13> H         -0.17107       -2.07453       -4.80501
| 14> *
| 15>
| 16> %MaxCore 64000
| 17> %pal nprocs 18
| 18> end
| 19>
| 20> %scf
| 21>   MaxIter 150
| 22> end
| 23>
| 24>
| 25>                          ****END OF INPUT****

CARTESIAN COORDINATES (ANGSTROEM)
---------------------------------
  C     -0.811360   -2.908780   -4.607630
  C     -1.916580   -2.485080   -3.643670
  H     -2.554520   -1.712430   -4.091990
  C     -1.363530   -1.981340   -2.293610
  H     -2.553450   -3.355670   -3.458810
  O     -0.350390   -2.749690   -1.796010
  H     -2.226220   -1.908390   -1.602040
  H     -1.051350   -0.915670   -2.443330
  H     -1.247830   -3.248010   -5.523770
  H     -0.240470   -3.700790   -4.169780
  H     -0.171070   -2.074530   -4.805010

 Total Charge           Charge          ....   -1
 Multiplicity           Mult            ....    1
 Number of Electrons    NEL             ....   34
 Basis Dimension        Dim             ....  139

ORBITAL ENERGIES
----------------

  NO   OCC          E(Eh)            E(eV)
   0   2.0000     -18.911940      -514.6201
   1   2.0000     -10.105854      -274.9943
   2   2.0000     -10.102649      -274.9071
   3   2.0000     -10.097932      -274.7787
   4   2.0000      -0.790232       -21.5033
   5   2.0000      -0.689787       -18.7700
   6   2.0000      -0.573294       -15.6001
   7   2.0000      -0.464633       -12.6433
   8   2.0000      -0.376763       -10.2522
   9   2.0000      -0.364871        -9.9286
  10   2.0000      -0.310650        -8.4532
  11   2.0000      -0.284956        -7.7540
  12   2.0000      -0.255363        -6.9488
  13   2.0000      -0.242841        -6.6080
  14   2.0000      -0.207658        -5.6507
  15   2.0000      -0.065129        -1.7723
  16   2.0000      -0.061185        -1.6649
  17   0.0000       0.233974         6.3667
  18   0.0000       0.257729         7.0132
  19   0.0000       0.276201         7.5158
  20   0.0000       0.303755         8.2656
  21   0.0000       0.325100         8.8464

MULLIKEN ATOMIC CHARGES
-----------------------
   0 C :    0.596696
   1 C :   -0.506244
   2 H :   -0.099040
   3 C :    0.442345
   4 H :   -0.064668
   5 O :   -0.893912
   6 H :   -0.171370
   7 H :   -0.114805
   8 H :   -0.098365
   9 H :   -0.015975
  10 H :   -0.074661
Sum of atomic charges:   -1.0000000

LOEWDIN ATOMIC CHARGES
----------------------
   0 C :    0.080134
   1 C :   -0.116219
   2 H :   -0.009446
   3 C :   -0.218342
   4 H :   -0.002084
   5 O :   -0.565786
   6 H :   -0.032076
   7 H :   -0.025269
   8 H :   -0.048420
   9 H :   -0.034012
  10 H :   -0.028478

  Mayer bond orders larger than 0.100000
B(  0-C ,  1-C ) :   1.2514 B(  0-C ,  8-H ) :   0.8061 B(  0-C ,  9-H ) :   0.8301
B(  0-C , 10-H ) :   0.8306 B(  1-C ,  2-H ) :   0.9979 B(  1-C ,  3-C ) :   1.0545
B(  1-C ,  4-H ) :   0.9565 B(  1-C ,  6-H ) :   0.1370 B(  1-C ,  7-H ) :   0.1331
B(  1-C ,  8-H ) :   0.1899 B(  1-C ,  9-H ) :   0.1990 B(  1-C , 10-H ) :   0.1918
B(  3-C ,  5-O ) :   1.2020 B(  3-C ,  6-H ) :   0.9538 B(  3-C ,  7-H ) :   0.9459

Dispersion correction           -0.001934106
FINAL SINGLE POINT ENERGY      -193.554039560363

DIPOLE MOMENT
-------------
                                X             Y             Z
Electronic contribution:      1.21169      -0.52068       2.47600
Nuclear contribution   :     -2.20255       0.75707      -4.26861
                        -----------------------------------------
Total Dipole Moment    :     -0.99086       0.23639      -1.79262
                        -----------------------------------------
Magnitude (a.u.)       :      2.06183
Magnitude (Debye)      :      5.24077

Rotational constants in cm-1:     0.480704     0.187939     0.150770
Rotational constants in MHz : 14411.155440  5634.276828  4519.982802

                             ****ORCA TERMINATED NORMALLY****
TOTAL RUN TIME: 0 days 0 hours 0 minutes 6 seconds 382 msec
