                         Program Version 5.0.0 -  RELEASE  -
|  1> !wB97X-D3 RIJCOSX def2-SVPD def2/J TightSCF
|  2> *xyz 1 1
|  3> C          1.64703       -2.34528       -5.02041
|  4> C          0.21763       -1.81402       -4.92439
|  5> C          2.20996       -2.81239       -3.66571
|  6> H          2.30838       -1.58870       -5.45713
|  7> H          1.67429       -3.20348       -5.69739
|  8> C          2.48901       -1.66851       -2.73754
|  9> N          3.59631       -0.94761       -2.95225
| 10> N          1.66394       -1.41369       -1.77781
| 11> H          0.81164       -1.96318       -1.70275
| 12> H          1.84550       -0.63508       -1.15875
| 13> H          4.20535       -1.17600       -3.73383
| 14> H          3.81723       -0.12585       -2.40604
| 15> H          3.14311       -3.36280       -3.81152
| 16> H          1.48768       -3.45893       -3.16521
| 17> H         -0.11459       -1.50684       -5.89401
| 18> H          0.19193       -0.97796       -4.25713
| 19> H         -0.42543       -2.58523       -4.55479
| 20> *
| 21>
| 22> %MaxCore 64000
| 23> %pal nprocs 18
| 24> end
| 25>
| 26> %scf
| 27>   MaxIter 150
| 28> end
| 29>
| 30>
| 31>                          ****END OF INPUT****

CARTESIAN COORDINATES (ANGSTROEM)
---------------------------------
  C      1.647030   -2.345280   -5.020410
  C      0.217630   -1.814020   -4.924390
  C      2.209960   -2.812390   -3.665710
  H      2.308380   -1.588700   -5.457130
  H      1.674290   -3.203480   -5.697390
  C      2.489010   -1.668510   -2.737540
  N      3.596310   -0.947610   -2.952250
  N      1.663940   -1.413690   -1.777810
  H      0.811640   -1.963180   -1.702750
  H      1.845500   -0.635080   -1.158750
  H      4.205350   -1.176000   -3.733830
  H      3.817230   -0.125850   -2.406040
  H      3.143110   -3.362800   -3.811520
  H      1.487680   -3.458930   -3.165210
  H     -0.114590   -1.506840   -5.894010
  H      0.191930   -0.977960   -4.257130
  H     -0.425430   -2.585230   -4.554790

 Total Charge           Charge          ....    1
 Multiplicity           Mult            ....    1
 Number of Electrons    NEL             ....   48
 Basis Dimension        Dim             ....  208

ORBITAL ENERGIES
----------------

  NO   OCC          E(Eh)            E(eV)
   0   2.0000     -14.687293      -399.6615
   1   2.0000     -14.677689      -399.4002
   2   2.0000     -10.612905      -288.7918
   3   2.0000     -10.483694      -285.2758
   4   2.0000     -10.451777      -284.4073
   5   2.0000     -10.415976      -283.4331
   6   2.0000      -1.314269       -35.7631
   7   2.0000      -1.215226       -33.0680
   8   2.0000      -1.084487       -29.5104
   9   2.0000      -0.996007       -27.1027
  10   2.0000      -0.938713       -25.5437
  11   2.0000      -0.892111       -24.2756
  12   2.0000      -0.872637       -23.7457
  13   2.0000      -0.838710       -22.8225
  14   2.0000      -0.802771       -21.8445
  15   2.0000      -0.756133       -20.5754
  16   2.0000      -0.725695       -19.7472
  17   2.0000      -0.698664       -19.0116
  18   2.0000      -0.669985       -18.2312
  19   2.0000      -0.658446       -17.9172
  20   2.0000      -0.600315       -16.3354
  21   2.0000      -0.595374       -16.2010
  22   2.0000      -0.590598       -16.0710
  23   2.0000      -0.579282       -15.7631
  24   0.0000      -0.125473        -3.4143
  25   0.0000      -0.078654        -2.1403
  26   0.0000      -0.038943        -1.0597
  27   0.0000      -0.033299        -0.9061
  28   0.0000      -0.011085        -0.3016

MULLIKEN ATOMIC CHARGES
-----------------------
   0 C :   -0.327178
   1 C :    0.659305
   2 C :   -0.033127
   3 H :   -0.014128
   4 H :   -0.009261
   5 C :    0.747525
   6 N :   -0.049788
   7 N :   -0.009913
   8 H :    0.111232
   9 H :   -0.057777
  10 H :    0.070891
  11 H :   -0.096061
  12 H :    0.007951
  13 H :    0.074559
  14 H :   -0.019452
  15 H :   -0.101734
  16 H :    0.046957
Sum of atomic charges:    1.0000000

LOEWDIN ATOMIC CHARGES
----------------------
   0 C :   -0.044398
   1 C :    0.137043
   2 C :    0.042600
   3 H :    0.027002
   4 H :    0.040119
   5 C :   -0.039118
   6 N :    0.275170
   7 N :    0.283000
   8 H :    0.062677
   9 H :    0.057214
  10 H :    0.053412
  11 H :    0.044526
  12 H :    0.048471
  13 H :    0.038160
  14 H :    0.001569
  15 H :   -0.022930
  16 H :   -0.004519

  Mayer bond orders larger than 0.100000
B(  0-C ,  1-C ) :   1.3059 B(  0-C ,  2-C ) :   1.1467 B(  0-C ,  3-H ) :   0.9222
B(  0-C ,  4-H ) :   0.9849 B(  0-C , 13-H ) :   0.1132 B(  0-C , 14-H ) :   0.1891
B(  0-C , 15-H ) :   0.2071 B(  0-C , 16-H ) :   0.1822 B(  1-C , 14-H ) :   0.8207
B(  1-C , 15-H ) :   0.8261 B(  1-C , 16-H ) :   0.7938 B(  2-C ,  3-H ) :   0.1170
B(  2-C ,  5-C ) :   1.0980 B(  2-C ,  6-N ) :   0.1047 B(  2-C , 12-H ) :   0.9307
B(  2-C , 13-H ) :   0.8475 B(  5-C ,  6-N ) :   1.0600 B(  5-C ,  7-N ) :   1.1068
B(  5-C ,  9-H ) :  -0.1485 B(  5-C , 11-H ) :  -0.1441 B(  5-C , 13-H ) :   0.1169
B(  6-N ,  7-N ) :   0.1541 B(  6-N , 10-H ) :   1.0811 B(  6-N , 11-H ) :   1.2786
B(  7-N ,  8-H ) :   1.0483 B(  7-N ,  9-H ) :   1.2786 B(  8-H ,  9-H ) :  -0.1585
B( 10-H , 11-H ) :  -0.1666

Dispersion correction           -0.004634589
FINAL SINGLE POINT ENERGY      -268.101448318230

DIPOLE MOMENT
-------------
                                X             Y             Z
Electronic contribution:      3.26795       1.27818       4.37839
Nuclear contribution   :     -2.54148      -0.64126      -3.14660
                        -----------------------------------------
Total Dipole Moment    :      0.72646       0.63693       1.23178
                        -----------------------------------------
Magnitude (a.u.)       :      1.56548
Magnitude (Debye)      :      3.97913

Rotational constants in cm-1:     0.179759     0.078784     0.067518
Rotational constants in MHz :  5389.046501  2361.884510  2024.132984

                             ****ORCA TERMINATED NORMALLY****
TOTAL RUN TIME: 0 days 0 hours 0 minutes 12 seconds 940 msec
