                         Program Version 5.0.0 -  RELEASE  -
|  1> !wB97X-D3 RIJCOSX def2-SVPD def2/J TightSCF
|  2> *xyz 0 1
|  3> C         -0.81136       -2.90878       -4.60763
|  4> C         -1.91658       -2.48508       -3.64367
|  5> H         -2.55452       -1.71243       -4.09199
|  6> C         -1.36353       -1.98134       -2.29361
|  7> H         -2.55345       -3.35567       -3.45881
|  8> F         -0.35039       -2.74969       -1.79601
|  9> H         -2.22622       -1.90839       -1.60204
| 10> H         -1.05135       -0.91567       -2.44333
| 11> H         -1.24783       -3.24801       -5.52377
| 12> H         -0.24047       -3.70079       -4.16978
| 13> H         -0.17107       -2.07453       -4.80501
| 14> *
| 15>
| 16> %MaxCore 64000
| 17> %pal nprocs 18
| 18> end
| 19>
| 20> %scf
| 21>   MaxIter 150
| 22> end
| 23>
| 24>
| 25>                          ****END OF INPUT****

CARTESIAN COORDINATES (ANGSTROEM)
---------------------------------
  C     -0.811360   -2.908780   -4.607630
  C     -1.916580   -2.485080   -3.643670
  H     -2.554520   -1.712430   -4.091990
  C     -1.363530   -1.981340   -2.293610
  H     -2.553450   -3.355670   -3.458810
  F     -0.350390   -2.749690   -1.796010
  H     -2.226220   -1.908390   -1.602040
  H     -1.051350   -0.915670   -2.443330
  H     -1.247830   -3.248010   -5.523770
  H     -0.240470   -3.700790   -4.169780
  H     -0.171070   -2.074530   -4.805010

 Total Charge           Charge          ....    0
 Multiplicity           Mult            ....    1
 Number of Electrons    NEL             ....   34
 Basis Dimension        Dim             ....  139

ORBITAL ENERGIES
----------------

  NO   OCC          E(Eh)            E(eV)
   0   2.0000     -24.792623      -674.6416
   1   2.0000     -10.369858      -282.1782
   2   2.0000     -10.296423      -280.1799
   3   2.0000     -10.275084      -279.5993
   4   2.0000      -1.303290       -35.4643
   5   2.0000      -0.899266       -24.4703
   6   2.0000      -0.798410       -21.7258
   7   2.0000      -0.701142       -19.0790
   8   2.0000      -0.614314       -16.7163
   9   2.0000      -0.600066       -16.3286
  10   2.0000      -0.577988       -15.7279
  11   2.0000      -0.537670       -14.6308
  12   2.0000      -0.497989       -13.5510
  13   2.0000      -0.471511       -12.8305
  14   2.0000      -0.452653       -12.3173
  15   2.0000      -0.422589       -11.4992
  16   2.0000      -0.416883       -11.3440
  17   0.0000       0.092295         2.5115
  18   0.0000       0.117498         3.1973
  19   0.0000       0.128412         3.4943
  20   0.0000       0.147977         4.0267
  21   0.0000       0.169097         4.6014

MULLIKEN ATOMIC CHARGES
-----------------------
   0 C :    0.549768
   1 C :   -0.545033
   2 H :   -0.048415
   3 C :    0.677782
   4 H :   -0.031071
   5 F :   -0.456242
   6 H :   -0.049513
   7 H :    0.001018
   8 H :   -0.051812
   9 H :   -0.000842
  10 H :   -0.045640
Sum of atomic charges:   -0.0000000

LOEWDIN ATOMIC CHARGES
----------------------
   0 C :    0.114583
   1 C :   -0.068976
   2 H :    0.027330
   3 C :    0.100070
   4 H :    0.020035
   5 F :   -0.213901
   6 H :    0.029572
   7 H :    0.038353
   8 H :   -0.017653
   9 H :   -0.015975
  10 H :   -0.013438

  Mayer bond orders larger than 0.100000
B(  0-C ,  1-C ) :   1.2746 B(  0-C ,  8-H ) :   0.8426 B(  0-C ,  9-H ) :   0.8394
B(  0-C , 10-H ) :   0.8427 B(  1-C ,  2-H ) :   0.9849 B(  1-C ,  3-C ) :   1.1734
B(  1-C ,  4-H ) :   0.9604 B(  1-C ,  6-H ) :   0.1030 B(  1-C ,  7-H ) :   0.1072
B(  1-C ,  8-H ) :   0.1728 B(  1-C ,  9-H ) :   0.1628 B(  1-C , 10-H ) :   0.1696
B(  3-C ,  5-F ) :   0.7230 B(  3-C ,  6-H ) :   0.9344 B(  3-C ,  7-H ) :   0.9107

Dispersion correction           -0.001926563
FINAL SINGLE POINT ENERGY      -218.164700187507

DIPOLE MOMENT
-------------
                                X             Y             Z
Electronic contribution:      2.58377      -0.69279       5.47770
Nuclear contribution   :     -3.10989       1.02097      -5.82098
                        -----------------------------------------
Total Dipole Moment    :     -0.52612       0.32818      -0.34328
                        -----------------------------------------
Magnitude (a.u.)       :      0.70876
Magnitude (Debye)      :      1.80153

Rotational constants in cm-1:     0.466172     0.177379     0.142652
Rotational constants in MHz : 13975.492374  5317.681709  4276.599690

                             ****ORCA TERMINATED NORMALLY****
TOTAL RUN TIME: 0 days 0 hours 0 minutes 6 seconds 277 msec
