                         Program Version 5.0.0 -  RELEASE  -
|  1> !wB97X-D3 RIJCOSX def2-SVPD def2/J TightSCF
|  2> *xyz 0 1
|  3> C          1.64703       -2.34528       -5.02041
|  4> C          0.21763       -1.81402       -4.92439
|  5> C          2.20996       -2.81239       -3.66571
|  6> H          2.30838       -1.58870       -5.45713
|  7> H          1.67429       -3.20348       -5.69739
|  8> C          2.48901       -1.66851       -2.73754
|  9> C          3.59631       -0.94761       -2.95225
| 10> N          1.66394       -1.41369       -1.77781
| 11> H          0.81164       -1.96318       -1.70275
| 12> H          1.84550       -0.63508       -1.15875
| 13> H          4.20535       -1.17600       -3.73383
| 14> H          3.81723       -0.12585       -2.40604
| 15> H          3.14311       -3.36280       -3.81152
| 16> H          1.48768       -3.45893       -3.16521
| 17> H         -0.11459       -1.50684       -5.89401
| 18> H          0.19193       -0.97796       -4.25713
| 19> H         -0.42543       -2.58523       -4.55479
| 20> *
| 21>
| 22> %MaxCore 64000
| 23> %pal nprocs 18
| 24> end
| 25>
| 26> %scf
| 27>   MaxIter 150
| 28> end
| 29>
| 30>
| 31>                          ****END OF INPUT****

CARTESIAN COORDINATES (ANGSTROEM)
---------------------------------
  C      1.647030   -2.345280   -5.020410
  C      0.217630   -1.814020   -4.924390
  C      2.209960   -2.812390   -3.665710
  H      2.308380   -1.588700   -5.457130
  H      1.674290   -3.203480   -5.697390
  C      2.489010   -1.668510   -2.737540
  C      3.596310   -0.947610   -2.952250
  N      1.663940   -1.413690   -1.777810
  H      0.811640   -1.963180   -1.702750
  H      1.845500   -0.635080   -1.158750
  H      4.205350   -1.176000   -3.733830
  H      3.817230   -0.125850   -2.406040
  H      3.143110   -3.362800   -3.811520
  H      1.487680   -3.458930   -3.165210
  H     -0.114590   -1.506840   -5.894010
  H      0.191930   -0.977960   -4.257130
  H     -0.425430   -2.585230   -4.554790

 Total Charge           Charge          ....    0
 Multiplicity           Mult            ....    1
 Number of Electrons    NEL             ....   48
 Basis Dimension        Dim             ....  208

ORBITAL ENERGIES
----------------

  NO   OCC          E(Eh)            E(eV)
   0   2.0000     -14.443181      -393.0189
   1   2.0000     -10.310851      -280.5725
   2   2.0000     -10.287804      -279.9454
   3   2.0000     -10.285361      -279.8789
   4   2.0000     -10.271661      -279.5061
   5   2.0000     -10.217616      -278.0355
   6   2.0000      -1.049692       -28.5636
   7   2.0000      -0.904719       -24.6187
   8   2.0000      -0.839289       -22.8382
   9   2.0000      -0.786889       -21.4123
  10   2.0000      -0.713867       -19.4253
  11   2.0000      -0.666966       -18.1491
  12   2.0000      -0.632777       -17.2187
  13   2.0000      -0.587759       -15.9937
  14   2.0000      -0.555162       -15.1067
  15   2.0000      -0.530709       -14.4413
  16   2.0000      -0.502827       -13.6826
  17   2.0000      -0.488351       -13.2887
  18   2.0000      -0.470594       -12.8055
  19   2.0000      -0.454608       -12.3705
  20   2.0000      -0.433026       -11.7832
  21   2.0000      -0.422308       -11.4916
  22   2.0000      -0.417998       -11.3743
  23   2.0000      -0.271951        -7.4002
  24   0.0000       0.087789         2.3889
  25   0.0000       0.112194         3.0530
  26   0.0000       0.117259         3.1908
  27   0.0000       0.120219         3.2713
  28   0.0000       0.139439         3.7943

MULLIKEN ATOMIC CHARGES
-----------------------
   0 C :   -0.377508
   1 C :    0.652173
   2 C :    0.231345
   3 H :   -0.027323
   4 H :   -0.068737
   5 C :   -0.104853
   6 C :    0.449428
   7 N :    0.141315
   8 H :   -0.026469
   9 H :   -0.111683
  10 H :   -0.142898
  11 H :   -0.485549
  12 H :    0.032524
  13 H :   -0.046201
  14 H :   -0.059795
  15 H :   -0.085480
  16 H :    0.029709
Sum of atomic charges:    0.0000000

LOEWDIN ATOMIC CHARGES
----------------------
   0 C :   -0.064129
   1 C :    0.116849
   2 C :    0.003270
   3 H :    0.020473
   4 H :    0.016893
   5 C :   -0.264998
   6 C :    0.168189
   7 N :    0.165997
   8 H :    0.011066
   9 H :    0.018630
  10 H :   -0.080983
  11 H :   -0.092129
  12 H :    0.028344
  13 H :    0.013529
  14 H :   -0.018562
  15 H :   -0.023872
  16 H :   -0.018567

  Mayer bond orders larger than 0.100000
B(  0-C ,  1-C ) :   1.2849 B(  0-C ,  2-C ) :   1.1546 B(  0-C ,  3-H ) :   0.9580
B(  0-C ,  4-H ) :   0.9830 B(  0-C , 13-H ) :   0.1418 B(  0-C , 14-H ) :   0.1993
B(  0-C , 15-H ) :   0.2126 B(  0-C , 16-H ) :   0.1932 B(  1-C , 14-H ) :   0.8045
B(  1-C , 15-H ) :   0.8410 B(  1-C , 16-H ) :   0.7901 B(  2-C ,  3-H ) :   0.1380
B(  2-C ,  5-C ) :   1.0681 B(  2-C ,  6-C ) :   0.1764 B(  2-C ,  7-N ) :   0.1144
B(  2-C , 12-H ) :   0.8611 B(  2-C , 13-H ) :   0.7554 B(  5-C ,  6-C ) :   1.8016
B(  5-C ,  7-N ) :   1.1613 B(  5-C , 11-H ) :   0.1639 B(  5-C , 12-H ) :   0.1190
B(  5-C , 13-H ) :   0.1915 B(  6-C ,  7-N ) :   0.2546 B(  6-C , 10-H ) :   0.8418
B(  6-C , 11-H ) :   0.7881 B(  7-N ,  8-H ) :   1.0477 B(  7-N ,  9-H ) :   1.2192
B(  8-H ,  9-H ) :  -0.1439

Dispersion correction           -0.004626231
FINAL SINGLE POINT ENERGY      -251.640157403293

DIPOLE MOMENT
-------------
                                X             Y             Z
Electronic contribution:      1.43523       0.27967       3.28900
Nuclear contribution   :     -2.15663      -0.43764      -3.01766
                        -----------------------------------------
Total Dipole Moment    :     -0.72140      -0.15797       0.27134
                        -----------------------------------------
Magnitude (a.u.)       :      0.78676
Magnitude (Debye)      :      1.99980

Rotational constants in cm-1:     0.184410     0.080989     0.069427
Rotational constants in MHz :  5528.462717  2427.993314  2081.376031

                             ****ORCA TERMINATED NORMALLY****
TOTAL RUN TIME: 0 days 0 hours 0 minutes 13 seconds 788 msec
