                         Program Version 5.0.0 -  RELEASE  -
|  1> !wB97X-D3 RIJCOSX def2-SVPD def2/J TightSCF
|  2> *xyz 0 1
|  3> C          1.64703       -2.34528       -5.02041
|  4> C          0.21763       -1.81402       -4.92439
|  5> C          2.20996       -2.81239       -3.66571
|  6> H          2.30838       -1.58870       -5.45713
|  7> H          1.67429       -3.20348       -5.69739
|  8> C          2.48901       -1.66851       -2.73754
|  9> N          3.59631       -0.94761       -2.95225
| 10> C          1.66394       -1.41369       -1.77781
| 11> H          0.81164       -1.96318       -1.70275
| 12> H          1.84550       -0.63508       -1.15875
| 13> H          4.20535       -1.17600       -3.73383
| 14> H          3.81723       -0.12585       -2.40604
| 15> H          3.14311       -3.36280       -3.81152
| 16> H          1.48768       -3.45893       -3.16521
| 17> H         -0.11459       -1.50684       -5.89401
| 18> H          0.19193       -0.97796       -4.25713
| 19> H         -0.42543       -2.58523       -4.55479
| 20> *
| 21>
| 22> %MaxCore 64000
| 23> %pal nprocs 18
| 24> end
| 25>
| 26> %scf
| 27>   MaxIter 150
| 28> end
| 29>
| 30>
| 31>                          ****END OF INPUT****

CARTESIAN COORDINATES (ANGSTROEM)
---------------------------------
  C      1.647030   -2.345280   -5.020410
  C      0.217630   -1.814020   -4.924390
  C      2.209960   -2.812390   -3.665710
  H      2.308380   -1.588700   -5.457130
  H      1.674290   -3.203480   -5.697390
  C      2.489010   -1.668510   -2.737540
  N      3.596310   -0.947610   -2.952250
  C      1.663940   -1.413690   -1.777810
  H      0.811640   -1.963180   -1.702750
  H      1.845500   -0.635080   -1.158750
  H      4.205350   -1.176000   -3.733830
  H      3.817230   -0.125850   -2.406040
  H      3.143110   -3.362800   -3.811520
  H      1.487680   -3.458930   -3.165210
  H     -0.114590   -1.506840   -5.894010
  H      0.191930   -0.977960   -4.257130
  H     -0.425430   -2.585230   -4.554790

 Total Charge           Charge          ....    0
 Multiplicity           Mult            ....    1
 Number of Electrons    NEL             ....   48
 Basis Dimension        Dim             ....  208

ORBITAL ENERGIES
----------------

  NO   OCC          E(Eh)            E(eV)
   0   2.0000     -14.436355      -392.8332
   1   2.0000     -10.307404      -280.4787
   2   2.0000     -10.286537      -279.9109
   3   2.0000     -10.286110      -279.8993
   4   2.0000     -10.266192      -279.3573
   5   2.0000     -10.221396      -278.1383
   6   2.0000      -1.030837       -28.0505
   7   2.0000      -0.903643       -24.5894
   8   2.0000      -0.846232       -23.0272
   9   2.0000      -0.791899       -21.5487
  10   2.0000      -0.702224       -19.1085
  11   2.0000      -0.668376       -18.1874
  12   2.0000      -0.623830       -16.9753
  13   2.0000      -0.578995       -15.7553
  14   2.0000      -0.549089       -14.9415
  15   2.0000      -0.543513       -14.7897
  16   2.0000      -0.496869       -13.5205
  17   2.0000      -0.488548       -13.2941
  18   2.0000      -0.469607       -12.7787
  19   2.0000      -0.460271       -12.5246
  20   2.0000      -0.430493       -11.7143
  21   2.0000      -0.416239       -11.3264
  22   2.0000      -0.412568       -11.2265
  23   2.0000      -0.284665        -7.7461
  24   0.0000       0.089296         2.4299
  25   0.0000       0.113928         3.1001
  26   0.0000       0.115938         3.1548
  27   0.0000       0.122048         3.3211
  28   0.0000       0.144399         3.9293

MULLIKEN ATOMIC CHARGES
-----------------------
   0 C :   -0.297578
   1 C :    0.665017
   2 C :    0.157326
   3 H :   -0.054104
   4 H :   -0.055175
   5 C :   -0.001141
   6 N :    0.061835
   7 C :    0.391102
   8 H :   -0.085305
   9 H :   -0.416035
  10 H :   -0.093637
  11 H :   -0.154963
  12 H :   -0.092041
  13 H :    0.092675
  14 H :   -0.057536
  15 H :   -0.077012
  16 H :    0.016571
Sum of atomic charges:    0.0000000

LOEWDIN ATOMIC CHARGES
----------------------
   0 C :   -0.068432
   1 C :    0.120100
   2 C :    0.001660
   3 H :    0.014891
   4 H :    0.016195
   5 C :   -0.262391
   6 N :    0.166644
   7 C :    0.164574
   8 H :   -0.068454
   9 H :   -0.075554
  10 H :    0.000393
  11 H :    0.004046
  12 H :    0.021511
  13 H :    0.022761
  14 H :   -0.019831
  15 H :   -0.023374
  16 H :   -0.014740

  Mayer bond orders larger than 0.100000
B(  0-C ,  1-C ) :   1.2805 B(  0-C ,  2-C ) :   1.1283 B(  0-C ,  3-H ) :   0.9215
B(  0-C ,  4-H ) :   0.9474 B(  0-C , 13-H ) :   0.1169 B(  0-C , 14-H ) :   0.2022
B(  0-C , 15-H ) :   0.2157 B(  0-C , 16-H ) :   0.1929 B(  1-C , 14-H ) :   0.8006
B(  1-C , 15-H ) :   0.8438 B(  1-C , 16-H ) :   0.7887 B(  2-C ,  3-H ) :   0.1419
B(  2-C ,  4-H ) :   0.1084 B(  2-C ,  5-C ) :   1.1034 B(  2-C ,  6-N ) :   0.1226
B(  2-C ,  7-C ) :   0.1536 B(  2-C , 12-H ) :   0.9179 B(  2-C , 13-H ) :   0.8057
B(  5-C ,  6-N ) :   1.1268 B(  5-C ,  7-C ) :   1.8198 B(  5-C ,  8-H ) :   0.1401
B(  5-C ,  9-H ) :   0.2576 B(  5-C , 12-H ) :   0.1458 B(  5-C , 13-H ) :   0.1339
B(  6-N ,  7-C ) :   0.2288 B(  6-N , 10-H ) :   1.1453 B(  6-N , 11-H ) :   1.2350
B(  7-C ,  8-H ) :   0.9269 B(  7-C ,  9-H ) :   0.6630 B( 10-H , 11-H ) :  -0.1471
B( 15-H , 16-H ) :   0.1008

Dispersion correction           -0.004618596
FINAL SINGLE POINT ENERGY      -251.644437030235

DIPOLE MOMENT
-------------
                                X             Y             Z
Electronic contribution:      3.11087       0.69975       2.30079
Nuclear contribution   :     -2.61370      -0.54788      -2.73987
                        -----------------------------------------
Total Dipole Moment    :      0.49717       0.15187      -0.43908
                        -----------------------------------------
Magnitude (a.u.)       :      0.68047
Magnitude (Debye)      :      1.72961

Rotational constants in cm-1:     0.186678     0.079942     0.069329
Rotational constants in MHz :  5596.476267  2396.611465  2078.426257

                             ****ORCA TERMINATED NORMALLY****
TOTAL RUN TIME: 0 days 0 hours 0 minutes 13 seconds 831 msec
