                         Program Version 5.0.0 -  RELEASE  -
|  1> !wB97X-D3 RIJCOSX def2-SVPD def2/J TightSCF xyzfile
|  2>
|  3> *xyzfile 0 1 D1.xyz
|  4>
|  5> %MaxCore 64000
|  6>
|  7> %pal nprocs 18
|  8> end
|  9>
| 10> %scf
| 11>   MaxIter 150
| 12> end
| 13>
| 14>
| 15>                          ****END OF INPUT****

CARTESIAN COORDINATES (ANGSTROEM)
---------------------------------
  C      1.647032   -2.345276   -5.020411
  C      0.217628   -1.814022   -4.924389
  C      2.209964   -2.812388   -3.665708
  C     -0.811356   -2.908780   -4.607625
  C     -1.916579   -2.485081   -3.643665
  H     -2.554525   -1.712428   -4.091993
  C     -1.363531   -1.981337   -2.293608
  H     -2.553448   -3.355667   -3.458815
  F     -0.350395   -2.749689   -1.796006
  H      2.308385   -1.588704   -5.457128
  H      1.674286   -3.203478   -5.697392
  C      2.489007   -1.668510   -2.737538
  C      3.596314   -0.947608   -2.952247
  N      1.663936   -1.413685   -1.777806
  H      0.811642   -1.963178   -1.702755
  H      1.845503   -0.635078   -1.158749
  H      4.205351   -1.176003   -3.733825
  H      3.817230   -0.125845   -2.406041
  H     -1.244829   -3.280884   -5.541040
  H     -0.306331   -3.757746   -4.142734
  H     -0.036244   -1.318555   -5.865303
  H      0.175004   -1.035382   -4.158095
  H      3.143106   -3.362803   -3.811524
  H      1.487683   -3.458935   -3.165211
  H     -2.226220   -1.908386   -1.602039
  H     -1.051353   -0.915671   -2.443331

 Total Charge           Charge          ....    0
 Multiplicity           Mult            ....    1
 Number of Electrons    NEL             ....   80
 Basis Dimension        Dim             ....  331

ORBITAL ENERGIES
----------------

  NO   OCC          E(Eh)            E(eV)
   0   2.0000     -24.838325      -675.8852
   1   2.0000     -14.406066      -392.0090
   2   2.0000     -10.392040      -282.7818
   3   2.0000     -10.309078      -280.5243
   4   2.0000     -10.294913      -280.1388
   5   2.0000     -10.292494      -280.0730
   6   2.0000     -10.284053      -279.8433
   7   2.0000     -10.280769      -279.7539
   8   2.0000     -10.276165      -279.6287
   9   2.0000     -10.201846      -277.6063
  10   2.0000      -1.358425       -36.9646
  11   2.0000      -1.027135       -27.9498
  12   2.0000      -0.934197       -25.4208
  13   2.0000      -0.891293       -24.2533
  14   2.0000      -0.845802       -23.0154
  15   2.0000      -0.800569       -21.7846
  16   2.0000      -0.775405       -21.0998
  17   2.0000      -0.719537       -19.5796
  18   2.0000      -0.697174       -18.9711
  19   2.0000      -0.682103       -18.5610
  20   2.0000      -0.642104       -17.4725
  21   2.0000      -0.634647       -17.2696
  22   2.0000      -0.617051       -16.7908
  23   2.0000      -0.589572       -16.0431
  24   2.0000      -0.569190       -15.4884
  25   2.0000      -0.561979       -15.2922
  26   2.0000      -0.541126       -14.7248
  27   2.0000      -0.519485       -14.1359
  28   2.0000      -0.518853       -14.1187
  29   2.0000      -0.487419       -13.2633
  30   2.0000      -0.467278       -12.7153
  31   2.0000      -0.460214       -12.5231
  32   2.0000      -0.457446       -12.4477
  33   2.0000      -0.451418       -12.2837
  34   2.0000      -0.435388       -11.8475
  35   2.0000      -0.426163       -11.5965
  36   2.0000      -0.414136       -11.2692
  37   2.0000      -0.404767       -11.0143
  38   2.0000      -0.401057       -10.9133
  39   2.0000      -0.254559        -6.9269
  40   0.0000       0.085493         2.3264
  41   0.0000       0.099063         2.6956
  42   0.0000       0.106919         2.9094
  43   0.0000       0.112482         3.0608
  44   0.0000       0.127723         3.4755

MULLIKEN ATOMIC CHARGES
-----------------------
   0 C :    0.187555
   1 C :    0.112226
   2 C :    0.482103
   3 C :    0.040577
   4 C :    0.133289
   5 H :   -0.078115
   6 C :    0.611108
   7 H :    0.035452
   8 F :   -0.492949
   9 H :   -0.035003
  10 H :   -0.104347
  11 C :   -0.146549
  12 C :    0.320456
  13 N :    0.601715
  14 H :   -0.480070
  15 H :   -0.117716
  16 H :   -0.137256
  17 H :   -0.372268
  18 H :   -0.194735
  19 H :    0.032320
  20 H :   -0.142338
  21 H :   -0.074212
  22 H :    0.019511
  23 H :   -0.209354
  24 H :   -0.230152
  25 H :    0.238752
Sum of atomic charges:   -0.0000000

LOEWDIN ATOMIC CHARGES
----------------------
   0 C :   -0.015787
   1 C :   -0.016263
   2 C :    0.021944
   3 C :   -0.026982
   4 C :   -0.012246
   5 H :    0.036416
   6 C :    0.148785
   7 H :    0.025151
   8 F :   -0.175804
   9 H :    0.021841
  10 H :    0.021570
  11 C :   -0.245272
  12 C :    0.159818
  13 N :    0.199444
  14 H :   -0.135238
  15 H :    0.020522
  16 H :   -0.086950
  17 H :   -0.095750
  18 H :    0.025599
  19 H :    0.006555
  20 H :    0.021874
  21 H :    0.000228
  22 H :    0.030078
  23 H :   -0.006012
  24 H :    0.039166
  25 H :    0.037312

  Mayer bond orders larger than 0.100000
B(  0-C ,  1-C ) :   1.2373 B(  0-C ,  2-C ) :   1.1633 B(  0-C ,  9-H ) :   0.7853
B(  0-C , 10-H ) :   0.8948 B(  0-C , 21-H ) :   0.1583 B(  0-C , 22-H ) :   0.1145
B(  0-C , 23-H ) :   0.1546 B(  1-C ,  3-C ) :   1.1633 B(  1-C ,  9-H ) :   0.1750
B(  1-C , 10-H ) :   0.1330 B(  1-C , 18-H ) :   0.1973 B(  1-C , 20-H ) :   0.8722
B(  1-C , 21-H ) :   0.8202 B(  2-C ,  9-H ) :   0.1576 B(  2-C , 11-C ) :   0.9965
B(  2-C , 13-N ) :   0.1192 B(  2-C , 22-H ) :   0.7791 B(  2-C , 23-H ) :   0.6786
B(  3-C ,  4-C ) :   1.2158 B(  3-C ,  5-H ) :   0.1267 B(  3-C ,  7-H ) :   0.1901
B(  3-C , 18-H ) :   0.9239 B(  3-C , 19-H ) :   0.8380 B(  3-C , 20-H ) :   0.1110
B(  3-C , 21-H ) :   0.1402 B(  4-C ,  5-H ) :   0.9132 B(  4-C ,  6-C ) :   1.2353
B(  4-C ,  7-H ) :   0.7358 B(  4-C , 24-H ) :   0.1313 B(  6-C ,  8-F ) :   0.5742
B(  6-C , 24-H ) :   1.0253 B(  6-C , 25-H ) :   0.7780 B(  8-F , 14-H ) :   0.2015
B(  9-H , 10-H ) :  -0.1155 B( 11-C , 12-C ) :   1.8199 B( 11-C , 13-N ) :   1.1859
B( 11-C , 14-H ) :   0.1097 B( 11-C , 16-H ) :   0.1073 B( 11-C , 17-H ) :   0.1619
B( 11-C , 22-H ) :   0.1568 B( 11-C , 23-H ) :   0.2259 B( 12-C , 13-N ) :   0.1665
B( 12-C , 16-H ) :   0.8515 B( 12-C , 17-H ) :   0.7213 B( 13-N , 14-H ) :   0.8264
B( 13-N , 15-H ) :   1.1857 B( 14-H , 15-H ) :  -0.1954 B( 19-H , 23-H ) :   0.1062

Dispersion correction           -0.011043733
FINAL SINGLE POINT ENERGY      -468.596220313698

DIPOLE MOMENT
-------------
                                X             Y             Z
Electronic contribution:     -1.31719      -1.74021       6.91410
Nuclear contribution   :     -0.37390       1.73388      -6.94752
                        -----------------------------------------
Total Dipole Moment    :     -1.69110      -0.00633      -0.03343
                        -----------------------------------------
Magnitude (a.u.)       :      1.69144
Magnitude (Debye)      :      4.29930

Rotational constants in cm-1:     0.062220     0.032742     0.024374
Rotational constants in MHz :  1865.297979   981.573941   730.711364

                             ****ORCA TERMINATED NORMALLY****
TOTAL RUN TIME: 0 days 0 hours 0 minutes 36 seconds 576 msec
