                         Program Version 5.0.0 -  RELEASE  -
|  1> !B3LYP D3BJ RIJCOSX def2-SVPD def2/J TightSCF
|  2> *xyz -1 1
|  3> C          1.44442        5.26658       -0.97546
|  4> O          1.56525        4.23349       -1.86489
|  5> H          1.76623        6.17572       -1.43893
|  6> H          2.05096        5.07018       -0.11614
|  7> H          0.42160        5.36155       -0.67592
|  8> *
|  9> %MaxCore 64000
| 10>
| 11> %pal nprocs 8
| 12> end
| 13>
| 14> %scf
| 15>   MaxIter 150
| 16> end
| 17>
| 18>
| 19>                          ****END OF INPUT****

CARTESIAN COORDINATES (ANGSTROEM)
---------------------------------
  C      1.444420    5.266580   -0.975460
  O      1.565250    4.233490   -1.864890
  H      1.766230    6.175720   -1.438930
  H      2.050960    5.070180   -0.116140
  H      0.421600    5.361550   -0.675920

 Total Charge           Charge          ....   -1
 Multiplicity           Mult            ....    1
 Number of Electrons    NEL             ....   18
 Basis Dimension        Dim             ....   67

ORBITAL ENERGIES
----------------

  NO   OCC          E(Eh)            E(eV)
   0   2.0000     -18.785936      -511.1913
   1   2.0000      -9.969843      -271.2932
   2   2.0000      -0.648458       -17.6454
   3   2.0000      -0.389785       -10.6066
   4   2.0000      -0.195875        -5.3300
   5   2.0000      -0.195866        -5.3298
   6   2.0000      -0.098564        -2.6821
   7   2.0000       0.050908         1.3853
   8   2.0000       0.050915         1.3855
   9   0.0000       0.196883         5.3575
  10   0.0000       0.267925         7.2906
  11   0.0000       0.267925         7.2906
  12   0.0000       0.276486         7.5236
  13   0.0000       0.312886         8.5141

MULLIKEN ATOMIC CHARGES
-----------------------
   0 C :    1.032391
   1 O :   -1.023016
   2 H :   -0.336738
   3 H :   -0.336369
   4 H :   -0.336267
Sum of atomic charges:   -1.0000000

LOEWDIN ATOMIC CHARGES
----------------------
   0 C :   -0.109073
   1 O :   -0.641735
   2 H :   -0.083052
   3 H :   -0.083063
   4 H :   -0.083077

  Mayer bond orders larger than 0.100000
B(  0-C ,  1-O ) :   1.1541 B(  0-C ,  2-H ) :   0.8679 B(  0-C ,  3-H ) :   0.8676
B(  0-C ,  4-H ) :   0.8673

Dispersion correction           -0.002430921
FINAL SINGLE POINT ENERGY      -114.957878239969

DIPOLE MOMENT
-------------
                                X             Y             Z
Electronic contribution:      0.16418      -1.40426      -1.20914
Nuclear contribution   :     -0.25440       2.17514       1.87266
                        -----------------------------------------
Total Dipole Moment    :     -0.09023       0.77087       0.66352
                        -----------------------------------------
Magnitude (a.u.)       :      1.02110
Magnitude (Debye)      :      2.59543

Rotational constants in cm-1:     5.477715     0.940444     0.940443
Rotational constants in MHz : 164217.753846 28193.799011 28193.774483

                             ****ORCA TERMINATED NORMALLY****
TOTAL RUN TIME: 0 days 0 hours 0 minutes 3 seconds 620 msec
