                         Program Version 5.0.0 -  RELEASE  -
|  1> !B3LYP D3BJ RIJCOSX def2-SVPD def2/J TightSCF
|  2> *xyz 1 1
|  3> C         -0.70169        4.07250       -4.00392
|  4> N          0.68053        4.61482       -4.04800
|  5> H          0.69993        5.58489       -4.38827
|  6> H          1.27804        4.05598       -4.66824
|  7> H          1.08573        4.53358       -3.10652
|  8> H         -1.14500        4.14653       -4.97495
|  9> H         -1.28296        4.63405       -3.30271
| 10> H         -0.67274        3.04629       -3.70235
| 11> *
| 12> %MaxCore 64000
| 13>
| 14> %pal nprocs 8
| 15> end
| 16>
| 17> %scf
| 18>   MaxIter 150
| 19> end
| 20>
| 21>
| 22>                          ****END OF INPUT****

CARTESIAN COORDINATES (ANGSTROEM)
---------------------------------
  C     -0.701690    4.072500   -4.003920
  N      0.680530    4.614820   -4.048000
  H      0.699930    5.584890   -4.388270
  H      1.278040    4.055980   -4.668240
  H      1.085730    4.533580   -3.106520
  H     -1.145000    4.146530   -4.974950
  H     -1.282960    4.634050   -3.302710
  H     -0.672740    3.046290   -3.702350

 Total Charge           Charge          ....    1
 Multiplicity           Mult            ....    1
 Number of Electrons    NEL             ....   18
 Basis Dimension        Dim             ....   88

ORBITAL ENERGIES
----------------

  NO   OCC          E(Eh)            E(eV)
   0   2.0000     -14.680295      -399.4711
   1   2.0000     -10.443111      -284.1715
   2   2.0000      -1.219100       -33.1734
   3   2.0000      -0.934062       -25.4171
   4   2.0000      -0.817408       -22.2428
   5   2.0000      -0.807218       -21.9655
   6   2.0000      -0.716290       -19.4912
   7   2.0000      -0.629303       -17.1242
   8   2.0000      -0.627671       -17.0798
   9   0.0000      -0.208120        -5.6632
  10   0.0000      -0.139424        -3.7939
  11   0.0000      -0.137811        -3.7500
  12   0.0000      -0.132744        -3.6121
  13   0.0000      -0.089013        -2.4222

MULLIKEN ATOMIC CHARGES
-----------------------
   0 C :    1.145180
   1 N :   -0.738923
   2 H :    0.334561
   3 H :    0.331707
   4 H :    0.350658
   5 H :   -0.150301
   6 H :   -0.138079
   7 H :   -0.134804
Sum of atomic charges:    1.0000000

LOEWDIN ATOMIC CHARGES
----------------------
   0 C :    0.287238
   1 N :    0.317194
   2 H :    0.110946
   3 H :    0.106567
   4 H :    0.107997
   5 H :    0.022577
   6 H :    0.023584
   7 H :    0.023897

  Mayer bond orders larger than 0.100000
B(  0-C ,  1-N ) :   0.8200 B(  0-C ,  5-H ) :   0.8673 B(  0-C ,  6-H ) :   0.8571
B(  0-C ,  7-H ) :   0.8544 B(  1-N ,  2-H ) :   0.8037 B(  1-N ,  3-H ) :   0.8133
B(  1-N ,  4-H ) :   0.7872 B(  1-N ,  6-H ) :   0.1053 B(  1-N ,  7-H ) :   0.1059

Dispersion correction           -0.005462413
FINAL SINGLE POINT ENERGY       -96.090387752647

DIPOLE MOMENT
-------------
                                X             Y             Z
Electronic contribution:      1.01434       0.42393      -0.03858
Nuclear contribution   :     -0.21844      -0.13976       0.01729
                        -----------------------------------------
Total Dipole Moment    :      0.79591       0.28417      -0.02129
                        -----------------------------------------
Magnitude (a.u.)       :      0.84538
Magnitude (Debye)      :      2.14879

Rotational constants in cm-1:     2.865765     0.688517     0.685249
Rotational constants in MHz : 85913.460223 20641.211162 20543.252263

                             ****ORCA TERMINATED NORMALLY****
TOTAL RUN TIME: 0 days 0 hours 0 minutes 4 seconds 141 msec
