                         Program Version 5.0.0 -  RELEASE  -
|  1> !B3LYP D3BJ RIJCOSX def2-SVPD def2/J TightSCF
|  2> *xyz 0 1
|  3> C          1.44442        5.26658       -0.97546
|  4> F          1.56525        4.23349       -1.86489
|  5> H          1.76623        6.17572       -1.43893
|  6> H          2.05096        5.07018       -0.11614
|  7> H          0.42160        5.36155       -0.67592
|  8> *
|  9> %MaxCore 64000
| 10>
| 11> %pal nprocs 8
| 12> end
| 13>
| 14> %scf
| 15>   MaxIter 150
| 16> end
| 17>
| 18>
| 19>                          ****END OF INPUT****

CARTESIAN COORDINATES (ANGSTROEM)
---------------------------------
  C      1.444420    5.266580   -0.975460
  F      1.565250    4.233490   -1.864890
  H      1.766230    6.175720   -1.438930
  H      2.050960    5.070180   -0.116140
  H      0.421600    5.361550   -0.675920

 Total Charge           Charge          ....    0
 Multiplicity           Mult            ....    1
 Number of Electrons    NEL             ....   18
 Basis Dimension        Dim             ....   67

ORBITAL ENERGIES
----------------

  NO   OCC          E(Eh)            E(eV)
   0   2.0000     -24.682260      -671.6384
   1   2.0000     -10.256047      -279.0812
   2   2.0000      -1.183069       -32.1929
   3   2.0000      -0.701954       -19.1011
   4   2.0000      -0.500749       -13.6261
   5   2.0000      -0.492679       -13.4065
   6   2.0000      -0.492673       -13.4063
   7   2.0000      -0.353578        -9.6213
   8   2.0000      -0.353557        -9.6208
   9   0.0000       0.023731         0.6458
  10   0.0000       0.058634         1.5955
  11   0.0000       0.098804         2.6886
  12   0.0000       0.098805         2.6886
  13   0.0000       0.144142         3.9223

MULLIKEN ATOMIC CHARGES
-----------------------
   0 C :    1.089226
   1 F :   -0.480280
   2 H :   -0.203368
   3 H :   -0.202930
   4 H :   -0.202648
Sum of atomic charges:   -0.0000000

LOEWDIN ATOMIC CHARGES
----------------------
   0 C :    0.273808
   1 F :   -0.248955
   2 H :   -0.008283
   3 H :   -0.008286
   4 H :   -0.008284

  Mayer bond orders larger than 0.100000
B(  0-C ,  1-F ) :   0.8440 B(  0-C ,  2-H ) :   0.9048 B(  0-C ,  3-H ) :   0.9046
B(  0-C ,  4-H ) :   0.9041

Dispersion correction           -0.002120145
FINAL SINGLE POINT ENERGY      -139.581746100242

DIPOLE MOMENT
-------------
                                X             Y             Z
Electronic contribution:      0.25833      -2.20926      -1.90210
Nuclear contribution   :     -0.32265       2.75860       2.37499
                        -----------------------------------------
Total Dipole Moment    :     -0.06431       0.54934       0.47289
                        -----------------------------------------
Magnitude (a.u.)       :      0.72769
Magnitude (Debye)      :      1.84965

Rotational constants in cm-1:     5.477715     0.875416     0.875415
Rotational constants in MHz : 164217.753846 26244.308980 26244.287726

                             ****ORCA TERMINATED NORMALLY****
TOTAL RUN TIME: 0 days 0 hours 0 minutes 3 seconds 591 msec
