                         Program Version 5.0.0 -  RELEASE  -
|  1> !B3LYP D3BJ RIJCOSX def2-SVPD def2/J TightSCF
|  2> *xyz 0 1
|  3> C         -0.70169        4.07250       -4.00392
|  4> C          0.68053        4.61482       -4.04800
|  5> H          0.69993        5.58489       -4.38827
|  6> H          1.27804        4.05598       -4.66824
|  7> H          1.08573        4.53358       -3.10652
|  8> H         -1.14500        4.14653       -4.97495
|  9> H         -1.28296        4.63405       -3.30271
| 10> H         -0.67274        3.04629       -3.70235
| 11> *
| 12> %MaxCore 64000
| 13>
| 14> %pal nprocs 8
| 15> end
| 16>
| 17> %scf
| 18>   MaxIter 150
| 19> end
| 20>
| 21>
| 22>                          ****END OF INPUT****

CARTESIAN COORDINATES (ANGSTROEM)
---------------------------------
  C     -0.701690    4.072500   -4.003920
  C      0.680530    4.614820   -4.048000
  H      0.699930    5.584890   -4.388270
  H      1.278040    4.055980   -4.668240
  H      1.085730    4.533580   -3.106520
  H     -1.145000    4.146530   -4.974950
  H     -1.282960    4.634050   -3.302710
  H     -0.672740    3.046290   -3.702350

 Total Charge           Charge          ....    0
 Multiplicity           Mult            ....    1
 Number of Electrons    NEL             ....   18
 Basis Dimension        Dim             ....   88

ORBITAL ENERGIES
----------------

  NO   OCC          E(Eh)            E(eV)
   0   2.0000     -10.160764      -276.4884
   1   2.0000     -10.148045      -276.1424
   2   2.0000      -0.762787       -20.7565
   3   2.0000      -0.614894       -16.7321
   4   2.0000      -0.451909       -12.2971
   5   2.0000      -0.445876       -12.1329
   6   2.0000      -0.368405       -10.0248
   7   2.0000      -0.349095        -9.4993
   8   2.0000      -0.343513        -9.3475
   9   0.0000       0.026726         0.7272
  10   0.0000       0.058648         1.5959
  11   0.0000       0.099807         2.7159
  12   0.0000       0.101293         2.7563
  13   0.0000       0.121145         3.2965

MULLIKEN ATOMIC CHARGES
-----------------------
   0 C :    0.450099
   1 C :    0.779237
   2 H :   -0.270092
   3 H :   -0.266710
   4 H :   -0.247413
   5 H :   -0.154250
   6 H :   -0.149720
   7 H :   -0.141150
Sum of atomic charges:    0.0000000

LOEWDIN ATOMIC CHARGES
----------------------
   0 C :    0.082957
   1 C :    0.086558
   2 H :   -0.034585
   3 H :   -0.038663
   4 H :   -0.036342
   5 H :   -0.021059
   6 H :   -0.019807
   7 H :   -0.019059

  Mayer bond orders larger than 0.100000
B(  0-C ,  1-C ) :   1.4360 B(  0-C ,  2-H ) :   0.1866 B(  0-C ,  3-H ) :   0.1893
B(  0-C ,  4-H ) :   0.2102 B(  0-C ,  5-H ) :   0.8349 B(  0-C ,  6-H ) :   0.8168
B(  0-C ,  7-H ) :   0.8168 B(  1-C ,  2-H ) :   0.7257 B(  1-C ,  3-H ) :   0.7040
B(  1-C ,  4-H ) :   0.7115 B(  1-C ,  5-H ) :   0.1683 B(  1-C ,  6-H ) :   0.1740
B(  1-C ,  7-H ) :   0.1770

Dispersion correction           -0.005507390
FINAL SINGLE POINT ENERGY       -79.702268794971

DIPOLE MOMENT
-------------
                                X             Y             Z
Electronic contribution:      0.00717       0.04598      -0.01094
Nuclear contribution   :      0.01985      -0.04545       0.00953
                        -----------------------------------------
Total Dipole Moment    :      0.02702       0.00053      -0.00141
                        -----------------------------------------
Magnitude (a.u.)       :      0.02706
Magnitude (Debye)      :      0.06878

Rotational constants in cm-1:     2.865782     0.718825     0.715264
Rotational constants in MHz : 85913.996449 21549.842906 21443.078705

                             ****ORCA TERMINATED NORMALLY****
TOTAL RUN TIME: 0 days 0 hours 0 minutes 4 seconds 470 msec
