                         Program Version 5.0.0 -  RELEASE  -
|  1> !B3LYP D3BJ RIJCOSX def2-SVPD def2/J TightSCF xyzfile
|  2>
|  3> *xyzfile 0 1 D.xyz
|  4>
|  5> %MaxCore 64000
|  6>
|  7> %pal nprocs 4
|  8> end
|  9>
| 10> %scf
| 11>   MaxIter 150
| 12> end
| 13>
| 14>
| 15>                          ****END OF INPUT****

CARTESIAN COORDINATES (ANGSTROEM)
---------------------------------
  C     -0.701686    4.072499   -4.003920
  C      0.680528    4.614820   -4.048005
  C      1.444422    5.266576   -0.975463
  F      1.565248    4.233493   -1.864885
  H      0.699926    5.584890   -4.388272
  H      1.278044    4.055977   -4.668235
  H      1.085729    4.533581   -3.106524
  C     -1.703475    5.093197   -3.477396
  H     -0.995895    3.740394   -5.000654
  H     -0.643580    3.201910   -3.351533
  C     -1.313997    5.785995   -2.169271
  H     -1.877057    5.850103   -4.251154
  H     -2.653264    4.564475   -3.354796
  H     -2.097137    6.509395   -1.929558
  H     -0.416875    6.387594   -2.339097
  C     -1.073895    4.844728   -0.979904
  H     -1.968893    4.809608   -0.352568
  C      0.148120    5.210874   -0.138092
  H     -0.909754    3.827531   -1.338975
  H      1.474250    6.264638   -1.476917
  H      2.289622    5.303267   -0.264450
  H      0.261827    4.450942    0.640711
  H     -0.002516    6.171031    0.371483

 Total Charge           Charge          ....    0
 Multiplicity           Mult            ....    1
 Number of Electrons    NEL             ....   66
 Basis Dimension        Dim             ....  283

ORBITAL ENERGIES
----------------

  NO   OCC          E(Eh)            E(eV)
   0   2.0000     -24.705870      -672.2809
   1   2.0000     -10.271912      -279.5129
   2   2.0000     -10.193623      -277.3826
   3   2.0000     -10.178491      -276.9708
   4   2.0000     -10.171831      -276.7896
   5   2.0000     -10.164927      -276.6017
   6   2.0000     -10.152520      -276.2641
   7   2.0000     -10.099811      -274.8298
   8   2.0000      -1.218217       -33.1494
   9   2.0000      -0.807247       -21.9663
  10   2.0000      -0.777158       -21.1475
  11   2.0000      -0.716933       -19.5087
  12   2.0000      -0.685540       -18.6545
  13   2.0000      -0.625308       -17.0155
  14   2.0000      -0.593759       -16.1570
  15   2.0000      -0.539442       -14.6790
  16   2.0000      -0.536337       -14.5945
  17   2.0000      -0.522192       -14.2096
  18   2.0000      -0.494484       -13.4556
  19   2.0000      -0.459105       -12.4929
  20   2.0000      -0.452580       -12.3153
  21   2.0000      -0.429022       -11.6743
  22   2.0000      -0.414929       -11.2908
  23   2.0000      -0.389900       -10.6097
  24   2.0000      -0.381747       -10.3879
  25   2.0000      -0.369570       -10.0565
  26   2.0000      -0.360855        -9.8194
  27   2.0000      -0.341334        -9.2882
  28   2.0000      -0.332253        -9.0411
  29   2.0000      -0.316928        -8.6240
  30   2.0000      -0.304529        -8.2867
  31   2.0000      -0.301838        -8.2134
  32   2.0000      -0.278261        -7.5719
  33   0.0000       0.017767         0.4835
  34   0.0000       0.031914         0.8684
  35   0.0000       0.037977         1.0334
  36   0.0000       0.047235         1.2853
  37   0.0000       0.061324         1.6687

MULLIKEN ATOMIC CHARGES
-----------------------
   0 C :   -0.039735
   1 C :    3.004672
   2 C :    0.929144
   3 F :   -0.568888
   4 H :   -0.254938
   5 H :   -0.059907
   6 H :   -2.206001
   7 C :    0.460654
   8 H :   -0.474181
   9 H :   -0.003453
  10 C :    0.159399
  11 H :    0.021494
  12 H :   -0.227678
  13 H :   -0.301827
  14 H :   -0.079983
  15 C :    0.348263
  16 H :   -0.342139
  17 C :    0.285378
  18 H :   -0.028041
  19 H :    0.166473
  20 H :   -0.473073
  21 H :   -0.114475
  22 H :   -0.201159
Sum of atomic charges:   -0.0000000

LOEWDIN ATOMIC CHARGES
----------------------
   0 C :   -0.051152
   1 C :    0.148067
   2 C :    0.158391
   3 F :   -0.176480
   4 H :   -0.027144
   5 H :   -0.027876
   6 H :   -0.175877
   7 C :   -0.027812
   8 H :    0.015016
   9 H :    0.008339
  10 C :   -0.010704
  11 H :    0.021712
  12 H :    0.014729
  13 H :    0.015331
  14 H :   -0.006914
  15 C :   -0.009930
  16 H :    0.018755
  17 C :   -0.004668
  18 H :    0.004386
  19 H :    0.035029
  20 H :    0.029974
  21 H :    0.019195
  22 H :    0.029634

  Mayer bond orders larger than 0.100000
B(  0-C ,  1-C ) :   0.6883 B(  0-C ,  4-H ) :   0.3739 B(  0-C ,  5-H ) :   0.2105
B(  0-C ,  6-H ) :   0.7592 B(  0-C ,  7-C ) :   1.1665 B(  0-C ,  8-H ) :   0.9286
B(  0-C ,  9-H ) :   0.7216 B(  0-C , 10-C ) :   0.1326 B(  0-C , 11-H ) :   0.1644
B(  0-C , 12-H ) :   0.1850 B(  1-C ,  3-F ) :  -0.3019 B(  1-C ,  4-H ) :  -0.2183
B(  1-C ,  5-H ) :   0.5088 B(  1-C ,  6-H ) :  -3.7971 B(  1-C ,  7-C ) :   0.1109
B(  1-C ,  9-H ) :   0.2541 B(  2-C ,  3-F ) :   0.6090 B(  2-C ,  6-H ) :   0.1666
B(  2-C , 17-C ) :   1.2294 B(  2-C , 19-H ) :   0.7507 B(  2-C , 20-H ) :   0.8974
B(  2-C , 21-H ) :   0.1040 B(  3-F ,  6-H ) :   0.5483 B(  3-F , 20-H ) :  -0.1131
B(  4-H ,  5-H ) :  -0.2689 B(  4-H ,  6-H ) :   0.8720 B(  4-H ,  8-H ) :   0.2312
B(  5-H ,  6-H ) :   0.2962 B(  5-H ,  8-H ) :  -0.1408 B(  6-H ,  9-H ) :  -0.1083
B(  7-C ,  9-H ) :   0.1855 B(  7-C , 10-C ) :   1.2406 B(  7-C , 11-H ) :   0.6435
B(  7-C , 12-H ) :   0.7932 B(  7-C , 13-H ) :   0.1532 B(  7-C , 14-H ) :   0.1497
B(  8-H ,  9-H ) :  -0.2417 B(  9-H , 18-H ) :   0.1080 B( 10-C , 11-H ) :   0.2319
B( 10-C , 12-H ) :   0.1563 B( 10-C , 13-H ) :   0.7124 B( 10-C , 14-H ) :   0.8341
B( 10-C , 15-C ) :   1.1676 B( 10-C , 16-H ) :   0.2333 B( 10-C , 18-H ) :   0.1169
B( 11-H , 12-H ) :  -0.1346 B( 13-H , 15-C ) :   0.1655 B( 14-H , 15-C ) :   0.1229
B( 15-C , 16-H ) :   0.7664 B( 15-C , 17-C ) :   1.2328 B( 15-C , 18-H ) :   0.7914
B( 15-C , 21-H ) :   0.2253 B( 15-C , 22-H ) :   0.1039 B( 16-H , 18-H ) :  -0.1170
B( 17-C , 18-H ) :   0.1104 B( 17-C , 19-H ) :   0.1030 B( 17-C , 20-H ) :   0.1946
B( 17-C , 21-H ) :   0.6759 B( 17-C , 22-H ) :   0.8542 B( 19-H , 20-H ) :  -0.1046

Dispersion correction           -0.034913072
FINAL SINGLE POINT ENERGY      -375.100655059363

DIPOLE MOMENT
-------------
                                X             Y             Z
Electronic contribution:      5.12585      -2.26055       2.78816
Nuclear contribution   :     -5.08831       2.68947      -1.99048
                        -----------------------------------------
Total Dipole Moment    :      0.03755       0.42892       0.79768
                        -----------------------------------------
Magnitude (a.u.)       :      0.90647
Magnitude (Debye)      :      2.30405

Rotational constants in cm-1:     0.084646     0.055672     0.038419
Rotational constants in MHz :  2537.625105  1668.992890  1151.781380

                             ****ORCA TERMINATED NORMALLY****
TOTAL RUN TIME: 0 days 0 hours 0 minutes 58 seconds 472 msec
