                         Program Version 5.0.0 -  RELEASE  -
|  1> !B3LYP D3BJ RIJCOSX def2-TZVPD def2/J TightSCF
|  2> *xyz -1 1
|  3> C         -2.79070       -0.78527        5.70281
|  4> C         -2.45380        0.05510        6.94145
|  5> C         -2.07842        1.48042        6.56410
|  6> H         -1.62558       -0.38216        7.49891
|  7> H         -3.32527        0.08775        7.59917
|  8> O         -0.90125        1.85816        6.82810
|  9> O         -2.93658        2.17731        5.96415
| 10> H         -1.94052       -0.82114        5.05412
| 11> H         -3.61590       -0.34261        5.18514
| 12> H         -3.05063       -1.77815        6.00536
| 13> *
| 14> %MaxCore 64000
| 15>
| 16> %pal nprocs 4
| 17> end
| 18>
| 19> %scf
| 20>   MaxIter 150
| 21> end
| 22>
| 23>
| 24>                          ****END OF INPUT****

CARTESIAN COORDINATES (ANGSTROEM)
---------------------------------
  C     -2.790700   -0.785270    5.702810
  C     -2.453800    0.055100    6.941450
  C     -2.078420    1.480420    6.564100
  H     -1.625580   -0.382160    7.498910
  H     -3.325270    0.087750    7.599170
  O     -0.901250    1.858160    6.828100
  O     -2.936580    2.177310    5.964150
  H     -1.940520   -0.821140    5.054120
  H     -3.615900   -0.342610    5.185140
  H     -3.050630   -1.778150    6.005360

 Total Charge           Charge          ....   -1
 Multiplicity           Mult            ....    1
 Number of Electrons    NEL             ....   40
 Basis Dimension        Dim             ....  236

ORBITAL ENERGIES
----------------

  NO   OCC          E(Eh)            E(eV)
   0   2.0000     -18.861370      -513.2440
   1   2.0000     -18.860182      -513.2117
   2   2.0000     -10.050817      -273.4966
   3   2.0000     -10.005440      -272.2619
   4   2.0000      -9.994457      -271.9630
   5   2.0000      -0.817620       -22.2486
   6   2.0000      -0.725526       -19.7426
   7   2.0000      -0.605494       -16.4763
   8   2.0000      -0.475093       -12.9279
   9   2.0000      -0.321505        -8.7486
  10   2.0000      -0.292524        -7.9600
  11   2.0000      -0.260084        -7.0772
  12   2.0000      -0.229713        -6.2508
  13   2.0000      -0.214636        -5.8405
  14   2.0000      -0.208039        -5.6610
  15   2.0000      -0.177691        -4.8352
  16   2.0000      -0.160998        -4.3810
  17   2.0000      -0.048455        -1.3185
  18   2.0000      -0.042622        -1.1598
  19   2.0000      -0.027107        -0.7376
  20   0.0000       0.133128         3.6226
  21   0.0000       0.158893         4.3237
  22   0.0000       0.173791         4.7291
  23   0.0000       0.183189         4.9848
  24   0.0000       0.209006         5.6873

MULLIKEN ATOMIC CHARGES
-----------------------
   0 C :   -1.053503
   1 C :    0.023383
   2 C :    0.387165
   3 H :    0.161050
   4 H :    0.172113
   5 O :   -0.740336
   6 O :   -0.744907
   7 H :    0.292652
   8 H :    0.247760
   9 H :    0.254624
Sum of atomic charges:   -1.0000000

LOEWDIN ATOMIC CHARGES
----------------------
   0 C :   -0.123738
   1 C :   -0.209126
   2 C :   -0.770622
   3 H :    0.084429
   4 H :    0.090664
   5 O :   -0.117820
   6 O :   -0.105882
   7 H :    0.059515
   8 H :    0.053202
   9 H :    0.039379

  Mayer bond orders larger than 0.100000
B(  0-C ,  1-C ) :   0.5554 B(  0-C ,  2-C ) :   0.1268 B(  0-C ,  7-H ) :   0.9586
B(  0-C ,  8-H ) :   1.0351 B(  0-C ,  9-H ) :   0.9515 B(  1-C ,  2-C ) :   0.9078
B(  1-C ,  3-H ) :   1.0286 B(  1-C ,  4-H ) :   0.9584 B(  2-C ,  5-O ) :   1.4193
B(  2-C ,  6-O ) :   1.4333

Dispersion correction           -0.010986427
FINAL SINGLE POINT ENERGY      -267.816864604298

DIPOLE MOMENT
-------------
                                X             Y             Z
Electronic contribution:      1.63414       5.56141       0.67383
Nuclear contribution   :     -2.24498      -7.51881      -0.57245
                        -----------------------------------------
Total Dipole Moment    :     -0.61085      -1.95740       0.10138
                        -----------------------------------------
Magnitude (a.u.)       :      2.05300
Magnitude (Debye)      :      5.21832

Rotational constants in cm-1:     0.305589     0.135336     0.107479
Rotational constants in MHz :  9161.317320  4057.276612  3222.126231

                             ****ORCA TERMINATED NORMALLY****
TOTAL RUN TIME: 0 days 0 hours 0 minutes 29 seconds 422 msec
