                         Program Version 5.0.0 -  RELEASE  -
|  1> !B3LYP D3BJ RIJCOSX def2-TZVPD def2/J TightSCF
|  2> *xyz 1 1
|  3> C         -0.69912        3.48945        3.75516
|  4> H         -0.96672        4.34901        3.14049
|  5> N         -1.08067        3.79296        5.15686
|  6> C          0.77696        3.13839        3.61741
|  7> H         -1.33146        2.65651        3.44632
|  8> H         -0.87449        4.76274        5.42734
|  9> H         -0.68079        3.13476        5.83900
| 10> H         -2.05755        3.53169        5.34620
| 11> H          0.99957        2.92898        2.59199
| 12> H          0.99576        2.27685        4.21303
| 13> H          1.37223        3.96279        3.95046
| 14> *
| 15> %MaxCore 64000
| 16>
| 17> %pal nprocs 4
| 18> end
| 19>
| 20> %scf
| 21>   MaxIter 150
| 22> end
| 23>
| 24>
| 25>                          ****END OF INPUT****

CARTESIAN COORDINATES (ANGSTROEM)
---------------------------------
  C     -0.699120    3.489450    3.755160
  H     -0.966720    4.349010    3.140490
  N     -1.080670    3.792960    5.156860
  C      0.776960    3.138390    3.617410
  H     -1.331460    2.656510    3.446320
  H     -0.874490    4.762740    5.427340
  H     -0.680790    3.134760    5.839000
  H     -2.057550    3.531690    5.346200
  H      0.999570    2.928980    2.591990
  H      0.995760    2.276850    4.213030
  H      1.372230    3.962790    3.950460

 Total Charge           Charge          ....    1
 Multiplicity           Mult            ....    1
 Number of Electrons    NEL             ....   26
 Basis Dimension        Dim             ....  183

ORBITAL ENERGIES
----------------

  NO   OCC          E(Eh)            E(eV)
   0   2.0000     -14.650095      -398.6494
   1   2.0000     -10.422795      -283.6187
   2   2.0000     -10.341764      -281.4137
   3   2.0000      -1.217840       -33.1391
   4   2.0000      -0.966557       -26.3014
   5   2.0000      -0.846050       -23.0222
   6   2.0000      -0.815536       -22.1919
   7   2.0000      -0.767059       -20.8727
   8   2.0000      -0.699480       -19.0338
   9   2.0000      -0.643694       -17.5158
  10   2.0000      -0.582401       -15.8479
  11   2.0000      -0.568562       -15.4714
  12   2.0000      -0.551938       -15.0190
  13   0.0000      -0.205285        -5.5861
  14   0.0000      -0.145548        -3.9606
  15   0.0000      -0.143649        -3.9089
  16   0.0000      -0.133359        -3.6289
  17   0.0000      -0.105401        -2.8681

MULLIKEN ATOMIC CHARGES
-----------------------
   0 C :   -0.267382
   1 H :    0.296354
   2 N :   -0.267706
   3 C :   -1.052198
   4 H :    0.289778
   5 H :    0.334357
   6 H :    0.323995
   7 H :    0.336808
   8 H :    0.312780
   9 H :    0.353137
  10 H :    0.340079
Sum of atomic charges:    1.0000000

LOEWDIN ATOMIC CHARGES
----------------------
   0 C :   -0.195229
   1 H :    0.135695
   2 N :    0.179503
   3 C :   -0.048207
   4 H :    0.133201
   5 H :    0.185002
   6 H :    0.178064
   7 H :    0.179729
   8 H :    0.090702
   9 H :    0.080313
  10 H :    0.081229

  Mayer bond orders larger than 0.100000
B(  0-C ,  1-H ) :   0.9402 B(  0-C ,  2-N ) :   0.9353 B(  0-C ,  3-C ) :   0.6695
B(  0-C ,  4-H ) :   0.9054 B(  2-N ,  5-H ) :   0.8697 B(  2-N ,  6-H ) :   0.8767
B(  2-N ,  7-H ) :   0.8758 B(  3-C ,  8-H ) :   0.9762 B(  3-C ,  9-H ) :   0.9134
B(  3-C , 10-H ) :   0.9553

Dispersion correction           -0.009988775
FINAL SINGLE POINT ENERGY      -135.501205082349

DIPOLE MOMENT
-------------
                                X             Y             Z
Electronic contribution:     -1.31493       0.56864       1.08068
Nuclear contribution   :      0.33986      -0.24565       0.10678
                        -----------------------------------------
Total Dipole Moment    :     -0.97507       0.32299       1.18746
                        -----------------------------------------
Magnitude (a.u.)       :      1.57008
Magnitude (Debye)      :      3.99082

Rotational constants in cm-1:     1.016237     0.277523     0.247812
Rotational constants in MHz : 30466.024354  8319.937961  7429.230177

                             ****ORCA TERMINATED NORMALLY****
TOTAL RUN TIME: 0 days 0 hours 0 minutes 17 seconds 271 msec
