                         Program Version 5.0.0 -  RELEASE  -
|  1> !B3LYP D3BJ RIJCOSX def2-TZVPD def2/J TightSCF xyzfile
|  2>
|  3> *xyzfile 0 1 B.xyz
|  4>
|  5> %MaxCore 64000
|  6>
|  7> %pal nprocs 4
|  8> end
|  9>
| 10> %scf
| 11>   MaxIter 150
| 12> end
| 13>
| 14>
| 15>                          ****END OF INPUT****

CARTESIAN COORDINATES (ANGSTROEM)
---------------------------------
  C     -0.699123    3.489451    3.755163
  H     -0.966716    4.349013    3.140491
  N     -1.080669    3.792957    5.156857
  C      0.776956    3.138391    3.617408
  H     -1.331455    2.656510    3.446323
  H      1.371398    3.888342    4.149744
  H      1.046926    3.232057    2.561331
  C      1.118917    1.731170    4.115155
  H      2.200573    1.654226    4.254882
  C      0.659466    0.635182    3.153306
  H      0.677024    1.576674    5.103150
  H      1.312288    0.638870    2.274207
  H     -0.339563    0.868049    2.772876
  C      0.639957   -0.771175    3.755619
  C     -0.341821   -0.965537    4.915046
  H      1.648266   -1.028665    4.097015
  H      0.398568   -1.482386    2.958453
  H     -0.279892   -2.005646    5.252547
  C     -1.789164   -0.639231    4.557496
  H     -0.032380   -0.352918    5.765118
  H     -2.107151   -1.270102    3.719619
  H     -1.856352    0.391636    4.197604
  C     -2.790700   -0.785275    5.702812
  H     -2.867308   -1.835651    6.001675
  H     -3.774554   -0.486577    5.334807
  C     -2.453797    0.055101    6.941445
  C     -2.078419    1.480421    6.564098
  H     -1.625584   -0.382163    7.498914
  H     -3.325274    0.087746    7.599175
  H     -0.874488    4.762737    5.427344
  H     -0.680793    3.134762    5.839000
  H     -2.057550    3.531691    5.346197
  O     -0.901252    1.858156    6.828104
  O     -2.936582    2.177309    5.964151

 Total Charge           Charge          ....    0
 Multiplicity           Mult            ....    1
 Number of Electrons    NEL             ....  104
 Basis Dimension        Dim             ....  676

ORBITAL ENERGIES
----------------

  NO   OCC          E(Eh)            E(eV)
   0   2.0000     -19.060542      -518.6637
   1   2.0000     -19.058984      -518.6213
   2   2.0000     -14.394408      -391.6917
   3   2.0000     -10.242430      -278.7107
   4   2.0000     -10.237562      -278.5782
   5   2.0000     -10.190776      -277.3051
   6   2.0000     -10.166211      -276.6367
   7   2.0000     -10.163080      -276.5515
   8   2.0000     -10.156725      -276.3785
   9   2.0000     -10.147802      -276.1357
  10   2.0000     -10.147374      -276.1241
  11   2.0000     -10.146156      -276.0909
  12   2.0000     -10.140477      -275.9364
  13   2.0000      -1.028587       -27.9893
  14   2.0000      -0.981456       -26.7068
  15   2.0000      -0.930418       -25.3180
  16   2.0000      -0.820975       -22.3399
  17   2.0000      -0.792924       -21.5766
  18   2.0000      -0.764849       -20.8126
  19   2.0000      -0.719039       -19.5660
  20   2.0000      -0.686928       -18.6923
  21   2.0000      -0.648262       -17.6401
  22   2.0000      -0.610440       -16.6109
  23   2.0000      -0.594235       -16.1700
  24   2.0000      -0.575964       -15.6728
  25   2.0000      -0.550161       -14.9706
  26   2.0000      -0.543601       -14.7921
  27   2.0000      -0.501295       -13.6409
  28   2.0000      -0.482995       -13.1430
  29   2.0000      -0.473191       -12.8762
  30   2.0000      -0.470069       -12.7912
  31   2.0000      -0.446125       -12.1397
  32   2.0000      -0.442022       -12.0280
  33   2.0000      -0.431318       -11.7368
  34   2.0000      -0.420485       -11.4420
  35   2.0000      -0.409392       -11.1401
  36   2.0000      -0.399710       -10.8767
  37   2.0000      -0.399165       -10.8618
  38   2.0000      -0.386417       -10.5149
  39   2.0000      -0.377739       -10.2788
  40   2.0000      -0.362647        -9.8681
  41   2.0000      -0.357599        -9.7308
  42   2.0000      -0.350953        -9.5499
  43   2.0000      -0.336168        -9.1476
  44   2.0000      -0.326790        -8.8924
  45   2.0000      -0.321774        -8.7559
  46   2.0000      -0.308242        -8.3877
  47   2.0000      -0.303074        -8.2471
  48   2.0000      -0.297261        -8.0889
  49   2.0000      -0.250033        -6.8037
  50   2.0000      -0.236323        -6.4307
  51   2.0000      -0.233891        -6.3645
  52   0.0000      -0.018595        -0.5060
  53   0.0000       0.008126         0.2211
  54   0.0000       0.013759         0.3744
  55   0.0000       0.018769         0.5107
  56   0.0000       0.029839         0.8120

MULLIKEN ATOMIC CHARGES
-----------------------
   0 C :   -0.506225
   1 H :    0.262085
   2 N :   -0.143820
   3 C :   -0.443522
   4 H :    0.256799
   5 H :    0.224605
   6 H :    0.249307
   7 C :   -0.314958
   8 H :    0.269163
   9 C :   -0.457807
  10 H :    0.310091
  11 H :    0.250255
  12 H :    0.251930
  13 C :   -0.653443
  14 C :   -0.347615
  15 H :    0.226700
  16 H :    0.258505
  17 H :    0.216594
  18 C :   -0.182703
  19 H :    0.260117
  20 H :    0.287374
  21 H :   -0.048699
  22 C :   -0.652687
  23 H :    0.208033
  24 H :    0.249377
  25 C :   -0.422276
  26 C :    0.777547
  27 H :    0.232581
  28 H :    0.284663
  29 H :    0.296160
  30 H :    0.222814
  31 H :    0.317513
  32 O :   -0.868298
  33 O :   -0.870159
Sum of atomic charges:   -0.0000000

LOEWDIN ATOMIC CHARGES
----------------------
   0 C :   -0.157545
   1 H :    0.121039
   2 N :    0.146490
   3 C :   -0.181378
   4 H :    0.114969
   5 H :    0.111442
   6 H :    0.113922
   7 C :   -0.193897
   8 H :    0.116728
   9 C :   -0.211221
  10 H :    0.089790
  11 H :    0.111044
  12 H :    0.093799
  13 C :   -0.201504
  14 C :   -0.202683
  15 H :    0.108493
  16 H :    0.106722
  17 H :    0.114869
  18 C :   -0.204863
  19 H :    0.095080
  20 H :    0.116007
  21 H :    0.089080
  22 C :   -0.192779
  23 H :    0.106844
  24 H :    0.107490
  25 C :   -0.118289
  26 C :   -0.646833
  27 H :    0.106816
  28 H :    0.114597
  29 H :    0.166549
  30 H :    0.067768
  31 H :    0.095086
  32 O :   -0.062662
  33 O :   -0.040970

  Mayer bond orders larger than 0.100000
B(  0-C ,  1-H ) :   0.8988 B(  0-C ,  2-N ) :   0.9181 B(  0-C ,  3-C ) :   0.8842
B(  0-C ,  4-H ) :   0.9598 B(  2-N , 29-H ) :   0.8669 B(  2-N , 30-H ) :   0.8247
B(  2-N , 31-H ) :   0.7784 B(  3-C ,  5-H ) :   0.9445 B(  3-C ,  6-H ) :   0.9301
B(  3-C ,  7-C ) :   0.8886 B(  3-C ,  9-C ) :   0.2010 B(  7-C ,  8-H ) :   0.9003
B(  7-C ,  9-C ) :   0.3474 B(  7-C , 10-H ) :   1.0757 B(  7-C , 11-H ) :  -0.1071
B(  7-C , 13-C ) :   0.2021 B(  7-C , 14-C ) :   0.1083 B(  9-C , 11-H ) :   0.9665
B(  9-C , 12-H ) :   0.9909 B(  9-C , 13-C ) :   0.9487 B(  9-C , 18-C ) :   0.1421
B( 13-C , 14-C ) :   0.8047 B( 13-C , 15-H ) :   0.9831 B( 13-C , 16-H ) :   0.9547
B( 13-C , 18-C ) :   0.1278 B( 14-C , 17-H ) :   0.9445 B( 14-C , 18-C ) :   0.4580
B( 14-C , 19-H ) :   1.0005 B( 14-C , 21-H ) :  -0.2166 B( 14-C , 22-C ) :   0.1509
B( 14-C , 25-C ) :   0.1316 B( 18-C , 20-H ) :   0.8247 B( 18-C , 21-H ) :   1.3848
B( 18-C , 22-C ) :   0.8664 B( 18-C , 25-C ) :  -0.1115 B( 20-H , 21-H ) :   0.1137
B( 21-H , 22-C ) :   0.1878 B( 22-C , 23-H ) :   0.9701 B( 22-C , 24-H ) :   0.9168
B( 22-C , 25-C ) :   0.8533 B( 25-C , 26-C ) :   0.9780 B( 25-C , 27-H ) :   0.9938
B( 25-C , 28-H ) :   0.8968 B( 26-C , 32-O ) :   1.2062 B( 26-C , 33-O ) :   1.0796
B( 30-H , 32-O ) :   0.1894 B( 31-H , 33-O ) :   0.1637 B( 32-O , 33-O ) :   0.1320

Dispersion correction           -0.062212718
FINAL SINGLE POINT ENERGY      -598.852506976184

DIPOLE MOMENT
-------------
                                X             Y             Z
Electronic contribution:     -4.66610       4.82193       6.70995
Nuclear contribution   :      5.60885      -3.40606      -8.06960
                        -----------------------------------------
Total Dipole Moment    :      0.94275       1.41587      -1.35965
                        -----------------------------------------
Magnitude (a.u.)       :      2.17764
Magnitude (Debye)      :      5.53512

Rotational constants in cm-1:     0.028465     0.023505     0.015110
Rotational constants in MHz :   853.363165   704.655786   452.976312

                             ****ORCA TERMINATED NORMALLY****
TOTAL RUN TIME: 0 days 0 hours 6 minutes 19 seconds 286 msec
