                         Program Version 5.0.0 -  RELEASE  -
|  1> !B3LYP D3BJ RIJCOSX def2-TZVPD def2/J TightSCF
|  2> *xyz 0 1
|  3> C         -2.79070       -0.78527        5.70281
|  4> C         -2.45380        0.05510        6.94145
|  5> C         -2.07842        1.48042        6.56410
|  6> H         -1.62558       -0.38216        7.49891
|  7> H         -3.32527        0.08775        7.59917
|  8> F         -0.90125        1.85816        6.82810
|  9> O         -2.93658        2.17731        5.96415
| 10> H         -1.94052       -0.82114        5.05412
| 11> H         -3.61590       -0.34261        5.18514
| 12> H         -3.05063       -1.77815        6.00536
| 13> *
| 14> %MaxCore 64000
| 15>
| 16> %pal nprocs 4
| 17> end
| 18>
| 19> %scf
| 20>   MaxIter 150
| 21> end
| 22>
| 23>
| 24>                          ****END OF INPUT****

CARTESIAN COORDINATES (ANGSTROEM)
---------------------------------
  C     -2.790700   -0.785270    5.702810
  C     -2.453800    0.055100    6.941450
  C     -2.078420    1.480420    6.564100
  H     -1.625580   -0.382160    7.498910
  H     -3.325270    0.087750    7.599170
  F     -0.901250    1.858160    6.828100
  O     -2.936580    2.177310    5.964150
  H     -1.940520   -0.821140    5.054120
  H     -3.615900   -0.342610    5.185140
  H     -3.050630   -1.778150    6.005360

 Total Charge           Charge          ....    0
 Multiplicity           Mult            ....    1
 Number of Electrons    NEL             ....   40
 Basis Dimension        Dim             ....  236

ORBITAL ENERGIES
----------------

  NO   OCC          E(Eh)            E(eV)
   0   2.0000     -24.749989      -673.4814
   1   2.0000     -19.132758      -520.6288
   2   2.0000     -10.348301      -281.5916
   3   2.0000     -10.202184      -277.6155
   4   2.0000     -10.174866      -276.8722
   5   2.0000      -1.314509       -35.7696
   6   2.0000      -1.033754       -28.1299
   7   2.0000      -0.802808       -21.8455
   8   2.0000      -0.690926       -18.8010
   9   2.0000      -0.638854       -17.3841
  10   2.0000      -0.546788       -14.8789
  11   2.0000      -0.533183       -14.5087
  12   2.0000      -0.510058       -13.8794
  13   2.0000      -0.466879       -12.7044
  14   2.0000      -0.436637       -11.8815
  15   2.0000      -0.401825       -10.9342
  16   2.0000      -0.382522       -10.4089
  17   2.0000      -0.377516       -10.2727
  18   2.0000      -0.348904        -9.4942
  19   2.0000      -0.295863        -8.0508
  20   0.0000      -0.036748        -1.0000
  21   0.0000       0.001614         0.0439
  22   0.0000       0.027063         0.7364
  23   0.0000       0.038063         1.0357
  24   0.0000       0.047297         1.2870

MULLIKEN ATOMIC CHARGES
-----------------------
   0 C :   -1.072834
   1 C :   -0.048632
   2 C :    0.517784
   3 H :    0.218883
   4 H :    0.212960
   5 F :   -0.214885
   6 O :   -0.503575
   7 H :    0.326740
   8 H :    0.287577
   9 H :    0.275981
Sum of atomic charges:   -0.0000000

LOEWDIN ATOMIC CHARGES
----------------------
   0 C :   -0.079589
   1 C :   -0.152703
   2 C :   -0.481545
   3 H :    0.106190
   4 H :    0.119673
   5 F :    0.196939
   6 O :    0.079541
   7 H :    0.072850
   8 H :    0.071389
   9 H :    0.067254

  Mayer bond orders larger than 0.100000
B(  0-C ,  1-C ) :   0.6243 B(  0-C ,  2-C ) :   0.1138 B(  0-C ,  7-H ) :   0.9204
B(  0-C ,  8-H ) :   1.0127 B(  0-C ,  9-H ) :   0.9609 B(  1-C ,  2-C ) :   0.9043
B(  1-C ,  3-H ) :   0.9794 B(  1-C ,  4-H ) :   0.9524 B(  2-C ,  5-F ) :   1.0057
B(  2-C ,  6-O ) :   1.7404

Dispersion correction           -0.010412680
FINAL SINGLE POINT ENERGY      -292.383810146711

DIPOLE MOMENT
-------------
                                X             Y             Z
Electronic contribution:      3.96284       7.41435       1.48806
Nuclear contribution   :     -3.69486      -8.49563      -1.04945
                        -----------------------------------------
Total Dipole Moment    :      0.26798      -1.08128       0.43861
                        -----------------------------------------
Magnitude (a.u.)       :      1.19723
Magnitude (Debye)      :      3.04311

Rotational constants in cm-1:     0.293725     0.129218     0.102393
Rotational constants in MHz :  8805.653529  3873.869810  3069.666716

                             ****ORCA TERMINATED NORMALLY****
TOTAL RUN TIME: 0 days 0 hours 0 minutes 28 seconds 608 msec
