                         Program Version 5.0.0 -  RELEASE  -
|  1> !B3LYP D3BJ RIJCOSX def2-TZVPD def2/J TightSCF
|  2> *xyz 0 1
|  3> C         -0.69912        3.48945        3.75516
|  4> H         -0.96672        4.34901        3.14049
|  5> C         -1.08067        3.79296        5.15686
|  6> C          0.77696        3.13839        3.61741
|  7> H         -1.33146        2.65651        3.44632
|  8> H         -0.87449        4.76274        5.42734
|  9> H         -0.68079        3.13476        5.83900
| 10> H         -2.05755        3.53169        5.34620
| 11> H          0.99957        2.92898        2.59199
| 12> H          0.99576        2.27685        4.21303
| 13> H          1.37223        3.96279        3.95046
| 14> *
| 15> %MaxCore 64000
| 16>
| 17> %pal nprocs 4
| 18> end
| 19>
| 20> %scf
| 21>   MaxIter 150
| 22> end
| 23>
| 24>
| 25>                          ****END OF INPUT****

CARTESIAN COORDINATES (ANGSTROEM)
---------------------------------
  C     -0.699120    3.489450    3.755160
  H     -0.966720    4.349010    3.140490
  C     -1.080670    3.792960    5.156860
  C      0.776960    3.138390    3.617410
  H     -1.331460    2.656510    3.446320
  H     -0.874490    4.762740    5.427340
  H     -0.680790    3.134760    5.839000
  H     -2.057550    3.531690    5.346200
  H      0.999570    2.928980    2.591990
  H      0.995760    2.276850    4.213030
  H      1.372230    3.962790    3.950460

 Total Charge           Charge          ....    0
 Multiplicity           Mult            ....    1
 Number of Electrons    NEL             ....   26
 Basis Dimension        Dim             ....  183

ORBITAL ENERGIES
----------------

  NO   OCC          E(Eh)            E(eV)
   0   2.0000     -10.153954      -276.3031
   1   2.0000     -10.144488      -276.0455
   2   2.0000     -10.126300      -275.5506
   3   2.0000      -0.789543       -21.4845
   4   2.0000      -0.690801       -18.7977
   5   2.0000      -0.587513       -15.9870
   6   2.0000      -0.471002       -12.8166
   7   2.0000      -0.437989       -11.9183
   8   2.0000      -0.399517       -10.8714
   9   2.0000      -0.395397       -10.7593
  10   2.0000      -0.340050        -9.2532
  11   2.0000      -0.329243        -8.9592
  12   2.0000      -0.324841        -8.8394
  13   0.0000       0.012351         0.3361
  14   0.0000       0.036318         0.9883
  15   0.0000       0.039755         1.0818
  16   0.0000       0.058152         1.5824
  17   0.0000       0.081992         2.2311

MULLIKEN ATOMIC CHARGES
-----------------------
   0 C :    0.059208
   1 H :    0.204203
   2 C :   -1.272892
   3 C :   -1.042215
   4 H :    0.204222
   5 H :    0.309083
   6 H :    0.344335
   7 H :    0.352618
   8 H :    0.275621
   9 H :    0.282205
  10 H :    0.283610
Sum of atomic charges:   -0.0000000

LOEWDIN ATOMIC CHARGES
----------------------
   0 C :   -0.309688
   1 H :    0.101781
   2 C :   -0.127933
   3 C :   -0.109608
   4 H :    0.100580
   5 H :    0.055960
   6 H :    0.052037
   7 H :    0.049945
   8 H :    0.058174
   9 H :    0.063857
  10 H :    0.064895

  Mayer bond orders larger than 0.100000
B(  0-C ,  1-H ) :   0.9855 B(  0-C ,  2-C ) :   0.6300 B(  0-C ,  3-C ) :   0.6340
B(  0-C ,  4-H ) :   0.9956 B(  2-C ,  3-C ) :   0.1084 B(  2-C ,  5-H ) :   0.9534
B(  2-C ,  6-H ) :   0.9565 B(  2-C ,  7-H ) :   0.9285 B(  3-C ,  8-H ) :   0.9956
B(  3-C ,  9-H ) :   0.9803 B(  3-C , 10-H ) :   0.9826

Dispersion correction           -0.010066383
FINAL SINGLE POINT ENERGY      -119.090036530991

DIPOLE MOMENT
-------------
                                X             Y             Z
Electronic contribution:     -0.14185       0.12234      -0.39761
Nuclear contribution   :      0.10024      -0.14218       0.41628
                        -----------------------------------------
Total Dipole Moment    :     -0.04160      -0.01984       0.01867
                        -----------------------------------------
Magnitude (a.u.)       :      0.04973
Magnitude (Debye)      :      0.12640

Rotational constants in cm-1:     1.024179     0.291605     0.259489
Rotational constants in MHz : 30704.103454  8742.106283  7779.285909

                             ****ORCA TERMINATED NORMALLY****
TOTAL RUN TIME: 0 days 0 hours 0 minutes 18 seconds 437 msec
