                         Program Version 5.0.0 -  RELEASE  -
|  1> !B3LYP D3BJ RIJCOSX def2-TZVPD def2/J TightSCF
|  2> *xyz 0 1
|  3> C         -2.79070       -0.78527        5.70281
|  4> C         -2.45380        0.05510        6.94145
|  5> C         -2.07842        1.48042        6.56410
|  6> H         -1.62558       -0.38216        7.49891
|  7> H         -3.32527        0.08775        7.59917
|  8> O         -0.90125        1.85816        6.82810
|  9> F         -2.93658        2.17731        5.96415
| 10> H         -1.94052       -0.82114        5.05412
| 11> H         -3.61590       -0.34261        5.18514
| 12> H         -3.05063       -1.77815        6.00536
| 13> *
| 14> %MaxCore 64000
| 15>
| 16> %pal nprocs 4
| 17> end
| 18>
| 19> %scf
| 20>   MaxIter 150
| 21> end
| 22>
| 23>
| 24>                          ****END OF INPUT****

CARTESIAN COORDINATES (ANGSTROEM)
---------------------------------
  C     -2.790700   -0.785270    5.702810
  C     -2.453800    0.055100    6.941450
  C     -2.078420    1.480420    6.564100
  H     -1.625580   -0.382160    7.498910
  H     -3.325270    0.087750    7.599170
  O     -0.901250    1.858160    6.828100
  F     -2.936580    2.177310    5.964150
  H     -1.940520   -0.821140    5.054120
  H     -3.615900   -0.342610    5.185140
  H     -3.050630   -1.778150    6.005360

 Total Charge           Charge          ....    0
 Multiplicity           Mult            ....    1
 Number of Electrons    NEL             ....   40
 Basis Dimension        Dim             ....  236

ORBITAL ENERGIES
----------------

  NO   OCC          E(Eh)            E(eV)
   0   2.0000     -24.753105      -673.5662
   1   2.0000     -19.131101      -520.5837
   2   2.0000     -10.348148      -281.5874
   3   2.0000     -10.201814      -277.6055
   4   2.0000     -10.178825      -276.9799
   5   2.0000      -1.319812       -35.9139
   6   2.0000      -1.028895       -27.9977
   7   2.0000      -0.805863       -21.9286
   8   2.0000      -0.688944       -18.7471
   9   2.0000      -0.645447       -17.5635
  10   2.0000      -0.551062       -14.9952
  11   2.0000      -0.539658       -14.6848
  12   2.0000      -0.504153       -13.7187
  13   2.0000      -0.467491       -12.7211
  14   2.0000      -0.437662       -11.9094
  15   2.0000      -0.404183       -10.9984
  16   2.0000      -0.385783       -10.4977
  17   2.0000      -0.380293       -10.3483
  18   2.0000      -0.350424        -9.5355
  19   2.0000      -0.289796        -7.8857
  20   0.0000      -0.034222        -0.9312
  21   0.0000      -0.000066        -0.0018
  22   0.0000       0.026851         0.7306
  23   0.0000       0.037287         1.0146
  24   0.0000       0.047713         1.2983

MULLIKEN ATOMIC CHARGES
-----------------------
   0 C :   -1.095010
   1 C :   -0.020154
   2 C :    0.516795
   3 H :    0.188156
   4 H :    0.237584
   5 O :   -0.502293
   6 F :   -0.228394
   7 H :    0.334859
   8 H :    0.297306
   9 H :    0.271151
Sum of atomic charges:   -0.0000000

LOEWDIN ATOMIC CHARGES
----------------------
   0 C :   -0.082159
   1 C :   -0.150246
   2 C :   -0.486747
   3 H :    0.115364
   4 H :    0.115618
   5 O :    0.071397
   6 F :    0.206962
   7 H :    0.074579
   8 H :    0.067594
   9 H :    0.067639

  Mayer bond orders larger than 0.100000
B(  0-C ,  1-C ) :   0.5732 B(  0-C ,  2-C ) :   0.1126 B(  0-C ,  7-H ) :   0.9456
B(  0-C ,  8-H ) :   0.9745 B(  0-C ,  9-H ) :   0.9745 B(  1-C ,  2-C ) :   0.9086
B(  1-C ,  3-H ) :   1.0144 B(  1-C ,  4-H ) :   0.9344 B(  2-C ,  5-O ) :   1.7252
B(  2-C ,  6-F ) :   0.9982

Dispersion correction           -0.010351990
FINAL SINGLE POINT ENERGY      -292.381456057322

DIPOLE MOMENT
-------------
                                X             Y             Z
Electronic contribution:      0.57478       7.92243       0.05473
Nuclear contribution   :     -1.47571      -8.84360      -0.10748
                        -----------------------------------------
Total Dipole Moment    :     -0.90093      -0.92117      -0.05275
                        -----------------------------------------
Magnitude (a.u.)       :      1.28958
Magnitude (Debye)      :      3.27785

Rotational constants in cm-1:     0.283081     0.133379     0.103386
Rotational constants in MHz :  8486.545774  3998.599544  3099.448040

                             ****ORCA TERMINATED NORMALLY****
TOTAL RUN TIME: 0 days 0 hours 0 minutes 28 seconds 608 msec
