                         Program Version 5.0.0 -  RELEASE  -
|  1> !B3LYP D3BJ RIJCOSX def2-TZVPD def2/J TightSCF xyzfile
|  2>
|  3> *xyzfile 0 1 D1.xyz
|  4>
|  5> %MaxCore 64000
|  6>
|  7> %pal nprocs 4
|  8> end
|  9>
| 10> %scf
| 11>   MaxIter 150
| 12> end
| 13>
| 14>
| 15>                          ****END OF INPUT****

CARTESIAN COORDINATES (ANGSTROEM)
---------------------------------
  C     -0.699123    3.489451    3.755163
  H     -0.966716    4.349013    3.140491
  C     -1.080669    3.792957    5.156857
  C      0.776956    3.138391    3.617408
  H     -1.331455    2.656510    3.446323
  H      1.371398    3.888342    4.149744
  H      1.046926    3.232057    2.561331
  C      1.118917    1.731170    4.115155
  H      2.200573    1.654226    4.254882
  C      0.659466    0.635182    3.153306
  H      0.677024    1.576674    5.103150
  H      1.312288    0.638870    2.274207
  H     -0.339563    0.868049    2.772876
  C      0.639957   -0.771175    3.755619
  C     -0.341821   -0.965537    4.915046
  H      1.648266   -1.028665    4.097015
  H      0.398568   -1.482386    2.958453
  H     -0.279892   -2.005646    5.252547
  C     -1.789164   -0.639231    4.557496
  H     -0.032380   -0.352918    5.765118
  H     -2.107151   -1.270102    3.719619
  H     -1.856352    0.391636    4.197604
  C     -2.790700   -0.785275    5.702812
  H     -2.867308   -1.835651    6.001675
  H     -3.774554   -0.486577    5.334807
  C     -2.453797    0.055101    6.941445
  C     -2.078419    1.480421    6.564098
  H     -1.625584   -0.382163    7.498914
  H     -3.325274    0.087746    7.599175
  H     -0.874488    4.762737    5.427344
  H     -0.680793    3.134762    5.839000
  H     -2.057550    3.531691    5.346197
  F     -0.901252    1.858156    6.828104
  O     -2.936582    2.177309    5.964151

 Total Charge           Charge          ....    0
 Multiplicity           Mult            ....    1
 Number of Electrons    NEL             ....  104
 Basis Dimension        Dim             ....  676

ORBITAL ENERGIES
----------------

  NO   OCC          E(Eh)            E(eV)
   0   2.0000     -24.759087      -673.7290
   1   2.0000     -19.138000      -520.7715
   2   2.0000     -10.358040      -281.8566
   3   2.0000     -10.203231      -277.6440
   4   2.0000     -10.185491      -277.1613
   5   2.0000     -10.170539      -276.7544
   6   2.0000     -10.167591      -276.6742
   7   2.0000     -10.162322      -276.5308
   8   2.0000     -10.155111      -276.3346
   9   2.0000     -10.152360      -276.2598
  10   2.0000     -10.145250      -276.0663
  11   2.0000     -10.135215      -275.7932
  12   2.0000     -10.081103      -274.3208
  13   2.0000      -1.330937       -36.2166
  14   2.0000      -1.047254       -28.4972
  15   2.0000      -0.830612       -22.6021
  16   2.0000      -0.806285       -21.9401
  17   2.0000      -0.776488       -21.1293
  18   2.0000      -0.748655       -20.3719
  19   2.0000      -0.707556       -19.2536
  20   2.0000      -0.684823       -18.6350
  21   2.0000      -0.657975       -17.9044
  22   2.0000      -0.624974       -17.0064
  23   2.0000      -0.607430       -16.5290
  24   2.0000      -0.566319       -15.4103
  25   2.0000      -0.561653       -15.2834
  26   2.0000      -0.554129       -15.0786
  27   2.0000      -0.536823       -14.6077
  28   2.0000      -0.519731       -14.1426
  29   2.0000      -0.479080       -13.0364
  30   2.0000      -0.475502       -12.9391
  31   2.0000      -0.459134       -12.4937
  32   2.0000      -0.455802       -12.4030
  33   2.0000      -0.435955       -11.8629
  34   2.0000      -0.427589       -11.6353
  35   2.0000      -0.413870       -11.2620
  36   2.0000      -0.407386       -11.0855
  37   2.0000      -0.399530       -10.8718
  38   2.0000      -0.388751       -10.5785
  39   2.0000      -0.379701       -10.3322
  40   2.0000      -0.367698       -10.0056
  41   2.0000      -0.360325        -9.8049
  42   2.0000      -0.352198        -9.5838
  43   2.0000      -0.345613        -9.4046
  44   2.0000      -0.338340        -9.2067
  45   2.0000      -0.328925        -8.9505
  46   2.0000      -0.323368        -8.7993
  47   2.0000      -0.313321        -8.5259
  48   2.0000      -0.309485        -8.4215
  49   2.0000      -0.299166        -8.1407
  50   2.0000      -0.295543        -8.0421
  51   2.0000      -0.266685        -7.2569
  52   0.0000      -0.046788        -1.2732
  53   0.0000       0.000925         0.0252
  54   0.0000       0.013632         0.3710
  55   0.0000       0.016448         0.4476
  56   0.0000       0.022991         0.6256

MULLIKEN ATOMIC CHARGES
-----------------------
   0 C :   -0.054934
   1 H :    0.207616
   2 C :   -1.989127
   3 C :   -0.430040
   4 H :    0.209317
   5 H :    0.237089
   6 H :    0.172883
   7 C :   -0.299670
   8 H :    0.260577
   9 C :   -0.428195
  10 H :    0.183607
  11 H :    0.267114
  12 H :    0.214584
  13 C :   -0.659257
  14 C :   -0.317035
  15 H :    0.232118
  16 H :    0.253990
  17 H :    0.214375
  18 C :   -0.242192
  19 H :    0.236780
  20 H :    0.302414
  21 H :    0.005005
  22 C :   -0.582776
  23 H :    0.222394
  24 H :    0.273001
  25 C :   -0.489945
  26 C :    0.713440
  27 H :    0.274260
  28 H :    0.277933
  29 H :    0.424192
  30 H :    0.580020
  31 H :    0.612667
  32 F :   -0.299689
  33 O :   -0.582516
Sum of atomic charges:    0.0000000

LOEWDIN ATOMIC CHARGES
----------------------
   0 C :   -0.233827
   1 H :    0.107816
   2 C :   -0.116861
   3 C :   -0.203291
   4 H :    0.094522
   5 H :    0.110368
   6 H :    0.104529
   7 C :   -0.197800
   8 H :    0.112536
   9 C :   -0.210974
  10 H :    0.086863
  11 H :    0.112497
  12 H :    0.095015
  13 C :   -0.202121
  14 C :   -0.205189
  15 H :    0.108857
  16 H :    0.107471
  17 H :    0.115255
  18 C :   -0.200313
  19 H :    0.091563
  20 H :    0.122021
  21 H :    0.094886
  22 C :   -0.182099
  23 H :    0.113958
  24 H :    0.113898
  25 C :   -0.092995
  26 C :   -0.439978
  27 H :    0.112242
  28 H :    0.125884
  29 H :    0.068034
  30 H :    0.020924
  31 H :    0.019942
  32 F :    0.165371
  33 O :    0.080996

  Mayer bond orders larger than 0.100000
B(  0-C ,  1-H ) :   0.9157 B(  0-C ,  2-C ) :   0.2065 B(  0-C ,  3-C ) :   0.7977
B(  0-C ,  4-H ) :   1.0873 B(  2-C ,  3-C ) :   0.1372 B(  2-C , 29-H ) :   0.7386
B(  2-C , 30-H ) :   0.8789 B(  2-C , 31-H ) :   0.8407 B(  3-C ,  5-H ) :   0.9485
B(  3-C ,  6-H ) :   0.9724 B(  3-C ,  7-C ) :   0.9363 B(  3-C ,  9-C ) :   0.2091
B(  7-C ,  8-H ) :   0.8844 B(  7-C ,  9-C ) :   0.4228 B(  7-C , 10-H ) :   1.1594
B(  7-C , 13-C ) :   0.1807 B(  7-C , 14-C ) :   0.1154 B(  9-C , 11-H ) :   0.9262
B(  9-C , 12-H ) :   1.0302 B(  9-C , 13-C ) :   0.9087 B(  9-C , 18-C ) :   0.1256
B( 13-C , 14-C ) :   0.8631 B( 13-C , 15-H ) :   0.9861 B( 13-C , 16-H ) :   0.9562
B( 13-C , 18-C ) :   0.1241 B( 14-C , 17-H ) :   0.9617 B( 14-C , 18-C ) :   0.4074
B( 14-C , 19-H ) :   1.0088 B( 14-C , 21-H ) :  -0.2155 B( 14-C , 22-C ) :   0.1258
B( 14-C , 25-C ) :   0.1328 B( 18-C , 19-H ) :  -0.1105 B( 18-C , 20-H ) :   0.7997
B( 18-C , 21-H ) :   1.3980 B( 18-C , 22-C ) :   0.8565 B( 18-C , 26-C ) :   0.1013
B( 20-H , 21-H ) :   0.1028 B( 21-H , 22-C ) :   0.1681 B( 22-C , 23-H ) :   0.9707
B( 22-C , 24-H ) :   0.9076 B( 22-C , 25-C ) :   0.8533 B( 22-C , 26-C ) :   0.1002
B( 25-C , 26-C ) :   0.9451 B( 25-C , 27-H ) :   0.9615 B( 25-C , 28-H ) :   0.9070
B( 26-C , 32-F ) :   0.8871 B( 26-C , 33-O ) :   1.5844 B( 29-H , 31-H ) :   0.1121
B( 30-H , 32-F ) :  -0.1933 B( 31-H , 33-O ) :  -0.1349 B( 32-F , 33-O ) :   0.1060

Dispersion correction           -0.061043418
FINAL SINGLE POINT ENERGY      -606.752614300391

DIPOLE MOMENT
-------------
                                X             Y             Z
Electronic contribution:     -5.47761       2.49025      10.84204
Nuclear contribution   :      5.54676      -3.70047     -10.28793
                        -----------------------------------------
Total Dipole Moment    :      0.06915      -1.21022       0.55411
                        -----------------------------------------
Magnitude (a.u.)       :      1.33283
Magnitude (Debye)      :      3.38779

Rotational constants in cm-1:     0.028503     0.023389     0.015214
Rotational constants in MHz :   854.502405   701.197575   456.108322

                             ****ORCA TERMINATED NORMALLY****
TOTAL RUN TIME: 0 days 0 hours 6 minutes 46 seconds 754 msec
