                         Program Version 5.0.0 -  RELEASE  -
|  1> !B3LYP D3BJ RIJCOSX def2-TZVPD def2/J TightSCF xyzfile
|  2>
|  3> *xyzfile 0 1 D2.xyz
|  4>
|  5> %MaxCore 64000
|  6>
|  7> %pal nprocs 4
|  8> end
|  9>
| 10> %scf
| 11>   MaxIter 150
| 12> end
| 13>
| 14>
| 15>                          ****END OF INPUT****

CARTESIAN COORDINATES (ANGSTROEM)
---------------------------------
  C     -0.699123    3.489451    3.755163
  H     -0.966716    4.349013    3.140491
  C     -1.080669    3.792957    5.156857
  C      0.776956    3.138391    3.617408
  H     -1.331455    2.656510    3.446323
  H      1.371398    3.888342    4.149744
  H      1.046926    3.232057    2.561331
  C      1.118917    1.731170    4.115155
  H      2.200573    1.654226    4.254882
  C      0.659466    0.635182    3.153306
  H      0.677024    1.576674    5.103150
  H      1.312288    0.638870    2.274207
  H     -0.339563    0.868049    2.772876
  C      0.639957   -0.771175    3.755619
  C     -0.341821   -0.965537    4.915046
  H      1.648266   -1.028665    4.097015
  H      0.398568   -1.482386    2.958453
  H     -0.279892   -2.005646    5.252547
  C     -1.789164   -0.639231    4.557496
  H     -0.032380   -0.352918    5.765118
  H     -2.107151   -1.270102    3.719619
  H     -1.856352    0.391636    4.197604
  C     -2.790700   -0.785275    5.702812
  H     -2.867308   -1.835651    6.001675
  H     -3.774554   -0.486577    5.334807
  C     -2.453797    0.055101    6.941445
  C     -2.078419    1.480421    6.564098
  H     -1.625584   -0.382163    7.498914
  H     -3.325274    0.087746    7.599175
  H     -0.874488    4.762737    5.427344
  H     -0.680793    3.134762    5.839000
  H     -2.057550    3.531691    5.346197
  O     -0.901252    1.858156    6.828104
  F     -2.936582    2.177309    5.964151

 Total Charge           Charge          ....    0
 Multiplicity           Mult            ....    1
 Number of Electrons    NEL             ....  104
 Basis Dimension        Dim             ....  676

ORBITAL ENERGIES
----------------

  NO   OCC          E(Eh)            E(eV)
   0   2.0000     -24.762369      -673.8183
   1   2.0000     -19.138129      -520.7750
   2   2.0000     -10.359689      -281.9015
   3   2.0000     -10.203651      -277.6555
   4   2.0000     -10.188692      -277.2484
   5   2.0000     -10.172768      -276.8151
   6   2.0000     -10.162184      -276.5271
   7   2.0000     -10.158331      -276.4222
   8   2.0000     -10.151056      -276.2243
   9   2.0000     -10.144275      -276.0397
  10   2.0000     -10.141936      -275.9761
  11   2.0000     -10.135070      -275.7893
  12   2.0000     -10.079945      -274.2893
  13   2.0000      -1.334292       -36.3079
  14   2.0000      -1.046955       -28.4891
  15   2.0000      -0.831961       -22.6388
  16   2.0000      -0.803339       -21.8600
  17   2.0000      -0.774700       -21.0806
  18   2.0000      -0.747107       -20.3298
  19   2.0000      -0.704210       -19.1625
  20   2.0000      -0.682628       -18.5752
  21   2.0000      -0.659846       -17.9553
  22   2.0000      -0.621354       -16.9079
  23   2.0000      -0.608067       -16.5463
  24   2.0000      -0.564323       -15.3560
  25   2.0000      -0.562374       -15.3030
  26   2.0000      -0.556960       -15.1556
  27   2.0000      -0.536516       -14.5993
  28   2.0000      -0.515622       -14.0308
  29   2.0000      -0.481639       -13.1061
  30   2.0000      -0.476876       -12.9765
  31   2.0000      -0.457434       -12.4474
  32   2.0000      -0.451354       -12.2820
  33   2.0000      -0.431141       -11.7319
  34   2.0000      -0.421899       -11.4805
  35   2.0000      -0.417036       -11.3481
  36   2.0000      -0.407597       -11.0913
  37   2.0000      -0.401081       -10.9140
  38   2.0000      -0.387647       -10.5484
  39   2.0000      -0.375595       -10.2205
  40   2.0000      -0.371531       -10.1099
  41   2.0000      -0.366715        -9.9788
  42   2.0000      -0.351453        -9.5635
  43   2.0000      -0.343762        -9.3542
  44   2.0000      -0.337100        -9.1730
  45   2.0000      -0.326720        -8.8905
  46   2.0000      -0.321232        -8.7412
  47   2.0000      -0.311598        -8.4790
  48   2.0000      -0.305262        -8.3066
  49   2.0000      -0.295977        -8.0539
  50   2.0000      -0.293254        -7.9798
  51   2.0000      -0.257893        -7.0176
  52   0.0000      -0.046078        -1.2538
  53   0.0000      -0.001673        -0.0455
  54   0.0000       0.014958         0.4070
  55   0.0000       0.016304         0.4436
  56   0.0000       0.023076         0.6279

MULLIKEN ATOMIC CHARGES
-----------------------
   0 C :   -0.078550
   1 H :    0.200679
   2 C :   -1.969977
   3 C :   -0.459655
   4 H :    0.215101
   5 H :    0.240410
   6 H :    0.173013
   7 C :   -0.361294
   8 H :    0.248869
   9 C :   -0.426038
  10 H :    0.281004
  11 H :    0.264916
  12 H :    0.205663
  13 C :   -0.639102
  14 C :   -0.365187
  15 H :    0.227337
  16 H :    0.248891
  17 H :    0.217454
  18 C :   -0.118115
  19 H :    0.275517
  20 H :    0.297717
  21 H :   -0.045215
  22 C :   -0.675744
  23 H :    0.222968
  24 H :    0.282939
  25 C :   -0.438701
  26 C :    0.673836
  27 H :    0.244261
  28 H :    0.315296
  29 H :    0.410259
  30 H :    0.714642
  31 H :    0.477151
  32 O :   -0.582117
  33 F :   -0.278228
Sum of atomic charges:    0.0000000

LOEWDIN ATOMIC CHARGES
----------------------
   0 C :   -0.237169
   1 H :    0.105303
   2 C :   -0.116777
   3 C :   -0.200791
   4 H :    0.091665
   5 H :    0.111370
   6 H :    0.103744
   7 C :   -0.194695
   8 H :    0.112736
   9 C :   -0.211732
  10 H :    0.088175
  11 H :    0.111537
  12 H :    0.093306
  13 C :   -0.201907
  14 C :   -0.202649
  15 H :    0.109258
  16 H :    0.106201
  17 H :    0.115064
  18 C :   -0.200899
  19 H :    0.094392
  20 H :    0.121304
  21 H :    0.094010
  22 C :   -0.186910
  23 H :    0.114202
  24 H :    0.110242
  25 C :   -0.088382
  26 C :   -0.437571
  27 H :    0.120836
  28 H :    0.122551
  29 H :    0.068417
  30 H :    0.000689
  31 H :    0.034753
  32 O :    0.054484
  33 F :    0.195244

  Mayer bond orders larger than 0.100000
B(  0-C ,  1-H ) :   0.9339 B(  0-C ,  2-C ) :   0.1772 B(  0-C ,  3-C ) :   0.8410
B(  0-C ,  4-H ) :   1.0767 B(  2-C ,  3-C ) :   0.1737 B(  2-C , 29-H ) :   0.7569
B(  2-C , 30-H ) :   0.8149 B(  2-C , 31-H ) :   0.9235 B(  3-C ,  5-H ) :   0.9393
B(  3-C ,  6-H ) :   0.9765 B(  3-C ,  7-C ) :   0.9466 B(  3-C ,  9-C ) :   0.2162
B(  7-C ,  8-H ) :   0.8895 B(  7-C ,  9-C ) :   0.3766 B(  7-C , 10-H ) :   1.1233
B(  7-C , 13-C ) :   0.1845 B(  7-C , 14-C ) :   0.1248 B(  9-C , 11-H ) :   0.9311
B(  9-C , 12-H ) :   1.0380 B(  9-C , 13-C ) :   0.9079 B(  9-C , 18-C ) :   0.1330
B( 13-C , 14-C ) :   0.8421 B( 13-C , 15-H ) :   0.9842 B( 13-C , 16-H ) :   0.9616
B( 13-C , 18-C ) :   0.1240 B( 14-C , 17-H ) :   0.9555 B( 14-C , 18-C ) :   0.4447
B( 14-C , 19-H ) :   0.9924 B( 14-C , 21-H ) :  -0.1940 B( 14-C , 22-C ) :   0.1440
B( 14-C , 25-C ) :   0.1465 B( 18-C , 20-H ) :   0.8289 B( 18-C , 21-H ) :   1.3385
B( 18-C , 22-C ) :   0.7759 B( 18-C , 25-C ) :  -0.1497 B( 21-H , 22-C ) :   0.1820
B( 22-C , 23-H ) :   0.9613 B( 22-C , 24-H ) :   0.9324 B( 22-C , 25-C ) :   0.8093
B( 22-C , 26-C ) :   0.1045 B( 25-C , 26-C ) :   0.9625 B( 25-C , 27-H ) :   0.9892
B( 25-C , 28-H ) :   0.8907 B( 26-C , 32-O ) :   1.7003 B( 26-C , 33-F ) :   0.7826
B( 29-H , 31-H ) :   0.1079 B( 30-H , 32-O ) :  -0.2741 B( 32-O , 33-F ) :   0.1143

Dispersion correction           -0.061191718
FINAL SINGLE POINT ENERGY      -606.751030238091

DIPOLE MOMENT
-------------
                                X             Y             Z
Electronic contribution:     -8.94338       3.01829       9.46709
Nuclear contribution   :      8.07181      -4.09641      -9.21610
                        -----------------------------------------
Total Dipole Moment    :     -0.87158      -1.07812       0.25098
                        -----------------------------------------
Magnitude (a.u.)       :      1.40890
Magnitude (Debye)      :      3.58113

Rotational constants in cm-1:     0.028400     0.023377     0.015073
Rotational constants in MHz :   851.414727   700.831775   451.871218

                             ****ORCA TERMINATED NORMALLY****
TOTAL RUN TIME: 0 days 0 hours 6 minutes 40 seconds 5 msec
