                         Program Version 5.0.0 -  RELEASE  -
|  1> !wB97X-D3 RIJCOSX def2-TZVP def2/J TightSCF
|  2> *xyz -1 1
|  3> C          3.38093        2.08304       -3.35013
|  4> C          2.49556        1.81615       -2.13636
|  5> C          1.87218        0.42790       -2.07750
|  6> H          2.61427       -0.36583       -2.19889
|  7> H          1.38995        0.27309       -1.11236
|  8> S          0.57902        0.14047       -3.29794
|  9> O          0.22886       -1.24687       -3.12787
| 10> O         -0.43927        1.11897       -3.01455
| 11> O          1.24788        0.40347       -4.59565
| 12> H          1.69700        2.56197       -2.14111
| 13> H          3.08079        1.98744       -1.22584
| 14> H          2.81820        1.91840       -4.24519
| 15> H          4.22171        1.42153       -3.33067
| 16> H          3.72372        3.09635       -3.32565
| 17> *
| 18>
| 19> %MaxCore 64000
| 20>
| 21> %pal nprocs 8
| 22> end
| 23>
| 24> %scf
| 25>   MaxIter 150
| 26> end
| 27>
| 28>
| 29>                          ****END OF INPUT****

CARTESIAN COORDINATES (ANGSTROEM)
---------------------------------
  C      3.380930    2.083040   -3.350130
  C      2.495560    1.816150   -2.136360
  C      1.872180    0.427900   -2.077500
  H      2.614270   -0.365830   -2.198890
  H      1.389950    0.273090   -1.112360
  S      0.579020    0.140470   -3.297940
  O      0.228860   -1.246870   -3.127870
  O     -0.439270    1.118970   -3.014550
  O      1.247880    0.403470   -4.595650
  H      1.697000    2.561970   -2.141110
  H      3.080790    1.987440   -1.225840
  H      2.818200    1.918400   -4.245190
  H      4.221710    1.421530   -3.330670
  H      3.723720    3.096350   -3.325650

 Total Charge           Charge          ....   -1
 Multiplicity           Mult            ....    1
 Number of Electrons    NEL             ....   66
 Basis Dimension        Dim             ....  265

ORBITAL ENERGIES
----------------

  NO   OCC          E(Eh)            E(eV)
   0   2.0000     -88.931654     -2419.9533
   1   2.0000     -19.007947      -517.2325
   2   2.0000     -19.007761      -517.2275
   3   2.0000     -18.993797      -516.8475
   4   2.0000     -10.138131      -275.8726
   5   2.0000     -10.131171      -275.6832
   6   2.0000     -10.116527      -275.2847
   7   2.0000      -7.994451      -217.5401
   8   2.0000      -5.948752      -161.8738
   9   2.0000      -5.947505      -161.8398
  10   2.0000      -5.947085      -161.8284
  11   2.0000      -1.040368       -28.3099
  12   2.0000      -0.909746       -24.7554
  13   2.0000      -0.885244       -24.0887
  14   2.0000      -0.768830       -20.9209
  15   2.0000      -0.674830       -18.3631
  16   2.0000      -0.573384       -15.6026
  17   2.0000      -0.485885       -13.2216
  18   2.0000      -0.432255       -11.7623
  19   2.0000      -0.415078       -11.2948
  20   2.0000      -0.386950       -10.5294
  21   2.0000      -0.373969       -10.1762
  22   2.0000      -0.361895        -9.8477
  23   2.0000      -0.348615        -9.4863
  24   2.0000      -0.311106        -8.4656
  25   2.0000      -0.302516        -8.2319
  26   2.0000      -0.291465        -7.9312
  27   2.0000      -0.249390        -6.7862
  28   2.0000      -0.248196        -6.7538
  29   2.0000      -0.212198        -5.7742
  30   2.0000      -0.201422        -5.4810
  31   2.0000      -0.188062        -5.1174
  32   2.0000      -0.158219        -4.3054
  33   0.0000       0.242760         6.6058
  34   0.0000       0.282984         7.7004
  35   0.0000       0.291691         7.9373
  36   0.0000       0.309899         8.4328
  37   0.0000       0.318444         8.6653

MULLIKEN ATOMIC CHARGES
-----------------------
   0 C :   -0.331386
   1 C :   -0.156878
   2 C :   -0.241841
   3 H :    0.080991
   4 H :    0.081330
   5 S :    0.853232
   6 O :   -0.557365
   7 O :   -0.557120
   8 O :   -0.604336
   9 H :    0.100528
  10 H :    0.046277
  11 H :    0.161267
  12 H :    0.062638
  13 H :    0.062663
Sum of atomic charges:   -1.0000000

LOEWDIN ATOMIC CHARGES
----------------------
   0 C :   -0.322714
   1 C :   -0.324982
   2 C :   -0.404203
   3 H :    0.120048
   4 H :    0.119646
   5 S :    0.412644
   6 O :   -0.376619
   7 O :   -0.375585
   8 O :   -0.423820
   9 H :    0.135177
  10 H :    0.116422
  11 H :    0.123464
  12 H :    0.102530
  13 H :    0.097992

  Mayer bond orders larger than 0.100000
B(  0-C ,  1-C ) :   0.9780 B(  0-C , 11-H ) :   0.9631 B(  0-C , 12-H ) :   0.9797
B(  0-C , 13-H ) :   0.9790 B(  1-C ,  2-C ) :   0.9743 B(  1-C ,  9-H ) :   0.9733
B(  1-C , 10-H ) :   0.9709 B(  2-C ,  3-H ) :   0.9608 B(  2-C ,  4-H ) :   0.9652
B(  2-C ,  5-S ) :   0.8831 B(  5-S ,  6-O ) :   1.8231 B(  5-S ,  7-O ) :   1.7830
B(  5-S ,  8-O ) :   1.6997

Dispersion correction           -0.004485001
FINAL SINGLE POINT ENERGY      -742.536724419671

DIPOLE MOMENT
-------------
                                X             Y             Z
Electronic contribution:     -8.89608      -5.59479      -2.92994
Nuclear contribution   :     10.42821       6.37804       4.08250
                        -----------------------------------------
Total Dipole Moment    :      1.53213       0.78324       1.15257
                        -----------------------------------------
Magnitude (a.u.)       :      2.07106
Magnitude (Debye)      :      5.26422

Rotational constants in cm-1:     0.136992     0.054831     0.052480
Rotational constants in MHz :  4106.928256  1643.799656  1573.299166

                             ****ORCA TERMINATED NORMALLY****
TOTAL RUN TIME: 0 days 0 hours 0 minutes 27 seconds 734 msec
