                         Program Version 5.0.0 -  RELEASE  -
|  1> !wB97X-D3 RIJCOSX def2-TZVP def2/J TightSCF
|  2> *xyz 1 1
|  3> C          3.38093        2.08304       -3.35013
|  4> N          4.53592        1.18245       -3.42852
|  5> C          2.49556        1.81615       -2.13636
|  6> C          1.87218        0.42790       -2.07750
|  7> C          4.67196        0.12227       -4.22060
|  8> N          5.86602       -0.50785       -4.22428
|  9> N          3.69888       -0.31284       -4.98699
| 10> H          2.73141       -0.05009       -4.84900
| 11> H          3.89005       -1.05517       -5.64373
| 12> H          5.25193        1.30346       -2.72101
| 13> H          6.69516       -0.06232       -3.85160
| 14> H          5.97538       -1.39688       -4.69141
| 15> H          1.69700        2.56197       -2.14111
| 16> H          3.08079        1.98744       -1.22584
| 17> H          2.80646        1.98651       -4.26848
| 18> H          3.77871        3.09828       -3.30738
| 19> H          1.29954        0.25615       -2.96490
| 20> H          1.23321        0.35984       -1.22194
| 21> H          2.64581       -0.30765       -2.00430
| 22> *
| 23>
| 24> %MaxCore 64000
| 25>
| 26> %pal nprocs 8
| 27> end
| 28>
| 29> %scf
| 30>   MaxIter 150
| 31> end
| 32>
| 33>
| 34>                          ****END OF INPUT****

CARTESIAN COORDINATES (ANGSTROEM)
---------------------------------
  C      3.380930    2.083040   -3.350130
  N      4.535920    1.182450   -3.428520
  C      2.495560    1.816150   -2.136360
  C      1.872180    0.427900   -2.077500
  C      4.671960    0.122270   -4.220600
  N      5.866020   -0.507850   -4.224280
  N      3.698880   -0.312840   -4.986990
  H      2.731410   -0.050090   -4.849000
  H      3.890050   -1.055170   -5.643730
  H      5.251930    1.303460   -2.721010
  H      6.695160   -0.062320   -3.851600
  H      5.975380   -1.396880   -4.691410
  H      1.697000    2.561970   -2.141110
  H      3.080790    1.987440   -1.225840
  H      2.806460    1.986510   -4.268480
  H      3.778710    3.098280   -3.307380
  H      1.299540    0.256150   -2.964900
  H      1.233210    0.359840   -1.221940
  H      2.645810   -0.307650   -2.004300

 Total Charge           Charge          ....    1
 Multiplicity           Mult            ....    1
 Number of Electrons    NEL             ....   56
 Basis Dimension        Dim             ....  289

ORBITAL ENERGIES
----------------

  NO   OCC          E(Eh)            E(eV)
   0   2.0000     -14.643605      -398.4727
   1   2.0000     -14.640343      -398.3840
   2   2.0000     -14.636826      -398.2883
   3   2.0000     -10.610787      -288.7342
   4   2.0000     -10.475656      -285.0571
   5   2.0000     -10.414806      -283.4013
   6   2.0000     -10.392592      -282.7968
   7   2.0000      -1.328927       -36.1619
   8   2.0000      -1.216890       -33.1133
   9   2.0000      -1.202087       -32.7105
  10   2.0000      -1.055684       -28.7266
  11   2.0000      -0.977676       -26.6039
  12   2.0000      -0.932336       -25.3702
  13   2.0000      -0.888452       -24.1760
  14   2.0000      -0.868177       -23.6243
  15   2.0000      -0.833740       -22.6872
  16   2.0000      -0.793295       -21.5867
  17   2.0000      -0.787178       -21.4202
  18   2.0000      -0.740190       -20.1416
  19   2.0000      -0.730727       -19.8841
  20   2.0000      -0.699020       -19.0213
  21   2.0000      -0.676460       -18.4074
  22   2.0000      -0.651049       -17.7159
  23   2.0000      -0.605505       -16.4766
  24   2.0000      -0.583366       -15.8742
  25   2.0000      -0.576210       -15.6795
  26   2.0000      -0.567907       -15.4535
  27   2.0000      -0.532249       -14.4832
  28   0.0000      -0.078592        -2.1386
  29   0.0000      -0.063230        -1.7206
  30   0.0000      -0.032007        -0.8710
  31   0.0000      -0.020432        -0.5560
  32   0.0000      -0.004578        -0.1246

MULLIKEN ATOMIC CHARGES
-----------------------
   0 C :   -0.228682
   1 N :   -0.302076
   2 C :   -0.159876
   3 C :   -0.387072
   4 C :    0.526072
   5 N :   -0.490722
   6 N :   -0.444370
   7 H :    0.300016
   8 H :    0.293479
   9 H :    0.272125
  10 H :    0.303638
  11 H :    0.297038
  12 H :    0.147216
  13 H :    0.128896
  14 H :    0.168397
  15 H :    0.177998
  16 H :    0.106966
  17 H :    0.168795
  18 H :    0.122162
Sum of atomic charges:    1.0000000

LOEWDIN ATOMIC CHARGES
----------------------
   0 C :   -0.256266
   1 N :    0.167039
   2 C :   -0.287707
   3 C :   -0.297115
   4 C :   -0.403341
   5 N :    0.042807
   6 N :    0.081695
   7 H :    0.195651
   8 H :    0.200980
   9 H :    0.211870
  10 H :    0.196900
  11 H :    0.193900
  12 H :    0.153368
  13 H :    0.144138
  14 H :    0.141122
  15 H :    0.151980
  16 H :    0.113110
  17 H :    0.134197
  18 H :    0.115672

  Mayer bond orders larger than 0.100000
B(  0-C ,  1-N ) :   0.8452 B(  0-C ,  2-C ) :   0.9669 B(  0-C , 14-H ) :   0.9848
B(  0-C , 15-H ) :   0.9589 B(  1-N ,  4-C ) :   1.3832 B(  1-N ,  9-H ) :   0.8997
B(  2-C ,  3-C ) :   0.9401 B(  2-C , 12-H ) :   0.9685 B(  2-C , 13-H ) :   0.9642
B(  3-C , 16-H ) :   0.9791 B(  3-C , 17-H ) :   0.9685 B(  3-C , 18-H ) :   0.9685
B(  4-C ,  5-N ) :   1.2847 B(  4-C ,  6-N ) :   1.3482 B(  5-N , 10-H ) :   0.8918
B(  5-N , 11-H ) :   0.8949 B(  6-N ,  7-H ) :   0.8848 B(  6-N ,  8-H ) :   0.8950

Dispersion correction           -0.005588697
FINAL SINGLE POINT ENERGY      -323.750592341389

DIPOLE MOMENT
-------------
                                X             Y             Z
Electronic contribution:      5.33281      -1.47886      -3.79286
Nuclear contribution   :     -4.20917       0.72396       2.93051
                        -----------------------------------------
Total Dipole Moment    :      1.12364      -0.75490      -0.86234
                        -----------------------------------------
Magnitude (a.u.)       :      1.60502
Magnitude (Debye)      :      4.07963

Rotational constants in cm-1:     0.153116     0.051500     0.046494
Rotational constants in MHz :  4590.307026  1543.937577  1393.864628

                             ****ORCA TERMINATED NORMALLY****
TOTAL RUN TIME: 0 days 0 hours 0 minutes 38 seconds 20 msec
