                         Program Version 5.0.0 -  RELEASE  -
|  1> !wB97X-D3 RIJCOSX def2-TZVP def2/J TightSCF xyzfile
|  2>
|  3> *xyzfile 0 1 B.xyz
|  4>
|  5> %MaxCore 64000
|  6>
|  7> %pal nprocs 18
|  8> end
|  9>
| 10> %scf
| 11>   MaxIter 150
| 12> end
| 13>
| 14>
| 15>                          ****END OF INPUT****

CARTESIAN COORDINATES (ANGSTROEM)
---------------------------------
  C      3.380928    2.083045   -3.350127
  N      4.535924    1.182447   -3.428518
  C      2.495557    1.816150   -2.136364
  C      1.872181    0.427903   -2.077497
  H      2.614270   -0.365825   -2.198894
  H      1.389953    0.273087   -1.112360
  S      0.579024    0.140472   -3.297943
  C      4.671956    0.122273   -4.220598
  N      5.866023   -0.507849   -4.224284
  N      3.698881   -0.312844   -4.986988
  H      2.731405   -0.050091   -4.849000
  H      3.890046   -1.055172   -5.643730
  H      5.251933    1.303459   -2.721014
  H      6.695165   -0.062322   -3.851596
  H      5.975383   -1.396884   -4.691414
  O      0.228860   -1.246868   -3.127871
  O     -0.439269    1.118966   -3.014550
  O      1.247881    0.403474   -4.595647
  H      1.697003    2.561969   -2.141109
  H      3.080787    1.987436   -1.225838
  H      2.806463    1.986511   -4.268484
  H      3.778714    3.098282   -3.307383

 Total Charge           Charge          ....    0
 Multiplicity           Mult            ....    1
 Number of Electrons    NEL             ....   96
 Basis Dimension        Dim             ....  413

ORBITAL ENERGIES
----------------

  NO   OCC          E(Eh)            E(eV)
   0   2.0000     -89.076700     -2423.9002
   1   2.0000     -19.160134      -521.3737
   2   2.0000     -19.143852      -520.9307
   3   2.0000     -19.143807      -520.9295
   4   2.0000     -14.515717      -394.9927
   5   2.0000     -14.510565      -394.8525
   6   2.0000     -14.479770      -394.0146
   7   2.0000     -10.474534      -285.0266
   8   2.0000     -10.338877      -281.3351
   9   2.0000     -10.289082      -279.9802
  10   2.0000     -10.274372      -279.5799
  11   2.0000      -8.139639      -221.4908
  12   2.0000      -6.094212      -165.8320
  13   2.0000      -6.092991      -165.7987
  14   2.0000      -6.091655      -165.7624
  15   2.0000      -1.194855       -32.5136
  16   2.0000      -1.185246       -32.2522
  17   2.0000      -1.083617       -29.4867
  18   2.0000      -1.067837       -29.0573
  19   2.0000      -1.045113       -28.4390
  20   2.0000      -1.044627       -28.4257
  21   2.0000      -0.925007       -25.1707
  22   2.0000      -0.850800       -23.1514
  23   2.0000      -0.794681       -21.6244
  24   2.0000      -0.755290       -20.5525
  25   2.0000      -0.747034       -20.3278
  26   2.0000      -0.709407       -19.3040
  27   2.0000      -0.665843       -18.1185
  28   2.0000      -0.650452       -17.6997
  29   2.0000      -0.631785       -17.1918
  30   2.0000      -0.610951       -16.6248
  31   2.0000      -0.587830       -15.9957
  32   2.0000      -0.573424       -15.6037
  33   2.0000      -0.550662       -14.9843
  34   2.0000      -0.533695       -14.5226
  35   2.0000      -0.517189       -14.0734
  36   2.0000      -0.496923       -13.5220
  37   2.0000      -0.476081       -12.9548
  38   2.0000      -0.468625       -12.7519
  39   2.0000      -0.456353       -12.4180
  40   2.0000      -0.434266       -11.8170
  41   2.0000      -0.403108       -10.9691
  42   2.0000      -0.396752       -10.7962
  43   2.0000      -0.389297       -10.5933
  44   2.0000      -0.356055        -9.6887
  45   2.0000      -0.346464        -9.4278
  46   2.0000      -0.336667        -9.1612
  47   2.0000      -0.306131        -8.3303
  48   0.0000       0.045899         1.2490
  49   0.0000       0.055305         1.5049
  50   0.0000       0.082524         2.2456
  51   0.0000       0.101771         2.7693
  52   0.0000       0.136792         3.7223

MULLIKEN ATOMIC CHARGES
-----------------------
   0 C :   -0.215395
   1 N :   -0.323313
   2 C :   -0.176529
   3 C :   -0.327483
   4 H :    0.111493
   5 H :    0.141966
   6 S :    0.887231
   7 C :    0.506508
   8 N :   -0.517022
   9 N :   -0.416148
  10 H :    0.300201
  11 H :    0.254133
  12 H :    0.243648
  13 H :    0.276911
  14 H :    0.280678
  15 O :   -0.515863
  16 O :   -0.511073
  17 O :   -0.599383
  18 H :    0.152674
  19 H :    0.098764
  20 H :    0.213315
  21 H :    0.134687
Sum of atomic charges:   -0.0000000

LOEWDIN ATOMIC CHARGES
----------------------
   0 C :   -0.262540
   1 N :    0.152631
   2 C :   -0.290773
   3 C :   -0.394393
   4 H :    0.122187
   5 H :    0.138704
   6 S :    0.434670
   7 C :   -0.420828
   8 N :    0.011136
   9 N :    0.090946
  10 H :    0.141153
  11 H :    0.186231
  12 H :    0.198512
  13 H :    0.183126
  14 H :    0.184891
  15 O :   -0.338626
  16 O :   -0.332243
  17 O :   -0.382125
  18 H :    0.156659
  19 H :    0.133334
  20 H :    0.151026
  21 H :    0.136323

  Mayer bond orders larger than 0.100000
B(  0-C ,  1-N ) :   0.8313 B(  0-C ,  2-C ) :   0.9722 B(  0-C , 20-H ) :   0.9578
B(  0-C , 21-H ) :   0.9719 B(  1-N ,  7-C ) :   1.3569 B(  1-N , 12-H ) :   0.9135
B(  2-C ,  3-C ) :   0.9597 B(  2-C , 18-H ) :   0.9538 B(  2-C , 19-H ) :   0.9705
B(  3-C ,  4-H ) :   0.9618 B(  3-C ,  5-H ) :   0.9626 B(  3-C ,  6-S ) :   0.8993
B(  6-S , 15-O ) :   1.8607 B(  6-S , 16-O ) :   1.8384 B(  6-S , 17-O ) :   1.4766
B(  7-C ,  8-N ) :   1.2203 B(  7-C ,  9-N ) :   1.4483 B(  8-N , 13-H ) :   0.9056
B(  8-N , 14-H ) :   0.9045 B(  9-N , 10-H ) :   0.7442 B(  9-N , 11-H ) :   0.9144
B( 10-H , 17-O ) :   0.2208

Dispersion correction           -0.009899726
FINAL SINGLE POINT ENERGY      -947.276762380264

DIPOLE MOMENT
-------------
                                X             Y             Z
Electronic contribution:     -7.01678      -3.22917      -2.44674
Nuclear contribution   :     13.40759       3.44219       2.21042
                        -----------------------------------------
Total Dipole Moment    :      6.39081       0.21302      -0.23632
                        -----------------------------------------
Magnitude (a.u.)       :      6.39873
Magnitude (Debye)      :     16.26427

Rotational constants in cm-1:     0.059860     0.020817     0.017914
Rotational constants in MHz :  1794.564877   624.092098   537.039275

                             ****ORCA TERMINATED NORMALLY****
TOTAL RUN TIME: 0 days 0 hours 0 minutes 38 seconds 228 msec
