                         Program Version 5.0.0 -  RELEASE  -
|  1> !wB97X-D3 RIJCOSX def2-TZVP def2/J TightSCF
|  2> *xyz 0 1
|  3> C          3.38093        2.08304       -3.35013
|  4> C          2.49556        1.81615       -2.13636
|  5> C          1.87218        0.42790       -2.07750
|  6> H          2.61427       -0.36583       -2.19889
|  7> H          1.38995        0.27309       -1.11236
|  8> S          0.57902        0.14047       -3.29794
|  9> F          0.22886       -1.24687       -3.12787
| 10> O         -0.43927        1.11897       -3.01455
| 11> O          1.24788        0.40347       -4.59565
| 12> H          1.69700        2.56197       -2.14111
| 13> H          3.08079        1.98744       -1.22584
| 14> H          2.81820        1.91840       -4.24519
| 15> H          4.22171        1.42153       -3.33067
| 16> H          3.72372        3.09635       -3.32565
| 17> *
| 18>
| 19> %MaxCore 64000
| 20>
| 21> %pal nprocs 8
| 22> end
| 23>
| 24> %scf
| 25>   MaxIter 150
| 26> end
| 27>
| 28>
| 29>                          ****END OF INPUT****

CARTESIAN COORDINATES (ANGSTROEM)
---------------------------------
  C      3.380930    2.083040   -3.350130
  C      2.495560    1.816150   -2.136360
  C      1.872180    0.427900   -2.077500
  H      2.614270   -0.365830   -2.198890
  H      1.389950    0.273090   -1.112360
  S      0.579020    0.140470   -3.297940
  F      0.228860   -1.246870   -3.127870
  O     -0.439270    1.118970   -3.014550
  O      1.247880    0.403470   -4.595650
  H      1.697000    2.561970   -2.141110
  H      3.080790    1.987440   -1.225840
  H      2.818200    1.918400   -4.245190
  H      4.221710    1.421530   -3.330670
  H      3.723720    3.096350   -3.325650

 Total Charge           Charge          ....    0
 Multiplicity           Mult            ....    1
 Number of Electrons    NEL             ....   66
 Basis Dimension        Dim             ....  265

ORBITAL ENERGIES
----------------

  NO   OCC          E(Eh)            E(eV)
   0   2.0000     -89.195471     -2427.1321
   1   2.0000     -24.909590      -677.8244
   2   2.0000     -19.244639      -523.6733
   3   2.0000     -19.229885      -523.2718
   4   2.0000     -10.332684      -281.1666
   5   2.0000     -10.298404      -280.2338
   6   2.0000     -10.257520      -279.1213
   7   2.0000      -8.258927      -224.7368
   8   2.0000      -6.216206      -169.1516
   9   2.0000      -6.209893      -168.9798
  10   2.0000      -6.209601      -168.9718
  11   2.0000      -1.503533       -40.9132
  12   2.0000      -1.222891       -33.2765
  13   2.0000      -1.120351       -30.4863
  14   2.0000      -0.944487       -25.7008
  15   2.0000      -0.868477       -23.6325
  16   2.0000      -0.816915       -22.2294
  17   2.0000      -0.740685       -20.1551
  18   2.0000      -0.695279       -18.9195
  19   2.0000      -0.685892       -18.6641
  20   2.0000      -0.660915       -17.9844
  21   2.0000      -0.593942       -16.1620
  22   2.0000      -0.585608       -15.9352
  23   2.0000      -0.549506       -14.9528
  24   2.0000      -0.539708       -14.6862
  25   2.0000      -0.528529       -14.3820
  26   2.0000      -0.487106       -13.2548
  27   2.0000      -0.465651       -12.6710
  28   2.0000      -0.463591       -12.6149
  29   2.0000      -0.449433       -12.2297
  30   2.0000      -0.430603       -11.7173
  31   2.0000      -0.406478       -11.0608
  32   2.0000      -0.401639       -10.9291
  33   0.0000       0.104802         2.8518
  34   0.0000       0.114621         3.1190
  35   0.0000       0.143853         3.9144
  36   0.0000       0.148142         4.0312
  37   0.0000       0.153048         4.1647

MULLIKEN ATOMIC CHARGES
-----------------------
   0 C :   -0.350824
   1 C :   -0.217549
   2 C :   -0.255448
   3 H :    0.144041
   4 H :    0.148267
   5 S :    0.880717
   6 F :   -0.095214
   7 O :   -0.413244
   8 O :   -0.466895
   9 H :    0.137236
  10 H :    0.115594
  11 H :    0.157310
  12 H :    0.099576
  13 H :    0.116433
Sum of atomic charges:    0.0000000

LOEWDIN ATOMIC CHARGES
----------------------
   0 C :   -0.303557
   1 C :   -0.303926
   2 C :   -0.374216
   3 H :    0.138130
   4 H :    0.138722
   5 S :    0.534850
   6 F :    0.101539
   7 O :   -0.261702
   8 O :   -0.312640
   9 H :    0.146497
  10 H :    0.142087
  11 H :    0.123546
  12 H :    0.113780
  13 H :    0.116891

  Mayer bond orders larger than 0.100000
B(  0-C ,  1-C ) :   0.9857 B(  0-C , 11-H ) :   0.9664 B(  0-C , 12-H ) :   0.9769
B(  0-C , 13-H ) :   0.9781 B(  1-C ,  2-C ) :   0.9743 B(  1-C ,  9-H ) :   0.9684
B(  1-C , 10-H ) :   0.9620 B(  2-C ,  3-H ) :   0.9395 B(  2-C ,  4-H ) :   0.9445
B(  2-C ,  5-S ) :   0.9222 B(  5-S ,  6-F ) :   1.1521 B(  5-S ,  7-O ) :   1.9224
B(  5-S ,  8-O ) :   1.8460

Dispersion correction           -0.004465404
FINAL SINGLE POINT ENERGY      -767.053319409502

DIPOLE MOMENT
-------------
                                X             Y             Z
Electronic contribution:    -10.73655      -8.94632      -2.85407
Nuclear contribution   :     11.47400       8.34657       4.07449
                        -----------------------------------------
Total Dipole Moment    :      0.73744      -0.59975       1.22043
                        -----------------------------------------
Magnitude (a.u.)       :      1.54692
Magnitude (Debye)      :      3.93195

Rotational constants in cm-1:     0.134491     0.052696     0.050832
Rotational constants in MHz :  4031.952949  1579.780527  1523.918863

                             ****ORCA TERMINATED NORMALLY****
TOTAL RUN TIME: 0 days 0 hours 0 minutes 32 seconds 779 msec
