                         Program Version 5.0.0 -  RELEASE  -
|  1> !wB97X-D3 RIJCOSX def2-TZVP def2/J TightSCF
|  2> *xyz 0 1
|  3> C          3.38093        2.08304       -3.35013
|  4> C          4.53592        1.18245       -3.42852
|  5> C          2.49556        1.81615       -2.13636
|  6> C          1.87218        0.42790       -2.07750
|  7> C          4.67196        0.12227       -4.22060
|  8> N          5.86602       -0.50785       -4.22428
|  9> N          3.69888       -0.31284       -4.98699
| 10> H          2.73141       -0.05009       -4.84900
| 11> H          3.89005       -1.05517       -5.64373
| 12> H          5.25193        1.30346       -2.72101
| 13> H          6.69516       -0.06232       -3.85160
| 14> H          5.97538       -1.39688       -4.69141
| 15> H          1.69700        2.56197       -2.14111
| 16> H          3.08079        1.98744       -1.22584
| 17> H          2.80646        1.98651       -4.26848
| 18> H          3.77871        3.09828       -3.30738
| 19> H          1.29954        0.25615       -2.96490
| 20> H          1.23321        0.35984       -1.22194
| 21> H          2.64581       -0.30765       -2.00430
| 22> *
| 23>
| 24> %MaxCore 64000
| 25>
| 26> %pal nprocs 8
| 27> end
| 28>
| 29> %scf
| 30>   MaxIter 150
| 31> end
| 32>
| 33>
| 34>                          ****END OF INPUT****

CARTESIAN COORDINATES (ANGSTROEM)
---------------------------------
  C      3.380930    2.083040   -3.350130
  C      4.535920    1.182450   -3.428520
  C      2.495560    1.816150   -2.136360
  C      1.872180    0.427900   -2.077500
  C      4.671960    0.122270   -4.220600
  N      5.866020   -0.507850   -4.224280
  N      3.698880   -0.312840   -4.986990
  H      2.731410   -0.050090   -4.849000
  H      3.890050   -1.055170   -5.643730
  H      5.251930    1.303460   -2.721010
  H      6.695160   -0.062320   -3.851600
  H      5.975380   -1.396880   -4.691410
  H      1.697000    2.561970   -2.141110
  H      3.080790    1.987440   -1.225840
  H      2.806460    1.986510   -4.268480
  H      3.778710    3.098280   -3.307380
  H      1.299540    0.256150   -2.964900
  H      1.233210    0.359840   -1.221940
  H      2.645810   -0.307650   -2.004300

 Total Charge           Charge          ....    0
 Multiplicity           Mult            ....    1
 Number of Electrons    NEL             ....   56
 Basis Dimension        Dim             ....  289

ORBITAL ENERGIES
----------------

  NO   OCC          E(Eh)            E(eV)
   0   2.0000     -14.421165      -392.4199
   1   2.0000     -14.414195      -392.2302
   2   2.0000     -10.317992      -280.7668
   3   2.0000     -10.248544      -278.8771
   4   2.0000     -10.244146      -278.7574
   5   2.0000     -10.241592      -278.6879
   6   2.0000     -10.190799      -277.3057
   7   2.0000      -1.076959       -29.3056
   8   2.0000      -0.982551       -26.7366
   9   2.0000      -0.899702       -24.4821
  10   2.0000      -0.833813       -22.6892
  11   2.0000      -0.770786       -20.9741
  12   2.0000      -0.704731       -19.1767
  13   2.0000      -0.668999       -18.2044
  14   2.0000      -0.643643       -17.5144
  15   2.0000      -0.608377       -16.5548
  16   2.0000      -0.577058       -15.7025
  17   2.0000      -0.542643       -14.7661
  18   2.0000      -0.532009       -14.4767
  19   2.0000      -0.512359       -13.9420
  20   2.0000      -0.481775       -13.1098
  21   2.0000      -0.470425       -12.8009
  22   2.0000      -0.444067       -12.0837
  23   2.0000      -0.423843       -11.5334
  24   2.0000      -0.406544       -11.0626
  25   2.0000      -0.400855       -10.9078
  26   2.0000      -0.357185        -9.7195
  27   2.0000      -0.241306        -6.5663
  28   0.0000       0.102121         2.7789
  29   0.0000       0.126984         3.4554
  30   0.0000       0.143813         3.9133
  31   0.0000       0.156297         4.2531
  32   0.0000       0.165951         4.5158

MULLIKEN ATOMIC CHARGES
-----------------------
   0 C :   -0.208022
   1 C :   -0.377257
   2 C :   -0.098217
   3 C :   -0.382717
   4 C :    0.398201
   5 N :   -0.539555
   6 N :   -0.524104
   7 H :    0.251440
   8 H :    0.226877
   9 H :    0.094147
  10 H :    0.257839
  11 H :    0.222659
  12 H :    0.082067
  13 H :    0.080710
  14 H :    0.087622
  15 H :    0.094743
  16 H :    0.080752
  17 H :    0.115927
  18 H :    0.136886
Sum of atomic charges:    0.0000000

LOEWDIN ATOMIC CHARGES
----------------------
   0 C :   -0.283090
   1 C :   -0.277798
   2 C :   -0.292578
   3 C :   -0.309833
   4 C :   -0.461905
   5 N :   -0.033121
   6 N :    0.000587
   7 H :    0.173527
   8 H :    0.165378
   9 H :    0.119129
  10 H :    0.175808
  11 H :    0.156677
  12 H :    0.126475
  13 H :    0.131730
  14 H :    0.130405
  15 H :    0.139148
  16 H :    0.105842
  17 H :    0.114127
  18 H :    0.119494

  Mayer bond orders larger than 0.100000
B(  0-C ,  1-C ) :   0.9967 B(  0-C ,  2-C ) :   0.9623 B(  0-C , 14-H ) :   1.0030
B(  0-C , 15-H ) :   0.9776 B(  1-C ,  4-C ) :   1.6745 B(  1-C ,  9-H ) :   0.9962
B(  2-C ,  3-C ) :   0.9566 B(  2-C , 12-H ) :   0.9763 B(  2-C , 13-H ) :   0.9731
B(  3-C , 16-H ) :   0.9860 B(  3-C , 17-H ) :   0.9804 B(  3-C , 18-H ) :   0.9767
B(  4-C ,  5-N ) :   1.1090 B(  4-C ,  6-N ) :   1.1340 B(  5-N , 10-H ) :   0.9175
B(  5-N , 11-H ) :   0.9273 B(  6-N ,  7-H ) :   0.9174 B(  6-N ,  8-H ) :   0.9252

Dispersion correction           -0.005564286
FINAL SINGLE POINT ENERGY      -307.262459988742

DIPOLE MOMENT
-------------
                                X             Y             Z
Electronic contribution:      4.25135      -1.71534      -3.51883
Nuclear contribution   :     -4.04774       0.83876       2.94666
                        -----------------------------------------
Total Dipole Moment    :      0.20361      -0.87658      -0.57217
                        -----------------------------------------
Magnitude (a.u.)       :      1.06641
Magnitude (Debye)      :      2.71059

Rotational constants in cm-1:     0.155283     0.051523     0.046710
Rotational constants in MHz :  4655.262593  1544.606434  1400.328421

                             ****ORCA TERMINATED NORMALLY****
TOTAL RUN TIME: 0 days 0 hours 0 minutes 39 seconds 229 msec
