                         Program Version 5.0.0 -  RELEASE  -
|  1> !wB97X-D3 RIJCOSX def2-TZVP def2/J TightSCF
|  2> *xyz 0 1
|  3> C          3.38093        2.08304       -3.35013
|  4> C          2.49556        1.81615       -2.13636
|  5> C          1.87218        0.42790       -2.07750
|  6> H          2.61427       -0.36583       -2.19889
|  7> H          1.38995        0.27309       -1.11236
|  8> S          0.57902        0.14047       -3.29794
|  9> O          0.22886       -1.24687       -3.12787
| 10> F         -0.43927        1.11897       -3.01455
| 11> O          1.24788        0.40347       -4.59565
| 12> H          1.69700        2.56197       -2.14111
| 13> H          3.08079        1.98744       -1.22584
| 14> H          2.81820        1.91840       -4.24519
| 15> H          4.22171        1.42153       -3.33067
| 16> H          3.72372        3.09635       -3.32565
| 17> *
| 18>
| 19> %MaxCore 64000
| 20>
| 21> %pal nprocs 8
| 22> end
| 23>
| 24> %scf
| 25>   MaxIter 150
| 26> end
| 27>
| 28>
| 29>                          ****END OF INPUT****

CARTESIAN COORDINATES (ANGSTROEM)
---------------------------------
  C      3.380930    2.083040   -3.350130
  C      2.495560    1.816150   -2.136360
  C      1.872180    0.427900   -2.077500
  H      2.614270   -0.365830   -2.198890
  H      1.389950    0.273090   -1.112360
  S      0.579020    0.140470   -3.297940
  O      0.228860   -1.246870   -3.127870
  F     -0.439270    1.118970   -3.014550
  O      1.247880    0.403470   -4.595650
  H      1.697000    2.561970   -2.141110
  H      3.080790    1.987440   -1.225840
  H      2.818200    1.918400   -4.245190
  H      4.221710    1.421530   -3.330670
  H      3.723720    3.096350   -3.325650

 Total Charge           Charge          ....    0
 Multiplicity           Mult            ....    1
 Number of Electrons    NEL             ....   66
 Basis Dimension        Dim             ....  265

ORBITAL ENERGIES
----------------

  NO   OCC          E(Eh)            E(eV)
   0   2.0000     -89.195781     -2427.1406
   1   2.0000     -24.909939      -677.8339
   2   2.0000     -19.244896      -523.6802
   3   2.0000     -19.230611      -523.2915
   4   2.0000     -10.332623      -281.1650
   5   2.0000     -10.301793      -280.3260
   6   2.0000     -10.260841      -279.2117
   7   2.0000      -8.259168      -224.7434
   8   2.0000      -6.216591      -169.1620
   9   2.0000      -6.210119      -168.9859
  10   2.0000      -6.209739      -168.9756
  11   2.0000      -1.504205       -40.9315
  12   2.0000      -1.222274       -33.2598
  13   2.0000      -1.121479       -30.5170
  14   2.0000      -0.948140       -25.8002
  15   2.0000      -0.866079       -23.5672
  16   2.0000      -0.819959       -22.3122
  17   2.0000      -0.741297       -20.1717
  18   2.0000      -0.702532       -19.1169
  19   2.0000      -0.693384       -18.8679
  20   2.0000      -0.651796       -17.7363
  21   2.0000      -0.591538       -16.0966
  22   2.0000      -0.586838       -15.9687
  23   2.0000      -0.554176       -15.0799
  24   2.0000      -0.543321       -14.7845
  25   2.0000      -0.529551       -14.4098
  26   2.0000      -0.488129       -13.2827
  27   2.0000      -0.472511       -12.8577
  28   2.0000      -0.466693       -12.6993
  29   2.0000      -0.452382       -12.3099
  30   2.0000      -0.429207       -11.6793
  31   2.0000      -0.409925       -11.1546
  32   2.0000      -0.399591       -10.8734
  33   0.0000       0.094820         2.5802
  34   0.0000       0.122048         3.3211
  35   0.0000       0.136574         3.7164
  36   0.0000       0.149177         4.0593
  37   0.0000       0.152345         4.1455

MULLIKEN ATOMIC CHARGES
-----------------------
   0 C :   -0.340052
   1 C :   -0.219382
   2 C :   -0.265555
   3 H :    0.167593
   4 H :    0.150778
   5 S :    0.879875
   6 O :   -0.411636
   7 F :   -0.095931
   8 O :   -0.465226
   9 H :    0.110587
  10 H :    0.117699
  11 H :    0.150897
  12 H :    0.105042
  13 H :    0.115312
Sum of atomic charges:    0.0000000

LOEWDIN ATOMIC CHARGES
----------------------
   0 C :   -0.305376
   1 C :   -0.315730
   2 C :   -0.367896
   3 H :    0.151881
   4 H :    0.138831
   5 S :    0.535945
   6 O :   -0.261777
   7 F :    0.103371
   8 O :   -0.310581
   9 H :    0.136478
  10 H :    0.141084
  11 H :    0.121764
  12 H :    0.115839
  13 H :    0.116167

  Mayer bond orders larger than 0.100000
B(  0-C ,  1-C ) :   0.9801 B(  0-C , 11-H ) :   0.9644 B(  0-C , 12-H ) :   0.9763
B(  0-C , 13-H ) :   0.9778 B(  1-C ,  2-C ) :   0.9600 B(  1-C ,  9-H ) :   0.9758
B(  1-C , 10-H ) :   0.9649 B(  2-C ,  3-H ) :   0.9422 B(  2-C ,  4-H ) :   0.9519
B(  2-C ,  5-S ) :   0.9155 B(  5-S ,  6-O ) :   1.9471 B(  5-S ,  7-F ) :   1.1429
B(  5-S ,  8-O ) :   1.8431

Dispersion correction           -0.004429326
FINAL SINGLE POINT ENERGY      -767.053066452685

DIPOLE MOMENT
-------------
                                X             Y             Z
Electronic contribution:    -11.87362      -4.84801      -2.65444
Nuclear contribution   :     12.19253       5.80225       3.95262
                        -----------------------------------------
Total Dipole Moment    :      0.31891       0.95424       1.29818
                        -----------------------------------------
Magnitude (a.u.)       :      1.64243
Magnitude (Debye)      :      4.17471

Rotational constants in cm-1:     0.130581     0.053444     0.051914
Rotational constants in MHz :  3914.711139  1602.211061  1556.338643

                             ****ORCA TERMINATED NORMALLY****
TOTAL RUN TIME: 0 days 0 hours 0 minutes 29 seconds 200 msec
