                         Program Version 5.0.0 -  RELEASE  -
|  1> !wB97X-D3 RIJCOSX def2-TZVP def2/J TightSCF
|  2> *xyz 0 1
|  3> C          3.38093        2.08304       -3.35013
|  4> N          4.53592        1.18245       -3.42852
|  5> C          2.49556        1.81615       -2.13636
|  6> C          1.87218        0.42790       -2.07750
|  7> C          4.67196        0.12227       -4.22060
|  8> C          5.86602       -0.50785       -4.22428
|  9> N          3.69888       -0.31284       -4.98699
| 10> H          2.73141       -0.05009       -4.84900
| 11> H          3.89005       -1.05517       -5.64373
| 12> H          5.25193        1.30346       -2.72101
| 13> H          6.69516       -0.06232       -3.85160
| 14> H          5.97538       -1.39688       -4.69141
| 15> H          1.69700        2.56197       -2.14111
| 16> H          3.08079        1.98744       -1.22584
| 17> H          2.80646        1.98651       -4.26848
| 18> H          3.77871        3.09828       -3.30738
| 19> H          1.29954        0.25615       -2.96490
| 20> H          1.23321        0.35984       -1.22194
| 21> H          2.64581       -0.30765       -2.00430
| 22> *
| 23>
| 24> %MaxCore 64000
| 25>
| 26> %pal nprocs 8
| 27> end
| 28>
| 29> %scf
| 30>   MaxIter 150
| 31> end
| 32>
| 33>
| 34>                          ****END OF INPUT****

CARTESIAN COORDINATES (ANGSTROEM)
---------------------------------
  C      3.380930    2.083040   -3.350130
  N      4.535920    1.182450   -3.428520
  C      2.495560    1.816150   -2.136360
  C      1.872180    0.427900   -2.077500
  C      4.671960    0.122270   -4.220600
  C      5.866020   -0.507850   -4.224280
  N      3.698880   -0.312840   -4.986990
  H      2.731410   -0.050090   -4.849000
  H      3.890050   -1.055170   -5.643730
  H      5.251930    1.303460   -2.721010
  H      6.695160   -0.062320   -3.851600
  H      5.975380   -1.396880   -4.691410
  H      1.697000    2.561970   -2.141110
  H      3.080790    1.987440   -1.225840
  H      2.806460    1.986510   -4.268480
  H      3.778710    3.098280   -3.307380
  H      1.299540    0.256150   -2.964900
  H      1.233210    0.359840   -1.221940
  H      2.645810   -0.307650   -2.004300

 Total Charge           Charge          ....    0
 Multiplicity           Mult            ....    1
 Number of Electrons    NEL             ....   56
 Basis Dimension        Dim             ....  289

ORBITAL ENERGIES
----------------

  NO   OCC          E(Eh)            E(eV)
   0   2.0000     -14.421445      -392.4275
   1   2.0000     -14.419789      -392.3824
   2   2.0000     -10.322989      -280.9028
   3   2.0000     -10.312603      -280.6202
   4   2.0000     -10.276953      -279.6501
   5   2.0000     -10.262095      -279.2458
   6   2.0000     -10.177701      -276.9493
   7   2.0000      -1.085029       -29.5251
   8   2.0000      -1.002452       -27.2781
   9   2.0000      -0.907599       -24.6970
  10   2.0000      -0.834854       -22.7175
  11   2.0000      -0.782335       -21.2884
  12   2.0000      -0.708061       -19.2673
  13   2.0000      -0.706064       -19.2130
  14   2.0000      -0.646245       -17.5852
  15   2.0000      -0.599120       -16.3029
  16   2.0000      -0.574122       -15.6227
  17   2.0000      -0.562679       -15.3113
  18   2.0000      -0.550731       -14.9862
  19   2.0000      -0.501356       -13.6426
  20   2.0000      -0.495028       -13.4704
  21   2.0000      -0.484051       -13.1717
  22   2.0000      -0.466903       -12.7051
  23   2.0000      -0.446438       -12.1482
  24   2.0000      -0.440039       -11.9741
  25   2.0000      -0.436846       -11.8872
  26   2.0000      -0.344879        -9.3846
  27   2.0000      -0.242200        -6.5906
  28   0.0000       0.101007         2.7485
  29   0.0000       0.124543         3.3890
  30   0.0000       0.138128         3.7587
  31   0.0000       0.153428         4.1750
  32   0.0000       0.161719         4.4006

MULLIKEN ATOMIC CHARGES
-----------------------
   0 C :   -0.188675
   1 N :   -0.350488
   2 C :   -0.122336
   3 C :   -0.372596
   4 C :    0.456096
   5 C :   -0.623739
   6 N :   -0.515836
   7 H :    0.228923
   8 H :    0.255917
   9 H :    0.236443
  10 H :    0.107591
  11 H :    0.093747
  12 H :    0.092578
  13 H :    0.092954
  14 H :    0.131487
  15 H :    0.121288
  16 H :    0.090576
  17 H :    0.123795
  18 H :    0.142275
Sum of atomic charges:   -0.0000000

LOEWDIN ATOMIC CHARGES
----------------------
   0 C :   -0.285320
   1 N :    0.118430
   2 C :   -0.301221
   3 C :   -0.306822
   4 C :   -0.468020
   5 C :   -0.363632
   6 N :    0.005591
   7 H :    0.159316
   8 H :    0.182124
   9 H :    0.195900
  10 H :    0.092761
  11 H :    0.090662
  12 H :    0.134129
  13 H :    0.133111
  14 H :    0.131164
  15 H :    0.132037
  16 H :    0.108954
  17 H :    0.117996
  18 H :    0.122842

  Mayer bond orders larger than 0.100000
B(  0-C ,  1-N ) :   0.9054 B(  0-C ,  2-C ) :   0.9646 B(  0-C , 14-H ) :   0.9927
B(  0-C , 15-H ) :   0.9776 B(  1-N ,  4-C ) :   1.1794 B(  1-N ,  9-H ) :   0.9224
B(  2-C ,  3-C ) :   0.9552 B(  2-C , 12-H ) :   0.9735 B(  2-C , 13-H ) :   0.9682
B(  3-C , 16-H ) :   0.9843 B(  3-C , 17-H ) :   0.9760 B(  3-C , 18-H ) :   0.9725
B(  4-C ,  5-C ) :   1.5337 B(  4-C ,  6-N ) :   1.1524 B(  5-C , 10-H ) :   1.0138
B(  5-C , 11-H ) :   1.0157 B(  6-N ,  7-H ) :   0.9205 B(  6-N ,  8-H ) :   0.9184

Dispersion correction           -0.005635410
FINAL SINGLE POINT ENERGY      -307.252762501627

DIPOLE MOMENT
-------------
                                X             Y             Z
Electronic contribution:      2.66276       0.02111      -2.61448
Nuclear contribution   :     -3.75638       0.46849       2.77235
                        -----------------------------------------
Total Dipole Moment    :     -1.09362       0.48960       0.15787
                        -----------------------------------------
Magnitude (a.u.)       :      1.20856
Magnitude (Debye)      :      3.07192

Rotational constants in cm-1:     0.154609     0.053528     0.048030
Rotational constants in MHz :  4635.053294  1604.739826  1439.897073

                             ****ORCA TERMINATED NORMALLY****
TOTAL RUN TIME: 0 days 0 hours 0 minutes 39 seconds 110 msec
