                         Program Version 5.0.0 -  RELEASE  -
|  1> !wB97X-D3 RIJCOSX def2-TZVP def2/J TightSCF
|  2> *xyz 0 1
|  3> C          3.38093        2.08304       -3.35013
|  4> C          2.49556        1.81615       -2.13636
|  5> C          1.87218        0.42790       -2.07750
|  6> H          2.61427       -0.36583       -2.19889
|  7> H          1.38995        0.27309       -1.11236
|  8> S          0.57902        0.14047       -3.29794
|  9> O          0.22886       -1.24687       -3.12787
| 10> O         -0.43927        1.11897       -3.01455
| 11> F          1.24788        0.40347       -4.59565
| 12> H          1.69700        2.56197       -2.14111
| 13> H          3.08079        1.98744       -1.22584
| 14> H          2.81820        1.91840       -4.24519
| 15> H          4.22171        1.42153       -3.33067
| 16> H          3.72372        3.09635       -3.32565
| 17> *
| 18>
| 19> %MaxCore 64000
| 20>
| 21> %pal nprocs 8
| 22> end
| 23>
| 24> %scf
| 25>   MaxIter 150
| 26> end
| 27>
| 28>
| 29>                          ****END OF INPUT****

CARTESIAN COORDINATES (ANGSTROEM)
---------------------------------
  C      3.380930    2.083040   -3.350130
  C      2.495560    1.816150   -2.136360
  C      1.872180    0.427900   -2.077500
  H      2.614270   -0.365830   -2.198890
  H      1.389950    0.273090   -1.112360
  S      0.579020    0.140470   -3.297940
  O      0.228860   -1.246870   -3.127870
  O     -0.439270    1.118970   -3.014550
  F      1.247880    0.403470   -4.595650
  H      1.697000    2.561970   -2.141110
  H      3.080790    1.987440   -1.225840
  H      2.818200    1.918400   -4.245190
  H      4.221710    1.421530   -3.330670
  H      3.723720    3.096350   -3.325650

 Total Charge           Charge          ....    0
 Multiplicity           Mult            ....    1
 Number of Electrons    NEL             ....   66
 Basis Dimension        Dim             ....  265

ORBITAL ENERGIES
----------------

  NO   OCC          E(Eh)            E(eV)
   0   2.0000     -89.192386     -2427.0482
   1   2.0000     -24.886675      -677.2008
   2   2.0000     -19.244272      -523.6633
   3   2.0000     -19.243795      -523.6503
   4   2.0000     -10.331452      -281.1331
   5   2.0000     -10.301935      -280.3299
   6   2.0000     -10.275861      -279.6204
   7   2.0000      -8.255872      -224.6537
   8   2.0000      -6.213391      -169.0750
   9   2.0000      -6.206984      -168.9006
  10   2.0000      -6.206306      -168.8822
  11   2.0000      -1.468209       -39.9520
  12   2.0000      -1.232211       -33.5302
  13   2.0000      -1.140732       -31.0409
  14   2.0000      -0.950208       -25.8565
  15   2.0000      -0.864989       -23.5375
  16   2.0000      -0.807665       -21.9777
  17   2.0000      -0.745958       -20.2985
  18   2.0000      -0.681494       -18.5444
  19   2.0000      -0.668833       -18.1999
  20   2.0000      -0.651958       -17.7407
  21   2.0000      -0.593679       -16.1548
  22   2.0000      -0.578822       -15.7505
  23   2.0000      -0.563524       -15.3343
  24   2.0000      -0.553862       -15.0714
  25   2.0000      -0.533793       -14.5252
  26   2.0000      -0.498006       -13.5514
  27   2.0000      -0.481806       -13.1106
  28   2.0000      -0.463274       -12.6063
  29   2.0000      -0.456569       -12.4239
  30   2.0000      -0.437668       -11.9096
  31   2.0000      -0.422423       -11.4947
  32   2.0000      -0.416464       -11.3326
  33   0.0000       0.096142         2.6161
  34   0.0000       0.127541         3.4706
  35   0.0000       0.139726         3.8021
  36   0.0000       0.148808         4.0493
  37   0.0000       0.152011         4.1364

MULLIKEN ATOMIC CHARGES
-----------------------
   0 C :   -0.346821
   1 C :   -0.221218
   2 C :   -0.270840
   3 H :    0.152078
   4 H :    0.168855
   5 S :    0.883981
   6 O :   -0.420992
   7 O :   -0.423317
   8 F :   -0.132161
   9 H :    0.139319
  10 H :    0.115769
  11 H :    0.114769
  12 H :    0.113707
  13 H :    0.126871
Sum of atomic charges:    0.0000000

LOEWDIN ATOMIC CHARGES
----------------------
   0 C :   -0.306162
   1 C :   -0.314956
   2 C :   -0.367353
   3 H :    0.140471
   4 H :    0.151518
   5 S :    0.540760
   6 O :   -0.266181
   7 O :   -0.265497
   8 F :    0.052056
   9 H :    0.144769
  10 H :    0.141483
  11 H :    0.112214
  12 H :    0.116497
  13 H :    0.120381

  Mayer bond orders larger than 0.100000
B(  0-C ,  1-C ) :   0.9814 B(  0-C , 11-H ) :   0.9717 B(  0-C , 12-H ) :   0.9773
B(  0-C , 13-H ) :   0.9796 B(  1-C ,  2-C ) :   0.9624 B(  1-C ,  9-H ) :   0.9675
B(  1-C , 10-H ) :   0.9606 B(  2-C ,  3-H ) :   0.9474 B(  2-C ,  4-H ) :   0.9469
B(  2-C ,  5-S ) :   0.9141 B(  5-S ,  6-O ) :   1.9443 B(  5-S ,  7-O ) :   1.9160
B(  5-S ,  8-F ) :   1.0926

Dispersion correction           -0.004450802
FINAL SINGLE POINT ENERGY      -767.071578029465

DIPOLE MOMENT
-------------
                                X             Y             Z
Electronic contribution:     -8.89870      -6.03873      -5.36073
Nuclear contribution   :     10.37810       6.57173       5.65300
                        -----------------------------------------
Total Dipole Moment    :      1.47940       0.53300       0.29227
                        -----------------------------------------
Magnitude (a.u.)       :      1.59942
Magnitude (Debye)      :      4.06539

Rotational constants in cm-1:     0.130522     0.054787     0.051463
Rotational constants in MHz :  3912.959799  1642.486768  1542.828917

                             ****ORCA TERMINATED NORMALLY****
TOTAL RUN TIME: 0 days 0 hours 0 minutes 28 seconds 537 msec
