                         Program Version 5.0.0 -  RELEASE  -
|  1> !wB97X-D3 RIJCOSX def2-TZVP def2/J TightSCF
|  2> *xyz 0 1
|  3> C          3.38093        2.08304       -3.35013
|  4> N          4.53592        1.18245       -3.42852
|  5> C          2.49556        1.81615       -2.13636
|  6> C          1.87218        0.42790       -2.07750
|  7> C          4.67196        0.12227       -4.22060
|  8> N          5.86602       -0.50785       -4.22428
|  9> C          3.69888       -0.31284       -4.98699
| 10> H          2.73141       -0.05009       -4.84900
| 11> H          3.89005       -1.05517       -5.64373
| 12> H          5.25193        1.30346       -2.72101
| 13> H          6.69516       -0.06232       -3.85160
| 14> H          5.97538       -1.39688       -4.69141
| 15> H          1.69700        2.56197       -2.14111
| 16> H          3.08079        1.98744       -1.22584
| 17> H          2.80646        1.98651       -4.26848
| 18> H          3.77871        3.09828       -3.30738
| 19> H          1.29954        0.25615       -2.96490
| 20> H          1.23321        0.35984       -1.22194
| 21> H          2.64581       -0.30765       -2.00430
| 22> *
| 23>
| 24> %MaxCore 64000
| 25>
| 26> %pal nprocs 8
| 27> end
| 28>
| 29> %scf
| 30>   MaxIter 150
| 31> end
| 32>
| 33>
| 34>                          ****END OF INPUT****

CARTESIAN COORDINATES (ANGSTROEM)
---------------------------------
  C      3.380930    2.083040   -3.350130
  N      4.535920    1.182450   -3.428520
  C      2.495560    1.816150   -2.136360
  C      1.872180    0.427900   -2.077500
  C      4.671960    0.122270   -4.220600
  N      5.866020   -0.507850   -4.224280
  C      3.698880   -0.312840   -4.986990
  H      2.731410   -0.050090   -4.849000
  H      3.890050   -1.055170   -5.643730
  H      5.251930    1.303460   -2.721010
  H      6.695160   -0.062320   -3.851600
  H      5.975380   -1.396880   -4.691410
  H      1.697000    2.561970   -2.141110
  H      3.080790    1.987440   -1.225840
  H      2.806460    1.986510   -4.268480
  H      3.778710    3.098280   -3.307380
  H      1.299540    0.256150   -2.964900
  H      1.233210    0.359840   -1.221940
  H      2.645810   -0.307650   -2.004300

 Total Charge           Charge          ....    0
 Multiplicity           Mult            ....    1
 Number of Electrons    NEL             ....   56
 Basis Dimension        Dim             ....  289

ORBITAL ENERGIES
----------------

  NO   OCC          E(Eh)            E(eV)
   0   2.0000     -14.419992      -392.3879
   1   2.0000     -14.415384      -392.2625
   2   2.0000     -10.319821      -280.8166
   3   2.0000     -10.303979      -280.3855
   4   2.0000     -10.268856      -279.4298
   5   2.0000     -10.248544      -278.8771
   6   2.0000     -10.181040      -277.0402
   7   2.0000      -1.078603       -29.3503
   8   2.0000      -0.993743       -27.0411
   9   2.0000      -0.893373       -24.3099
  10   2.0000      -0.830349       -22.5949
  11   2.0000      -0.797416       -21.6988
  12   2.0000      -0.710782       -19.3414
  13   2.0000      -0.667739       -18.1701
  14   2.0000      -0.641954       -17.4685
  15   2.0000      -0.614278       -16.7153
  16   2.0000      -0.564940       -15.3728
  17   2.0000      -0.557405       -15.1678
  18   2.0000      -0.526629       -14.3303
  19   2.0000      -0.507808       -13.8181
  20   2.0000      -0.485369       -13.2076
  21   2.0000      -0.481034       -13.0896
  22   2.0000      -0.466379       -12.6908
  23   2.0000      -0.438832       -11.9412
  24   2.0000      -0.434905       -11.8344
  25   2.0000      -0.422949       -11.5090
  26   2.0000      -0.337898        -9.1947
  27   2.0000      -0.254594        -6.9279
  28   0.0000       0.105607         2.8737
  29   0.0000       0.128145         3.4870
  30   0.0000       0.143424         3.9028
  31   0.0000       0.159896         4.3510
  32   0.0000       0.164823         4.4851

MULLIKEN ATOMIC CHARGES
-----------------------
   0 C :   -0.132834
   1 N :   -0.379343
   2 C :   -0.152030
   3 C :   -0.346316
   4 C :    0.460051
   5 N :   -0.559334
   6 C :   -0.556030
   7 H :    0.101121
   8 H :    0.087139
   9 H :    0.203802
  10 H :    0.229679
  11 H :    0.255812
  12 H :    0.090944
  13 H :    0.083450
  14 H :    0.148193
  15 H :    0.112120
  16 H :    0.107930
  17 H :    0.116168
  18 H :    0.129479
Sum of atomic charges:   -0.0000000

LOEWDIN ATOMIC CHARGES
----------------------
   0 C :   -0.269745
   1 N :    0.111601
   2 C :   -0.300742
   3 C :   -0.302504
   4 C :   -0.462411
   5 N :   -0.030951
   6 C :   -0.335025
   7 H :    0.095095
   8 H :    0.097416
   9 H :    0.178325
  10 H :    0.158918
  11 H :    0.174200
  12 H :    0.134085
  13 H :    0.129439
  14 H :    0.141126
  15 H :    0.129712
  16 H :    0.116043
  17 H :    0.114397
  18 H :    0.121020

  Mayer bond orders larger than 0.100000
B(  0-C ,  1-N ) :   0.8830 B(  0-C ,  2-C ) :   0.9823 B(  0-C , 14-H ) :   0.9803
B(  0-C , 15-H ) :   0.9779 B(  1-N ,  4-C ) :   1.1612 B(  1-N ,  9-H ) :   0.9280
B(  2-C ,  3-C ) :   0.9729 B(  2-C , 12-H ) :   0.9738 B(  2-C , 13-H ) :   0.9717
B(  3-C , 16-H ) :   0.9822 B(  3-C , 17-H ) :   0.9767 B(  3-C , 18-H ) :   0.9762
B(  4-C ,  5-N ) :   1.0827 B(  4-C ,  6-C ) :   1.6008 B(  5-N , 10-H ) :   0.9249
B(  5-N , 11-H ) :   0.9206 B(  6-C ,  7-H ) :   1.0086 B(  6-C ,  8-H ) :   1.0170

Dispersion correction           -0.005583955
FINAL SINGLE POINT ENERGY      -307.256798321936

DIPOLE MOMENT
-------------
                                X             Y             Z
Electronic contribution:      4.94208      -0.21829      -1.93328
Nuclear contribution   :     -4.23110       0.51121       2.60527
                        -----------------------------------------
Total Dipole Moment    :      0.71098       0.29292       0.67199
                        -----------------------------------------
Magnitude (a.u.)       :      1.02121
Magnitude (Debye)      :      2.59570

Rotational constants in cm-1:     0.158478     0.052124     0.047173
Rotational constants in MHz :  4751.056263  1562.646208  1414.197352

                             ****ORCA TERMINATED NORMALLY****
TOTAL RUN TIME: 0 days 0 hours 0 minutes 38 seconds 995 msec
