                         Program Version 5.0.0 -  RELEASE  -
|  1> !wB97X-D3 RIJCOSX def2-TZVP def2/J TightSCF xyzfile
|  2>
|  3> *xyzfile 0 1 D6.xyz
|  4>
|  5> %MaxCore 64000
|  6>
|  7> %pal nprocs 18
|  8> end
|  9>
| 10> %scf
| 11>   MaxIter 150
| 12> end
| 13>
| 14>
| 15>                          ****END OF INPUT****

CARTESIAN COORDINATES (ANGSTROEM)
---------------------------------
  C      3.380928    2.083045   -3.350127
  N      4.535924    1.182447   -3.428518
  C      2.495557    1.816150   -2.136364
  C      1.872181    0.427903   -2.077497
  H      2.614270   -0.365825   -2.198894
  H      1.389953    0.273087   -1.112360
  S      0.579024    0.140472   -3.297943
  C      4.671956    0.122273   -4.220598
  N      5.866023   -0.507849   -4.224284
  C      3.698881   -0.312844   -4.986988
  H      2.731405   -0.050091   -4.849000
  H      3.890046   -1.055172   -5.643730
  H      5.251933    1.303459   -2.721014
  H      6.695165   -0.062322   -3.851596
  H      5.975383   -1.396884   -4.691414
  O      0.228860   -1.246868   -3.127871
  F     -0.439269    1.118966   -3.014550
  O      1.247881    0.403474   -4.595647
  H      1.697003    2.561969   -2.141109
  H      3.080787    1.987436   -1.225838
  H      2.806463    1.986511   -4.268484
  H      3.778714    3.098282   -3.307383

 Total Charge           Charge          ....    0
 Multiplicity           Mult            ....    1
 Number of Electrons    NEL             ....   96
 Basis Dimension        Dim             ....  413

ORBITAL ENERGIES
----------------

  NO   OCC          E(Eh)            E(eV)
   0   2.0000     -89.195240     -2427.1259
   1   2.0000     -24.908995      -677.8082
   2   2.0000     -19.244038      -523.6569
   3   2.0000     -19.230348      -523.2844
   4   2.0000     -14.421536      -392.4300
   5   2.0000     -14.408461      -392.0741
   6   2.0000     -10.331378      -281.1311
   7   2.0000     -10.313142      -280.6349
   8   2.0000     -10.309691      -280.5410
   9   2.0000     -10.305530      -280.4277
  10   2.0000     -10.157739      -276.4061
  11   2.0000      -8.258827      -224.7341
  12   2.0000      -6.216231      -169.1522
  13   2.0000      -6.209732      -168.9754
  14   2.0000      -6.209440      -168.9675
  15   2.0000      -1.503530       -40.9131
  16   2.0000      -1.223333       -33.2886
  17   2.0000      -1.125699       -30.6318
  18   2.0000      -1.076514       -29.2934
  19   2.0000      -0.993822       -27.0433
  20   2.0000      -0.941225       -25.6120
  21   2.0000      -0.863108       -23.4864
  22   2.0000      -0.829033       -22.5591
  23   2.0000      -0.806036       -21.9334
  24   2.0000      -0.752216       -20.4688
  25   2.0000      -0.704150       -19.1609
  26   2.0000      -0.695666       -18.9300
  27   2.0000      -0.672285       -18.2938
  28   2.0000      -0.656673       -17.8690
  29   2.0000      -0.635251       -17.2861
  30   2.0000      -0.615441       -16.7470
  31   2.0000      -0.595164       -16.1952
  32   2.0000      -0.586748       -15.9662
  33   2.0000      -0.562742       -15.3130
  34   2.0000      -0.548242       -14.9184
  35   2.0000      -0.540907       -14.7188
  36   2.0000      -0.513246       -13.9661
  37   2.0000      -0.495706       -13.4888
  38   2.0000      -0.489007       -13.3065
  39   2.0000      -0.480728       -13.0813
  40   2.0000      -0.470017       -12.7898
  41   2.0000      -0.461682       -12.5630
  42   2.0000      -0.445740       -12.1292
  43   2.0000      -0.416116       -11.3231
  44   2.0000      -0.403575       -10.9818
  45   2.0000      -0.388245       -10.5647
  46   2.0000      -0.338781        -9.2187
  47   2.0000      -0.245002        -6.6669
  48   0.0000       0.093442         2.5427
  49   0.0000       0.111679         3.0389
  50   0.0000       0.120632         3.2826
  51   0.0000       0.138349         3.7647
  52   0.0000       0.143313         3.8997

MULLIKEN ATOMIC CHARGES
-----------------------
   0 C :   -0.145684
   1 N :   -0.396454
   2 C :   -0.223958
   3 C :   -0.302073
   4 H :    0.204074
   5 H :    0.156282
   6 S :    0.878828
   7 C :    0.441281
   8 N :   -0.560339
   9 C :   -0.573751
  10 H :    0.152499
  11 H :    0.080988
  12 H :    0.199879
  13 H :    0.223634
  14 H :    0.256154
  15 O :   -0.405077
  16 F :   -0.097137
  17 O :   -0.434237
  18 H :    0.116963
  19 H :    0.119054
  20 H :    0.189071
  21 H :    0.120001
Sum of atomic charges:    0.0000000

LOEWDIN ATOMIC CHARGES
----------------------
   0 C :   -0.269703
   1 N :    0.103283
   2 C :   -0.294103
   3 C :   -0.361525
   4 H :    0.160093
   5 H :    0.139012
   6 S :    0.543842
   7 C :   -0.479274
   8 N :   -0.037626
   9 C :   -0.322895
  10 H :    0.081223
  11 H :    0.096287
  12 H :    0.175160
  13 H :    0.155363
  14 H :    0.173920
  15 O :   -0.255117
  16 F :    0.102099
  17 O :   -0.272508
  18 H :    0.140097
  19 H :    0.142127
  20 H :    0.148676
  21 H :    0.131572

  Mayer bond orders larger than 0.100000
B(  0-C ,  1-N ) :   0.8751 B(  0-C ,  2-C ) :   0.9647 B(  0-C , 20-H ) :   0.9693
B(  0-C , 21-H ) :   0.9799 B(  1-N ,  7-C ) :   1.1270 B(  1-N , 12-H ) :   0.9287
B(  2-C ,  3-C ) :   0.9657 B(  2-C , 18-H ) :   0.9748 B(  2-C , 19-H ) :   0.9624
B(  3-C ,  4-H ) :   0.9346 B(  3-C ,  5-H ) :   0.9529 B(  3-C ,  6-S ) :   0.9233
B(  6-S , 15-O ) :   1.9541 B(  6-S , 16-F ) :   1.1411 B(  6-S , 17-O ) :   1.7916
B(  7-C ,  8-N ) :   1.0681 B(  7-C ,  9-C ) :   1.6077 B(  8-N , 13-H ) :   0.9270
B(  8-N , 14-H ) :   0.9204 B(  9-C , 10-H ) :   1.0044 B(  9-C , 11-H ) :   1.0207

Dispersion correction           -0.009822600
FINAL SINGLE POINT ENERGY      -955.137127508975

DIPOLE MOMENT
-------------
                                X             Y             Z
Electronic contribution:    -15.80631      -1.42066       0.28167
Nuclear contribution   :     16.57580       2.60270       1.54331
                        -----------------------------------------
Total Dipole Moment    :      0.76949       1.18204       1.82498
                        -----------------------------------------
Magnitude (a.u.)       :      2.30649
Magnitude (Debye)      :      5.86263

Rotational constants in cm-1:     0.060402     0.020377     0.017632
Rotational constants in MHz :  1810.792194   610.900365   528.582827

                             ****ORCA TERMINATED NORMALLY****
TOTAL RUN TIME: 0 days 0 hours 0 minutes 45 seconds 756 msec
