                         Program Version 5.0.0 -  RELEASE  -
|  1> !wB97X-D3 RIJCOSX def2-TZVP def2/J TightSCF xyzfile
|  2>
|  3> *xyzfile 0 1 D7.xyz
|  4>
|  5> %MaxCore 64000
|  6>
|  7> %pal nprocs 18
|  8> end
|  9>
| 10> %scf
| 11>   MaxIter 150
| 12> end
| 13>
| 14>
| 15>                          ****END OF INPUT****

CARTESIAN COORDINATES (ANGSTROEM)
---------------------------------
  C      3.380928    2.083045   -3.350127
  C      4.535924    1.182447   -3.428518
  C      2.495557    1.816150   -2.136364
  C      1.872181    0.427903   -2.077497
  H      2.614270   -0.365825   -2.198894
  H      1.389953    0.273087   -1.112360
  S      0.579024    0.140472   -3.297943
  C      4.671956    0.122273   -4.220598
  N      5.866023   -0.507849   -4.224284
  N      3.698881   -0.312844   -4.986988
  H      2.731405   -0.050091   -4.849000
  H      3.890046   -1.055172   -5.643730
  H      5.251933    1.303459   -2.721014
  H      6.695165   -0.062322   -3.851596
  H      5.975383   -1.396884   -4.691414
  O      0.228860   -1.246868   -3.127871
  O     -0.439269    1.118966   -3.014550
  F      1.247881    0.403474   -4.595647
  H      1.697003    2.561969   -2.141109
  H      3.080787    1.987436   -1.225838
  H      2.806463    1.986511   -4.268484
  H      3.778714    3.098282   -3.307383

 Total Charge           Charge          ....    0
 Multiplicity           Mult            ....    1
 Number of Electrons    NEL             ....   96
 Basis Dimension        Dim             ....  413

ORBITAL ENERGIES
----------------

  NO   OCC          E(Eh)            E(eV)
   0   2.0000     -89.194499     -2427.1057
   1   2.0000     -24.903968      -677.6714
   2   2.0000     -19.246959      -523.7364
   3   2.0000     -19.246258      -523.7173
   4   2.0000     -14.424653      -392.5148
   5   2.0000     -14.424520      -392.5111
   6   2.0000     -10.331706      -281.1400
   7   2.0000     -10.322898      -280.9003
   8   2.0000     -10.284910      -279.8666
   9   2.0000     -10.265838      -279.3477
  10   2.0000     -10.205407      -277.7032
  11   2.0000      -8.258561      -224.7269
  12   2.0000      -6.216460      -169.1585
  13   2.0000      -6.209190      -168.9607
  14   2.0000      -6.208831      -168.9509
  15   2.0000      -1.488973       -40.5170
  16   2.0000      -1.236186       -33.6383
  17   2.0000      -1.143115       -31.1057
  18   2.0000      -1.087610       -29.5954
  19   2.0000      -0.993358       -27.0306
  20   2.0000      -0.944399       -25.6984
  21   2.0000      -0.880367       -23.9560
  22   2.0000      -0.841573       -22.9004
  23   2.0000      -0.798706       -21.7339
  24   2.0000      -0.753133       -20.4938
  25   2.0000      -0.703925       -19.1548
  26   2.0000      -0.694230       -18.8910
  27   2.0000      -0.678591       -18.4654
  28   2.0000      -0.655946       -17.8492
  29   2.0000      -0.650094       -17.6900
  30   2.0000      -0.616500       -16.7758
  31   2.0000      -0.593556       -16.1515
  32   2.0000      -0.578170       -15.7328
  33   2.0000      -0.571919       -15.5627
  34   2.0000      -0.559264       -15.2183
  35   2.0000      -0.552522       -15.0349
  36   2.0000      -0.509681       -13.8691
  37   2.0000      -0.506289       -13.7768
  38   2.0000      -0.504661       -13.7325
  39   2.0000      -0.485147       -13.2015
  40   2.0000      -0.458348       -12.4723
  41   2.0000      -0.446151       -12.1404
  42   2.0000      -0.437902       -11.9159
  43   2.0000      -0.430766       -11.7217
  44   2.0000      -0.421971       -11.4824
  45   2.0000      -0.414152       -11.2697
  46   2.0000      -0.366623        -9.9763
  47   2.0000      -0.256613        -6.9828
  48   0.0000       0.094721         2.5775
  49   0.0000       0.108656         2.9567
  50   0.0000       0.126500         3.4422
  51   0.0000       0.142358         3.8738
  52   0.0000       0.143831         3.9139

MULLIKEN ATOMIC CHARGES
-----------------------
   0 C :   -0.239995
   1 C :   -0.390096
   2 C :   -0.169416
   3 C :   -0.338413
   4 H :    0.191146
   5 H :    0.172337
   6 S :    0.882153
   7 C :    0.388758
   8 N :   -0.536029
   9 N :   -0.531174
  10 H :    0.247816
  11 H :    0.230390
  12 H :    0.098766
  13 H :    0.259359
  14 H :    0.227868
  15 O :   -0.417605
  16 O :   -0.415842
  17 F :   -0.140480
  18 H :    0.138033
  19 H :    0.112686
  20 H :    0.118537
  21 H :    0.111203
Sum of atomic charges:   -0.0000000

LOEWDIN ATOMIC CHARGES
----------------------
   0 C :   -0.283802
   1 C :   -0.284984
   2 C :   -0.285041
   3 C :   -0.361797
   4 H :    0.147101
   5 H :    0.151118
   6 S :    0.544417
   7 C :   -0.463773
   8 N :   -0.028747
   9 N :   -0.002751
  10 H :    0.141005
  11 H :    0.167170
  12 H :    0.119883
  13 H :    0.176501
  14 H :    0.159104
  15 O :   -0.262939
  16 O :   -0.258513
  17 F :    0.063014
  18 H :    0.141891
  19 H :    0.144515
  20 H :    0.132786
  21 H :    0.143842

  Mayer bond orders larger than 0.100000
B(  0-C ,  1-C ) :   0.9791 B(  0-C ,  2-C ) :   0.9550 B(  0-C , 20-H ) :   0.9987
B(  0-C , 21-H ) :   0.9843 B(  1-C ,  7-C ) :   1.6553 B(  1-C , 12-H ) :   0.9967
B(  2-C ,  3-C ) :   0.9543 B(  2-C , 18-H ) :   0.9695 B(  2-C , 19-H ) :   0.9605
B(  3-C ,  4-H ) :   0.9399 B(  3-C ,  5-H ) :   0.9457 B(  3-C ,  6-S ) :   0.9263
B(  6-S , 15-O ) :   1.9421 B(  6-S , 16-O ) :   1.9373 B(  6-S , 17-F ) :   1.0222
B(  7-C ,  8-N ) :   1.1204 B(  7-C ,  9-N ) :   1.1461 B(  8-N , 13-H ) :   0.9165
B(  8-N , 14-H ) :   0.9248 B(  9-N , 10-H ) :   0.8960 B(  9-N , 11-H ) :   0.9241

Dispersion correction           -0.009842883
FINAL SINGLE POINT ENERGY      -955.175134754160

DIPOLE MOMENT
-------------
                                X             Y             Z
Electronic contribution:    -13.20220      -3.91607      -3.71161
Nuclear contribution   :     14.80811       3.53278       3.42836
                        -----------------------------------------
Total Dipole Moment    :      1.60591      -0.38328      -0.28325
                        -----------------------------------------
Magnitude (a.u.)       :      1.67514
Magnitude (Debye)      :      4.25786

Rotational constants in cm-1:     0.059173     0.020923     0.018056
Rotational constants in MHz :  1773.956621   627.264018   541.303397

                             ****ORCA TERMINATED NORMALLY****
TOTAL RUN TIME: 0 days 0 hours 0 minutes 46 seconds 563 msec
