                         Program Version 5.0.0 -  RELEASE  -
|  1> !wB97X-D3 RIJCOSX def2-TZVP def2/J TightSCF xyzfile
|  2>
|  3> *xyzfile 0 1 D8.xyz
|  4>
|  5> %MaxCore 64000
|  6>
|  7> %pal nprocs 18
|  8> end
|  9>
| 10> %scf
| 11>   MaxIter 150
| 12> end
| 13>
| 14>
| 15>                          ****END OF INPUT****

CARTESIAN COORDINATES (ANGSTROEM)
---------------------------------
  C      3.380928    2.083045   -3.350127
  N      4.535924    1.182447   -3.428518
  C      2.495557    1.816150   -2.136364
  C      1.872181    0.427903   -2.077497
  H      2.614270   -0.365825   -2.198894
  H      1.389953    0.273087   -1.112360
  S      0.579024    0.140472   -3.297943
  C      4.671956    0.122273   -4.220598
  C      5.866023   -0.507849   -4.224284
  N      3.698881   -0.312844   -4.986988
  H      2.731405   -0.050091   -4.849000
  H      3.890046   -1.055172   -5.643730
  H      5.251933    1.303459   -2.721014
  H      6.695165   -0.062322   -3.851596
  H      5.975383   -1.396884   -4.691414
  O      0.228860   -1.246868   -3.127871
  O     -0.439269    1.118966   -3.014550
  F      1.247881    0.403474   -4.595647
  H      1.697003    2.561969   -2.141109
  H      3.080787    1.987436   -1.225838
  H      2.806463    1.986511   -4.268484
  H      3.778714    3.098282   -3.307383

 Total Charge           Charge          ....    0
 Multiplicity           Mult            ....    1
 Number of Electrons    NEL             ....   96
 Basis Dimension        Dim             ....  413

ORBITAL ENERGIES
----------------

  NO   OCC          E(Eh)            E(eV)
   0   2.0000     -89.208136     -2427.4768
   1   2.0000     -24.916091      -678.0013
   2   2.0000     -19.259579      -524.0798
   3   2.0000     -19.258718      -524.0564
   4   2.0000     -14.435265      -392.8035
   5   2.0000     -14.422921      -392.4676
   6   2.0000     -10.342192      -281.4253
   7   2.0000     -10.334216      -281.2083
   8   2.0000     -10.332341      -281.1573
   9   2.0000     -10.313011      -280.6313
  10   2.0000     -10.186808      -277.1971
  11   2.0000      -8.272065      -225.0943
  12   2.0000      -6.229928      -169.5250
  13   2.0000      -6.222859      -169.3326
  14   2.0000      -6.222266      -169.3165
  15   2.0000      -1.501274       -40.8517
  16   2.0000      -1.248664       -33.9779
  17   2.0000      -1.155436       -31.4410
  18   2.0000      -1.097700       -29.8699
  19   2.0000      -1.015909       -27.6443
  20   2.0000      -0.955586       -26.0028
  21   2.0000      -0.886553       -24.1243
  22   2.0000      -0.837756       -22.7965
  23   2.0000      -0.816179       -22.2094
  24   2.0000      -0.754240       -20.5239
  25   2.0000      -0.722549       -19.6616
  26   2.0000      -0.716707       -19.5026
  27   2.0000      -0.700612       -19.0646
  28   2.0000      -0.668726       -18.1970
  29   2.0000      -0.640785       -17.4366
  30   2.0000      -0.619354       -16.8535
  31   2.0000      -0.599593       -16.3158
  32   2.0000      -0.593058       -16.1379
  33   2.0000      -0.585267       -15.9259
  34   2.0000      -0.570379       -15.5208
  35   2.0000      -0.558025       -15.1846
  36   2.0000      -0.527918       -14.3654
  37   2.0000      -0.507297       -13.8043
  38   2.0000      -0.506457       -13.7814
  39   2.0000      -0.490987       -13.3604
  40   2.0000      -0.483356       -13.1528
  41   2.0000      -0.474874       -12.9220
  42   2.0000      -0.458895       -12.4872
  43   2.0000      -0.450762       -12.2659
  44   2.0000      -0.436274       -11.8716
  45   2.0000      -0.430772       -11.7219
  46   2.0000      -0.358177        -9.7465
  47   2.0000      -0.252412        -6.8685
  48   0.0000       0.084448         2.2980
  49   0.0000       0.104522         2.8442
  50   0.0000       0.121696         3.3115
  51   0.0000       0.132109         3.5949
  52   0.0000       0.140826         3.8321

MULLIKEN ATOMIC CHARGES
-----------------------
   0 C :   -0.232429
   1 N :   -0.348834
   2 C :   -0.188550
   3 C :   -0.330384
   4 H :    0.196586
   5 H :    0.179716
   6 S :    0.883388
   7 C :    0.437633
   8 C :   -0.618516
   9 N :   -0.524401
  10 H :    0.229632
  11 H :    0.257837
  12 H :    0.239062
  13 H :    0.109359
  14 H :    0.099448
  15 O :   -0.407305
  16 O :   -0.414123
  17 F :   -0.136654
  18 H :    0.145833
  19 H :    0.125037
  20 H :    0.160319
  21 H :    0.137346
Sum of atomic charges:    0.0000000

LOEWDIN ATOMIC CHARGES
----------------------
   0 C :   -0.285501
   1 N :    0.115674
   2 C :   -0.293096
   3 C :   -0.362271
   4 H :    0.150041
   5 H :    0.154217
   6 S :    0.543593
   7 C :   -0.476070
   8 C :   -0.357420
   9 N :   -0.001821
  10 H :    0.130744
  11 H :    0.183267
  12 H :    0.196668
  13 H :    0.093097
  14 H :    0.092397
  15 O :   -0.254140
  16 O :   -0.256650
  17 F :    0.063759
  18 H :    0.148682
  19 H :    0.145483
  20 H :    0.132416
  21 H :    0.136933

  Mayer bond orders larger than 0.100000
B(  0-C ,  1-N ) :   0.8972 B(  0-C ,  2-C ) :   0.9586 B(  0-C , 20-H ) :   0.9857
B(  0-C , 21-H ) :   0.9805 B(  1-N ,  7-C ) :   1.1650 B(  1-N , 12-H ) :   0.9211
B(  2-C ,  3-C ) :   0.9520 B(  2-C , 18-H ) :   0.9655 B(  2-C , 19-H ) :   0.9580
B(  3-C ,  4-H ) :   0.9356 B(  3-C ,  5-H ) :   0.9432 B(  3-C ,  6-S ) :   0.9221
B(  6-S , 15-O ) :   1.9511 B(  6-S , 16-O ) :   1.9334 B(  6-S , 17-F ) :   1.0265
B(  7-C ,  8-C ) :   1.5450 B(  7-C ,  9-N ) :   1.1583 B(  8-C , 13-H ) :   1.0130
B(  8-C , 14-H ) :   1.0149 B(  9-N , 10-H ) :   0.9007 B(  9-N , 11-H ) :   0.9191

Dispersion correction           -0.009882910
FINAL SINGLE POINT ENERGY      -955.160038613046

DIPOLE MOMENT
-------------
                                X             Y             Z
Electronic contribution:    -14.67949      -2.41939      -2.90945
Nuclear contribution   :     14.93782       3.36795       3.35075
                        -----------------------------------------
Total Dipole Moment    :      0.25833       0.94856       0.44130
                        -----------------------------------------
Magnitude (a.u.)       :      1.07761
Magnitude (Debye)      :      2.73907

Rotational constants in cm-1:     0.059219     0.021387     0.018380
Rotational constants in MHz :  1775.354399   641.172207   551.019443

                             ****ORCA TERMINATED NORMALLY****
TOTAL RUN TIME: 0 days 0 hours 0 minutes 47 seconds 837 msec
