                         Program Version 5.0.0 -  RELEASE  -
|  1> !LC-BLYP RIJCOSX def2-TZVP def2/J TightSCF
|  2> *xyz -1 1
|  3> C          0.13297        2.38587       -4.02462
|  4> C         -1.36646        2.47911       -4.31393
|  5> C         -2.35773        2.30686       -3.13675
|  6> H         -1.63680        1.72709       -5.06399
|  7> H         -1.58235        3.44561       -4.76869
|  8> O         -3.44376        2.84652       -3.25274
|  9> O         -1.97092        1.58304       -2.15123
| 10> H          0.68084        2.52514       -4.93310
| 11> H          0.35823        1.42282       -3.61633
| 12> H          0.40851        3.14443       -3.32208
| 13> *
| 14> %MaxCore 64000
| 15>
| 16> %pal nprocs 4
| 17> end
| 18>
| 19> %scf
| 20>   MaxIter 150
| 21> end
| 22>
| 23>
| 24>                          ****END OF INPUT****

CARTESIAN COORDINATES (ANGSTROEM)
---------------------------------
  C      0.132970    2.385870   -4.024620
  C     -1.366460    2.479110   -4.313930
  C     -2.357730    2.306860   -3.136750
  H     -1.636800    1.727090   -5.063990
  H     -1.582350    3.445610   -4.768690
  O     -3.443760    2.846520   -3.252740
  O     -1.970920    1.583040   -2.151230
  H      0.680840    2.525140   -4.933100
  H      0.358230    1.422820   -3.616330
  H      0.408510    3.144430   -3.322080

 Total Charge           Charge          ....   -1
 Multiplicity           Mult            ....    1
 Number of Electrons    NEL             ....   40
 Basis Dimension        Dim             ....  185

ORBITAL ENERGIES
----------------

  NO   OCC          E(Eh)            E(eV)
   0   2.0000     -18.667685      -507.9735
   1   2.0000     -18.657124      -507.6861
   2   2.0000      -9.946190      -270.6496
   3   2.0000      -9.899376      -269.3757
   4   2.0000      -9.890343      -269.1299
   5   2.0000      -0.911702       -24.8087
   6   2.0000      -0.810465       -22.0539
   7   2.0000      -0.709657       -19.3107
   8   2.0000      -0.577814       -15.7231
   9   2.0000      -0.416909       -11.3447
  10   2.0000      -0.397803       -10.8248
  11   2.0000      -0.358672        -9.7600
  12   2.0000      -0.327951        -8.9240
  13   2.0000      -0.314958        -8.5704
  14   2.0000      -0.304036        -8.2732
  15   2.0000      -0.273678        -7.4471
  16   2.0000      -0.257864        -7.0168
  17   2.0000      -0.139885        -3.8065
  18   2.0000      -0.132815        -3.6141
  19   2.0000      -0.119994        -3.2652
  20   0.0000       0.245111         6.6698
  21   0.0000       0.289814         7.8862
  22   0.0000       0.307402         8.3648
  23   0.0000       0.311732         8.4827
  24   0.0000       0.332922         9.0593

MULLIKEN ATOMIC CHARGES
-----------------------
   0 C :   -0.346941
   1 C :   -0.222850
   2 C :    0.064725
   3 H :    0.063597
   4 H :    0.066385
   5 O :   -0.396595
   6 O :   -0.500759
   7 H :    0.068235
   8 H :    0.107207
   9 H :    0.096998
Sum of atomic charges:   -1.0000000

LOEWDIN ATOMIC CHARGES
----------------------
   0 C :   -0.345608
   1 C :   -0.306517
   2 C :   -0.732762
   3 H :    0.127900
   4 H :    0.124204
   5 O :   -0.043615
   6 O :   -0.145919
   7 H :    0.097054
   8 H :    0.113830
   9 H :    0.111433

  Mayer bond orders larger than 0.100000
B(  0-C ,  1-C ) :   0.9046 B(  0-C ,  7-H ) :   0.9748 B(  0-C ,  8-H ) :   0.9765
B(  0-C ,  9-H ) :   0.9815 B(  1-C ,  2-C ) :   0.9150 B(  1-C ,  3-H ) :   0.9700
B(  1-C ,  4-H ) :   0.9719 B(  2-C ,  5-O ) :   2.0206 B(  2-C ,  6-O ) :   1.9075

FINAL SINGLE POINT ENERGY      -267.346016980486

DIPOLE MOMENT
-------------
                                X             Y             Z
Electronic contribution:     -5.29598      -0.38197       3.22388
Nuclear contribution   :      6.75610       0.63068      -4.53972
                        -----------------------------------------
Total Dipole Moment    :      1.46012       0.24871      -1.31584
                        -----------------------------------------
Magnitude (a.u.)       :      1.98123
Magnitude (Debye)      :      5.03587

Rotational constants in cm-1:     0.335096     0.130241     0.099025
Rotational constants in MHz : 10045.924902  3904.536250  2968.708333

                             ****ORCA TERMINATED NORMALLY****
TOTAL RUN TIME: 0 days 0 hours 0 minutes 24 seconds 920 msec
