                         Program Version 5.0.0 -  RELEASE  -
|  1> !LC-BLYP RIJCOSX def2-TZVP def2/J TightSCF
|  2> *xyz 1 1
|  3> C          0.64866        1.00359       -3.64560
|  4> N          0.28128        0.67645       -2.24018
|  5> C          0.13297        2.38587       -4.02462
|  6> H          0.39079       -0.31925       -2.02649
|  7> H         -0.69269        0.99010       -2.13812
|  8> H          0.85421        1.21221       -1.57528
|  9> H          0.19099        0.23965       -4.27575
| 10> H          1.73157        0.93173       -3.75075
| 11> H          0.40589        2.60338       -5.03610
| 12> H          0.56342        3.11797       -3.37374
| 13> H         -0.93265        2.40724       -3.93025
| 14> *
| 15> %MaxCore 64000
| 16>
| 17> %pal nprocs 4
| 18> end
| 19>
| 20> %scf
| 21>   MaxIter 150
| 22> end
| 23>
| 24>
| 25>                          ****END OF INPUT****

CARTESIAN COORDINATES (ANGSTROEM)
---------------------------------
  C      0.648660    1.003590   -3.645600
  N      0.281280    0.676450   -2.240180
  C      0.132970    2.385870   -4.024620
  H      0.390790   -0.319250   -2.026490
  H     -0.692690    0.990100   -2.138120
  H      0.854210    1.212210   -1.575280
  H      0.190990    0.239650   -4.275750
  H      1.731570    0.931730   -3.750750
  H      0.405890    2.603380   -5.036100
  H      0.563420    3.117970   -3.373740
  H     -0.932650    2.407240   -3.930250

 Total Charge           Charge          ....    1
 Multiplicity           Mult            ....    1
 Number of Electrons    NEL             ....   26
 Basis Dimension        Dim             ....  141

ORBITAL ENERGIES
----------------

  NO   OCC          E(Eh)            E(eV)
   0   2.0000     -14.503098      -394.6494
   1   2.0000     -10.322611      -280.8925
   2   2.0000     -10.244621      -278.7703
   3   2.0000      -1.318616       -35.8814
   4   2.0000      -1.075293       -29.2602
   5   2.0000      -0.953981       -25.9591
   6   2.0000      -0.905735       -24.6463
   7   2.0000      -0.897788       -24.4301
   8   2.0000      -0.798072       -21.7167
   9   2.0000      -0.746380       -20.3100
  10   2.0000      -0.685523       -18.6540
  11   2.0000      -0.671304       -18.2671
  12   2.0000      -0.651533       -17.7291
  13   0.0000      -0.128988        -3.5100
  14   0.0000      -0.066065        -1.7977
  15   0.0000      -0.063044        -1.7155
  16   0.0000      -0.044289        -1.2052
  17   0.0000      -0.005749        -0.1564

MULLIKEN ATOMIC CHARGES
-----------------------
   0 C :   -0.257548
   1 N :   -0.284248
   2 C :   -0.415959
   3 H :    0.338120
   4 H :    0.326930
   5 H :    0.332595
   6 H :    0.209934
   7 H :    0.214124
   8 H :    0.199373
   9 H :    0.168665
  10 H :    0.168015
Sum of atomic charges:    1.0000000

LOEWDIN ATOMIC CHARGES
----------------------
   0 C :   -0.291268
   1 N :    0.167101
   2 C :   -0.291620
   3 H :    0.224192
   4 H :    0.228146
   5 H :    0.225765
   6 H :    0.157972
   7 H :    0.156978
   8 H :    0.153091
   9 H :    0.135407
  10 H :    0.134236

  Mayer bond orders larger than 0.100000
B(  0-C ,  1-N ) :   0.8438 B(  0-C ,  2-C ) :   0.9501 B(  0-C ,  6-H ) :   0.9506
B(  0-C ,  7-H ) :   0.9542 B(  1-N ,  3-H ) :   0.8758 B(  1-N ,  4-H ) :   0.8766
B(  1-N ,  5-H ) :   0.8773 B(  2-C ,  8-H ) :   0.9587 B(  2-C ,  9-H ) :   0.9552
B(  2-C , 10-H ) :   0.9535

FINAL SINGLE POINT ENERGY      -135.190705341506

DIPOLE MOMENT
-------------
                                X             Y             Z
Electronic contribution:      0.17333      -1.31476       1.33074
Nuclear contribution   :     -0.22655       0.48066      -0.09136
                        -----------------------------------------
Total Dipole Moment    :     -0.05322      -0.83410       1.23939
                        -----------------------------------------
Magnitude (a.u.)       :      1.49487
Magnitude (Debye)      :      3.79966

Rotational constants in cm-1:     0.998155     0.284845     0.251232
Rotational constants in MHz : 29923.943568  8539.431565  7531.732866

                             ****ORCA TERMINATED NORMALLY****
TOTAL RUN TIME: 0 days 0 hours 0 minutes 14 seconds 514 msec
