                         Program Version 5.0.0 -  RELEASE  -
|  1> !LC-BLYP RIJCOSX def2-TZVP def2/J TightSCF xyzfile
|  2>
|  3> *xyzfile 0 1 B.xyz
|  4>
|  5> %MaxCore 64000
|  6>
|  7> %pal nprocs 18
|  8> end
|  9>
| 10> %scf
| 11>   MaxIter 150
| 12> end
| 13>
| 14>
| 15>                          ****END OF INPUT****

CARTESIAN COORDINATES (ANGSTROEM)
---------------------------------
  C      0.648656    1.003595   -3.645601
  N      0.281280    0.676454   -2.240179
  C      0.132968    2.385869   -4.024618
  C     -1.366462    2.479106   -4.313932
  C     -2.357732    2.306858   -3.136753
  H     -1.636802    1.727095   -5.063993
  H     -1.582347    3.445605   -4.768687
  H      0.390790   -0.319253   -2.026495
  H     -0.692686    0.990104   -2.138123
  H      0.854206    1.212214   -1.575279
  O     -3.443763    2.846518   -3.252744
  O     -1.970922    1.583042   -2.151229
  H      0.190993    0.239655   -4.275752
  H      1.731572    0.931729   -3.750751
  H      0.414839    3.102847   -3.245165
  H      0.683167    2.687560   -4.919721

 Total Charge           Charge          ....    0
 Multiplicity           Mult            ....    1
 Number of Electrons    NEL             ....   56
 Basis Dimension        Dim             ....  271

ORBITAL ENERGIES
----------------

  NO   OCC          E(Eh)            E(eV)
   0   2.0000     -18.860144      -513.2106
   1   2.0000     -18.839556      -512.6504
   2   2.0000     -14.278901      -388.5486
   3   2.0000     -10.157400      -276.3969
   4   2.0000     -10.129011      -275.6244
   5   2.0000     -10.097139      -274.7571
   6   2.0000     -10.058596      -273.7083
   7   2.0000      -1.121891       -30.5282
   8   2.0000      -1.092152       -29.7190
   9   2.0000      -1.007579       -27.4176
  10   2.0000      -0.922062       -25.0906
  11   2.0000      -0.825883       -22.4734
  12   2.0000      -0.746720       -20.3193
  13   2.0000      -0.711530       -19.3617
  14   2.0000      -0.699589       -19.0368
  15   2.0000      -0.628961       -17.1149
  16   2.0000      -0.586059       -15.9475
  17   2.0000      -0.584774       -15.9125
  18   2.0000      -0.541044       -14.7226
  19   2.0000      -0.523340       -14.2408
  20   2.0000      -0.490719       -13.3531
  21   2.0000      -0.486416       -13.2361
  22   2.0000      -0.477307       -12.9882
  23   2.0000      -0.456671       -12.4267
  24   2.0000      -0.435491       -11.8503
  25   2.0000      -0.330181        -8.9847
  26   2.0000      -0.328897        -8.9498
  27   2.0000      -0.298650        -8.1267
  28   0.0000       0.037234         1.0132
  29   0.0000       0.083512         2.2725
  30   0.0000       0.091145         2.4802
  31   0.0000       0.122004         3.3199
  32   0.0000       0.131401         3.5756

MULLIKEN ATOMIC CHARGES
-----------------------
   0 C :   -0.228872
   1 N :   -0.296949
   2 C :   -0.282051
   3 C :   -0.315153
   4 C :    0.164634
   5 H :    0.124185
   6 H :    0.143166
   7 H :    0.277215
   8 H :    0.294905
   9 H :    0.276230
  10 O :   -0.310160
  11 O :   -0.481158
  12 H :    0.176190
  13 H :    0.165904
  14 H :    0.145857
  15 H :    0.146058
Sum of atomic charges:   -0.0000000

LOEWDIN ATOMIC CHARGES
----------------------
   0 C :   -0.284809
   1 N :    0.136428
   2 C :   -0.283669
   3 C :   -0.262413
   4 C :   -0.666364
   5 H :    0.148029
   6 H :    0.153201
   7 H :    0.192953
   8 H :    0.109947
   9 H :    0.198231
  10 O :    0.037868
  11 O :   -0.063729
  12 H :    0.148103
  13 H :    0.137152
  14 H :    0.147333
  15 H :    0.151740

  Mayer bond orders larger than 0.100000
B(  0-C ,  1-N ) :   0.8777 B(  0-C ,  2-C ) :   0.9249 B(  0-C , 12-H ) :   0.9662
B(  0-C , 13-H ) :   0.9815 B(  1-N ,  7-H ) :   0.9056 B(  1-N ,  8-H ) :   0.6662
B(  1-N ,  9-H ) :   0.9040 B(  2-C ,  3-C ) :   0.8884 B(  2-C , 14-H ) :   0.9658
B(  2-C , 15-H ) :   0.9745 B(  3-C ,  4-C ) :   0.9294 B(  3-C ,  5-H ) :   0.9633
B(  3-C ,  6-H ) :   0.9688 B(  4-C , 10-O ) :   2.1185 B(  4-C , 11-O ) :   1.5076
B(  8-H , 11-O ) :   0.3630

FINAL SINGLE POINT ENERGY      -362.343476687877

DIPOLE MOMENT
-------------
                                X             Y             Z
Electronic contribution:     -5.79453       0.93226       2.52701
Nuclear contribution   :      9.92875      -2.62114      -2.63866
                        -----------------------------------------
Total Dipole Moment    :      4.13423      -1.68888      -0.11165
                        -----------------------------------------
Magnitude (a.u.)       :      4.46728
Magnitude (Debye)      :     11.35493

Rotational constants in cm-1:     0.159108     0.062474     0.047603
Rotational constants in MHz :  4769.938632  1872.932224  1427.103830

                             ****ORCA TERMINATED NORMALLY****
TOTAL RUN TIME: 0 days 0 hours 0 minutes 18 seconds 655 msec
