                         Program Version 5.0.0 -  RELEASE  -
|  1> !LC-BLYP RIJCOSX def2-TZVP def2/J TightSCF
|  2> *xyz 0 1
|  3> C          0.13297        2.38587       -4.02462
|  4> C         -1.36646        2.47911       -4.31393
|  5> C         -2.35773        2.30686       -3.13675
|  6> H         -1.63680        1.72709       -5.06399
|  7> H         -1.58235        3.44561       -4.76869
|  8> F         -3.44376        2.84652       -3.25274
|  9> O         -1.97092        1.58304       -2.15123
| 10> H          0.68084        2.52514       -4.93310
| 11> H          0.35823        1.42282       -3.61633
| 12> H          0.40851        3.14443       -3.32208
| 13> *
| 14> %MaxCore 64000
| 15>
| 16> %pal nprocs 4
| 17> end
| 18>
| 19> %scf
| 20>   MaxIter 150
| 21> end
| 22>
| 23>
| 24>                          ****END OF INPUT****

CARTESIAN COORDINATES (ANGSTROEM)
---------------------------------
  C      0.132970    2.385870   -4.024620
  C     -1.366460    2.479110   -4.313930
  C     -2.357730    2.306860   -3.136750
  H     -1.636800    1.727090   -5.063990
  H     -1.582350    3.445610   -4.768690
  F     -3.443760    2.846520   -3.252740
  O     -1.970920    1.583040   -2.151230
  H      0.680840    2.525140   -4.933100
  H      0.358230    1.422820   -3.616330
  H      0.408510    3.144430   -3.322080

 Total Charge           Charge          ....    0
 Multiplicity           Mult            ....    1
 Number of Electrons    NEL             ....   40
 Basis Dimension        Dim             ....  185

ORBITAL ENERGIES
----------------

  NO   OCC          E(Eh)            E(eV)
   0   2.0000     -24.537912      -667.7105
   1   2.0000     -18.939490      -515.3697
   2   2.0000     -10.253427      -279.0099
   3   2.0000     -10.102645      -274.9069
   4   2.0000     -10.068382      -273.9746
   5   2.0000      -1.427223       -38.8367
   6   2.0000      -1.109482       -30.1906
   7   2.0000      -0.907277       -24.6883
   8   2.0000      -0.804746       -21.8982
   9   2.0000      -0.751891       -20.4600
  10   2.0000      -0.672866       -18.3096
  11   2.0000      -0.651932       -17.7400
  12   2.0000      -0.611017       -16.6266
  13   2.0000      -0.572935       -15.5904
  14   2.0000      -0.533503       -14.5174
  15   2.0000      -0.493842       -13.4381
  16   2.0000      -0.473672       -12.8893
  17   2.0000      -0.470954       -12.8153
  18   2.0000      -0.443622       -12.0716
  19   2.0000      -0.387031       -10.5316
  20   0.0000       0.055661         1.5146
  21   0.0000       0.094568         2.5733
  22   0.0000       0.136362         3.7106
  23   0.0000       0.155374         4.2279
  24   0.0000       0.163968         4.4618

MULLIKEN ATOMIC CHARGES
-----------------------
   0 C :   -0.379473
   1 C :   -0.289152
   2 C :    0.289482
   3 H :    0.148864
   4 H :    0.137976
   5 F :   -0.024703
   6 O :   -0.306425
   7 H :    0.136362
   8 H :    0.150226
   9 H :    0.136843
Sum of atomic charges:    0.0000000

LOEWDIN ATOMIC CHARGES
----------------------
   0 C :   -0.304546
   1 C :   -0.275432
   2 C :   -0.540104
   3 H :    0.158511
   4 H :    0.146252
   5 F :    0.400221
   6 O :    0.037025
   7 H :    0.123626
   8 H :    0.128818
   9 H :    0.125628

  Mayer bond orders larger than 0.100000
B(  0-C ,  1-C ) :   0.9433 B(  0-C ,  7-H ) :   0.9705 B(  0-C ,  8-H ) :   0.9672
B(  0-C ,  9-H ) :   0.9756 B(  1-C ,  2-C ) :   0.9703 B(  1-C ,  3-H ) :   0.9356
B(  1-C ,  4-H ) :   0.9624 B(  2-C ,  5-F ) :   1.2525 B(  2-C ,  6-O ) :   2.0855

FINAL SINGLE POINT ENERGY      -291.891000043551

DIPOLE MOMENT
-------------
                                X             Y             Z
Electronic contribution:     -8.38732       0.47487       3.56956
Nuclear contribution   :      8.54799       0.05434      -4.66633
                        -----------------------------------------
Total Dipole Moment    :      0.16066       0.52921      -1.09676
                        -----------------------------------------
Magnitude (a.u.)       :      1.22832
Magnitude (Debye)      :      3.12214

Rotational constants in cm-1:     0.325803     0.123345     0.094275
Rotational constants in MHz :  9767.324172  3697.779805  2826.305733

                             ****ORCA TERMINATED NORMALLY****
TOTAL RUN TIME: 0 days 0 hours 0 minutes 23 seconds 843 msec
