                         Program Version 5.0.0 -  RELEASE  -
|  1> !LC-BLYP RIJCOSX def2-TZVP def2/J TightSCF
|  2> *xyz 0 1
|  3> C          0.64866        1.00359       -3.64560
|  4> C          0.28128        0.67645       -2.24018
|  5> C          0.13297        2.38587       -4.02462
|  6> H          0.39079       -0.31925       -2.02649
|  7> H         -0.69269        0.99010       -2.13812
|  8> H          0.85421        1.21221       -1.57528
|  9> H          0.19099        0.23965       -4.27575
| 10> H          1.73157        0.93173       -3.75075
| 11> H          0.40589        2.60338       -5.03610
| 12> H          0.56342        3.11797       -3.37374
| 13> H         -0.93265        2.40724       -3.93025
| 14> *
| 15> %MaxCore 64000
| 16>
| 17> %pal nprocs 4
| 18> end
| 19>
| 20> %scf
| 21>   MaxIter 150
| 22> end
| 23>
| 24>
| 25>                          ****END OF INPUT****

CARTESIAN COORDINATES (ANGSTROEM)
---------------------------------
  C      0.648660    1.003590   -3.645600
  C      0.281280    0.676450   -2.240180
  C      0.132970    2.385870   -4.024620
  H      0.390790   -0.319250   -2.026490
  H     -0.692690    0.990100   -2.138120
  H      0.854210    1.212210   -1.575280
  H      0.190990    0.239650   -4.275750
  H      1.731570    0.931730   -3.750750
  H      0.405890    2.603380   -5.036100
  H      0.563420    3.117970   -3.373740
  H     -0.932650    2.407240   -3.930250

 Total Charge           Charge          ....    0
 Multiplicity           Mult            ....    1
 Number of Electrons    NEL             ....   26
 Basis Dimension        Dim             ....  141

ORBITAL ENERGIES
----------------

  NO   OCC          E(Eh)            E(eV)
   0   2.0000     -10.054006      -273.5834
   1   2.0000     -10.045448      -273.3505
   2   2.0000     -10.027134      -272.8522
   3   2.0000      -0.903301       -24.5801
   4   2.0000      -0.797322       -21.6962
   5   2.0000      -0.693471       -18.8703
   6   2.0000      -0.576536       -15.6883
   7   2.0000      -0.556191       -15.1347
   8   2.0000      -0.504815       -13.7367
   9   2.0000      -0.487535       -13.2665
  10   2.0000      -0.436764       -11.8849
  11   2.0000      -0.433183       -11.7875
  12   2.0000      -0.423831       -11.5330
  13   0.0000       0.104595         2.8462
  14   0.0000       0.148236         4.0337
  15   0.0000       0.153447         4.1755
  16   0.0000       0.160546         4.3687
  17   0.0000       0.179440         4.8828

MULLIKEN ATOMIC CHARGES
-----------------------
   0 C :   -0.194812
   1 C :   -0.373613
   2 C :   -0.387886
   3 H :    0.126921
   4 H :    0.113274
   5 H :    0.128427
   6 H :    0.106646
   7 H :    0.106050
   8 H :    0.126962
   9 H :    0.122786
  10 H :    0.125244
Sum of atomic charges:    0.0000000

LOEWDIN ATOMIC CHARGES
----------------------
   0 C :   -0.331184
   1 C :   -0.316784
   2 C :   -0.319757
   3 H :    0.110388
   4 H :    0.117268
   5 H :    0.112838
   6 H :    0.135611
   7 H :    0.133074
   8 H :    0.119115
   9 H :    0.120189
  10 H :    0.119242

  Mayer bond orders larger than 0.100000
B(  0-C ,  1-C ) :   0.9251 B(  0-C ,  2-C ) :   0.9453 B(  0-C ,  6-H ) :   0.9794
B(  0-C ,  7-H ) :   0.9789 B(  1-C ,  3-H ) :   0.9860 B(  1-C ,  4-H ) :   0.9778
B(  1-C ,  5-H ) :   0.9811 B(  2-C ,  8-H ) :   0.9840 B(  2-C ,  9-H ) :   0.9753
B(  2-C , 10-H ) :   0.9762

FINAL SINGLE POINT ENERGY      -118.783842288047

DIPOLE MOMENT
-------------
                                X             Y             Z
Electronic contribution:      0.26406      -0.28440      -0.24885
Nuclear contribution   :     -0.24754       0.26111       0.24628
                        -----------------------------------------
Total Dipole Moment    :      0.01652      -0.02329      -0.00258
                        -----------------------------------------
Magnitude (a.u.)       :      0.02867
Magnitude (Debye)      :      0.07287

Rotational constants in cm-1:     1.006509     0.299509     0.263145
Rotational constants in MHz : 30174.379724  8979.049324  7888.875355

                             ****ORCA TERMINATED NORMALLY****
TOTAL RUN TIME: 0 days 0 hours 0 minutes 14 seconds 536 msec
