                         Program Version 5.0.0 -  RELEASE  -
|  1> !LC-BLYP RIJCOSX def2-TZVP def2/J TightSCF
|  2> *xyz 0 1
|  3> C          0.13297        2.38587       -4.02462
|  4> C         -1.36646        2.47911       -4.31393
|  5> C         -2.35773        2.30686       -3.13675
|  6> H         -1.63680        1.72709       -5.06399
|  7> H         -1.58235        3.44561       -4.76869
|  8> O         -3.44376        2.84652       -3.25274
|  9> F         -1.97092        1.58304       -2.15123
| 10> H          0.68084        2.52514       -4.93310
| 11> H          0.35823        1.42282       -3.61633
| 12> H          0.40851        3.14443       -3.32208
| 13> *
| 14> %MaxCore 64000
| 15>
| 16> %pal nprocs 4
| 17> end
| 18>
| 19> %scf
| 20>   MaxIter 150
| 21> end
| 22>
| 23>
| 24>                          ****END OF INPUT****

CARTESIAN COORDINATES (ANGSTROEM)
---------------------------------
  C      0.132970    2.385870   -4.024620
  C     -1.366460    2.479110   -4.313930
  C     -2.357730    2.306860   -3.136750
  H     -1.636800    1.727090   -5.063990
  H     -1.582350    3.445610   -4.768690
  O     -3.443760    2.846520   -3.252740
  F     -1.970920    1.583040   -2.151230
  H      0.680840    2.525140   -4.933100
  H      0.358230    1.422820   -3.616330
  H      0.408510    3.144430   -3.322080

 Total Charge           Charge          ....    0
 Multiplicity           Mult            ....    1
 Number of Electrons    NEL             ....   40
 Basis Dimension        Dim             ....  185

ORBITAL ENERGIES
----------------

  NO   OCC          E(Eh)            E(eV)
   0   2.0000     -24.514342      -667.0692
   1   2.0000     -18.948888      -515.6255
   2   2.0000     -10.247536      -278.8496
   3   2.0000     -10.101063      -274.8639
   4   2.0000     -10.073536      -274.1149
   5   2.0000      -1.379876       -37.5483
   6   2.0000      -1.148260       -31.2457
   7   2.0000      -0.909957       -24.7612
   8   2.0000      -0.788245       -21.4492
   9   2.0000      -0.742728       -20.2107
  10   2.0000      -0.648442       -17.6450
  11   2.0000      -0.641871       -17.4662
  12   2.0000      -0.598900       -16.2969
  13   2.0000      -0.571842       -15.5606
  14   2.0000      -0.535932       -14.5834
  15   2.0000      -0.508446       -13.8355
  16   2.0000      -0.492536       -13.4026
  17   2.0000      -0.474930       -12.9235
  18   2.0000      -0.454622       -12.3709
  19   2.0000      -0.397065       -10.8047
  20   0.0000       0.060330         1.6417
  21   0.0000       0.090142         2.4529
  22   0.0000       0.137983         3.7547
  23   0.0000       0.158091         4.3019
  24   0.0000       0.162487         4.4215

MULLIKEN ATOMIC CHARGES
-----------------------
   0 C :   -0.386427
   1 C :   -0.294027
   2 C :    0.264840
   3 H :    0.149480
   4 H :    0.157413
   5 O :   -0.219997
   6 F :   -0.089302
   7 H :    0.141574
   8 H :    0.136802
   9 H :    0.139643
Sum of atomic charges:    0.0000000

LOEWDIN ATOMIC CHARGES
----------------------
   0 C :   -0.315382
   1 C :   -0.271309
   2 C :   -0.526272
   3 H :    0.158468
   4 H :    0.157359
   5 O :    0.126205
   6 F :    0.297789
   7 H :    0.125640
   8 H :    0.123304
   9 H :    0.124199

  Mayer bond orders larger than 0.100000
B(  0-C ,  1-C ) :   0.9201 B(  0-C ,  7-H ) :   0.9725 B(  0-C ,  8-H ) :   0.9683
B(  0-C ,  9-H ) :   0.9732 B(  1-C ,  2-C ) :   0.9744 B(  1-C ,  3-H ) :   0.9450
B(  1-C ,  4-H ) :   0.9662 B(  2-C ,  5-O ) :   2.1772 B(  2-C ,  6-F ) :   1.1762

FINAL SINGLE POINT ENERGY      -291.908543704710

DIPOLE MOMENT
-------------
                                X             Y             Z
Electronic contribution:     -5.90165      -1.62717       5.38571
Nuclear contribution   :      6.94213       1.43193      -5.86732
                        -----------------------------------------
Total Dipole Moment    :      1.04049      -0.19524      -0.48160
                        -----------------------------------------
Magnitude (a.u.)       :      1.16304
Magnitude (Debye)      :      2.95622

Rotational constants in cm-1:     0.306336     0.129048     0.095707
Rotational constants in MHz :  9183.725605  3868.769583  2869.236577

                             ****ORCA TERMINATED NORMALLY****
TOTAL RUN TIME: 0 days 0 hours 0 minutes 24 seconds 180 msec
