                         Program Version 5.0.0 -  RELEASE  -
|  1> !LC-BLYP RIJCOSX def2-TZVP def2/J TightSCF xyzfile
|  2>
|  3> *xyzfile 0 1 D1.xyz
|  4>
|  5> %MaxCore 64000
|  6>
|  7> %pal nprocs 18
|  8> end
|  9>
| 10> %scf
| 11>   MaxIter 150
| 12> end
| 13>
| 14>
| 15>                          ****END OF INPUT****

CARTESIAN COORDINATES (ANGSTROEM)
---------------------------------
  C      0.648656    1.003595   -3.645601
  C      0.281280    0.676454   -2.240179
  C      0.132968    2.385869   -4.024618
  C     -1.366462    2.479106   -4.313932
  C     -2.357732    2.306858   -3.136753
  H     -1.636802    1.727095   -5.063993
  H     -1.582347    3.445605   -4.768687
  H      0.390790   -0.319253   -2.026495
  H     -0.692686    0.990104   -2.138123
  H      0.854206    1.212214   -1.575279
  F     -3.443763    2.846518   -3.252744
  O     -1.970922    1.583042   -2.151229
  H      0.190993    0.239655   -4.275752
  H      1.731572    0.931729   -3.750751
  H      0.414839    3.102847   -3.245165
  H      0.683167    2.687560   -4.919721

 Total Charge           Charge          ....    0
 Multiplicity           Mult            ....    1
 Number of Electrons    NEL             ....   56
 Basis Dimension        Dim             ....  271

ORBITAL ENERGIES
----------------

  NO   OCC          E(Eh)            E(eV)
   0   2.0000     -24.549101      -668.0150
   1   2.0000     -18.948395      -515.6121
   2   2.0000     -10.268798      -279.4282
   3   2.0000     -10.107607      -275.0420
   4   2.0000     -10.076371      -274.1920
   5   2.0000     -10.047831      -273.4154
   6   2.0000      -9.976542      -271.4755
   7   2.0000      -1.438165       -39.1345
   8   2.0000      -1.133513       -30.8444
   9   2.0000      -0.927054       -25.2264
  10   2.0000      -0.866673       -23.5834
  11   2.0000      -0.795331       -21.6421
  12   2.0000      -0.766516       -20.8580
  13   2.0000      -0.692325       -18.8391
  14   2.0000      -0.679782       -18.4978
  15   2.0000      -0.662980       -18.0406
  16   2.0000      -0.631453       -17.1827
  17   2.0000      -0.590203       -16.0602
  18   2.0000      -0.555053       -15.1038
  19   2.0000      -0.540057       -14.6957
  20   2.0000      -0.512223       -13.9383
  21   2.0000      -0.484988       -13.1972
  22   2.0000      -0.478219       -13.0130
  23   2.0000      -0.456446       -12.4205
  24   2.0000      -0.441520       -12.0144
  25   2.0000      -0.417979       -11.3738
  26   2.0000      -0.408861       -11.1257
  27   2.0000      -0.342750        -9.3267
  28   0.0000       0.041144         1.1196
  29   0.0000       0.093191         2.5359
  30   0.0000       0.125812         3.4235
  31   0.0000       0.134572         3.6619
  32   0.0000       0.146547         3.9877

MULLIKEN ATOMIC CHARGES
-----------------------
   0 C :   -0.214498
   1 C :   -0.444598
   2 C :   -0.255613
   3 C :   -0.342342
   4 C :    0.313424
   5 H :    0.164477
   6 H :    0.156792
   7 H :    0.109935
   8 H :    0.183393
   9 H :    0.113128
  10 F :   -0.013510
  11 O :   -0.258080
  12 H :    0.102251
  13 H :    0.111426
  14 H :    0.140104
  15 H :    0.133713
Sum of atomic charges:   -0.0000000

LOEWDIN ATOMIC CHARGES
----------------------
   0 C :   -0.311059
   1 C :   -0.334740
   2 C :   -0.268559
   3 C :   -0.245277
   4 C :   -0.508167
   5 H :    0.163873
   6 H :    0.152609
   7 H :    0.103107
   8 H :    0.072091
   9 H :    0.105630
  10 F :    0.407363
  11 O :    0.097472
  12 H :    0.137206
  13 H :    0.134926
  14 H :    0.147884
  15 H :    0.145641

  Mayer bond orders larger than 0.100000
B(  0-C ,  1-C ) :   0.9064 B(  0-C ,  2-C ) :   0.9266 B(  0-C , 12-H ) :   0.9808
B(  0-C , 13-H ) :   0.9831 B(  1-C ,  7-H ) :   0.9916 B(  1-C ,  8-H ) :   0.9232
B(  1-C ,  9-H ) :   0.9864 B(  2-C ,  3-C ) :   0.9230 B(  2-C , 14-H ) :   0.9766
B(  2-C , 15-H ) :   0.9786 B(  3-C ,  4-C ) :   0.9795 B(  3-C ,  5-H ) :   0.9335
B(  3-C ,  6-H ) :   0.9674 B(  4-C , 10-F ) :   1.2753 B(  4-C , 11-O ) :   1.9774
B(  8-H , 11-O ) :   0.1112

FINAL SINGLE POINT ENERGY      -370.253078655047

DIPOLE MOMENT
-------------
                                X             Y             Z
Electronic contribution:    -13.01091       4.59715       1.40111
Nuclear contribution   :     12.79331      -3.91961      -2.45895
                        -----------------------------------------
Total Dipole Moment    :     -0.21760       0.67754      -1.05784
                        -----------------------------------------
Magnitude (a.u.)       :      1.27492
Magnitude (Debye)      :      3.24060

Rotational constants in cm-1:     0.162888     0.059977     0.046450
Rotational constants in MHz :  4883.250030  1798.063289  1392.548669

                             ****ORCA TERMINATED NORMALLY****
TOTAL RUN TIME: 0 days 0 hours 0 minutes 21 seconds 127 msec
