                         Program Version 5.0.0 -  RELEASE  -
|  1> !CAM-B3LYP RIJCOSX def2-SVPD def2/J TightSCF
|  2> *xyz -1 1
|  3> C          0.64866        1.00359       -3.64560
|  4> C          0.13297        2.38587       -4.02462
|  5> C         -1.36646        2.47911       -4.31393
|  6> C         -2.35773        2.30686       -3.13675
|  7> H         -1.63680        1.72709       -5.06399
|  8> H         -1.58235        3.44561       -4.76869
|  9> O         -3.44376        2.84652       -3.25274
| 10> O         -1.97092        1.58304       -2.15123
| 11> H          0.41484        3.10285       -3.24517
| 12> H          0.68317        2.68756       -4.91972
| 13> H          0.37534        0.30051       -4.40446
| 14> H          0.21856        0.70606       -2.71212
| 15> H          1.71431        1.03324       -3.55398
| 16> *
| 17> %MaxCore 64000
| 18>
| 19> %pal nprocs 4
| 20> end
| 21>
| 22> %scf
| 23>   MaxIter 150
| 24> end
| 25>
| 26>
| 27>                          ****END OF INPUT****

CARTESIAN COORDINATES (ANGSTROEM)
---------------------------------
  C      0.648660    1.003590   -3.645600
  C      0.132970    2.385870   -4.024620
  C     -1.366460    2.479110   -4.313930
  C     -2.357730    2.306860   -3.136750
  H     -1.636800    1.727090   -5.063990
  H     -1.582350    3.445610   -4.768690
  O     -3.443760    2.846520   -3.252740
  O     -1.970920    1.583040   -2.151230
  H      0.414840    3.102850   -3.245170
  H      0.683170    2.687560   -4.919720
  H      0.375340    0.300510   -4.404460
  H      0.218560    0.706060   -2.712120
  H      1.714310    1.033240   -3.553980

 Total Charge           Charge          ....   -1
 Multiplicity           Mult            ....    1
 Number of Electrons    NEL             ....   48
 Basis Dimension        Dim             ....  182

ORBITAL ENERGIES
----------------

  NO   OCC          E(Eh)            E(eV)
   0   2.0000     -18.961730      -515.9749
   1   2.0000     -18.950547      -515.6706
   2   2.0000     -10.153022      -276.2778
   3   2.0000     -10.109827      -275.1024
   4   2.0000     -10.096783      -274.7474
   5   2.0000     -10.087774      -274.5023
   6   2.0000      -0.906082       -24.6558
   7   2.0000      -0.803781       -21.8720
   8   2.0000      -0.712809       -19.3965
   9   2.0000      -0.615839       -16.7578
  10   2.0000      -0.517934       -14.0937
  11   2.0000      -0.399879       -10.8813
  12   2.0000      -0.367214        -9.9924
  13   2.0000      -0.360800        -9.8179
  14   2.0000      -0.330640        -8.9972
  15   2.0000      -0.302120        -8.2211
  16   2.0000      -0.289513        -7.8780
  17   2.0000      -0.275519        -7.4973
  18   2.0000      -0.259172        -7.0524
  19   2.0000      -0.246448        -6.7062
  20   2.0000      -0.232809        -6.3350
  21   2.0000      -0.119546        -3.2530
  22   2.0000      -0.112835        -3.0704
  23   2.0000      -0.101575        -2.7640
  24   0.0000       0.175254         4.7689
  25   0.0000       0.201046         5.4707
  26   0.0000       0.211991         5.7686
  27   0.0000       0.225419         6.1340
  28   0.0000       0.253379         6.8948

MULLIKEN ATOMIC CHARGES
-----------------------
   0 C :    0.935802
   1 C :   -0.174099
   2 C :    0.120677
   3 C :    0.379179
   4 H :   -0.012801
   5 H :   -0.091549
   6 O :   -0.618100
   7 O :   -0.731076
   8 H :   -0.169723
   9 H :   -0.139170
  10 H :   -0.142428
  11 H :   -0.224066
  12 H :   -0.132647
Sum of atomic charges:   -1.0000000

LOEWDIN ATOMIC CHARGES
----------------------
   0 C :    0.102264
   1 C :   -0.093649
   2 C :    0.004731
   3 C :   -0.300374
   4 H :    0.014211
   5 H :   -0.000741
   6 O :   -0.299258
   7 O :   -0.329879
   8 H :    0.016873
   9 H :   -0.004399
  10 H :   -0.028377
  11 H :   -0.041815
  12 H :   -0.039587

  Mayer bond orders larger than 0.100000
B(  0-C ,  1-C ) :   1.2566 B(  0-C ,  8-H ) :   0.1106 B(  0-C , 10-H ) :   0.7417
B(  0-C , 11-H ) :   0.7979 B(  0-C , 12-H ) :   0.7023 B(  1-C ,  2-C ) :   1.1766
B(  1-C ,  4-H ) :   0.1385 B(  1-C ,  5-H ) :   0.1338 B(  1-C ,  8-H ) :   0.9104
B(  1-C ,  9-H ) :   0.8310 B(  1-C , 10-H ) :   0.2190 B(  1-C , 11-H ) :   0.2390
B(  1-C , 12-H ) :   0.2434 B(  2-C ,  3-C ) :   0.9866 B(  2-C ,  4-H ) :   0.8225
B(  2-C ,  5-H ) :   0.9099 B(  2-C ,  8-H ) :   0.1420 B(  2-C ,  9-H ) :   0.1306
B(  3-C ,  5-H ) :   0.1598 B(  3-C ,  6-O ) :   1.5539 B(  3-C ,  7-O ) :   1.4597

FINAL SINGLE POINT ENERGY      -306.806639146964

DIPOLE MOMENT
-------------
                                X             Y             Z
Electronic contribution:     -7.17372       1.47212       3.08815
Nuclear contribution   :      9.31936      -1.53308      -4.48293
                        -----------------------------------------
Total Dipole Moment    :      2.14564      -0.06096      -1.39478
                        -----------------------------------------
Magnitude (a.u.)       :      2.55987
Magnitude (Debye)      :      6.50667

Rotational constants in cm-1:     0.250458     0.077448     0.063252
Rotational constants in MHz :  7508.538874  2321.842942  1896.252250

                             ****ORCA TERMINATED NORMALLY****
TOTAL RUN TIME: 0 days 0 hours 0 minutes 28 seconds 877 msec
