                         Program Version 5.0.0 -  RELEASE  -
|  1> !CAM-B3LYP RIJCOSX def2-SVPD def2/J TightSCF
|  2> *xyz 1 1
|  3> C          0.64866        1.00359       -3.64560
|  4> N          0.28128        0.67645       -2.24018
|  5> C          0.13297        2.38587       -4.02462
|  6> C         -1.36646        2.47911       -4.31393
|  7> H          0.39079       -0.31925       -2.02649
|  8> H         -0.69269        0.99010       -2.13812
|  9> H          0.85421        1.21221       -1.57528
| 10> H          0.19099        0.23965       -4.27575
| 11> H          1.73157        0.93173       -3.75075
| 12> H          0.41484        3.10285       -3.24517
| 13> H          0.68317        2.68756       -4.91972
| 14> H         -1.62719        1.77449       -5.07580
| 15> H         -1.60483        3.46796       -4.64597
| 16> H         -1.91603        2.26007       -3.42236
| 17> *
| 18> %MaxCore 64000
| 19>
| 20> %pal nprocs 4
| 21> end
| 22>
| 23> %scf
| 24>   MaxIter 150
| 25> end
| 26>
| 27>
| 28>                          ****END OF INPUT****

CARTESIAN COORDINATES (ANGSTROEM)
---------------------------------
  C      0.648660    1.003590   -3.645600
  N      0.281280    0.676450   -2.240180
  C      0.132970    2.385870   -4.024620
  C     -1.366460    2.479110   -4.313930
  H      0.390790   -0.319250   -2.026490
  H     -0.692690    0.990100   -2.138120
  H      0.854210    1.212210   -1.575280
  H      0.190990    0.239650   -4.275750
  H      1.731570    0.931730   -3.750750
  H      0.414840    3.102850   -3.245170
  H      0.683170    2.687560   -4.919720
  H     -1.627190    1.774490   -5.075800
  H     -1.604830    3.467960   -4.645970
  H     -1.916030    2.260070   -3.422360

 Total Charge           Charge          ....    1
 Multiplicity           Mult            ....    1
 Number of Electrons    NEL             ....   34
 Basis Dimension        Dim             ....  160

ORBITAL ENERGIES
----------------

  NO   OCC          E(Eh)            E(eV)
   0   2.0000     -14.735229      -400.9660
   1   2.0000     -10.506614      -285.8995
   2   2.0000     -10.438580      -284.0482
   3   2.0000     -10.405632      -283.1516
   4   2.0000      -1.286883       -35.0179
   5   2.0000      -1.050450       -28.5842
   6   2.0000      -0.957775       -26.0624
   7   2.0000      -0.878799       -23.9133
   8   2.0000      -0.870017       -23.6744
   9   2.0000      -0.840326       -22.8664
  10   2.0000      -0.760704       -20.6998
  11   2.0000      -0.699723       -19.0404
  12   2.0000      -0.679129       -18.4800
  13   2.0000      -0.655277       -17.8310
  14   2.0000      -0.596129       -16.2215
  15   2.0000      -0.584740       -15.9116
  16   2.0000      -0.581071       -15.8118
  17   0.0000      -0.152974        -4.1626
  18   0.0000      -0.095201        -2.5905
  19   0.0000      -0.092369        -2.5135
  20   0.0000      -0.083171        -2.2632
  21   0.0000      -0.056291        -1.5318

MULLIKEN ATOMIC CHARGES
-----------------------
   0 C :    0.749204
   1 N :   -0.706141
   2 C :   -0.184906
   3 C :    0.981862
   4 H :    0.296557
   5 H :    0.360268
   6 H :    0.385176
   7 H :   -0.095588
   8 H :   -0.171587
   9 H :   -0.111954
  10 H :   -0.096693
  11 H :   -0.049141
  12 H :   -0.092980
  13 H :   -0.264076
Sum of atomic charges:    1.0000000

LOEWDIN ATOMIC CHARGES
----------------------
   0 C :    0.085833
   1 N :    0.337097
   2 C :   -0.049409
   3 C :    0.154118
   4 H :    0.108764
   5 H :    0.085106
   6 H :    0.110827
   7 H :    0.053961
   8 H :    0.052814
   9 H :    0.034681
  10 H :    0.044318
  11 H :   -0.000867
  12 H :    0.007410
  13 H :   -0.024654

  Mayer bond orders larger than 0.100000
B(  0-C ,  1-N ) :   0.7641 B(  0-C ,  2-C ) :   1.1772 B(  0-C ,  7-H ) :   0.8685
B(  0-C ,  8-H ) :   0.8643 B(  0-C , 10-H ) :   0.1226 B(  1-N ,  4-H ) :   0.8298
B(  1-N ,  5-H ) :   0.7366 B(  1-N ,  6-H ) :   0.7745 B(  1-N ,  8-H ) :   0.1339
B(  2-C ,  3-C ) :   1.2476 B(  2-C ,  9-H ) :   0.9311 B(  2-C , 10-H ) :   0.8889
B(  2-C , 11-H ) :   0.1971 B(  2-C , 12-H ) :   0.2425 B(  2-C , 13-H ) :   0.2003
B(  3-C , 11-H ) :   0.7476 B(  3-C , 12-H ) :   0.7421 B(  3-C , 13-H ) :   0.7609
B( 11-H , 13-H ) :   0.1022

FINAL SINGLE POINT ENERGY      -174.625687058357

DIPOLE MOMENT
-------------
                                X             Y             Z
Electronic contribution:      1.31870      -1.47561       1.59025
Nuclear contribution   :     -0.74670       0.28200      -0.02386
                        -----------------------------------------
Total Dipole Moment    :      0.57200      -1.19361       1.56639
                        -----------------------------------------
Magnitude (a.u.)       :      2.05072
Magnitude (Debye)      :      5.21252

Rotational constants in cm-1:     0.472563     0.149855     0.132807
Rotational constants in MHz : 14167.078489  4492.544970  3981.441276

                             ****ORCA TERMINATED NORMALLY****
TOTAL RUN TIME: 0 days 0 hours 0 minutes 19 seconds 854 msec
