                         Program Version 5.0.0 -  RELEASE  -
|  1> !CAM-B3LYP RIJCOSX def2-SVPD def2/J TightSCF
|  2> *xyz 0 1
|  3> C          0.64866        1.00359       -3.64560
|  4> C          0.13297        2.38587       -4.02462
|  5> C         -1.36646        2.47911       -4.31393
|  6> C         -2.35773        2.30686       -3.13675
|  7> H         -1.63680        1.72709       -5.06399
|  8> H         -1.58235        3.44561       -4.76869
|  9> F         -3.44376        2.84652       -3.25274
| 10> O         -1.97092        1.58304       -2.15123
| 11> H          0.41484        3.10285       -3.24517
| 12> H          0.68317        2.68756       -4.91972
| 13> H          0.37534        0.30051       -4.40446
| 14> H          0.21856        0.70606       -2.71212
| 15> H          1.71431        1.03324       -3.55398
| 16> *
| 17> %MaxCore 64000
| 18>
| 19> %pal nprocs 4
| 20> end
| 21>
| 22> %scf
| 23>   MaxIter 150
| 24> end
| 25>
| 26>
| 27>                          ****END OF INPUT****

CARTESIAN COORDINATES (ANGSTROEM)
---------------------------------
  C      0.648660    1.003590   -3.645600
  C      0.132970    2.385870   -4.024620
  C     -1.366460    2.479110   -4.313930
  C     -2.357730    2.306860   -3.136750
  H     -1.636800    1.727090   -5.063990
  H     -1.582350    3.445610   -4.768690
  F     -3.443760    2.846520   -3.252740
  O     -1.970920    1.583040   -2.151230
  H      0.414840    3.102850   -3.245170
  H      0.683170    2.687560   -4.919720
  H      0.375340    0.300510   -4.404460
  H      0.218560    0.706060   -2.712120
  H      1.714310    1.033240   -3.553980

 Total Charge           Charge          ....    0
 Multiplicity           Mult            ....    1
 Number of Electrons    NEL             ....   48
 Basis Dimension        Dim             ....  182

ORBITAL ENERGIES
----------------

  NO   OCC          E(Eh)            E(eV)
   0   2.0000     -24.863478      -676.5696
   1   2.0000     -19.222791      -523.0787
   2   2.0000     -10.452559      -284.4286
   3   2.0000     -10.293658      -280.1047
   4   2.0000     -10.270419      -279.4723
   5   2.0000     -10.238960      -278.6163
   6   2.0000      -1.422332       -38.7036
   7   2.0000      -1.094505       -29.7830
   8   2.0000      -0.887426       -24.1481
   9   2.0000      -0.808532       -22.0013
  10   2.0000      -0.751086       -20.4381
  11   2.0000      -0.688956       -18.7475
  12   2.0000      -0.648196       -17.6383
  13   2.0000      -0.623374       -16.9629
  14   2.0000      -0.581503       -15.8235
  15   2.0000      -0.534813       -14.5530
  16   2.0000      -0.525223       -14.2921
  17   2.0000      -0.491442       -13.3728
  18   2.0000      -0.460750       -12.5376
  19   2.0000      -0.428771       -11.6674
  20   2.0000      -0.424015       -11.5380
  21   2.0000      -0.413707       -11.2575
  22   2.0000      -0.407588       -11.0910
  23   2.0000      -0.356209        -9.6929
  24   0.0000       0.014612         0.3976
  25   0.0000       0.044022         1.1979
  26   0.0000       0.067462         1.8357
  27   0.0000       0.081088         2.2065
  28   0.0000       0.084034         2.2867

MULLIKEN ATOMIC CHARGES
-----------------------
   0 C :    0.960096
   1 C :   -0.177516
   2 C :    0.080070
   3 C :    0.678917
   4 H :    0.062818
   5 H :   -0.047439
   6 F :   -0.321221
   7 O :   -0.486873
   8 H :   -0.150839
   9 H :   -0.119529
  10 H :   -0.128536
  11 H :   -0.240841
  12 H :   -0.109107
Sum of atomic charges:    0.0000000

LOEWDIN ATOMIC CHARGES
----------------------
   0 C :    0.126430
   1 C :   -0.066136
   2 C :    0.043129
   3 C :   -0.005516
   4 H :    0.041954
   5 H :    0.022358
   6 F :   -0.003275
   7 O :   -0.144156
   8 H :    0.029784
   9 H :    0.021181
  10 H :   -0.015676
  11 H :   -0.033260
  12 H :   -0.016815

  Mayer bond orders larger than 0.100000
B(  0-C ,  1-C ) :   1.2792 B(  0-C ,  8-H ) :   0.1084 B(  0-C , 10-H ) :   0.7335
B(  0-C , 11-H ) :   0.7951 B(  0-C , 12-H ) :   0.7086 B(  1-C ,  2-C ) :   1.2334
B(  1-C ,  4-H ) :   0.1340 B(  1-C ,  5-H ) :   0.1429 B(  1-C ,  8-H ) :   0.9140
B(  1-C ,  9-H ) :   0.8393 B(  1-C , 10-H ) :   0.2131 B(  1-C , 11-H ) :   0.2295
B(  1-C , 12-H ) :   0.2362 B(  2-C ,  3-C ) :   1.0669 B(  2-C ,  4-H ) :   0.8041
B(  2-C ,  5-H ) :   0.8710 B(  2-C ,  8-H ) :   0.1300 B(  2-C ,  9-H ) :   0.1201
B(  3-C ,  5-H ) :   0.1129 B(  3-C ,  6-F ) :   0.8120 B(  3-C ,  7-O ) :   1.8158
B(  6-F ,  7-O ) :   0.1011

FINAL SINGLE POINT ENERGY      -331.327680285904

DIPOLE MOMENT
-------------
                                X             Y             Z
Electronic contribution:    -11.44952       2.91589       3.59543
Nuclear contribution   :     11.62992      -2.38586      -4.66016
                        -----------------------------------------
Total Dipole Moment    :      0.18040       0.53003      -1.06474
                        -----------------------------------------
Magnitude (a.u.)       :      1.20297
Magnitude (Debye)      :      3.05771

Rotational constants in cm-1:     0.249088     0.072929     0.060128
Rotational constants in MHz :  7467.482637  2186.350475  1802.579568

                             ****ORCA TERMINATED NORMALLY****
TOTAL RUN TIME: 0 days 0 hours 0 minutes 28 seconds 982 msec
