                         Program Version 5.0.0 -  RELEASE  -
|  1> !CAM-B3LYP RIJCOSX def2-SVPD def2/J TightSCF
|  2> *xyz 0 1
|  3> C          0.64866        1.00359       -3.64560
|  4> C          0.28128        0.67645       -2.24018
|  5> C          0.13297        2.38587       -4.02462
|  6> C         -1.36646        2.47911       -4.31393
|  7> H          0.39079       -0.31925       -2.02649
|  8> H         -0.69269        0.99010       -2.13812
|  9> H          0.85421        1.21221       -1.57528
| 10> H          0.19099        0.23965       -4.27575
| 11> H          1.73157        0.93173       -3.75075
| 12> H          0.41484        3.10285       -3.24517
| 13> H          0.68317        2.68756       -4.91972
| 14> H         -1.62719        1.77449       -5.07580
| 15> H         -1.60483        3.46796       -4.64597
| 16> H         -1.91603        2.26007       -3.42236
| 17> *
| 18> %MaxCore 64000
| 19>
| 20> %pal nprocs 4
| 21> end
| 22>
| 23> %scf
| 24>   MaxIter 150
| 25> end
| 26>
| 27>
| 28>                          ****END OF INPUT****

CARTESIAN COORDINATES (ANGSTROEM)
---------------------------------
  C      0.648660    1.003590   -3.645600
  C      0.281280    0.676450   -2.240180
  C      0.132970    2.385870   -4.024620
  C     -1.366460    2.479110   -4.313930
  H      0.390790   -0.319250   -2.026490
  H     -0.692690    0.990100   -2.138120
  H      0.854210    1.212210   -1.575280
  H      0.190990    0.239650   -4.275750
  H      1.731570    0.931730   -3.750750
  H      0.414840    3.102850   -3.245170
  H      0.683170    2.687560   -4.919720
  H     -1.627190    1.774490   -5.075800
  H     -1.604830    3.467960   -4.645970
  H     -1.916030    2.260070   -3.422360

 Total Charge           Charge          ....    0
 Multiplicity           Mult            ....    1
 Number of Electrons    NEL             ....   34
 Basis Dimension        Dim             ....  160

ORBITAL ENERGIES
----------------

  NO   OCC          E(Eh)            E(eV)
   0   2.0000     -10.247606      -278.8515
   1   2.0000     -10.242994      -278.7260
   2   2.0000     -10.240075      -278.6466
   3   2.0000     -10.219234      -278.0795
   4   2.0000      -0.881086       -23.9756
   5   2.0000      -0.805235       -21.9116
   6   2.0000      -0.715974       -19.4826
   7   2.0000      -0.640222       -17.4213
   8   2.0000      -0.541780       -14.7426
   9   2.0000      -0.529343       -14.4041
  10   2.0000      -0.497005       -13.5242
  11   2.0000      -0.463040       -12.6000
  12   2.0000      -0.445358       -12.1188
  13   2.0000      -0.429671       -11.6919
  14   2.0000      -0.391432       -10.6514
  15   2.0000      -0.389313       -10.5937
  16   2.0000      -0.378240       -10.2924
  17   0.0000       0.056514         1.5378
  18   0.0000       0.080025         2.1776
  19   0.0000       0.083214         2.2644
  20   0.0000       0.088939         2.4202
  21   0.0000       0.133125         3.6225

MULLIKEN ATOMIC CHARGES
-----------------------
   0 C :   -0.088946
   1 C :    1.377464
   2 C :   -0.195339
   3 C :    0.957739
   4 H :   -0.304418
   5 H :   -0.517827
   6 H :   -0.146712
   7 H :   -0.105130
   8 H :   -0.231256
   9 H :   -0.125964
  10 H :   -0.176180
  11 H :   -0.058976
  12 H :   -0.121233
  13 H :   -0.263222
Sum of atomic charges:   -0.0000000

LOEWDIN ATOMIC CHARGES
----------------------
   0 C :   -0.079270
   1 C :    0.125331
   2 C :   -0.083391
   3 C :    0.126954
   4 H :   -0.031580
   5 H :   -0.045930
   6 H :   -0.027061
   7 H :    0.022823
   8 H :    0.020499
   9 H :    0.023991
  10 H :    0.013152
  11 H :   -0.016945
  12 H :   -0.018776
  13 H :   -0.029798

  Mayer bond orders larger than 0.100000
B(  0-C ,  1-C ) :   1.1819 B(  0-C ,  2-C ) :   1.1922 B(  0-C ,  4-H ) :   0.2386
B(  0-C ,  5-H ) :   0.3228 B(  0-C ,  6-H ) :   0.2433 B(  0-C ,  7-H ) :   0.8614
B(  0-C ,  8-H ) :   0.9074 B(  0-C ,  9-H ) :   0.1174 B(  0-C , 10-H ) :   0.1104
B(  1-C ,  4-H ) :   0.5901 B(  1-C ,  5-H ) :   0.4788 B(  1-C ,  6-H ) :   0.5825
B(  1-C ,  7-H ) :   0.1077 B(  2-C ,  3-C ) :   1.2311 B(  2-C ,  8-H ) :   0.1204
B(  2-C ,  9-H ) :   0.9036 B(  2-C , 10-H ) :   0.9204 B(  2-C , 11-H ) :   0.2217
B(  2-C , 12-H ) :   0.2450 B(  2-C , 13-H ) :   0.2187 B(  3-C , 11-H ) :   0.7401
B(  3-C , 12-H ) :   0.7140 B(  3-C , 13-H ) :   0.7817 B(  5-H ,  6-H ) :   0.1843

FINAL SINGLE POINT ENERGY      -158.224456521638

DIPOLE MOMENT
-------------
                                X             Y             Z
Electronic contribution:      0.65276       0.02078      -0.38708
Nuclear contribution   :     -0.63302      -0.01177       0.37643
                        -----------------------------------------
Total Dipole Moment    :      0.01975       0.00901      -0.01066
                        -----------------------------------------
Magnitude (a.u.)       :      0.02418
Magnitude (Debye)      :      0.06146

Rotational constants in cm-1:     0.480601     0.156500     0.138605
Rotational constants in MHz : 14408.061205  4691.756081  4155.280646

                             ****ORCA TERMINATED NORMALLY****
TOTAL RUN TIME: 0 days 0 hours 0 minutes 18 seconds 409 msec
