                         Program Version 5.0.0 -  RELEASE  -
|  1> !CAM-B3LYP RIJCOSX def2-SVPD def2/J TightSCF
|  2> *xyz 0 1
|  3> C          0.64866        1.00359       -3.64560
|  4> C          0.13297        2.38587       -4.02462
|  5> C         -1.36646        2.47911       -4.31393
|  6> C         -2.35773        2.30686       -3.13675
|  7> H         -1.63680        1.72709       -5.06399
|  8> H         -1.58235        3.44561       -4.76869
|  9> O         -3.44376        2.84652       -3.25274
| 10> F         -1.97092        1.58304       -2.15123
| 11> H          0.41484        3.10285       -3.24517
| 12> H          0.68317        2.68756       -4.91972
| 13> H          0.37534        0.30051       -4.40446
| 14> H          0.21856        0.70606       -2.71212
| 15> H          1.71431        1.03324       -3.55398
| 16> *
| 17> %MaxCore 64000
| 18>
| 19> %pal nprocs 4
| 20> end
| 21>
| 22> %scf
| 23>   MaxIter 150
| 24> end
| 25>
| 26>
| 27>                          ****END OF INPUT****

CARTESIAN COORDINATES (ANGSTROEM)
---------------------------------
  C      0.648660    1.003590   -3.645600
  C      0.132970    2.385870   -4.024620
  C     -1.366460    2.479110   -4.313930
  C     -2.357730    2.306860   -3.136750
  H     -1.636800    1.727090   -5.063990
  H     -1.582350    3.445610   -4.768690
  O     -3.443760    2.846520   -3.252740
  F     -1.970920    1.583040   -2.151230
  H      0.414840    3.102850   -3.245170
  H      0.683170    2.687560   -4.919720
  H      0.375340    0.300510   -4.404460
  H      0.218560    0.706060   -2.712120
  H      1.714310    1.033240   -3.553980

 Total Charge           Charge          ....    0
 Multiplicity           Mult            ....    1
 Number of Electrons    NEL             ....   48
 Basis Dimension        Dim             ....  182

ORBITAL ENERGIES
----------------

  NO   OCC          E(Eh)            E(eV)
   0   2.0000     -24.839310      -675.9120
   1   2.0000     -19.232396      -523.3401
   2   2.0000     -10.446257      -284.2571
   3   2.0000     -10.291732      -280.0523
   4   2.0000     -10.275125      -279.6004
   5   2.0000     -10.253081      -279.0005
   6   2.0000      -1.373445       -37.3733
   7   2.0000      -1.133996       -30.8576
   8   2.0000      -0.893134       -24.3034
   9   2.0000      -0.805544       -21.9200
  10   2.0000      -0.730878       -19.8882
  11   2.0000      -0.691934       -18.8285
  12   2.0000      -0.622987       -16.9523
  13   2.0000      -0.611077       -16.6282
  14   2.0000      -0.574605       -15.6358
  15   2.0000      -0.533373       -14.5138
  16   2.0000      -0.529280       -14.4024
  17   2.0000      -0.500027       -13.6064
  18   2.0000      -0.482716       -13.1354
  19   2.0000      -0.445981       -12.1357
  20   2.0000      -0.438243       -11.9252
  21   2.0000      -0.416547       -11.3348
  22   2.0000      -0.415463       -11.3053
  23   2.0000      -0.368503       -10.0275
  24   0.0000       0.019957         0.5431
  25   0.0000       0.043539         1.1847
  26   0.0000       0.070979         1.9314
  27   0.0000       0.074117         2.0168
  28   0.0000       0.081225         2.2102

MULLIKEN ATOMIC CHARGES
-----------------------
   0 C :    0.963788
   1 C :   -0.140128
   2 C :    0.080183
   3 C :    0.661337
   4 H :    0.050935
   5 H :   -0.051615
   6 O :   -0.387124
   7 F :   -0.414191
   8 H :   -0.162432
   9 H :   -0.113703
  10 H :   -0.123553
  11 H :   -0.256637
  12 H :   -0.106861
Sum of atomic charges:    0.0000000

LOEWDIN ATOMIC CHARGES
----------------------
   0 C :    0.122779
   1 C :   -0.075905
   2 C :    0.052897
   3 C :   -0.005968
   4 H :    0.043101
   5 H :    0.032620
   6 O :   -0.109706
   7 F :   -0.047434
   8 H :    0.027157
   9 H :    0.021909
  10 H :   -0.014573
  11 H :   -0.031970
  12 H :   -0.014907

  Mayer bond orders larger than 0.100000
B(  0-C ,  1-C ) :   1.2692 B(  0-C ,  8-H ) :   0.1007 B(  0-C , 10-H ) :   0.7402
B(  0-C , 11-H ) :   0.7856 B(  0-C , 12-H ) :   0.7191 B(  1-C ,  2-C ) :   1.2070
B(  1-C ,  4-H ) :   0.1391 B(  1-C ,  5-H ) :   0.1295 B(  1-C ,  8-H ) :   0.9103
B(  1-C ,  9-H ) :   0.8283 B(  1-C , 10-H ) :   0.2150 B(  1-C , 11-H ) :   0.2242
B(  1-C , 12-H ) :   0.2363 B(  2-C ,  3-C ) :   1.0400 B(  2-C ,  4-H ) :   0.8007
B(  2-C ,  5-H ) :   0.9057 B(  2-C ,  8-H ) :   0.1361 B(  2-C ,  9-H ) :   0.1349
B(  3-C ,  5-H ) :   0.1402 B(  3-C ,  6-O ) :   1.9057 B(  3-C ,  7-F ) :   0.7269
B(  6-O ,  7-F ) :   0.1105

FINAL SINGLE POINT ENERGY      -331.345460744854

DIPOLE MOMENT
-------------
                                X             Y             Z
Electronic contribution:     -8.86237       0.75421       5.43162
Nuclear contribution   :      9.96624      -0.95867      -5.90440
                        -----------------------------------------
Total Dipole Moment    :      1.10387      -0.20446      -0.47278
                        -----------------------------------------
Magnitude (a.u.)       :      1.21813
Magnitude (Debye)      :      3.09625

Rotational constants in cm-1:     0.233484     0.076940     0.061803
Rotational constants in MHz :  6999.682494  2306.588565  1852.797552

                             ****ORCA TERMINATED NORMALLY****
TOTAL RUN TIME: 0 days 0 hours 0 minutes 28 seconds 890 msec
