                         Program Version 5.0.0 -  RELEASE  -
|  1> !CAM-B3LYP RIJCOSX def2-SVPD def2/J TightSCF xyzfile
|  2>
|  3> *xyzfile 0 1 D1.xyz
|  4>
|  5> %MaxCore 64000
|  6>
|  7> %pal nprocs 4
|  8> end
|  9>
| 10> %scf
| 11>   MaxIter 150
| 12> end
| 13>
| 14>
| 15>                          ****END OF INPUT****

CARTESIAN COORDINATES (ANGSTROEM)
---------------------------------
  C      0.648656    1.003595   -3.645601
  C      0.281280    0.676454   -2.240179
  C      0.132968    2.385869   -4.024618
  C     -1.366462    2.479106   -4.313932
  C     -2.357732    2.306858   -3.136753
  H     -1.636802    1.727095   -5.063993
  H     -1.582347    3.445605   -4.768687
  H      0.390790   -0.319253   -2.026495
  H     -0.692686    0.990104   -2.138123
  H      0.854206    1.212214   -1.575279
  F     -3.443763    2.846518   -3.252744
  O     -1.970922    1.583042   -2.151229
  H      0.190993    0.239655   -4.275752
  H      1.731572    0.931729   -3.750751
  H      0.414839    3.102847   -3.245165
  H      0.683167    2.687560   -4.919721

 Total Charge           Charge          ....    0
 Multiplicity           Mult            ....    1
 Number of Electrons    NEL             ....   56
 Basis Dimension        Dim             ....  218

ORBITAL ENERGIES
----------------

  NO   OCC          E(Eh)            E(eV)
   0   2.0000     -24.874092      -676.8585
   1   2.0000     -19.229219      -523.2536
   2   2.0000     -10.466724      -284.8140
   3   2.0000     -10.299861      -280.2735
   4   2.0000     -10.267521      -279.3934
   5   2.0000     -10.238772      -278.6112
   6   2.0000     -10.167671      -276.6764
   7   2.0000      -1.432471       -38.9795
   8   2.0000      -1.116961       -30.3941
   9   2.0000      -0.895804       -24.3761
  10   2.0000      -0.835581       -22.7373
  11   2.0000      -0.769062       -20.9273
  12   2.0000      -0.736559       -20.0428
  13   2.0000      -0.661906       -18.0114
  14   2.0000      -0.651500       -17.7282
  15   2.0000      -0.637952       -17.3596
  16   2.0000      -0.600210       -16.3325
  17   2.0000      -0.556464       -15.1422
  18   2.0000      -0.524181       -14.2637
  19   2.0000      -0.507020       -13.7967
  20   2.0000      -0.481997       -13.1158
  21   2.0000      -0.453032       -12.3276
  22   2.0000      -0.446989       -12.1632
  23   2.0000      -0.425422       -11.5763
  24   2.0000      -0.411457       -11.1963
  25   2.0000      -0.385900       -10.5009
  26   2.0000      -0.377923       -10.2838
  27   2.0000      -0.313189        -8.5223
  28   0.0000       0.001332         0.0362
  29   0.0000       0.040798         1.1102
  30   0.0000       0.065569         1.7842
  31   0.0000       0.077674         2.1136
  32   0.0000       0.081486         2.2174

MULLIKEN ATOMIC CHARGES
-----------------------
   0 C :   -0.089504
   1 C :    2.431152
   2 C :    0.246070
   3 C :    0.112224
   4 C :    0.668289
   5 H :    0.124242
   6 H :   -0.040914
   7 H :   -0.183298
   8 H :   -1.777503
   9 H :   -0.092013
  10 F :   -0.330848
  11 O :   -0.429519
  12 H :   -0.072386
  13 H :   -0.292490
  14 H :   -0.087447
  15 H :   -0.186055
Sum of atomic charges:    0.0000000

LOEWDIN ATOMIC CHARGES
----------------------
   0 C :   -0.055403
   1 C :    0.129586
   2 C :   -0.021998
   3 C :    0.064911
   4 C :    0.062271
   5 H :    0.045827
   6 H :    0.025033
   7 H :   -0.028933
   8 H :   -0.203221
   9 H :   -0.022663
  10 F :    0.010215
  11 O :   -0.103840
  12 H :    0.023412
  13 H :    0.017559
  14 H :    0.036006
  15 H :    0.021237

  Mayer bond orders larger than 0.100000
B(  0-C ,  1-C ) :   0.8623 B(  0-C ,  2-C ) :   1.1681 B(  0-C ,  7-H ) :   0.2464
B(  0-C ,  8-H ) :   0.6539 B(  0-C ,  9-H ) :   0.2891 B(  0-C , 12-H ) :   0.8165
B(  0-C , 13-H ) :   0.8891 B(  0-C , 14-H ) :   0.1165 B(  0-C , 15-H ) :   0.1075
B(  1-C ,  7-H ) :   0.3911 B(  1-C ,  8-H ) :  -2.1715 B(  1-C ,  9-H ) :   0.1818
B(  1-C , 11-O ) :  -0.1346 B(  1-C , 12-H ) :   0.1187 B(  2-C ,  3-C ) :   1.2251
B(  2-C ,  5-H ) :   0.1428 B(  2-C ,  6-H ) :   0.1598 B(  2-C , 12-H ) :   0.1027
B(  2-C , 13-H ) :   0.1339 B(  2-C , 14-H ) :   0.8375 B(  2-C , 15-H ) :   0.8415
B(  3-C ,  4-C ) :   1.1003 B(  3-C ,  5-H ) :   0.7624 B(  3-C ,  6-H ) :   0.8410
B(  3-C , 14-H ) :   0.1293 B(  3-C , 15-H ) :   0.1078 B(  4-C ,  6-H ) :   0.1168
B(  4-C , 10-F ) :   0.8199 B(  4-C , 11-O ) :   1.7069 B(  7-H ,  8-H ) :   0.2599
B(  7-H ,  9-H ) :  -0.1408 B(  8-H ,  9-H ) :   0.5471 B(  8-H , 11-O ) :   0.2861
B(  8-H , 13-H ) :   0.1179 B( 12-H , 13-H ) :  -0.1202

FINAL SINGLE POINT ENERGY      -370.533317476348

DIPOLE MOMENT
-------------
                                X             Y             Z
Electronic contribution:    -12.99189       4.59747       1.38894
Nuclear contribution   :     12.79331      -3.91961      -2.45895
                        -----------------------------------------
Total Dipole Moment    :     -0.19858       0.67786      -1.07001
                        -----------------------------------------
Magnitude (a.u.)       :      1.28213
Magnitude (Debye)      :      3.25891

Rotational constants in cm-1:     0.162888     0.059977     0.046450
Rotational constants in MHz :  4883.250030  1798.063289  1392.548669

                             ****ORCA TERMINATED NORMALLY****
TOTAL RUN TIME: 0 days 0 hours 0 minutes 55 seconds 925 msec
