                         Program Version 5.0.0 -  RELEASE  -
|  1> !LC-PBE RIJCOSX def2-SVPD def2/J TightSCF
|  2> *xyz -1 1
|  3> C         -0.25875        1.00432       -5.40983
|  4> C          0.39596       -0.37070       -5.33994
|  5> O         -0.32633       -1.39040       -5.49128
|  6> O          1.61941       -0.40073       -5.03683
|  7> H         -1.28979        0.89539       -5.67439
|  8> H          0.23798        1.59877       -6.14792
|  9> H         -0.18395        1.48386       -4.45623
| 10> *
| 11> %MaxCore 64000
| 12>
| 13> %pal nprocs 4
| 14> end
| 15>
| 16> %scf
| 17>   MaxIter 150
| 18> end
| 19>
| 20>
| 21>                          ****END OF INPUT****

CARTESIAN COORDINATES (ANGSTROEM)
---------------------------------
  C     -0.258750    1.004320   -5.409830
  C      0.395960   -0.370700   -5.339940
  O     -0.326330   -1.390400   -5.491280
  O      1.619410   -0.400730   -5.036830
  H     -1.289790    0.895390   -5.674390
  H      0.237980    1.598770   -6.147920
  H     -0.183950    1.483860   -4.456230

 Total Charge           Charge          ....   -1
 Multiplicity           Mult            ....    1
 Number of Electrons    NEL             ....   32
 Basis Dimension        Dim             ....  110

ORBITAL ENERGIES
----------------

  NO   OCC          E(Eh)            E(eV)
   0   2.0000     -18.725013      -509.5335
   1   2.0000     -18.722262      -509.4586
   2   2.0000     -10.018573      -272.6192
   3   2.0000      -9.941060      -270.5100
   4   2.0000      -0.975988       -26.5580
   5   2.0000      -0.871438       -23.7130
   6   2.0000      -0.713257       -19.4087
   7   2.0000      -0.452024       -12.3002
   8   2.0000      -0.407449       -11.0873
   9   2.0000      -0.389487       -10.5985
  10   2.0000      -0.372171       -10.1273
  11   2.0000      -0.323340        -8.7985
  12   2.0000      -0.307373        -8.3640
  13   2.0000      -0.175230        -4.7682
  14   2.0000      -0.174701        -4.7539
  15   2.0000      -0.159426        -4.3382
  16   0.0000       0.236862         6.4454
  17   0.0000       0.270561         7.3623
  18   0.0000       0.296728         8.0744
  19   0.0000       0.306972         8.3531
  20   0.0000       0.332628         9.0513

MULLIKEN ATOMIC CHARGES
-----------------------
   0 C :    0.244145
   1 C :   -0.040746
   2 O :   -0.604228
   3 O :   -0.627866
   4 H :    0.000529
   5 H :    0.015209
   6 H :    0.012957
Sum of atomic charges:   -1.0000000

LOEWDIN ATOMIC CHARGES
----------------------
   0 C :    0.107857
   1 C :   -0.355873
   2 O :   -0.338139
   3 O :   -0.344357
   4 H :   -0.028540
   5 H :   -0.021903
   6 H :   -0.019046

  Mayer bond orders larger than 0.100000
B(  0-C ,  1-C ) :   1.1999 B(  0-C ,  4-H ) :   0.8929 B(  0-C ,  5-H ) :   0.8445
B(  0-C ,  6-H ) :   0.8578 B(  1-C ,  2-O ) :   1.5732 B(  1-C ,  3-O ) :   1.5714
B(  1-C ,  4-H ) :   0.2018 B(  1-C ,  5-H ) :   0.1353 B(  1-C ,  6-H ) :   0.1248

FINAL SINGLE POINT ENERGY      -227.725510147837

DIPOLE MOMENT
-------------
                                X             Y             Z
Electronic contribution:      1.48204      -3.14109       0.17583
Nuclear contribution   :     -2.15615       4.52621      -0.30445
                        -----------------------------------------
Total Dipole Moment    :     -0.67410       1.38512      -0.12862
                        -----------------------------------------
Magnitude (a.u.)       :      1.54581
Magnitude (Debye)      :      3.92913

Rotational constants in cm-1:     0.393591     0.332639     0.186460
Rotational constants in MHz : 11799.557437  9972.275109  5589.926304

                             ****ORCA TERMINATED NORMALLY****
TOTAL RUN TIME: 0 days 0 hours 0 minutes 8 seconds 312 msec
