                         Program Version 5.0.0 -  RELEASE  -
|  1> !LC-PBE RIJCOSX def2-SVPD def2/J TightSCF
|  2> *xyz 1 1
|  3> C          0.81607       -2.10149       -2.18655
|  4> N          1.10055       -2.46749       -3.59927
|  5> H          1.70061       -1.75723       -4.07838
|  6> H          0.29386       -2.35977       -4.25632
|  7> H          1.50132       -3.42848       -3.69491
|  8> H          0.40947       -1.11246       -2.14929
|  9> H          1.72290       -2.13590       -1.61965
| 10> H          0.11112       -2.79271       -1.77405
| 11> *
| 12> %MaxCore 64000
| 13>
| 14> %pal nprocs 4
| 15> end
| 16>
| 17> %scf
| 18>   MaxIter 150
| 19> end
| 20>
| 21>
| 22>                          ****END OF INPUT****

CARTESIAN COORDINATES (ANGSTROEM)
---------------------------------
  C      0.816070   -2.101490   -2.186550
  N      1.100550   -2.467490   -3.599270
  H      1.700610   -1.757230   -4.078380
  H      0.293860   -2.359770   -4.256320
  H      1.501320   -3.428480   -3.694910
  H      0.409470   -1.112460   -2.149290
  H      1.722900   -2.135900   -1.619650
  H      0.111120   -2.792710   -1.774050

 Total Charge           Charge          ....    1
 Multiplicity           Mult            ....    1
 Number of Electrons    NEL             ....   18
 Basis Dimension        Dim             ....   88

ORBITAL ENERGIES
----------------

  NO   OCC          E(Eh)            E(eV)
   0   2.0000     -14.581340      -396.7784
   1   2.0000     -10.383635      -282.5531
   2   2.0000      -1.385593       -37.7039
   3   2.0000      -1.102984       -30.0137
   4   2.0000      -0.963683       -26.2231
   5   2.0000      -0.929291       -25.2873
   6   2.0000      -0.859039       -23.3756
   7   2.0000      -0.762918       -20.7600
   8   2.0000      -0.756747       -20.5921
   9   0.0000      -0.121402        -3.3035
  10   0.0000      -0.055804        -1.5185
  11   0.0000      -0.050247        -1.3673
  12   0.0000      -0.049270        -1.3407
  13   0.0000      -0.000656        -0.0179

MULLIKEN ATOMIC CHARGES
-----------------------
   0 C :    0.630704
   1 N :   -0.961545
   2 H :    0.412059
   3 H :    0.398224
   4 H :    0.429644
   5 H :    0.025074
   6 H :    0.035642
   7 H :    0.030198
Sum of atomic charges:    1.0000000

LOEWDIN ATOMIC CHARGES
----------------------
   0 C :    0.246606
   1 N :    0.268737
   2 H :    0.125386
   3 H :    0.126090
   4 H :    0.131455
   5 H :    0.033875
   6 H :    0.034362
   7 H :    0.033490

  Mayer bond orders larger than 0.100000
B(  0-C ,  1-N ) :   0.7794 B(  0-C ,  5-H ) :   0.9252 B(  0-C ,  6-H ) :   0.9199
B(  0-C ,  7-H ) :   0.9295 B(  1-N ,  2-H ) :   0.7564 B(  1-N ,  3-H ) :   0.7738
B(  1-N ,  4-H ) :   0.7161

FINAL SINGLE POINT ENERGY       -95.832793905880

DIPOLE MOMENT
-------------
                                X             Y             Z
Electronic contribution:      0.21581      -0.31288      -0.99226
Nuclear contribution   :     -0.05716       0.15480       0.08012
                        -----------------------------------------
Total Dipole Moment    :      0.15866      -0.15808      -0.91213
                        -----------------------------------------
Magnitude (a.u.)       :      0.93923
Magnitude (Debye)      :      2.38733

Rotational constants in cm-1:     2.875975     0.681325     0.670600
Rotational constants in MHz : 86219.567947 20425.600745 20104.086440

                             ****ORCA TERMINATED NORMALLY****
TOTAL RUN TIME: 0 days 0 hours 0 minutes 5 seconds 167 msec
