                         Program Version 5.0.0 -  RELEASE  -
|  1> !LC-PBE RIJCOSX def2-SVPD def2/J TightSCF
|  2> *xyz 0 1
|  3> C         -0.25875        1.00432       -5.40983
|  4> C          0.39596       -0.37070       -5.33994
|  5> F         -0.32633       -1.39040       -5.49128
|  6> O          1.61941       -0.40073       -5.03683
|  7> H         -1.28979        0.89539       -5.67439
|  8> H          0.23798        1.59877       -6.14792
|  9> H         -0.18395        1.48386       -4.45623
| 10> *
| 11> %MaxCore 64000
| 12>
| 13> %pal nprocs 4
| 14> end
| 15>
| 16> %scf
| 17>   MaxIter 150
| 18> end
| 19>
| 20>
| 21>                          ****END OF INPUT****

CARTESIAN COORDINATES (ANGSTROEM)
---------------------------------
  C     -0.258750    1.004320   -5.409830
  C      0.395960   -0.370700   -5.339940
  F     -0.326330   -1.390400   -5.491280
  O      1.619410   -0.400730   -5.036830
  H     -1.289790    0.895390   -5.674390
  H      0.237980    1.598770   -6.147920
  H     -0.183950    1.483860   -4.456230

 Total Charge           Charge          ....    0
 Multiplicity           Mult            ....    1
 Number of Electrons    NEL             ....   32
 Basis Dimension        Dim             ....  110

ORBITAL ENERGIES
----------------

  NO   OCC          E(Eh)            E(eV)
   0   2.0000     -24.584811      -668.9867
   1   2.0000     -19.005204      -517.1579
   2   2.0000     -10.326188      -280.9898
   3   2.0000     -10.158084      -276.4155
   4   2.0000      -1.469617       -39.9903
   5   2.0000      -1.192780       -32.4572
   6   2.0000      -0.945956       -25.7408
   7   2.0000      -0.818521       -22.2731
   8   2.0000      -0.711696       -19.3662
   9   2.0000      -0.705259       -19.1911
  10   2.0000      -0.655920       -17.8485
  11   2.0000      -0.590663       -16.0728
  12   2.0000      -0.576692       -15.6926
  13   2.0000      -0.548621       -14.9287
  14   2.0000      -0.493477       -13.4282
  15   2.0000      -0.437027       -11.8921
  16   0.0000       0.060388         1.6432
  17   0.0000       0.080054         2.1784
  18   0.0000       0.118648         3.2286
  19   0.0000       0.155656         4.2356
  20   0.0000       0.158286         4.3072

MULLIKEN ATOMIC CHARGES
-----------------------
   0 C :    0.130877
   1 C :    0.322711
   2 F :   -0.296252
   3 O :   -0.427672
   4 H :    0.060140
   5 H :    0.102416
   6 H :    0.107779
Sum of atomic charges:    0.0000000

LOEWDIN ATOMIC CHARGES
----------------------
   0 C :    0.179734
   1 C :   -0.047200
   2 F :   -0.027420
   3 O :   -0.141200
   4 H :    0.000223
   5 H :    0.017139
   6 H :    0.018724

  Mayer bond orders larger than 0.100000
B(  0-C ,  1-C ) :   1.2538 B(  0-C ,  4-H ) :   0.9021 B(  0-C ,  5-H ) :   0.8338
B(  0-C ,  6-H ) :   0.8435 B(  1-C ,  2-F ) :   0.8692 B(  1-C ,  3-O ) :   1.8876
B(  1-C ,  4-H ) :   0.1183 B(  1-C ,  5-H ) :   0.1158 B(  1-C ,  6-H ) :   0.1031

FINAL SINGLE POINT ENERGY      -252.230891883026

DIPOLE MOMENT
-------------
                                X             Y             Z
Electronic contribution:      0.40027      -5.01017      -0.10694
Nuclear contribution   :     -1.44986       5.66477      -0.12483
                        -----------------------------------------
Total Dipole Moment    :     -1.04959       0.65460      -0.23177
                        -----------------------------------------
Magnitude (a.u.)       :      1.25851
Magnitude (Debye)      :      3.19888

Rotational constants in cm-1:     0.371735     0.317798     0.176902
Rotational constants in MHz : 11144.324945  9527.341239  5303.391856

                             ****ORCA TERMINATED NORMALLY****
TOTAL RUN TIME: 0 days 0 hours 0 minutes 7 seconds 966 msec
