                         Program Version 5.0.0 -  RELEASE  -
|  1> !LC-PBE RIJCOSX def2-SVPD def2/J TightSCF
|  2> *xyz 0 1
|  3> C          0.81607       -2.10149       -2.18655
|  4> C          1.10055       -2.46749       -3.59927
|  5> H          1.70061       -1.75723       -4.07838
|  6> H          0.29386       -2.35977       -4.25632
|  7> H          1.50132       -3.42848       -3.69491
|  8> H          0.40947       -1.11246       -2.14929
|  9> H          1.72290       -2.13590       -1.61965
| 10> H          0.11112       -2.79271       -1.77405
| 11> *
| 12> %MaxCore 64000
| 13>
| 14> %pal nprocs 4
| 15> end
| 16>
| 17> %scf
| 18>   MaxIter 150
| 19> end
| 20>
| 21>
| 22>                          ****END OF INPUT****

CARTESIAN COORDINATES (ANGSTROEM)
---------------------------------
  C      0.816070   -2.101490   -2.186550
  C      1.100550   -2.467490   -3.599270
  H      1.700610   -1.757230   -4.078380
  H      0.293860   -2.359770   -4.256320
  H      1.501320   -3.428480   -3.694910
  H      0.409470   -1.112460   -2.149290
  H      1.722900   -2.135900   -1.619650
  H      0.111120   -2.792710   -1.774050

 Total Charge           Charge          ....    0
 Multiplicity           Mult            ....    1
 Number of Electrons    NEL             ....   18
 Basis Dimension        Dim             ....   88

ORBITAL ENERGIES
----------------

  NO   OCC          E(Eh)            E(eV)
   0   2.0000     -10.104473      -274.9567
   1   2.0000     -10.095394      -274.7096
   2   2.0000      -0.937683       -25.5156
   3   2.0000      -0.781054       -21.2536
   4   2.0000      -0.598389       -16.2830
   5   2.0000      -0.579173       -15.7601
   6   2.0000      -0.511385       -13.9155
   7   2.0000      -0.481361       -13.0985
   8   2.0000      -0.459664       -12.5081
   9   0.0000       0.096237         2.6187
  10   0.0000       0.124620         3.3911
  11   0.0000       0.178115         4.8468
  12   0.0000       0.183464         4.9923
  13   0.0000       0.200492         5.4557

MULLIKEN ATOMIC CHARGES
-----------------------
   0 C :    0.075615
   1 C :    0.153505
   2 H :   -0.086501
   3 H :   -0.098234
   4 H :   -0.074010
   5 H :    0.017316
   6 H :    0.008143
   7 H :    0.004166
Sum of atomic charges:    0.0000000

LOEWDIN ATOMIC CHARGES
----------------------
   0 C :    0.043110
   1 C :    0.032034
   2 H :   -0.021315
   3 H :   -0.021618
   4 H :   -0.013884
   5 H :   -0.005472
   6 H :   -0.005816
   7 H :   -0.007038

  Mayer bond orders larger than 0.100000
B(  0-C ,  1-C ) :   1.4068 B(  0-C ,  2-H ) :   0.1015 B(  0-C ,  4-H ) :   0.1157
B(  0-C ,  5-H ) :   0.9037 B(  0-C ,  6-H ) :   0.8896 B(  0-C ,  7-H ) :   0.9024
B(  1-C ,  2-H ) :   0.8568 B(  1-C ,  3-H ) :   0.8627 B(  1-C ,  4-H ) :   0.8974
B(  1-C ,  5-H ) :   0.1157 B(  1-C ,  6-H ) :   0.1203 B(  1-C ,  7-H ) :   0.1143
B(  2-H ,  3-H ) :   0.2096

FINAL SINGLE POINT ENERGY       -79.468467826865

DIPOLE MOMENT
-------------
                                X             Y             Z
Electronic contribution:      0.00398      -0.06708       0.12102
Nuclear contribution   :     -0.00793       0.09023      -0.16124
                        -----------------------------------------
Total Dipole Moment    :     -0.00394       0.02315      -0.04022
                        -----------------------------------------
Magnitude (a.u.)       :      0.04658
Magnitude (Debye)      :      0.11839

Rotational constants in cm-1:     2.876169     0.710562     0.698917
Rotational constants in MHz : 86225.370734 21302.115394 20952.991121

                             ****ORCA TERMINATED NORMALLY****
TOTAL RUN TIME: 0 days 0 hours 0 minutes 5 seconds 312 msec
