                         Program Version 5.0.0 -  RELEASE  -
|  1> !LC-PBE RIJCOSX def2-SVPD def2/J TightSCF
|  2> *xyz 0 1
|  3> C         -0.25875        1.00432       -5.40983
|  4> C          0.39596       -0.37070       -5.33994
|  5> O         -0.32633       -1.39040       -5.49128
|  6> F          1.61941       -0.40073       -5.03683
|  7> H         -1.28979        0.89539       -5.67439
|  8> H          0.23798        1.59877       -6.14792
|  9> H         -0.18395        1.48386       -4.45623
| 10> *
| 11> %MaxCore 64000
| 12>
| 13> %pal nprocs 4
| 14> end
| 15>
| 16> %scf
| 17>   MaxIter 150
| 18> end
| 19>
| 20>
| 21>                          ****END OF INPUT****

CARTESIAN COORDINATES (ANGSTROEM)
---------------------------------
  C     -0.258750    1.004320   -5.409830
  C      0.395960   -0.370700   -5.339940
  O     -0.326330   -1.390400   -5.491280
  F      1.619410   -0.400730   -5.036830
  H     -1.289790    0.895390   -5.674390
  H      0.237980    1.598770   -6.147920
  H     -0.183950    1.483860   -4.456230

 Total Charge           Charge          ....    0
 Multiplicity           Mult            ....    1
 Number of Electrons    NEL             ....   32
 Basis Dimension        Dim             ....  110

ORBITAL ENERGIES
----------------

  NO   OCC          E(Eh)            E(eV)
   0   2.0000     -24.582664      -668.9283
   1   2.0000     -19.007167      -517.2113
   2   2.0000     -10.326031      -280.9856
   3   2.0000     -10.157955      -276.4120
   4   2.0000      -1.467309       -39.9275
   5   2.0000      -1.194319       -32.4991
   6   2.0000      -0.947069       -25.7710
   7   2.0000      -0.816603       -22.2209
   8   2.0000      -0.711176       -19.3521
   9   2.0000      -0.703778       -19.1508
  10   2.0000      -0.655529       -17.8378
  11   2.0000      -0.589093       -16.0300
  12   2.0000      -0.577201       -15.7064
  13   2.0000      -0.548716       -14.9313
  14   2.0000      -0.497988       -13.5509
  15   2.0000      -0.438121       -11.9219
  16   0.0000       0.063890         1.7385
  17   0.0000       0.080490         2.1902
  18   0.0000       0.118511         3.2248
  19   0.0000       0.153076         4.1654
  20   0.0000       0.160075         4.3559

MULLIKEN ATOMIC CHARGES
-----------------------
   0 C :    0.143508
   1 C :    0.332571
   2 O :   -0.404570
   3 F :   -0.317752
   4 H :    0.044622
   5 H :    0.099182
   6 H :    0.102438
Sum of atomic charges:   -0.0000000

LOEWDIN ATOMIC CHARGES
----------------------
   0 C :    0.179957
   1 C :   -0.049646
   2 O :   -0.136640
   3 F :   -0.030540
   4 H :    0.012249
   5 H :    0.010675
   6 H :    0.013946

  Mayer bond orders larger than 0.100000
B(  0-C ,  1-C ) :   1.2362 B(  0-C ,  4-H ) :   0.9175 B(  0-C ,  5-H ) :   0.8326
B(  0-C ,  6-H ) :   0.8392 B(  1-C ,  2-O ) :   1.9165 B(  1-C ,  3-F ) :   0.8340
B(  1-C ,  4-H ) :   0.1631

FINAL SINGLE POINT ENERGY      -252.233450681160

DIPOLE MOMENT
-------------
                                X             Y             Z
Electronic contribution:      3.59932      -3.38213       0.64092
Nuclear contribution   :     -3.46039       4.64214      -0.59441
                        -----------------------------------------
Total Dipole Moment    :      0.13893       1.26001       0.04651
                        -----------------------------------------
Magnitude (a.u.)       :      1.26850
Magnitude (Debye)      :      3.22428

Rotational constants in cm-1:     0.366844     0.321935     0.177045
Rotational constants in MHz : 10997.709774  9651.373819  5307.687677

                             ****ORCA TERMINATED NORMALLY****
TOTAL RUN TIME: 0 days 0 hours 0 minutes 7 seconds 962 msec
