                         Program Version 5.0.0 -  RELEASE  -
|  1> !LC-BLYP RIJCOSX def2-SVPD def2/J TightSCF
|  2> *xyz -1 1
|  3> C         -0.71189        0.84252       -4.21834
|  4> C         -0.39762       -0.20587       -5.28802
|  5> O          0.61717       -0.00535       -5.99827
|  6> O         -1.13317       -1.22138       -5.34147
|  7> H         -0.00939        1.64646       -4.28960
|  8> H         -0.64409        0.39449       -3.24902
|  9> H         -1.70192        1.21961       -4.36851
| 10> *
| 11>
| 12> %MaxCore 64000
| 13>
| 14> %pal nprocs 4
| 15> end
| 16>
| 17> %scf
| 18>   MaxIter 150
| 19> end
| 20>
| 21>
| 22>                          ****END OF INPUT****

CARTESIAN COORDINATES (ANGSTROEM)
---------------------------------
  C     -0.711890    0.842520   -4.218340
  C     -0.397620   -0.205870   -5.288020
  O      0.617170   -0.005350   -5.998270
  O     -1.133170   -1.221380   -5.341470
  H     -0.009390    1.646460   -4.289600
  H     -0.644090    0.394490   -3.249020
  H     -1.701920    1.219610   -4.368510

 Total Charge           Charge          ....   -1
 Multiplicity           Mult            ....    1
 Number of Electrons    NEL             ....   32
 Basis Dimension        Dim             ....  110

ORBITAL ENERGIES
----------------

  NO   OCC          E(Eh)            E(eV)
   0   2.0000     -18.693661      -508.6804
   1   2.0000     -18.693228      -508.6686
   2   2.0000      -9.974807      -271.4283
   3   2.0000      -9.899452      -269.3778
   4   2.0000      -0.905249       -24.6331
   5   2.0000      -0.810010       -22.0415
   6   2.0000      -0.648787       -17.6544
   7   2.0000      -0.406341       -11.0571
   8   2.0000      -0.368899       -10.0383
   9   2.0000      -0.350235        -9.5304
  10   2.0000      -0.330109        -8.9827
  11   2.0000      -0.287496        -7.8232
  12   2.0000      -0.273403        -7.4397
  13   2.0000      -0.148611        -4.0439
  14   2.0000      -0.142593        -3.8801
  15   2.0000      -0.127014        -3.4562
  16   0.0000       0.221267         6.0210
  17   0.0000       0.257298         7.0014
  18   0.0000       0.280962         7.6454
  19   0.0000       0.291683         7.9371
  20   0.0000       0.316851         8.6220

MULLIKEN ATOMIC CHARGES
-----------------------
   0 C :    0.705683
   1 C :   -0.205571
   2 O :   -0.528516
   3 O :   -0.547592
   4 H :   -0.149531
   5 H :   -0.138454
   6 H :   -0.136019
Sum of atomic charges:   -1.0000000

LOEWDIN ATOMIC CHARGES
----------------------
   0 C :    0.131710
   1 C :   -0.378169
   2 O :   -0.323300
   3 O :   -0.325125
   4 H :   -0.039655
   5 H :   -0.031740
   6 H :   -0.033720

  Mayer bond orders larger than 0.100000
B(  0-C ,  1-C ) :   1.1867 B(  0-C ,  4-H ) :   0.8181 B(  0-C ,  5-H ) :   0.7770
B(  0-C ,  6-H ) :   0.7665 B(  1-C ,  2-O ) :   1.6237 B(  1-C ,  3-O ) :   1.6348
B(  1-C ,  4-H ) :   0.2849 B(  1-C ,  5-H ) :   0.1857 B(  1-C ,  6-H ) :   0.1948

FINAL SINGLE POINT ENERGY      -227.895101342173

DIPOLE MOMENT
-------------
                                X             Y             Z
Electronic contribution:      0.74354      -2.42667      -2.46745
Nuclear contribution   :     -1.06347       3.45957       3.47855
                        -----------------------------------------
Total Dipole Moment    :     -0.31993       1.03291       1.01110
                        -----------------------------------------
Magnitude (a.u.)       :      1.48040
Magnitude (Debye)      :      3.76288

Rotational constants in cm-1:     0.393276     0.333956     0.186777
Rotational constants in MHz : 11790.103634 10011.747201  5599.422324

                             ****ORCA TERMINATED NORMALLY****
TOTAL RUN TIME: 0 days 0 hours 0 minutes 7 seconds 356 msec
