                         Program Version 5.0.0 -  RELEASE  -
|  1> !LC-BLYP RIJCOSX def2-SVPD def2/J TightSCF
|  2> *xyz 1 1
|  3> C          2.23447       -2.98975       -2.39762
|  4> N          2.75680       -2.94555       -3.76503
|  5> C          1.98721       -2.59045       -4.81898
|  6> N          0.74322       -3.01749       -4.91352
|  7> N          2.49964       -1.84860       -5.80324
|  8> H          3.30978       -1.29282       -5.55895
|  9> H          1.80103       -1.30430       -6.28913
| 10> H          3.71612       -2.62880       -3.82953
| 11> H          0.39583       -3.62775       -4.18502
| 12> H          0.03920       -2.45438       -5.37137
| 13> H          1.22098       -3.33251       -2.41386
| 14> H          2.27280       -2.00995       -1.96933
| 15> H          2.82798       -3.65908       -1.81056
| 16> *
| 17>
| 18> %MaxCore 64000
| 19>
| 20> %pal nprocs 4
| 21> end
| 22>
| 23> %scf
| 24>   MaxIter 150
| 25> end
| 26>
| 27>
| 28>                          ****END OF INPUT****

CARTESIAN COORDINATES (ANGSTROEM)
---------------------------------
  C      2.234470   -2.989750   -2.397620
  N      2.756800   -2.945550   -3.765030
  C      1.987210   -2.590450   -4.818980
  N      0.743220   -3.017490   -4.913520
  N      2.499640   -1.848600   -5.803240
  H      3.309780   -1.292820   -5.558950
  H      1.801030   -1.304300   -6.289130
  H      3.716120   -2.628800   -3.829530
  H      0.395830   -3.627750   -4.185020
  H      0.039200   -2.454380   -5.371370
  H      1.220980   -3.332510   -2.413860
  H      2.272800   -2.009950   -1.969330
  H      2.827980   -3.659080   -1.810560

 Total Charge           Charge          ....    1
 Multiplicity           Mult            ....    1
 Number of Electrons    NEL             ....   40
 Basis Dimension        Dim             ....  164

ORBITAL ENERGIES
----------------

  NO   OCC          E(Eh)            E(eV)
   0   2.0000     -14.424120      -392.5003
   1   2.0000     -14.419985      -392.3877
   2   2.0000     -14.419743      -392.3811
   3   2.0000     -10.434836      -283.9463
   4   2.0000     -10.293522      -280.1010
   5   2.0000      -1.321656       -35.9641
   6   2.0000      -1.206856       -32.8402
   7   2.0000      -1.201693       -32.6997
   8   2.0000      -1.010317       -27.4921
   9   2.0000      -0.938276       -25.5318
  10   2.0000      -0.898922       -24.4609
  11   2.0000      -0.860567       -23.4172
  12   2.0000      -0.811941       -22.0940
  13   2.0000      -0.793003       -21.5787
  14   2.0000      -0.756497       -20.5853
  15   2.0000      -0.747492       -20.3403
  16   2.0000      -0.702712       -19.1218
  17   2.0000      -0.684896       -18.6370
  18   2.0000      -0.594531       -16.1780
  19   2.0000      -0.559359       -15.2209
  20   0.0000      -0.122426        -3.3314
  21   0.0000      -0.102520        -2.7897
  22   0.0000      -0.064442        -1.7536
  23   0.0000      -0.054635        -1.4867
  24   0.0000      -0.027697        -0.7537

MULLIKEN ATOMIC CHARGES
-----------------------
   0 C :    1.380375
   1 N :   -0.387120
   2 C :    0.519864
   3 N :    0.298827
   4 N :    0.168662
   5 H :   -0.016859
   6 H :    0.022451
   7 H :   -0.180840
   8 H :   -0.062751
   9 H :   -0.050891
  10 H :   -0.290989
  11 H :   -0.146990
  12 H :   -0.253739
Sum of atomic charges:    1.0000000

LOEWDIN ATOMIC CHARGES
----------------------
   0 C :    0.242119
   1 N :    0.039588
   2 C :   -0.073379
   3 N :    0.291871
   4 N :    0.281198
   5 H :    0.037122
   6 H :    0.036619
   7 H :    0.051561
   8 H :    0.026420
   9 H :    0.049974
  10 H :   -0.012590
  11 H :    0.013577
  12 H :    0.015919

  Mayer bond orders larger than 0.100000
B(  0-C ,  1-N ) :   0.9558 B(  0-C , 10-H ) :   0.7510 B(  0-C , 11-H ) :   0.7614
B(  0-C , 12-H ) :   0.7292 B(  1-N ,  2-C ) :   1.1680 B(  1-N ,  4-N ) :   0.1300
B(  1-N ,  7-H ) :   1.1886 B(  1-N , 10-H ) :   0.1553 B(  1-N , 11-H ) :   0.1295
B(  1-N , 12-H ) :   0.2133 B(  2-C ,  3-N ) :   1.1571 B(  2-C ,  4-N ) :   1.1084
B(  2-C ,  7-H ) :  -0.1630 B(  3-N ,  4-N ) :   0.1405 B(  3-N ,  8-H ) :   1.0116
B(  3-N ,  9-H ) :   1.1936 B(  4-N ,  5-H ) :   1.0105 B(  4-N ,  6-H ) :   1.0031
B(  8-H ,  9-H ) :  -0.1611

FINAL SINGLE POINT ENERGY      -244.295286277222

DIPOLE MOMENT
-------------
                                X             Y             Z
Electronic contribution:      0.26528      -0.04878      -3.00829
Nuclear contribution   :     -0.61773       0.88991       3.03801
                        -----------------------------------------
Total Dipole Moment    :     -0.35245       0.84113       0.02972
                        -----------------------------------------
Magnitude (a.u.)       :      0.91247
Magnitude (Debye)      :      2.31932

Rotational constants in cm-1:     0.302561     0.133407     0.098295
Rotational constants in MHz :  9070.558660  3999.431512  2946.819102

                             ****ORCA TERMINATED NORMALLY****
TOTAL RUN TIME: 0 days 0 hours 0 minutes 16 seconds 726 msec
