                         Program Version 5.0.0 -  RELEASE  -
|  1> !LC-BLYP RIJCOSX def2-SVPD def2/J TightSCF
|  2> *xyz 0 1
|  3> C         -0.71189        0.84252       -4.21834
|  4> C         -0.39762       -0.20587       -5.28802
|  5> F          0.61717       -0.00535       -5.99827
|  6> O         -1.13317       -1.22138       -5.34147
|  7> H         -0.00939        1.64646       -4.28960
|  8> H         -0.64409        0.39449       -3.24902
|  9> H         -1.70192        1.21961       -4.36851
| 10> *
| 11>
| 12> %MaxCore 64000
| 13>
| 14> %pal nprocs 4
| 15> end
| 16>
| 17> %scf
| 18>   MaxIter 150
| 19> end
| 20>
| 21>
| 22>                          ****END OF INPUT****

CARTESIAN COORDINATES (ANGSTROEM)
---------------------------------
  C     -0.711890    0.842520   -4.218340
  C     -0.397620   -0.205870   -5.288020
  F      0.617170   -0.005350   -5.998270
  O     -1.133170   -1.221380   -5.341470
  H     -0.009390    1.646460   -4.289600
  H     -0.644090    0.394490   -3.249020
  H     -1.701920    1.219610   -4.368510

 Total Charge           Charge          ....    0
 Multiplicity           Mult            ....    1
 Number of Electrons    NEL             ....   32
 Basis Dimension        Dim             ....  110

ORBITAL ENERGIES
----------------

  NO   OCC          E(Eh)            E(eV)
   0   2.0000     -24.551542      -668.0814
   1   2.0000     -18.971346      -516.2366
   2   2.0000     -10.278024      -279.6792
   3   2.0000     -10.115376      -275.2534
   4   2.0000      -1.392815       -37.9004
   5   2.0000      -1.123670       -30.5766
   6   2.0000      -0.879382       -23.9292
   7   2.0000      -0.765211       -20.8224
   8   2.0000      -0.663725       -18.0609
   9   2.0000      -0.655509       -17.8373
  10   2.0000      -0.609028       -16.5725
  11   2.0000      -0.551232       -14.9998
  12   2.0000      -0.538863       -14.6632
  13   2.0000      -0.508114       -13.8265
  14   2.0000      -0.462343       -12.5810
  15   2.0000      -0.401501       -10.9254
  16   0.0000       0.046976         1.2783
  17   0.0000       0.061687         1.6786
  18   0.0000       0.103407         2.8138
  19   0.0000       0.137335         3.7371
  20   0.0000       0.140123         3.8129

MULLIKEN ATOMIC CHARGES
-----------------------
   0 C :    0.647273
   1 C :    0.167498
   2 F :   -0.250368
   3 O :   -0.337270
   4 H :   -0.113900
   5 H :   -0.054996
   6 H :   -0.058237
Sum of atomic charges:    0.0000000

LOEWDIN ATOMIC CHARGES
----------------------
   0 C :    0.204366
   1 C :   -0.078072
   2 F :   -0.015466
   3 O :   -0.118347
   4 H :   -0.009043
   5 H :    0.008818
   6 H :    0.007745

  Mayer bond orders larger than 0.100000
B(  0-C ,  1-C ) :   1.2400 B(  0-C ,  4-H ) :   0.8364 B(  0-C ,  5-H ) :   0.7734
B(  0-C ,  6-H ) :   0.7620 B(  1-C ,  2-F ) :   0.9326 B(  1-C ,  3-O ) :   1.9501
B(  1-C ,  4-H ) :   0.1903 B(  1-C ,  5-H ) :   0.1604 B(  1-C ,  6-H ) :   0.1722

FINAL SINGLE POINT ENERGY      -252.412649551500

DIPOLE MOMENT
-------------
                                X             Y             Z
Electronic contribution:      2.41299      -2.24496      -3.79521
Nuclear contribution   :     -2.12043       3.31297       4.29327
                        -----------------------------------------
Total Dipole Moment    :      0.29256       1.06801       0.49806
                        -----------------------------------------
Magnitude (a.u.)       :      1.21421
Magnitude (Debye)      :      3.08628

Rotational constants in cm-1:     0.368089     0.321934     0.177312
Rotational constants in MHz : 11035.034199  9651.332398  5315.666874

                             ****ORCA TERMINATED NORMALLY****
TOTAL RUN TIME: 0 days 0 hours 0 minutes 8 seconds 175 msec
