                         Program Version 5.0.0 -  RELEASE  -
|  1> !LC-BLYP RIJCOSX def2-SVPD def2/J TightSCF
|  2> *xyz 0 1
|  3> C          2.23447       -2.98975       -2.39762
|  4> C          2.75680       -2.94555       -3.76503
|  5> C          1.98721       -2.59045       -4.81898
|  6> N          0.74322       -3.01749       -4.91352
|  7> N          2.49964       -1.84860       -5.80324
|  8> H          3.30978       -1.29282       -5.55895
|  9> H          1.80103       -1.30430       -6.28913
| 10> H          3.71612       -2.62880       -3.82953
| 11> H          0.39583       -3.62775       -4.18502
| 12> H          0.03920       -2.45438       -5.37137
| 13> H          1.22098       -3.33251       -2.41386
| 14> H          2.27280       -2.00995       -1.96933
| 15> H          2.82798       -3.65908       -1.81056
| 16> *
| 17>
| 18> %MaxCore 64000
| 19>
| 20> %pal nprocs 4
| 21> end
| 22>
| 23> %scf
| 24>   MaxIter 150
| 25> end
| 26>
| 27>
| 28>                          ****END OF INPUT****

CARTESIAN COORDINATES (ANGSTROEM)
---------------------------------
  C      2.234470   -2.989750   -2.397620
  C      2.756800   -2.945550   -3.765030
  C      1.987210   -2.590450   -4.818980
  N      0.743220   -3.017490   -4.913520
  N      2.499640   -1.848600   -5.803240
  H      3.309780   -1.292820   -5.558950
  H      1.801030   -1.304300   -6.289130
  H      3.716120   -2.628800   -3.829530
  H      0.395830   -3.627750   -4.185020
  H      0.039200   -2.454380   -5.371370
  H      1.220980   -3.332510   -2.413860
  H      2.272800   -2.009950   -1.969330
  H      2.827980   -3.659080   -1.810560

 Total Charge           Charge          ....    0
 Multiplicity           Mult            ....    1
 Number of Electrons    NEL             ....   40
 Basis Dimension        Dim             ....  164

ORBITAL ENERGIES
----------------

  NO   OCC          E(Eh)            E(eV)
   0   2.0000     -14.194663      -386.2564
   1   2.0000     -14.190191      -386.1347
   2   2.0000     -10.135253      -275.7943
   3   2.0000     -10.053015      -273.5564
   4   2.0000     -10.013680      -272.4861
   5   2.0000      -1.065661       -28.9981
   6   2.0000      -0.972803       -26.4713
   7   2.0000      -0.855741       -23.2859
   8   2.0000      -0.757979       -20.6257
   9   2.0000      -0.693911       -18.8823
  10   2.0000      -0.649154       -17.6644
  11   2.0000      -0.610428       -16.6106
  12   2.0000      -0.571631       -15.5549
  13   2.0000      -0.544146       -14.8070
  14   2.0000      -0.507958       -13.8222
  15   2.0000      -0.481815       -13.1109
  16   2.0000      -0.460864       -12.5408
  17   2.0000      -0.437786       -11.9127
  18   2.0000      -0.376446       -10.2436
  19   2.0000      -0.253498        -6.8980
  20   0.0000       0.066903         1.8205
  21   0.0000       0.095675         2.6034
  22   0.0000       0.105873         2.8809
  23   0.0000       0.127597         3.4721
  24   0.0000       0.135985         3.7004

MULLIKEN ATOMIC CHARGES
-----------------------
   0 C :    1.097118
   1 C :   -0.291130
   2 C :    0.049865
   3 N :    0.215345
   4 N :    0.134874
   5 H :    0.021067
   6 H :   -0.045236
   7 H :   -0.382558
   8 H :   -0.060267
   9 H :   -0.149830
  10 H :   -0.347053
  11 H :   -0.178178
  12 H :   -0.064017
Sum of atomic charges:    0.0000000

LOEWDIN ATOMIC CHARGES
----------------------
   0 C :    0.079008
   1 C :   -0.058663
   2 C :   -0.263276
   3 N :    0.204242
   4 N :    0.196966
   5 H :    0.001136
   6 H :   -0.013345
   7 H :   -0.058688
   8 H :   -0.005860
   9 H :   -0.002981
  10 H :   -0.042466
  11 H :   -0.016053
  12 H :   -0.020019

  Mayer bond orders larger than 0.100000
B(  0-C ,  1-C ) :   1.1030 B(  0-C ,  7-H ) :   0.2263 B(  0-C , 10-H ) :   0.6278
B(  0-C , 11-H ) :   0.7533 B(  0-C , 12-H ) :   0.6365 B(  1-C ,  2-C ) :   1.7979
B(  1-C ,  3-N ) :   0.2065 B(  1-C ,  4-N ) :   0.2207 B(  1-C ,  7-H ) :   0.7836
B(  1-C , 10-H ) :   0.3613 B(  1-C , 11-H ) :   0.1093 B(  1-C , 12-H ) :   0.2669
B(  2-C ,  3-N ) :   1.1571 B(  2-C ,  4-N ) :   1.0863 B(  2-C ,  7-H ) :   0.2889
B(  3-N ,  4-N ) :   0.1148 B(  3-N ,  8-H ) :   1.0085 B(  3-N ,  9-H ) :   1.2051
B(  4-N ,  5-H ) :   0.9515 B(  4-N ,  6-H ) :   0.9338 B(  8-H ,  9-H ) :  -0.1454
B( 10-H , 12-H ) :   0.1444

FINAL SINGLE POINT ENERGY      -227.837995829795

DIPOLE MOMENT
-------------
                                X             Y             Z
Electronic contribution:     -0.29281       0.05736      -3.41007
Nuclear contribution   :     -0.47056       0.83150       3.15332
                        -----------------------------------------
Total Dipole Moment    :     -0.76337       0.88886      -0.25675
                        -----------------------------------------
Magnitude (a.u.)       :      1.19947
Magnitude (Debye)      :      3.04881

Rotational constants in cm-1:     0.307275     0.134774     0.099280
Rotational constants in MHz :  9211.860934  4040.421317  2976.324646

                             ****ORCA TERMINATED NORMALLY****
TOTAL RUN TIME: 0 days 0 hours 0 minutes 18 seconds 175 msec
