                         Program Version 5.0.0 -  RELEASE  -
|  1> !LC-BLYP RIJCOSX def2-SVPD def2/J TightSCF
|  2> *xyz 0 1
|  3> C         -0.71189        0.84252       -4.21834
|  4> C         -0.39762       -0.20587       -5.28802
|  5> O          0.61717       -0.00535       -5.99827
|  6> F         -1.13317       -1.22138       -5.34147
|  7> H         -0.00939        1.64646       -4.28960
|  8> H         -0.64409        0.39449       -3.24902
|  9> H         -1.70192        1.21961       -4.36851
| 10> *
| 11>
| 12> %MaxCore 64000
| 13>
| 14> %pal nprocs 4
| 15> end
| 16>
| 17> %scf
| 18>   MaxIter 150
| 19> end
| 20>
| 21>
| 22>                          ****END OF INPUT****

CARTESIAN COORDINATES (ANGSTROEM)
---------------------------------
  C     -0.711890    0.842520   -4.218340
  C     -0.397620   -0.205870   -5.288020
  O      0.617170   -0.005350   -5.998270
  F     -1.133170   -1.221380   -5.341470
  H     -0.009390    1.646460   -4.289600
  H     -0.644090    0.394490   -3.249020
  H     -1.701920    1.219610   -4.368510

 Total Charge           Charge          ....    0
 Multiplicity           Mult            ....    1
 Number of Electrons    NEL             ....   32
 Basis Dimension        Dim             ....  110

ORBITAL ENERGIES
----------------

  NO   OCC          E(Eh)            E(eV)
   0   2.0000     -24.552051      -668.0953
   1   2.0000     -18.971048      -516.2284
   2   2.0000     -10.277726      -279.6711
   3   2.0000     -10.115064      -275.2449
   4   2.0000      -1.392750       -37.8987
   5   2.0000      -1.123948       -30.5842
   6   2.0000      -0.878949       -23.9174
   7   2.0000      -0.765210       -20.8224
   8   2.0000      -0.664336       -18.0775
   9   2.0000      -0.655111       -17.8265
  10   2.0000      -0.608253       -16.5514
  11   2.0000      -0.550287       -14.9741
  12   2.0000      -0.539611       -14.6836
  13   2.0000      -0.508015       -13.8238
  14   2.0000      -0.464962       -12.6523
  15   2.0000      -0.399365       -10.8673
  16   0.0000       0.050240         1.3671
  17   0.0000       0.061906         1.6846
  18   0.0000       0.103202         2.8083
  19   0.0000       0.134644         3.6639
  20   0.0000       0.142663         3.8821

MULLIKEN ATOMIC CHARGES
-----------------------
   0 C :    0.666466
   1 C :    0.184501
   2 O :   -0.318783
   3 F :   -0.276037
   4 H :   -0.125245
   5 H :   -0.064154
   6 H :   -0.066748
Sum of atomic charges:   -0.0000000

LOEWDIN ATOMIC CHARGES
----------------------
   0 C :    0.203646
   1 C :   -0.079222
   2 O :   -0.118587
   3 F :   -0.013302
   4 H :    0.003276
   5 H :    0.003224
   6 H :    0.000966

  Mayer bond orders larger than 0.100000
B(  0-C ,  1-C ) :   1.2183 B(  0-C ,  4-H ) :   0.8368 B(  0-C ,  5-H ) :   0.7728
B(  0-C ,  6-H ) :   0.7657 B(  1-C ,  2-O ) :   1.9708 B(  1-C ,  3-F ) :   0.8936
B(  1-C ,  4-H ) :   0.2425 B(  1-C ,  5-H ) :   0.1501 B(  1-C ,  6-H ) :   0.1559

FINAL SINGLE POINT ENERGY      -252.412681716628

DIPOLE MOMENT
-------------
                                X             Y             Z
Electronic contribution:     -0.44468      -4.23046      -2.72205
Nuclear contribution   :     -0.31181       4.56949       3.61460
                        -----------------------------------------
Total Dipole Moment    :     -0.75649       0.33904       0.89255
                        -----------------------------------------
Magnitude (a.u.)       :      1.21814
Magnitude (Debye)      :      3.09627

Rotational constants in cm-1:     0.370228     0.320104     0.177247
Rotational constants in MHz : 11099.151631  9596.483000  5313.726171

                             ****ORCA TERMINATED NORMALLY****
TOTAL RUN TIME: 0 days 0 hours 0 minutes 8 seconds 42 msec
