                         Program Version 5.0.0 -  RELEASE  -
|  1> !LC-BLYP RIJCOSX def2-SVPD def2/J TightSCF
|  2> *xyz 0 1
|  3> C          2.23447       -2.98975       -2.39762
|  4> N          2.75680       -2.94555       -3.76503
|  5> C          1.98721       -2.59045       -4.81898
|  6> C          0.74322       -3.01749       -4.91352
|  7> N          2.49964       -1.84860       -5.80324
|  8> H          3.30978       -1.29282       -5.55895
|  9> H          1.80103       -1.30430       -6.28913
| 10> H          3.71612       -2.62880       -3.82953
| 11> H          0.39583       -3.62775       -4.18502
| 12> H          0.03920       -2.45438       -5.37137
| 13> H          1.22098       -3.33251       -2.41386
| 14> H          2.27280       -2.00995       -1.96933
| 15> H          2.82798       -3.65908       -1.81056
| 16> *
| 17>
| 18> %MaxCore 64000
| 19>
| 20> %pal nprocs 4
| 21> end
| 22>
| 23> %scf
| 24>   MaxIter 150
| 25> end
| 26>
| 27>
| 28>                          ****END OF INPUT****

CARTESIAN COORDINATES (ANGSTROEM)
---------------------------------
  C      2.234470   -2.989750   -2.397620
  N      2.756800   -2.945550   -3.765030
  C      1.987210   -2.590450   -4.818980
  C      0.743220   -3.017490   -4.913520
  N      2.499640   -1.848600   -5.803240
  H      3.309780   -1.292820   -5.558950
  H      1.801030   -1.304300   -6.289130
  H      3.716120   -2.628800   -3.829530
  H      0.395830   -3.627750   -4.185020
  H      0.039200   -2.454380   -5.371370
  H      1.220980   -3.332510   -2.413860
  H      2.272800   -2.009950   -1.969330
  H      2.827980   -3.659080   -1.810560

 Total Charge           Charge          ....    0
 Multiplicity           Mult            ....    1
 Number of Electrons    NEL             ....   40
 Basis Dimension        Dim             ....  164

ORBITAL ENERGIES
----------------

  NO   OCC          E(Eh)            E(eV)
   0   2.0000     -14.192556      -386.1991
   1   2.0000     -14.189954      -386.1283
   2   2.0000     -10.135111      -275.7904
   3   2.0000     -10.109451      -275.0921
   4   2.0000     -10.005473      -272.2628
   5   2.0000      -1.063791       -28.9472
   6   2.0000      -0.982129       -26.7251
   7   2.0000      -0.827088       -22.5062
   8   2.0000      -0.800038       -21.7701
   9   2.0000      -0.669817       -18.2266
  10   2.0000      -0.652070       -17.7437
  11   2.0000      -0.618246       -16.8233
  12   2.0000      -0.558360       -15.1937
  13   2.0000      -0.543916       -14.8007
  14   2.0000      -0.522951       -14.2302
  15   2.0000      -0.494648       -13.4600
  16   2.0000      -0.477605       -12.9963
  17   2.0000      -0.461080       -12.5466
  18   2.0000      -0.353427        -9.6172
  19   2.0000      -0.272968        -7.4278
  20   0.0000       0.067735         1.8432
  21   0.0000       0.094339         2.5671
  22   0.0000       0.106854         2.9076
  23   0.0000       0.126383         3.4391
  24   0.0000       0.137210         3.7337

MULLIKEN ATOMIC CHARGES
-----------------------
   0 C :    1.395846
   1 N :   -0.297128
   2 C :    0.164807
   3 C :    0.544524
   4 N :    0.184233
   5 H :   -0.106417
   6 H :    0.017944
   7 H :   -0.307576
   8 H :   -0.307593
   9 H :   -0.490142
  10 H :   -0.306736
  11 H :   -0.198880
  12 H :   -0.292884
Sum of atomic charges:    0.0000000

LOEWDIN ATOMIC CHARGES
----------------------
   0 C :    0.194565
   1 N :   -0.023896
   2 C :   -0.267783
   3 C :    0.151046
   4 N :    0.195616
   5 H :   -0.014702
   6 H :    0.000169
   7 H :    0.009852
   8 H :   -0.102461
   9 H :   -0.090201
  10 H :   -0.027115
  11 H :   -0.012422
  12 H :   -0.012668

  Mayer bond orders larger than 0.100000
B(  0-C ,  1-N ) :   0.9367 B(  0-C , 10-H ) :   0.7636 B(  0-C , 11-H ) :   0.7319
B(  0-C , 12-H ) :   0.6945 B(  1-N ,  2-C ) :   1.1327 B(  1-N ,  3-C ) :   0.2155
B(  1-N ,  4-N ) :   0.1023 B(  1-N ,  7-H ) :   1.1267 B(  1-N , 10-H ) :   0.1431
B(  1-N , 11-H ) :   0.1589 B(  1-N , 12-H ) :   0.2128 B(  2-C ,  3-C ) :   1.7448
B(  2-C ,  4-N ) :   1.0295 B(  2-C ,  8-H ) :   0.2762 B(  2-C ,  9-H ) :   0.1256
B(  3-C ,  4-N ) :   0.2309 B(  3-C ,  8-H ) :   0.5051 B(  3-C ,  9-H ) :   0.7868
B(  4-N ,  5-H ) :   0.9534 B(  4-N ,  6-H ) :   0.9809 B(  8-H ,  9-H ) :   0.1687

FINAL SINGLE POINT ENERGY      -227.829828805134

DIPOLE MOMENT
-------------
                                X             Y             Z
Electronic contribution:      1.53316       0.12723      -2.34981
Nuclear contribution   :     -0.87840       0.81693       2.92070
                        -----------------------------------------
Total Dipole Moment    :      0.65476       0.94416       0.57089
                        -----------------------------------------
Magnitude (a.u.)       :      1.28299
Magnitude (Debye)      :      3.26111

Rotational constants in cm-1:     0.323282     0.134248     0.100848
Rotational constants in MHz :  9691.753357  4024.663509  3023.338831

                             ****ORCA TERMINATED NORMALLY****
TOTAL RUN TIME: 0 days 0 hours 0 minutes 17 seconds 99 msec
