                         Program Version 5.0.0 -  RELEASE  -
|  1> !LC-BLYP RIJCOSX def2-SVPD def2/J TightSCF
|  2> *xyz 0 1
|  3> C          2.23447       -2.98975       -2.39762
|  4> N          2.75680       -2.94555       -3.76503
|  5> C          1.98721       -2.59045       -4.81898
|  6> N          0.74322       -3.01749       -4.91352
|  7> C          2.49964       -1.84860       -5.80324
|  8> H          3.30978       -1.29282       -5.55895
|  9> H          1.80103       -1.30430       -6.28913
| 10> H          3.71612       -2.62880       -3.82953
| 11> H          0.39583       -3.62775       -4.18502
| 12> H          0.03920       -2.45438       -5.37137
| 13> H          1.22098       -3.33251       -2.41386
| 14> H          2.27280       -2.00995       -1.96933
| 15> H          2.82798       -3.65908       -1.81056
| 16> *
| 17>
| 18> %MaxCore 64000
| 19>
| 20> %pal nprocs 4
| 21> end
| 22>
| 23> %scf
| 24>   MaxIter 150
| 25> end
| 26>
| 27>
| 28>                          ****END OF INPUT****

CARTESIAN COORDINATES (ANGSTROEM)
---------------------------------
  C      2.234470   -2.989750   -2.397620
  N      2.756800   -2.945550   -3.765030
  C      1.987210   -2.590450   -4.818980
  N      0.743220   -3.017490   -4.913520
  C      2.499640   -1.848600   -5.803240
  H      3.309780   -1.292820   -5.558950
  H      1.801030   -1.304300   -6.289130
  H      3.716120   -2.628800   -3.829530
  H      0.395830   -3.627750   -4.185020
  H      0.039200   -2.454380   -5.371370
  H      1.220980   -3.332510   -2.413860
  H      2.272800   -2.009950   -1.969330
  H      2.827980   -3.659080   -1.810560

 Total Charge           Charge          ....    0
 Multiplicity           Mult            ....    1
 Number of Electrons    NEL             ....   40
 Basis Dimension        Dim             ....  164

ORBITAL ENERGIES
----------------

  NO   OCC          E(Eh)            E(eV)
   0   2.0000     -14.193289      -386.2190
   1   2.0000     -14.191776      -386.1779
   2   2.0000     -10.138975      -275.8955
   3   2.0000     -10.118827      -275.3473
   4   2.0000     -10.000370      -272.1239
   5   2.0000      -1.066117       -29.0105
   6   2.0000      -0.982005       -26.7217
   7   2.0000      -0.846645       -23.0384
   8   2.0000      -0.776100       -21.1188
   9   2.0000      -0.707650       -19.2561
  10   2.0000      -0.646273       -17.5860
  11   2.0000      -0.595489       -16.2041
  12   2.0000      -0.588114       -16.0034
  13   2.0000      -0.556576       -15.1452
  14   2.0000      -0.508216       -13.8293
  15   2.0000      -0.493215       -13.4211
  16   2.0000      -0.476557       -12.9678
  17   2.0000      -0.463003       -12.5989
  18   2.0000      -0.356225        -9.6934
  19   2.0000      -0.268024        -7.2933
  20   0.0000       0.064384         1.7520
  21   0.0000       0.099884         2.7180
  22   0.0000       0.103902         2.8273
  23   0.0000       0.124681         3.3927
  24   0.0000       0.136341         3.7100

MULLIKEN ATOMIC CHARGES
-----------------------
   0 C :    1.393168
   1 N :   -0.429589
   2 C :    0.038718
   3 N :    0.396241
   4 C :    0.634490
   5 H :   -0.256983
   6 H :   -0.505962
   7 H :   -0.176832
   8 H :   -0.172332
   9 H :   -0.121255
  10 H :   -0.311919
  11 H :   -0.176487
  12 H :   -0.311257
Sum of atomic charges:    0.0000000

LOEWDIN ATOMIC CHARGES
----------------------
   0 C :    0.189263
   1 N :   -0.020942
   2 C :   -0.261757
   3 N :    0.205400
   4 C :    0.134554
   5 H :   -0.103729
   6 H :   -0.104023
   7 H :    0.023578
   8 H :   -0.019705
   9 H :    0.013127
  10 H :   -0.031373
  11 H :   -0.011700
  12 H :   -0.012693

  Mayer bond orders larger than 0.100000
B(  0-C ,  1-N ) :   0.9303 B(  0-C ,  7-H ) :  -0.1016 B(  0-C , 10-H ) :   0.7425
B(  0-C , 11-H ) :   0.7399 B(  0-C , 12-H ) :   0.7014 B(  1-N ,  2-C ) :   1.1298
B(  1-N ,  4-C ) :   0.1879 B(  1-N ,  7-H ) :   1.1629 B(  1-N , 10-H ) :   0.1470
B(  1-N , 11-H ) :   0.1123 B(  1-N , 12-H ) :   0.2203 B(  2-C ,  3-N ) :   1.1531
B(  2-C ,  4-C ) :   1.9051 B(  2-C ,  5-H ) :   0.2367 B(  2-C ,  6-H ) :   0.2774
B(  2-C ,  7-H ) :  -0.1142 B(  3-N ,  4-C ) :   0.2074 B(  3-N ,  8-H ) :   1.0046
B(  3-N ,  9-H ) :   1.1539 B(  4-C ,  5-H ) :   0.6814 B(  4-C ,  6-H ) :   0.5999
B(  5-H ,  6-H ) :   0.3161 B(  8-H ,  9-H ) :  -0.1614

FINAL SINGLE POINT ENERGY      -227.825283460004

DIPOLE MOMENT
-------------
                                X             Y             Z
Electronic contribution:     -0.08692      -1.02858      -1.47656
Nuclear contribution   :     -0.52265       1.05368       2.74049
                        -----------------------------------------
Total Dipole Moment    :     -0.60956       0.02510       1.26393
                        -----------------------------------------
Magnitude (a.u.)       :      1.40347
Magnitude (Debye)      :      3.56733

Rotational constants in cm-1:     0.310125     0.138772     0.101978
Rotational constants in MHz :  9297.312912  4160.277024  3057.230514

                             ****ORCA TERMINATED NORMALLY****
TOTAL RUN TIME: 0 days 0 hours 0 minutes 18 seconds 336 msec
