                         Program Version 5.0.0 -  RELEASE  -
|  1> !LC-BLYP RIJCOSX def2-SVPD def2/J TightSCF xyzfile
|  2>
|  3> *xyzfile 0 1 D2.xyz
|  4>
|  5> %MaxCore 64000
|  6>
|  7> %pal nprocs 4
|  8> end
|  9>
| 10> %scf
| 11>   MaxIter 150
| 12> end
| 13>
| 14>
| 15>                          ****END OF INPUT****

CARTESIAN COORDINATES (ANGSTROEM)
---------------------------------
  C      2.234473   -2.989754   -2.397622
  N      2.756799   -2.945553   -3.765029
  C     -1.104325    0.251374   -2.860056
  C     -0.711893    0.842517   -4.218344
  H      0.154626    1.499800   -4.130909
  H     -1.538134    1.459222   -4.582671
  C     -0.397624   -0.205875   -5.288018
  C      1.987208   -2.590451   -4.818975
  C      0.743221   -3.017493   -4.913524
  N      2.499636   -1.848598   -5.803241
  H      3.309780   -1.292818   -5.558947
  H      1.801025   -1.304298   -6.289129
  H      3.716116   -2.628797   -3.829533
  H      0.395828   -3.627747   -4.185024
  H      0.039201   -2.454383   -5.371367
  F      0.617165   -0.005348   -5.998273
  O     -1.133173   -1.221380   -5.341465
  C      2.191199   -1.619503   -1.715492
  H      2.872783   -3.666368   -1.828014
  H      1.246188   -3.447444   -2.407842
  C      1.298729   -0.554314   -2.359773
  H      1.872917   -1.787955   -0.681310
  H      3.216809   -1.238432   -1.654428
  C     -0.196255   -0.863365   -2.325763
  H      1.612531   -0.371346   -3.393065
  H      1.480944    0.388638   -1.834444
  H     -0.404105   -1.761825   -2.909448
  H     -0.490439   -1.087880   -1.294131
  H     -1.143842    1.066711   -2.129680
  H     -2.114401   -0.156834   -2.930323

 Total Charge           Charge          ....    0
 Multiplicity           Mult            ....    1
 Number of Electrons    NEL             ....  102
 Basis Dimension        Dim             ....  402

ORBITAL ENERGIES
----------------

  NO   OCC          E(Eh)            E(eV)
   0   2.0000     -24.568167      -668.5338
   1   2.0000     -18.976675      -516.3816
   2   2.0000     -14.182521      -385.9260
   3   2.0000     -14.175224      -385.7275
   4   2.0000     -10.280282      -279.7407
   5   2.0000     -10.122073      -275.4356
   6   2.0000     -10.120883      -275.4032
   7   2.0000     -10.112710      -275.1808
   8   2.0000     -10.099445      -274.8199
   9   2.0000     -10.088170      -274.5131
  10   2.0000     -10.087065      -274.4830
  11   2.0000     -10.081284      -274.3257
  12   2.0000      -9.983991      -271.6782
  13   2.0000      -1.409718       -38.3604
  14   2.0000      -1.134820       -30.8800
  15   2.0000      -1.054718       -28.7003
  16   2.0000      -0.977065       -26.5873
  17   2.0000      -0.930439       -25.3185
  18   2.0000      -0.890915       -24.2430
  19   2.0000      -0.839497       -22.8439
  20   2.0000      -0.812765       -22.1165
  21   2.0000      -0.796702       -21.6794
  22   2.0000      -0.769018       -20.9261
  23   2.0000      -0.726243       -19.7621
  24   2.0000      -0.697897       -18.9907
  25   2.0000      -0.679070       -18.4784
  26   2.0000      -0.653803       -17.7909
  27   2.0000      -0.650980       -17.7141
  28   2.0000      -0.639790       -17.4096
  29   2.0000      -0.629928       -17.1412
  30   2.0000      -0.601547       -16.3689
  31   2.0000      -0.591437       -16.0938
  32   2.0000      -0.578220       -15.7342
  33   2.0000      -0.555581       -15.1181
  34   2.0000      -0.549735       -14.9591
  35   2.0000      -0.531123       -14.4526
  36   2.0000      -0.521740       -14.1973
  37   2.0000      -0.513782       -13.9807
  38   2.0000      -0.502086       -13.6625
  39   2.0000      -0.487091       -13.2544
  40   2.0000      -0.478888       -13.0312
  41   2.0000      -0.467485       -12.7209
  42   2.0000      -0.464948       -12.6519
  43   2.0000      -0.455318       -12.3898
  44   2.0000      -0.448194       -12.1960
  45   2.0000      -0.429538       -11.6883
  46   2.0000      -0.421536       -11.4706
  47   2.0000      -0.417355       -11.3568
  48   2.0000      -0.387120       -10.5341
  49   2.0000      -0.343102        -9.3363
  50   2.0000      -0.258912        -7.0454
  51   0.0000       0.036044         0.9808
  52   0.0000       0.058908         1.6030
  53   0.0000       0.075379         2.0512
  54   0.0000       0.080262         2.1840
  55   0.0000       0.090697         2.4680

MULLIKEN ATOMIC CHARGES
-----------------------
   0 C :    0.917695
   1 N :   -0.146218
   2 C :    0.760559
   3 C :    0.369227
   4 H :    0.089579
   5 H :   -0.352704
   6 C :    0.293105
   7 C :    0.124815
   8 C :    1.138853
   9 N :    0.348895
  10 H :    0.050444
  11 H :   -0.217455
  12 H :   -0.196685
  13 H :   -0.184574
  14 H :   -1.061632
  15 F :   -0.313695
  16 O :   -0.465119
  17 C :    0.548450
  18 H :   -0.473320
  19 H :   -0.087718
  20 C :    0.204751
  21 H :   -0.053079
  22 H :   -0.174327
  23 C :    0.138730
  24 H :   -0.363154
  25 H :   -0.224939
  26 H :   -0.301955
  27 H :   -0.210175
  28 H :   -0.168197
  29 H :    0.009840
Sum of atomic charges:   -0.0000000

LOEWDIN ATOMIC CHARGES
----------------------
   0 C :    0.040075
   1 N :    0.015148
   2 C :   -0.020811
   3 C :    0.044042
   4 H :    0.029609
   5 H :    0.046403
   6 C :   -0.009930
   7 C :   -0.254281
   8 C :    0.177792
   9 N :    0.213222
  10 H :   -0.009745
  11 H :   -0.060137
  12 H :    0.012581
  13 H :   -0.080735
  14 H :   -0.163333
  15 F :   -0.009677
  16 O :   -0.096953
  17 C :   -0.027853
  18 H :    0.023288
  19 H :    0.010137
  20 C :   -0.037056
  21 H :    0.027938
  22 H :    0.023370
  23 C :   -0.029852
  24 H :    0.004041
  25 H :    0.030584
  26 H :    0.000764
  27 H :    0.034715
  28 H :    0.031798
  29 H :    0.034854

  Mayer bond orders larger than 0.100000
B(  0-C ,  1-N ) :   0.9868 B(  0-C ,  8-C ) :   0.1191 B(  0-C , 17-C ) :   1.0596
B(  0-C , 18-H ) :   0.7042 B(  0-C , 19-H ) :   0.7071 B(  0-C , 20-C ) :   0.1186
B(  0-C , 21-H ) :   0.1803 B(  0-C , 22-H ) :   0.1362 B(  1-N ,  7-C ) :   1.1035
B(  1-N ,  8-C ) :   0.3167 B(  1-N ,  9-N ) :   0.1425 B(  1-N , 12-H ) :   1.0126
B(  1-N , 18-H ) :   0.2144 B(  1-N , 19-H ) :   0.1349 B(  2-C ,  3-C ) :   1.1353
B(  2-C ,  4-H ) :   0.1203 B(  2-C ,  5-H ) :   0.1748 B(  2-C , 23-C ) :   1.2290
B(  2-C , 28-H ) :   0.6868 B(  2-C , 29-H ) :   0.5617 B(  3-C ,  4-H ) :   0.7974
B(  3-C ,  5-H ) :   0.6814 B(  3-C ,  6-C ) :   1.2035 B(  3-C , 23-C ) :   0.1620
B(  3-C , 28-H ) :   0.1959 B(  3-C , 29-H ) :   0.1045 B(  4-H ,  5-H ) :  -0.1144
B(  4-H ,  6-C ) :   0.2006 B(  5-H ,  6-C ) :   0.2285 B(  6-C , 14-H ) :   0.1228
B(  6-C , 15-F ) :   0.7846 B(  6-C , 16-O ) :   1.9476 B(  6-C , 24-H ) :   0.1007
B(  7-C ,  8-C ) :   1.8201 B(  7-C ,  9-N ) :   0.9003 B(  7-C , 10-H ) :   0.1027
B(  7-C , 13-H ) :   0.4056 B(  7-C , 14-H ) :   0.1674 B(  8-C ,  9-N ) :   0.2298
B(  8-C , 13-H ) :   0.2209 B(  9-N , 10-H ) :   0.8180 B(  9-N , 11-H ) :   0.9240
B( 13-H , 14-H ) :  -0.1266 B( 14-H , 16-O ) :   0.3134 B( 15-F , 16-O ) :   0.1287
B( 17-C , 18-H ) :   0.1245 B( 17-C , 19-H ) :   0.1618 B( 17-C , 20-C ) :   1.2153
B( 17-C , 21-H ) :   0.7332 B( 17-C , 22-H ) :   0.6385 B( 17-C , 24-H ) :   0.1263
B( 18-H , 19-H ) :  -0.1894 B( 20-C , 21-H ) :   0.1922 B( 20-C , 22-H ) :   0.2980
B( 20-C , 23-C ) :   1.2340 B( 20-C , 24-H ) :   0.8346 B( 20-C , 25-H ) :   0.7453
B( 20-C , 26-H ) :   0.1841 B( 20-C , 27-H ) :   0.2657 B( 21-H , 22-H ) :  -0.1418
B( 23-C , 24-H ) :   0.2112 B( 23-C , 25-H ) :   0.2396 B( 23-C , 26-H ) :   0.8813
B( 23-C , 27-H ) :   0.6646 B( 23-C , 28-H ) :   0.1898 B( 23-C , 29-H ) :   0.3214
B( 25-H , 27-H ) :   0.1117 B( 28-H , 29-H ) :  -0.1600

FINAL SINGLE POINT ENERGY      -635.732705861471

DIPOLE MOMENT
-------------
                                X             Y             Z
Electronic contribution:     -1.50300       2.20483     -13.50251
Nuclear contribution   :      2.00823      -0.28769      14.57028
                        -----------------------------------------
Total Dipole Moment    :      0.50523       1.91714       1.06777
                        -----------------------------------------
Magnitude (a.u.)       :      2.25185
Magnitude (Debye)      :      5.72374

Rotational constants in cm-1:     0.033070     0.023715     0.016943
Rotational constants in MHz :   991.423248   710.957140   507.940500

                             ****ORCA TERMINATED NORMALLY****
TOTAL RUN TIME: 0 days 0 hours 3 minutes 3 seconds 658 msec
