                         Program Version 5.0.0 -  RELEASE  -
|  1> !LC-BLYP RIJCOSX def2-SVPD def2/J TightSCF xyzfile
|  2>
|  3> *xyzfile 0 1 D3.xyz
|  4>
|  5> %MaxCore 64000
|  6>
|  7> %pal nprocs 4
|  8> end
|  9>
| 10> %scf
| 11>   MaxIter 150
| 12> end
| 13>
| 14>
| 15>                          ****END OF INPUT****

CARTESIAN COORDINATES (ANGSTROEM)
---------------------------------
  C      2.234473   -2.989754   -2.397622
  N      2.756799   -2.945553   -3.765029
  C     -1.104325    0.251374   -2.860056
  C     -0.711893    0.842517   -4.218344
  H      0.154626    1.499800   -4.130909
  H     -1.538134    1.459222   -4.582671
  C     -0.397624   -0.205875   -5.288018
  C      1.987208   -2.590451   -4.818975
  N      0.743221   -3.017493   -4.913524
  C      2.499636   -1.848598   -5.803241
  H      3.309780   -1.292818   -5.558947
  H      1.801025   -1.304298   -6.289129
  H      3.716116   -2.628797   -3.829533
  H      0.395828   -3.627747   -4.185024
  H      0.039201   -2.454383   -5.371367
  F      0.617165   -0.005348   -5.998273
  O     -1.133173   -1.221380   -5.341465
  C      2.191199   -1.619503   -1.715492
  H      2.872783   -3.666368   -1.828014
  H      1.246188   -3.447444   -2.407842
  C      1.298729   -0.554314   -2.359773
  H      1.872917   -1.787955   -0.681310
  H      3.216809   -1.238432   -1.654428
  C     -0.196255   -0.863365   -2.325763
  H      1.612531   -0.371346   -3.393065
  H      1.480944    0.388638   -1.834444
  H     -0.404105   -1.761825   -2.909448
  H     -0.490439   -1.087880   -1.294131
  H     -1.143842    1.066711   -2.129680
  H     -2.114401   -0.156834   -2.930323

 Total Charge           Charge          ....    0
 Multiplicity           Mult            ....    1
 Number of Electrons    NEL             ....  102
 Basis Dimension        Dim             ....  402

ORBITAL ENERGIES
----------------

  NO   OCC          E(Eh)            E(eV)
   0   2.0000     -24.561431      -668.3505
   1   2.0000     -18.990184      -516.7492
   2   2.0000     -14.182223      -385.9179
   3   2.0000     -14.165404      -385.4603
   4   2.0000     -10.290741      -280.0253
   5   2.0000     -10.127121      -275.5730
   6   2.0000     -10.126542      -275.5572
   7   2.0000     -10.120551      -275.3942
   8   2.0000     -10.106069      -275.0001
   9   2.0000     -10.090611      -274.5795
  10   2.0000     -10.090524      -274.5771
  11   2.0000     -10.090304      -274.5711
  12   2.0000      -9.986588      -271.7489
  13   2.0000      -1.404655       -38.2226
  14   2.0000      -1.148329       -31.2476
  15   2.0000      -1.054494       -28.6942
  16   2.0000      -0.971623       -26.4392
  17   2.0000      -0.936845       -25.4928
  18   2.0000      -0.896621       -24.3983
  19   2.0000      -0.850283       -23.1374
  20   2.0000      -0.814898       -22.1745
  21   2.0000      -0.793693       -21.5975
  22   2.0000      -0.758611       -20.6428
  23   2.0000      -0.725130       -19.7318
  24   2.0000      -0.705299       -19.1922
  25   2.0000      -0.687657       -18.7121
  26   2.0000      -0.672372       -18.2962
  27   2.0000      -0.648378       -17.6433
  28   2.0000      -0.638207       -17.3665
  29   2.0000      -0.632199       -17.2030
  30   2.0000      -0.604199       -16.4411
  31   2.0000      -0.589753       -16.0480
  32   2.0000      -0.580396       -15.7934
  33   2.0000      -0.568117       -15.4592
  34   2.0000      -0.556046       -15.1308
  35   2.0000      -0.541008       -14.7216
  36   2.0000      -0.520936       -14.1754
  37   2.0000      -0.514696       -14.0056
  38   2.0000      -0.495365       -13.4796
  39   2.0000      -0.487025       -13.2526
  40   2.0000      -0.480815       -13.0836
  41   2.0000      -0.470780       -12.8106
  42   2.0000      -0.465218       -12.6592
  43   2.0000      -0.462820       -12.5940
  44   2.0000      -0.446246       -12.1430
  45   2.0000      -0.433946       -11.8083
  46   2.0000      -0.432796       -11.7770
  47   2.0000      -0.424416       -11.5489
  48   2.0000      -0.411970       -11.2103
  49   2.0000      -0.340656        -9.2697
  50   2.0000      -0.255903        -6.9635
  51   0.0000       0.027637         0.7520
  52   0.0000       0.061272         1.6673
  53   0.0000       0.073945         2.0121
  54   0.0000       0.078071         2.1244
  55   0.0000       0.086788         2.3616

MULLIKEN ATOMIC CHARGES
-----------------------
   0 C :    0.984164
   1 N :   -0.299009
   2 C :    0.753853
   3 C :    0.349743
   4 H :    0.111131
   5 H :   -0.333441
   6 C :    0.394146
   7 C :   -0.013819
   8 N :    0.615824
   9 C :    1.023879
  10 H :   -0.169520
  11 H :   -0.863482
  12 H :   -0.126770
  13 H :   -0.054999
  14 H :   -0.450920
  15 F :   -0.325163
  16 O :   -0.427307
  17 C :    0.510932
  18 H :   -0.474207
  19 H :   -0.089346
  20 C :    0.196941
  21 H :   -0.051896
  22 H :   -0.200187
  23 C :    0.176416
  24 H :   -0.245125
  25 H :   -0.305185
  26 H :   -0.291211
  27 H :   -0.229017
  28 H :   -0.169293
  29 H :    0.002865
Sum of atomic charges:   -0.0000000

LOEWDIN ATOMIC CHARGES
----------------------
   0 C :    0.034280
   1 N :    0.020404
   2 C :   -0.020962
   3 C :    0.047317
   4 H :    0.033791
   5 H :    0.048341
   6 C :    0.000127
   7 C :   -0.248660
   8 N :    0.241478
   9 C :    0.143856
  10 H :   -0.094099
  11 H :   -0.147172
  12 H :    0.025686
  13 H :   -0.008559
  14 H :   -0.095246
  15 F :   -0.006849
  16 O :   -0.097830
  17 C :   -0.027382
  18 H :    0.022389
  19 H :    0.005288
  20 C :   -0.033311
  21 H :    0.026841
  22 H :    0.027116
  23 C :   -0.034978
  24 H :    0.008420
  25 H :    0.031706
  26 H :   -0.004479
  27 H :    0.034529
  28 H :    0.033577
  29 H :    0.034381

  Mayer bond orders larger than 0.100000
B(  0-C ,  1-N ) :   0.9740 B(  0-C , 12-H ) :  -0.1093 B(  0-C , 17-C ) :   1.0707
B(  0-C , 18-H ) :   0.6945 B(  0-C , 19-H ) :   0.7117 B(  0-C , 20-C ) :   0.1192
B(  0-C , 21-H ) :   0.1573 B(  0-C , 22-H ) :   0.1622 B(  1-N ,  7-C ) :   1.1308
B(  1-N ,  9-C ) :   0.2331 B(  1-N , 12-H ) :   1.0994 B(  1-N , 18-H ) :   0.2412
B(  1-N , 19-H ) :   0.1373 B(  2-C ,  3-C ) :   1.1483 B(  2-C ,  4-H ) :   0.1194
B(  2-C ,  5-H ) :   0.1760 B(  2-C , 23-C ) :   1.2217 B(  2-C , 28-H ) :   0.7049
B(  2-C , 29-H ) :   0.5581 B(  3-C ,  4-H ) :   0.7956 B(  3-C ,  5-H ) :   0.6916
B(  3-C ,  6-C ) :   1.1884 B(  3-C , 23-C ) :   0.1575 B(  3-C , 28-H ) :   0.1868
B(  4-H ,  6-C ) :   0.2095 B(  5-H ,  6-C ) :   0.2136 B(  6-C , 15-F ) :   0.8390
B(  6-C , 16-O ) :   1.8265 B(  7-C ,  8-N ) :   1.0825 B(  7-C ,  9-C ) :   1.9828
B(  7-C , 10-H ) :   0.3678 B(  7-C , 11-H ) :   0.4044 B(  7-C , 12-H ) :  -0.1260
B(  8-N ,  9-C ) :   0.2090 B(  8-N , 13-H ) :   0.9061 B(  8-N , 14-H ) :   1.0305
B(  9-C , 10-H ) :   0.3328 B( 10-H , 11-H ) :   0.3721 B( 11-H , 15-F ) :   0.1939
B( 13-H , 14-H ) :  -0.2586 B( 14-H , 16-O ) :   0.1596 B( 15-F , 16-O ) :   0.1296
B( 17-C , 18-H ) :   0.1324 B( 17-C , 19-H ) :   0.1701 B( 17-C , 20-C ) :   1.2245
B( 17-C , 21-H ) :   0.7743 B( 17-C , 22-H ) :   0.6091 B( 17-C , 24-H ) :   0.1245
B( 18-H , 19-H ) :  -0.1898 B( 20-C , 21-H ) :   0.1681 B( 20-C , 22-H ) :   0.3057
B( 20-C , 23-C ) :   1.2540 B( 20-C , 24-H ) :   0.8458 B( 20-C , 25-H ) :   0.7526
B( 20-C , 26-H ) :   0.1893 B( 20-C , 27-H ) :   0.2368 B( 21-H , 22-H ) :  -0.1431
B( 23-C , 24-H ) :   0.1859 B( 23-C , 25-H ) :   0.1998 B( 23-C , 26-H ) :   0.8655
B( 23-C , 27-H ) :   0.6739 B( 23-C , 28-H ) :   0.1905 B( 23-C , 29-H ) :   0.3196
B( 28-H , 29-H ) :  -0.1580

FINAL SINGLE POINT ENERGY      -635.738733236836

DIPOLE MOMENT
-------------
                                X             Y             Z
Electronic contribution:     -2.87142       1.37951     -12.69465
Nuclear contribution   :      2.27881      -0.10762      14.43322
                        -----------------------------------------
Total Dipole Moment    :     -0.59261       1.27189       1.73857
                        -----------------------------------------
Magnitude (a.u.)       :      2.23417
Magnitude (Debye)      :      5.67880

Rotational constants in cm-1:     0.033336     0.023673     0.017062
Rotational constants in MHz :   999.388459   709.685364   511.514310

                             ****ORCA TERMINATED NORMALLY****
TOTAL RUN TIME: 0 days 0 hours 2 minutes 59 seconds 559 msec
