                         Program Version 5.0.0 -  RELEASE  -
|  1> !B3LYP D3BJ RIJCOSX def2-SVPD def2/J TightSCF
|  2> *xyz -1 1
|  3> C         -0.10608        1.76991       -4.08984
|  4> C         -0.25875        1.00432       -5.40983
|  5> C          0.39596       -0.37070       -5.33994
|  6> H          0.23915        1.56939       -6.20125
|  7> H         -1.30936        0.88869       -5.68245
|  8> O         -0.32633       -1.39040       -5.49128
|  9> O          1.61941       -0.40073       -5.03683
| 10> H         -0.57627        2.72718       -4.17630
| 11> H          0.93321        1.90140       -3.87192
| 12> H         -0.56868        1.21534       -3.30031
| 13> *
| 14> %MaxCore 64000
| 15>
| 16> %pal nprocs 4
| 17> end
| 18>
| 19> %scf
| 20>   MaxIter 150
| 21> end
| 22>
| 23>
| 24>                          ****END OF INPUT****

CARTESIAN COORDINATES (ANGSTROEM)
---------------------------------
  C     -0.106080    1.769910   -4.089840
  C     -0.258750    1.004320   -5.409830
  C      0.395960   -0.370700   -5.339940
  H      0.239150    1.569390   -6.201250
  H     -1.309360    0.888690   -5.682450
  O     -0.326330   -1.390400   -5.491280
  O      1.619410   -0.400730   -5.036830
  H     -0.576270    2.727180   -4.176300
  H      0.933210    1.901400   -3.871920
  H     -0.568680    1.215340   -3.300310

 Total Charge           Charge          ....   -1
 Multiplicity           Mult            ....    1
 Number of Electrons    NEL             ....   40
 Basis Dimension        Dim             ....  146

ORBITAL ENERGIES
----------------

  NO   OCC          E(Eh)            E(eV)
   0   2.0000     -18.878236      -513.7029
   1   2.0000     -18.876731      -513.6620
   2   2.0000     -10.068752      -273.9847
   3   2.0000     -10.022391      -272.7231
   4   2.0000     -10.010743      -272.4062
   5   2.0000      -0.809992       -22.0410
   6   2.0000      -0.716505       -19.4971
   7   2.0000      -0.599457       -16.3121
   8   2.0000      -0.469698       -12.7811
   9   2.0000      -0.319080        -8.6826
  10   2.0000      -0.293071        -7.9749
  11   2.0000      -0.258167        -7.0251
  12   2.0000      -0.230853        -6.2818
  13   2.0000      -0.215088        -5.8528
  14   2.0000      -0.209465        -5.6998
  15   2.0000      -0.179335        -4.8799
  16   2.0000      -0.163275        -4.4430
  17   2.0000      -0.050544        -1.3754
  18   2.0000      -0.044748        -1.2177
  19   2.0000      -0.028829        -0.7845
  20   0.0000       0.153917         4.1883
  21   0.0000       0.186823         5.0837
  22   0.0000       0.204009         5.5514
  23   0.0000       0.216760         5.8983
  24   0.0000       0.240457         6.5432

MULLIKEN ATOMIC CHARGES
-----------------------
   0 C :    0.751295
   1 C :   -0.097773
   2 C :    0.416964
   3 H :   -0.078131
   4 H :   -0.150371
   5 O :   -0.682779
   6 O :   -0.724435
   7 H :   -0.171550
   8 H :   -0.106912
   9 H :   -0.156309
Sum of atomic charges:   -1.0000000

LOEWDIN ATOMIC CHARGES
----------------------
   0 C :    0.109930
   1 C :   -0.033728
   2 C :   -0.308345
   3 H :    0.003655
   4 H :   -0.003948
   5 O :   -0.332459
   6 O :   -0.329705
   7 H :   -0.048116
   8 H :   -0.031586
   9 H :   -0.025699

  Mayer bond orders larger than 0.100000
B(  0-C ,  1-C ) :   1.2744 B(  0-C ,  3-H ) :   0.1022 B(  0-C ,  4-H ) :   0.1013
B(  0-C ,  7-H ) :   0.8077 B(  0-C ,  8-H ) :   0.7986 B(  0-C ,  9-H ) :   0.8103
B(  1-C ,  2-C ) :   1.0264 B(  1-C ,  3-H ) :   0.8497 B(  1-C ,  4-H ) :   0.9430
B(  1-C ,  7-H ) :   0.1811 B(  1-C ,  8-H ) :   0.2128 B(  1-C ,  9-H ) :   0.1868
B(  2-C ,  4-H ) :   0.1932 B(  2-C ,  5-O ) :   1.4575 B(  2-C ,  6-O ) :   1.4751

Dispersion correction           -0.010997393
FINAL SINGLE POINT ENERGY      -267.525129631219

DIPOLE MOMENT
-------------
                                X             Y             Z
Electronic contribution:      1.73181      -5.28014      -1.70181
Nuclear contribution   :     -2.46071       7.20791       1.95694
                        -----------------------------------------
Total Dipole Moment    :     -0.72890       1.92777       0.25513
                        -----------------------------------------
Magnitude (a.u.)       :      2.07670
Magnitude (Debye)      :      5.27856

Rotational constants in cm-1:     0.309435     0.135317     0.107436
Rotational constants in MHz :  9276.637721  4056.700783  3220.846587

                             ****ORCA TERMINATED NORMALLY****
TOTAL RUN TIME: 0 days 0 hours 0 minutes 16 seconds 952 msec
