                         Program Version 5.0.0 -  RELEASE  -
|  1> !B3LYP D3BJ RIJCOSX def2-SVPD def2/J TightSCF
|  2> *xyz 1 1
|  3> C          0.81607       -2.10149       -2.18655
|  4> H          1.69623       -2.36869       -1.60046
|  5> N          1.10055       -2.46749       -3.59927
|  6> C          0.51624       -0.61363       -2.03937
|  7> H         -0.02007       -2.71285       -1.84084
|  8> H          1.70061       -1.75723       -4.07838
|  9> H          0.29386       -2.35977       -4.25632
| 10> H          1.50132       -3.42848       -3.69491
| 11> H         -0.34841       -0.36504       -2.61858
| 12> H          1.35358       -0.04503       -2.38643
| 13> H          0.33317       -0.38682       -1.00984
| 14> *
| 15> %MaxCore 64000
| 16>
| 17> %pal nprocs 4
| 18> end
| 19>
| 20> %scf
| 21>   MaxIter 150
| 22> end
| 23>
| 24>
| 25>                          ****END OF INPUT****

CARTESIAN COORDINATES (ANGSTROEM)
---------------------------------
  C      0.816070   -2.101490   -2.186550
  H      1.696230   -2.368690   -1.600460
  N      1.100550   -2.467490   -3.599270
  C      0.516240   -0.613630   -2.039370
  H     -0.020070   -2.712850   -1.840840
  H      1.700610   -1.757230   -4.078380
  H      0.293860   -2.359770   -4.256320
  H      1.501320   -3.428480   -3.694910
  H     -0.348410   -0.365040   -2.618580
  H      1.353580   -0.045030   -2.386430
  H      0.333170   -0.386820   -1.009840

 Total Charge           Charge          ....    1
 Multiplicity           Mult            ....    1
 Number of Electrons    NEL             ....   26
 Basis Dimension        Dim             ....  124

ORBITAL ENERGIES
----------------

  NO   OCC          E(Eh)            E(eV)
   0   2.0000     -14.668811      -399.1586
   1   2.0000     -10.438611      -284.0490
   2   2.0000     -10.360890      -281.9342
   3   2.0000      -1.202144       -32.7120
   4   2.0000      -0.960432       -26.1347
   5   2.0000      -0.848102       -23.0780
   6   2.0000      -0.790385       -21.5075
   7   2.0000      -0.773671       -21.0527
   8   2.0000      -0.703393       -19.1403
   9   2.0000      -0.639164       -17.3925
  10   2.0000      -0.585140       -15.9225
  11   2.0000      -0.570958       -15.5365
  12   2.0000      -0.552965       -15.0469
  13   0.0000      -0.199886        -5.4392
  14   0.0000      -0.141012        -3.8371
  15   0.0000      -0.139119        -3.7856
  16   0.0000      -0.127550        -3.4708
  17   0.0000      -0.089880        -2.4458

MULLIKEN ATOMIC CHARGES
-----------------------
   0 C :    0.457512
   1 H :   -0.141561
   2 N :   -0.862732
   3 C :    0.811858
   4 H :   -0.156809
   5 H :    0.406237
   6 H :    0.364604
   7 H :    0.371572
   8 H :   -0.055282
   9 H :   -0.088367
  10 H :   -0.107032
Sum of atomic charges:    1.0000000

LOEWDIN ATOMIC CHARGES
----------------------
   0 C :    0.055280
   1 H :    0.050615
   2 N :    0.308285
   3 C :    0.180544
   4 H :    0.051813
   5 H :    0.110488
   6 H :    0.115343
   7 H :    0.120345
   8 H :   -0.002152
   9 H :   -0.003374
  10 H :    0.012814

  Mayer bond orders larger than 0.100000
B(  0-C ,  1-H ) :   0.8707 B(  0-C ,  2-N ) :   0.6686 B(  0-C ,  3-C ) :   1.3140
B(  0-C ,  4-H ) :   0.8877 B(  0-C ,  8-H ) :   0.1601 B(  0-C ,  9-H ) :   0.1705
B(  0-C , 10-H ) :   0.2079 B(  1-H ,  2-N ) :   0.1126 B(  2-N ,  4-H ) :   0.1277
B(  2-N ,  5-H ) :   0.6905 B(  2-N ,  6-H ) :   0.7676 B(  2-N ,  7-H ) :   0.7121
B(  3-C ,  8-H ) :   0.7946 B(  3-C ,  9-H ) :   0.8099 B(  3-C , 10-H ) :   0.7898

Dispersion correction           -0.010009798
FINAL SINGLE POINT ENERGY      -135.356926187978

DIPOLE MOMENT
-------------
                                X             Y             Z
Electronic contribution:      0.41873      -1.43309      -1.06931
Nuclear contribution   :     -0.07506       0.54337      -0.16191
                        -----------------------------------------
Total Dipole Moment    :      0.34368      -0.88972      -1.23122
                        -----------------------------------------
Magnitude (a.u.)       :      1.55744
Magnitude (Debye)      :      3.95870

Rotational constants in cm-1:     0.999557     0.280801     0.246932
Rotational constants in MHz : 29965.963633  8418.199581  7402.841054

                             ****ORCA TERMINATED NORMALLY****
TOTAL RUN TIME: 0 days 0 hours 0 minutes 11 seconds 3 msec
