                         Program Version 5.0.0 -  RELEASE  -
|  1> !B3LYP D3BJ RIJCOSX def2-SVPD def2/J TightSCF
|  2> *xyz 0 1
|  3> C         -0.10608        1.76991       -4.08984
|  4> C         -0.25875        1.00432       -5.40983
|  5> C          0.39596       -0.37070       -5.33994
|  6> H          0.23915        1.56939       -6.20125
|  7> H         -1.30936        0.88869       -5.68245
|  8> F         -0.32633       -1.39040       -5.49128
|  9> O          1.61941       -0.40073       -5.03683
| 10> H         -0.57627        2.72718       -4.17630
| 11> H          0.93321        1.90140       -3.87192
| 12> H         -0.56868        1.21534       -3.30031
| 13> *
| 14> %MaxCore 64000
| 15>
| 16> %pal nprocs 4
| 17> end
| 18>
| 19> %scf
| 20>   MaxIter 150
| 21> end
| 22>
| 23>
| 24>                          ****END OF INPUT****

CARTESIAN COORDINATES (ANGSTROEM)
---------------------------------
  C     -0.106080    1.769910   -4.089840
  C     -0.258750    1.004320   -5.409830
  C      0.395960   -0.370700   -5.339940
  H      0.239150    1.569390   -6.201250
  H     -1.309360    0.888690   -5.682450
  F     -0.326330   -1.390400   -5.491280
  O      1.619410   -0.400730   -5.036830
  H     -0.576270    2.727180   -4.176300
  H      0.933210    1.901400   -3.871920
  H     -0.568680    1.215340   -3.300310

 Total Charge           Charge          ....    0
 Multiplicity           Mult            ....    1
 Number of Electrons    NEL             ....   40
 Basis Dimension        Dim             ....  146

ORBITAL ENERGIES
----------------

  NO   OCC          E(Eh)            E(eV)
   0   2.0000     -24.769973      -674.0252
   1   2.0000     -19.149421      -521.0822
   2   2.0000     -10.367520      -282.1146
   3   2.0000     -10.218876      -278.0697
   4   2.0000     -10.191667      -277.3294
   5   2.0000      -1.306296       -35.5461
   6   2.0000      -1.024522       -27.8787
   7   2.0000      -0.796718       -21.6798
   8   2.0000      -0.687487       -18.7075
   9   2.0000      -0.639944       -17.4138
  10   2.0000      -0.552719       -15.0403
  11   2.0000      -0.537966       -14.6388
  12   2.0000      -0.509149       -13.8547
  13   2.0000      -0.468397       -12.7457
  14   2.0000      -0.437384       -11.9018
  15   2.0000      -0.403969       -10.9926
  16   2.0000      -0.382758       -10.4154
  17   2.0000      -0.378666       -10.3040
  18   2.0000      -0.350540        -9.5387
  19   2.0000      -0.297672        -8.1001
  20   0.0000      -0.040175        -1.0932
  21   0.0000       0.012152         0.3307
  22   0.0000       0.043323         1.1789
  23   0.0000       0.055521         1.5108
  24   0.0000       0.071057         1.9336

MULLIKEN ATOMIC CHARGES
-----------------------
   0 C :    0.779817
   1 C :   -0.146561
   2 C :    0.709046
   3 H :   -0.015516
   4 H :   -0.117904
   5 F :   -0.363093
   6 O :   -0.490278
   7 H :   -0.130402
   8 H :   -0.092097
   9 H :   -0.133012
Sum of atomic charges:    0.0000000

LOEWDIN ATOMIC CHARGES
----------------------
   0 C :    0.151573
   1 C :    0.010869
   2 C :   -0.010226
   3 H :    0.036874
   4 H :    0.020053
   5 F :   -0.034737
   6 O :   -0.135960
   7 H :   -0.015485
   8 H :   -0.011495
   9 H :   -0.011466

  Mayer bond orders larger than 0.100000
B(  0-C ,  1-C ) :   1.3081 B(  0-C ,  4-H ) :   0.1015 B(  0-C ,  7-H ) :   0.8099
B(  0-C ,  8-H ) :   0.7997 B(  0-C ,  9-H ) :   0.8083 B(  1-C ,  2-C ) :   1.0818
B(  1-C ,  3-H ) :   0.8411 B(  1-C ,  4-H ) :   0.9445 B(  1-C ,  7-H ) :   0.1708
B(  1-C ,  8-H ) :   0.1919 B(  1-C ,  9-H ) :   0.1725 B(  2-C ,  5-F ) :   0.7529
B(  2-C ,  6-O ) :   1.8109 B(  5-F ,  6-O ) :   0.1034

Dispersion correction           -0.010427987
FINAL SINGLE POINT ENERGY      -292.056379511900

DIPOLE MOMENT
-------------
                                X             Y             Z
Electronic contribution:      0.83917      -8.16068      -2.57000
Nuclear contribution   :     -1.80992       8.85192       2.42184
                        -----------------------------------------
Total Dipole Moment    :     -0.97075       0.69125      -0.14815
                        -----------------------------------------
Magnitude (a.u.)       :      1.20089
Magnitude (Debye)      :      3.05242

Rotational constants in cm-1:     0.298360     0.128849     0.102271
Rotational constants in MHz :  8944.606599  3862.796179  3066.020510

                             ****ORCA TERMINATED NORMALLY****
TOTAL RUN TIME: 0 days 0 hours 0 minutes 14 seconds 687 msec
