                         Program Version 5.0.0 -  RELEASE  -
|  1> !B3LYP D3BJ RIJCOSX def2-SVPD def2/J TightSCF
|  2> *xyz 0 1
|  3> C          0.81607       -2.10149       -2.18655
|  4> H          1.69623       -2.36869       -1.60046
|  5> C          1.10055       -2.46749       -3.59927
|  6> C          0.51624       -0.61363       -2.03937
|  7> H         -0.02007       -2.71285       -1.84084
|  8> H          1.70061       -1.75723       -4.07838
|  9> H          0.29386       -2.35977       -4.25632
| 10> H          1.50132       -3.42848       -3.69491
| 11> H         -0.34841       -0.36504       -2.61858
| 12> H          1.35358       -0.04503       -2.38643
| 13> H          0.33317       -0.38682       -1.00984
| 14> *
| 15> %MaxCore 64000
| 16>
| 17> %pal nprocs 4
| 18> end
| 19>
| 20> %scf
| 21>   MaxIter 150
| 22> end
| 23>
| 24>
| 25>                          ****END OF INPUT****

CARTESIAN COORDINATES (ANGSTROEM)
---------------------------------
  C      0.816070   -2.101490   -2.186550
  H      1.696230   -2.368690   -1.600460
  C      1.100550   -2.467490   -3.599270
  C      0.516240   -0.613630   -2.039370
  H     -0.020070   -2.712850   -1.840840
  H      1.700610   -1.757230   -4.078380
  H      0.293860   -2.359770   -4.256320
  H      1.501320   -3.428480   -3.694910
  H     -0.348410   -0.365040   -2.618580
  H      1.353580   -0.045030   -2.386430
  H      0.333170   -0.386820   -1.009840

 Total Charge           Charge          ....    0
 Multiplicity           Mult            ....    1
 Number of Electrons    NEL             ....   26
 Basis Dimension        Dim             ....  124

ORBITAL ENERGIES
----------------

  NO   OCC          E(Eh)            E(eV)
   0   2.0000     -10.172109      -276.7972
   1   2.0000     -10.163261      -276.5564
   2   2.0000     -10.151260      -276.2298
   3   2.0000      -0.782795       -21.3009
   4   2.0000      -0.681902       -18.5555
   5   2.0000      -0.584416       -15.9028
   6   2.0000      -0.459783       -12.5113
   7   2.0000      -0.445725       -12.1288
   8   2.0000      -0.412921       -11.2362
   9   2.0000      -0.376515       -10.2455
  10   2.0000      -0.342924        -9.3314
  11   2.0000      -0.338371        -9.2075
  12   2.0000      -0.321736        -8.7549
  13   0.0000       0.025130         0.6838
  14   0.0000       0.053543         1.4570
  15   0.0000       0.059183         1.6105
  16   0.0000       0.083503         2.2722
  17   0.0000       0.103309         2.8112

MULLIKEN ATOMIC CHARGES
-----------------------
   0 C :   -0.330175
   1 H :   -0.156400
   2 C :    1.005875
   3 C :    0.830934
   4 H :   -0.181655
   5 H :   -0.263810
   6 H :   -0.248734
   7 H :   -0.250222
   8 H :   -0.115314
   9 H :   -0.104219
  10 H :   -0.186280
Sum of atomic charges:   -0.0000000

LOEWDIN ATOMIC CHARGES
----------------------
   0 C :   -0.112071
   1 H :    0.017616
   2 C :    0.107957
   3 C :    0.123846
   4 H :    0.018319
   5 H :   -0.033620
   6 H :   -0.030817
   7 H :   -0.026397
   8 H :   -0.018943
   9 H :   -0.020402
  10 H :   -0.025489

  Mayer bond orders larger than 0.100000
B(  0-C ,  1-H ) :   0.8808 B(  0-C ,  2-C ) :   1.2889 B(  0-C ,  3-C ) :   1.2795
B(  0-C ,  4-H ) :   0.9047 B(  0-C ,  5-H ) :   0.1941 B(  0-C ,  6-H ) :   0.1979
B(  0-C ,  7-H ) :   0.2096 B(  0-C ,  8-H ) :   0.2016 B(  0-C ,  9-H ) :   0.1867
B(  0-C , 10-H ) :   0.2059 B(  1-H ,  2-C ) :   0.1068 B(  2-C ,  4-H ) :   0.1193
B(  2-C ,  5-H ) :   0.6564 B(  2-C ,  6-H ) :   0.6367 B(  2-C ,  7-H ) :   0.7270
B(  3-C ,  8-H ) :   0.7896 B(  3-C ,  9-H ) :   0.8010 B(  3-C , 10-H ) :   0.7873
B(  5-H ,  6-H ) :   0.3253

Dispersion correction           -0.010087108
FINAL SINGLE POINT ENERGY      -118.966130846059

DIPOLE MOMENT
-------------
                                X             Y             Z
Electronic contribution:     -0.01818      -0.30925       0.46455
Nuclear contribution   :      0.01737       0.30387      -0.47422
                        -----------------------------------------
Total Dipole Moment    :     -0.00081      -0.00537      -0.00967
                        -----------------------------------------
Magnitude (a.u.)       :      0.01109
Magnitude (Debye)      :      0.02819

Rotational constants in cm-1:     1.006891     0.295208     0.258491
Rotational constants in MHz : 30185.831813  8850.104914  7749.351732

                             ****ORCA TERMINATED NORMALLY****
TOTAL RUN TIME: 0 days 0 hours 0 minutes 13 seconds 900 msec
