                         Program Version 5.0.0 -  RELEASE  -
|  1> !B3LYP D3BJ RIJCOSX def2-SVPD def2/J TightSCF
|  2> *xyz 0 1
|  3> C         -0.10608        1.76991       -4.08984
|  4> C         -0.25875        1.00432       -5.40983
|  5> C          0.39596       -0.37070       -5.33994
|  6> H          0.23915        1.56939       -6.20125
|  7> H         -1.30936        0.88869       -5.68245
|  8> O         -0.32633       -1.39040       -5.49128
|  9> F          1.61941       -0.40073       -5.03683
| 10> H         -0.57627        2.72718       -4.17630
| 11> H          0.93321        1.90140       -3.87192
| 12> H         -0.56868        1.21534       -3.30031
| 13> *
| 14> %MaxCore 64000
| 15>
| 16> %pal nprocs 4
| 17> end
| 18>
| 19> %scf
| 20>   MaxIter 150
| 21> end
| 22>
| 23>
| 24>                          ****END OF INPUT****

CARTESIAN COORDINATES (ANGSTROEM)
---------------------------------
  C     -0.106080    1.769910   -4.089840
  C     -0.258750    1.004320   -5.409830
  C      0.395960   -0.370700   -5.339940
  H      0.239150    1.569390   -6.201250
  H     -1.309360    0.888690   -5.682450
  O     -0.326330   -1.390400   -5.491280
  F      1.619410   -0.400730   -5.036830
  H     -0.576270    2.727180   -4.176300
  H      0.933210    1.901400   -3.871920
  H     -0.568680    1.215340   -3.300310

 Total Charge           Charge          ....    0
 Multiplicity           Mult            ....    1
 Number of Electrons    NEL             ....   40
 Basis Dimension        Dim             ....  146

ORBITAL ENERGIES
----------------

  NO   OCC          E(Eh)            E(eV)
   0   2.0000     -24.768746      -673.9918
   1   2.0000     -19.150233      -521.1043
   2   2.0000     -10.366767      -282.0941
   3   2.0000     -10.218721      -278.0655
   4   2.0000     -10.196780      -277.4685
   5   2.0000      -1.304956       -35.5097
   6   2.0000      -1.024553       -27.8795
   7   2.0000      -0.801326       -21.8052
   8   2.0000      -0.684658       -18.6305
   9   2.0000      -0.643408       -17.5080
  10   2.0000      -0.553803       -15.0697
  11   2.0000      -0.541783       -14.7427
  12   2.0000      -0.502597       -13.6764
  13   2.0000      -0.468844       -12.7579
  14   2.0000      -0.438639       -11.9360
  15   2.0000      -0.407033       -11.0759
  16   2.0000      -0.388639       -10.5754
  17   2.0000      -0.382045       -10.3960
  18   2.0000      -0.355836        -9.6828
  19   2.0000      -0.294623        -8.0171
  20   0.0000      -0.036740        -0.9997
  21   0.0000       0.010109         0.2751
  22   0.0000       0.043915         1.1950
  23   0.0000       0.054725         1.4891
  24   0.0000       0.071793         1.9536

MULLIKEN ATOMIC CHARGES
-----------------------
   0 C :    0.767918
   1 C :   -0.120965
   2 C :    0.721513
   3 H :   -0.028057
   4 H :   -0.129084
   5 O :   -0.458217
   6 F :   -0.389967
   7 H :   -0.127304
   8 H :   -0.104292
   9 H :   -0.131547
Sum of atomic charges:   -0.0000000

LOEWDIN ATOMIC CHARGES
----------------------
   0 C :    0.146934
   1 C :    0.015525
   2 C :   -0.015809
   3 H :    0.031749
   4 H :    0.032424
   5 O :   -0.133635
   6 F :   -0.036122
   7 H :   -0.014873
   8 H :   -0.016496
   9 H :   -0.009697

  Mayer bond orders larger than 0.100000
B(  0-C ,  1-C ) :   1.2854 B(  0-C ,  7-H ) :   0.8195 B(  0-C ,  8-H ) :   0.7906
B(  0-C ,  9-H ) :   0.8219 B(  1-C ,  2-C ) :   1.0556 B(  1-C ,  3-H ) :   0.8430
B(  1-C ,  4-H ) :   0.9612 B(  1-C ,  7-H ) :   0.1699 B(  1-C ,  8-H ) :   0.1854
B(  1-C ,  9-H ) :   0.1676 B(  2-C ,  4-H ) :   0.1435 B(  2-C ,  5-O ) :   1.8138
B(  2-C ,  6-F ) :   0.7228 B(  5-O ,  6-F ) :   0.1128

Dispersion correction           -0.010355853
FINAL SINGLE POINT ENERGY      -292.057814237102

DIPOLE MOMENT
-------------
                                X             Y             Z
Electronic contribution:      4.06792      -6.48666      -1.80836
Nuclear contribution   :     -3.93139       7.77287       1.92635
                        -----------------------------------------
Total Dipole Moment    :      0.13653       1.28621       0.11799
                        -----------------------------------------
Magnitude (a.u.)       :      1.29881
Magnitude (Debye)      :      3.30131

Rotational constants in cm-1:     0.286068     0.133630     0.103472
Rotational constants in MHz :  8576.109806  4006.118234  3102.010802

                             ****ORCA TERMINATED NORMALLY****
TOTAL RUN TIME: 0 days 0 hours 0 minutes 15 seconds 820 msec
