                         Program Version 5.0.0 -  RELEASE  -
|  1> !B3LYP D3BJ RIJCOSX def2-SVPD def2/J TightSCF xyzfile
|  2>
|  3> *xyzfile 0 1 D1.xyz
|  4>
|  5> %MaxCore 64000
|  6>
|  7> %pal nprocs 4
|  8> end
|  9>
| 10> %scf
| 11>   MaxIter 150
| 12> end
| 13>
| 14>
| 15>                          ****END OF INPUT****

CARTESIAN COORDINATES (ANGSTROEM)
---------------------------------
  C      0.816067   -2.101491   -2.186546
  H      1.696232   -2.368691   -1.600457
  C      1.100552   -2.467492   -3.599269
  C      0.516243   -0.613634   -2.039373
  H     -0.020066   -2.712849   -1.840844
  C     -0.868621   -0.193925   -2.546303
  C     -0.984801    1.284739   -2.928686
  H     -0.764939    1.904116   -2.051568
  H     -2.032613    1.478953   -3.178952
  C     -0.106085    1.769914   -4.089836
  H     -0.347744    2.822196   -4.262942
  H      0.949683    1.745875   -3.808781
  C     -0.258747    1.004323   -5.409829
  C      0.395958   -0.370696   -5.339939
  H      0.239150    1.569393   -6.201253
  H     -1.309360    0.888694   -5.682455
  H      1.700606   -1.757225   -4.078378
  H      0.293855   -2.359766   -4.256324
  H      1.501324   -3.428479   -3.694915
  F     -0.326329   -1.390398   -5.491279
  O      1.619412   -0.400726   -5.036827
  H     -1.607271   -0.412651   -1.768955
  H     -1.157234   -0.796164   -3.409254
  H      1.299044   -0.056805   -2.558982
  H      0.612393   -0.365579   -0.979171

 Total Charge           Charge          ....    0
 Multiplicity           Mult            ....    1
 Number of Electrons    NEL             ....   80
 Basis Dimension        Dim             ....  326

ORBITAL ENERGIES
----------------

  NO   OCC          E(Eh)            E(eV)
   0   2.0000     -24.777462      -674.2290
   1   2.0000     -19.154908      -521.2315
   2   2.0000     -10.374134      -282.2945
   3   2.0000     -10.218420      -278.0573
   4   2.0000     -10.197903      -277.4991
   5   2.0000     -10.186083      -277.1774
   6   2.0000     -10.178469      -276.9702
   7   2.0000     -10.164706      -276.5957
   8   2.0000     -10.155588      -276.3476
   9   2.0000     -10.108057      -275.0542
  10   2.0000      -1.318798       -35.8863
  11   2.0000      -1.038438       -28.2573
  12   2.0000      -0.819559       -22.3013
  13   2.0000      -0.787062       -21.4171
  14   2.0000      -0.739358       -20.1190
  15   2.0000      -0.702845       -19.1254
  16   2.0000      -0.664705       -18.0876
  17   2.0000      -0.634499       -17.2656
  18   2.0000      -0.597637       -16.2625
  19   2.0000      -0.562507       -15.3066
  20   2.0000      -0.552184       -15.0257
  21   2.0000      -0.542090       -14.7510
  22   2.0000      -0.524957       -14.2848
  23   2.0000      -0.479165       -13.0387
  24   2.0000      -0.458888       -12.4870
  25   2.0000      -0.444163       -12.0863
  26   2.0000      -0.439024       -11.9465
  27   2.0000      -0.427288       -11.6271
  28   2.0000      -0.412820       -11.2334
  29   2.0000      -0.402538       -10.9536
  30   2.0000      -0.383743       -10.4422
  31   2.0000      -0.369469       -10.0538
  32   2.0000      -0.365254        -9.9391
  33   2.0000      -0.352571        -9.5940
  34   2.0000      -0.339947        -9.2504
  35   2.0000      -0.327963        -8.9243
  36   2.0000      -0.319127        -8.6839
  37   2.0000      -0.308383        -8.3915
  38   2.0000      -0.299516        -8.1503
  39   2.0000      -0.266837        -7.2610
  40   0.0000      -0.049676        -1.3518
  41   0.0000       0.012736         0.3466
  42   0.0000       0.034619         0.9420
  43   0.0000       0.038904         1.0586
  44   0.0000       0.040791         1.1100

MULLIKEN ATOMIC CHARGES
-----------------------
   0 C :    0.354050
   1 H :   -0.199059
   2 C :    1.582619
   3 C :    0.360598
   4 H :   -0.264946
   5 C :    0.340606
   6 C :    0.521309
   7 H :   -0.157139
   8 H :   -0.036438
   9 C :    0.227798
  10 H :   -0.304720
  11 H :    0.032081
  12 C :    0.429730
  13 C :    0.513567
  14 H :   -0.076987
  15 H :   -0.112460
  16 H :   -0.346622
  17 H :   -0.425403
  18 H :   -0.366657
  19 F :   -0.483600
  20 O :   -0.552379
  21 H :   -0.215471
  22 H :   -0.361827
  23 H :   -0.081159
  24 H :   -0.377491
Sum of atomic charges:    0.0000000

LOEWDIN ATOMIC CHARGES
----------------------
   0 C :   -0.041385
   1 H :    0.018365
   2 C :    0.134324
   3 C :   -0.014390
   4 H :    0.018296
   5 C :   -0.009186
   6 C :   -0.017722
   7 H :    0.023736
   8 H :    0.017805
   9 C :   -0.007595
  10 H :    0.021768
  11 H :    0.015652
  12 C :    0.071968
  13 C :    0.029277
  14 H :    0.039822
  15 H :    0.027190
  16 H :   -0.101631
  17 H :   -0.078932
  18 H :   -0.016572
  19 F :   -0.046717
  20 O :   -0.122519
  21 H :    0.024084
  22 H :   -0.004548
  23 H :    0.003289
  24 H :    0.015622

  Mayer bond orders larger than 0.100000
B(  0-C ,  1-H ) :   0.7189 B(  0-C ,  2-C ) :   1.0517 B(  0-C ,  3-C ) :   1.1570
B(  0-C ,  4-H ) :   0.7331 B(  0-C , 16-H ) :   0.3088 B(  0-C , 17-H ) :   0.2312
B(  0-C , 18-H ) :   0.2100 B(  0-C , 23-H ) :   0.1784 B(  0-C , 24-H ) :   0.1122
B(  1-H ,  3-C ) :   0.1992 B(  1-H ,  4-H ) :  -0.1612 B(  2-C ,  3-C ) :   0.1834
B(  2-C ,  4-H ) :   0.1716 B(  2-C , 16-H ) :   0.3739 B(  2-C , 17-H ) :   0.1694
B(  2-C , 18-H ) :   0.4834 B(  2-C , 23-H ) :  -0.1856 B(  2-C , 24-H ) :   0.1327
B(  3-C ,  4-H ) :   0.1031 B(  3-C ,  5-C ) :   1.1313 B(  3-C , 21-H ) :   0.2647
B(  3-C , 22-H ) :   0.1259 B(  3-C , 23-H ) :   0.7819 B(  3-C , 24-H ) :   0.8044
B(  5-C ,  6-C ) :   1.2007 B(  5-C ,  7-H ) :   0.1852 B(  5-C ,  8-H ) :   0.2437
B(  5-C ,  9-C ) :   0.1140 B(  5-C , 21-H ) :   0.7086 B(  5-C , 22-H ) :   0.7650
B(  5-C , 23-H ) :   0.1305 B(  5-C , 24-H ) :   0.2109 B(  6-C ,  7-H ) :   0.7537
B(  6-C ,  8-H ) :   0.6040 B(  6-C ,  9-C ) :   1.2169 B(  6-C , 10-H ) :   0.1699
B(  6-C , 11-H ) :   0.1131 B(  6-C , 21-H ) :   0.1283 B(  6-C , 22-H ) :   0.1130
B(  7-H ,  8-H ) :  -0.1066 B(  7-H ,  9-C ) :   0.1693 B(  8-H ,  9-C ) :   0.1666
B(  9-C , 10-H ) :   0.8100 B(  9-C , 11-H ) :   0.7873 B(  9-C , 12-C ) :   1.2035
B(  9-C , 14-H ) :   0.1938 B(  9-C , 15-H ) :   0.1229 B( 10-H , 11-H ) :  -0.1349
B( 10-H , 12-C ) :   0.1426 B( 11-H , 12-C ) :   0.1086 B( 12-C , 13-C ) :   1.2140
B( 12-C , 14-H ) :   0.6496 B( 12-C , 15-H ) :   0.8333 B( 13-C , 14-H ) :   0.2179
B( 13-C , 15-H ) :   0.1797 B( 13-C , 16-H ) :   0.1109 B( 13-C , 17-H ) :   0.1338
B( 13-C , 19-F ) :   0.6620 B( 13-C , 20-O ) :   1.7223 B( 16-H , 17-H ) :   0.4277
B( 16-H , 20-O ) :   0.1909 B( 16-H , 23-H ) :   0.2433 B( 16-H , 24-H ) :  -0.1919
B( 17-H , 19-F ) :   0.2198 B( 18-H , 23-H ) :  -0.1463

Dispersion correction           -0.042805814
FINAL SINGLE POINT ENERGY      -488.318736695590

DIPOLE MOMENT
-------------
                                X             Y             Z
Electronic contribution:      0.34251      -1.97565     -10.56831
Nuclear contribution   :     -1.21560       2.80077      10.24180
                        -----------------------------------------
Total Dipole Moment    :     -0.87309       0.82512      -0.32650
                        -----------------------------------------
Magnitude (a.u.)       :      1.24487
Magnitude (Debye)      :      3.16422

Rotational constants in cm-1:     0.051255     0.042531     0.028894
Rotational constants in MHz :  1536.587743  1275.050721   866.218876

                             ****ORCA TERMINATED NORMALLY****
TOTAL RUN TIME: 0 days 0 hours 1 minutes 34 seconds 661 msec
