                         Program Version 5.0.0 -  RELEASE  -
|  1> !PBE0 D3BJ RIJCOSX def2-TZVPD def2/J TightSCF
|  2> *xyz -1 1
|  3> C          4.08422        1.74208       -2.11472
|  4> C          4.26524        2.50052       -0.79589
|  5> H          4.86853        3.39267       -0.98113
|  6> H          3.30764        2.82457       -0.38781
|  7> C          4.98224        1.65026        0.24742
|  8> O          4.36806        1.38927        1.31371
|  9> O          6.12892        1.23351       -0.04562
| 10> H          3.57911        2.36849       -2.81997
| 11> H          3.50424        0.85965       -1.94198
| 12> H          5.04288        1.46841       -2.50327
| 13> *
| 14> %MaxCore 64000
| 15> %pal nprocs 8
| 16> end
| 17> %scf
| 18>   MaxIter 150
| 19> end
| 20>
| 21>
| 22>                          ****END OF INPUT****

CARTESIAN COORDINATES (ANGSTROEM)
---------------------------------
  C      4.084220    1.742080   -2.114720
  C      4.265240    2.500520   -0.795890
  H      4.868530    3.392670   -0.981130
  H      3.307640    2.824570   -0.387810
  C      4.982240    1.650260    0.247420
  O      4.368060    1.389270    1.313710
  O      6.128920    1.233510   -0.045620
  H      3.579110    2.368490   -2.819970
  H      3.504240    0.859650   -1.941980
  H      5.042880    1.468410   -2.503270

 Total Charge           Charge          ....   -1
 Multiplicity           Mult            ....    1
 Number of Electrons    NEL             ....   40
 Basis Dimension        Dim             ....  236

ORBITAL ENERGIES
----------------

  NO   OCC          E(Eh)            E(eV)
   0   2.0000     -18.938890      -515.3534
   1   2.0000     -18.938883      -515.3532
   2   2.0000     -10.099163      -274.8122
   3   2.0000     -10.055857      -273.6338
   4   2.0000     -10.045542      -273.3531
   5   2.0000      -0.847628       -23.0651
   6   2.0000      -0.753399       -20.5010
   7   2.0000      -0.628035       -17.0897
   8   2.0000      -0.493314       -13.4238
   9   2.0000      -0.336635        -9.1603
  10   2.0000      -0.305319        -8.3082
  11   2.0000      -0.274708        -7.4752
  12   2.0000      -0.243560        -6.6276
  13   2.0000      -0.226568        -6.1652
  14   2.0000      -0.221156        -6.0180
  15   2.0000      -0.189848        -5.1660
  16   2.0000      -0.173624        -4.7246
  17   2.0000      -0.059752        -1.6259
  18   2.0000      -0.052611        -1.4316
  19   2.0000      -0.039555        -1.0764
  20   0.0000       0.140162         3.8140
  21   0.0000       0.165374         4.5001
  22   0.0000       0.176795         4.8108
  23   0.0000       0.187916         5.1134
  24   0.0000       0.212945         5.7945

MULLIKEN ATOMIC CHARGES
-----------------------
   0 C :   -0.772378
   1 C :    0.153253
   2 H :    0.100121
   3 H :    0.101970
   4 C :    0.271731
   5 O :   -0.701612
   6 O :   -0.709896
   7 H :    0.164042
   8 H :    0.204022
   9 H :    0.188748
Sum of atomic charges:   -1.0000000

LOEWDIN ATOMIC CHARGES
----------------------
   0 C :   -0.131943
   1 C :   -0.213208
   2 H :    0.094068
   3 H :    0.087475
   4 C :   -0.781782
   5 O :   -0.111058
   6 O :   -0.103365
   7 H :    0.042020
   8 H :    0.061878
   9 H :    0.055915

  Mayer bond orders larger than 0.100000
B(  0-C ,  1-C ) :   0.7155 B(  0-C ,  4-C ) :   0.2011 B(  0-C ,  7-H ) :   0.9772
B(  0-C ,  8-H ) :   0.9828 B(  0-C ,  9-H ) :   1.0230 B(  1-C ,  2-H ) :   0.9401
B(  1-C ,  3-H ) :   1.0153 B(  1-C ,  4-C ) :   0.9264 B(  4-C ,  5-O ) :   1.4804
B(  4-C ,  6-O ) :   1.4999

Dispersion correction           -0.005468256
FINAL SINGLE POINT ENERGY      -267.647990400303

DIPOLE MOMENT
-------------
                                X             Y             Z
Electronic contribution:      2.44415      -1.47642       5.12066
Nuclear contribution   :     -3.31311       2.28398      -6.76358
                        -----------------------------------------
Total Dipole Moment    :     -0.86897       0.80756      -1.64292
                        -----------------------------------------
Magnitude (a.u.)       :      2.02644
Magnitude (Debye)      :      5.15079

Rotational constants in cm-1:     0.309287     0.135287     0.107346
Rotational constants in MHz :  9272.201029  4055.789113  3218.155789

                             ****ORCA TERMINATED NORMALLY****
TOTAL RUN TIME: 0 days 0 hours 0 minutes 15 seconds 734 msec
