                         Program Version 5.0.0 -  RELEASE  -
|  1> !PBE0 D3BJ RIJCOSX def2-TZVPD def2/J TightSCF
|  2> *xyz 1 1
|  3> C          3.91385       -1.65829        3.01513
|  4> N          5.03927       -0.90115        2.49282
|  5> C          6.21038       -1.41726        2.17824
|  6> N          6.53591       -2.67712        2.55608
|  7> N          7.07675       -0.70082        1.47891
|  8> H          7.95464       -1.12155        1.20755
|  9> H          6.75616        0.10664        0.96028
| 10> H          4.84217        0.01761        2.11519
| 11> H          5.99388       -3.12692        3.28278
| 12> C          3.13916       -2.37657        1.91061
| 13> H          3.26723       -0.93940        3.52069
| 14> H          4.24720       -2.35509        3.79006
| 15> H          7.49844       -2.97548        2.46878
| 16> H          2.82969       -1.66654        1.17238
| 17> H          2.27790       -2.85264        2.33072
| 18> H          3.76754       -3.11338        1.45548
| 19> *
| 20> %MaxCore 64000
| 21> %pal nprocs 8
| 22> end
| 23> %scf
| 24>   MaxIter 150
| 25> end
| 26>
| 27>
| 28>                          ****END OF INPUT****

CARTESIAN COORDINATES (ANGSTROEM)
---------------------------------
  C      3.913850   -1.658290    3.015130
  N      5.039270   -0.901150    2.492820
  C      6.210380   -1.417260    2.178240
  N      6.535910   -2.677120    2.556080
  N      7.076750   -0.700820    1.478910
  H      7.954640   -1.121550    1.207550
  H      6.756160    0.106640    0.960280
  H      4.842170    0.017610    2.115190
  H      5.993880   -3.126920    3.282780
  C      3.139160   -2.376570    1.910610
  H      3.267230   -0.939400    3.520690
  H      4.247200   -2.355090    3.790060
  H      7.498440   -2.975480    2.468780
  H      2.829690   -1.666540    1.172380
  H      2.277900   -2.852640    2.330720
  H      3.767540   -3.113380    1.455480

 Total Charge           Charge          ....    1
 Multiplicity           Mult            ....    1
 Number of Electrons    NEL             ....   48
 Basis Dimension        Dim             ....  312

ORBITAL ENERGIES
----------------

  NO   OCC          E(Eh)            E(eV)
   0   2.0000     -14.610668      -397.5765
   1   2.0000     -14.607083      -397.4789
   2   2.0000     -14.605024      -397.4229
   3   2.0000     -10.555321      -287.2249
   4   2.0000     -10.430249      -283.8215
   5   2.0000     -10.354671      -281.7649
   6   2.0000      -1.244770       -33.8719
   7   2.0000      -1.134068       -30.8596
   8   2.0000      -1.116871       -30.3916
   9   2.0000      -0.954558       -25.9748
  10   2.0000      -0.862476       -23.4692
  11   2.0000      -0.821331       -22.3495
  12   2.0000      -0.802828       -21.8461
  13   2.0000      -0.760882       -20.7046
  14   2.0000      -0.706684       -19.2298
  15   2.0000      -0.700952       -19.0739
  16   2.0000      -0.669600       -18.2207
  17   2.0000      -0.644743       -17.5443
  18   2.0000      -0.615885       -16.7591
  19   2.0000      -0.576072       -15.6757
  20   2.0000      -0.544982       -14.8297
  21   2.0000      -0.524995       -14.2858
  22   2.0000      -0.491487       -13.3740
  23   2.0000      -0.463175       -12.6036
  24   0.0000      -0.166353        -4.5267
  25   0.0000      -0.154837        -4.2133
  26   0.0000      -0.123573        -3.3626
  27   0.0000      -0.114965        -3.1284
  28   0.0000      -0.092157        -2.5077

MULLIKEN ATOMIC CHARGES
-----------------------
   0 C :   -0.393035
   1 N :   -0.030246
   2 C :    0.479252
   3 N :   -0.225947
   4 N :   -0.233118
   5 H :    0.192899
   6 H :    0.199968
   7 H :    0.216950
   8 H :    0.173015
   9 C :   -0.729144
  10 H :    0.203403
  11 H :    0.233582
  12 H :    0.192042
  13 H :    0.236412
  14 H :    0.244211
  15 H :    0.239755
Sum of atomic charges:    1.0000000

LOEWDIN ATOMIC CHARGES
----------------------
   0 C :   -0.205570
   1 N :    0.085609
   2 C :   -0.438432
   3 N :    0.213112
   4 N :    0.208223
   5 H :    0.139321
   6 H :    0.141884
   7 H :    0.171354
   8 H :    0.121763
   9 C :   -0.057476
  10 H :    0.132322
  11 H :    0.118415
  12 H :    0.135936
  13 H :    0.078585
  14 H :    0.083209
  15 H :    0.071746

  Mayer bond orders larger than 0.100000
B(  0-C ,  1-N ) :   0.9942 B(  0-C ,  9-C ) :   0.9049 B(  0-C , 10-H ) :   0.9736
B(  0-C , 11-H ) :   0.9053 B(  1-N ,  2-C ) :   1.2605 B(  1-N ,  7-H ) :   0.9581
B(  2-C ,  3-N ) :   1.2045 B(  2-C ,  4-N ) :   1.2133 B(  3-N ,  8-H ) :   0.9523
B(  3-N , 12-H ) :   0.9948 B(  4-N ,  5-H ) :   0.9793 B(  4-N ,  6-H ) :   0.9667
B(  9-C , 13-H ) :   0.9823 B(  9-C , 14-H ) :   0.9821 B(  9-C , 15-H ) :   0.9756

Dispersion correction           -0.010474440
FINAL SINGLE POINT ENERGY      -284.183970600550

DIPOLE MOMENT
-------------
                                X             Y             Z
Electronic contribution:      4.68755       1.90151       0.07448
Nuclear contribution   :     -3.67981      -1.62355      -0.28562
                        -----------------------------------------
Total Dipole Moment    :      1.00774       0.27796      -0.21114
                        -----------------------------------------
Magnitude (a.u.)       :      1.06648
Magnitude (Debye)      :      2.71079

Rotational constants in cm-1:     0.222027     0.074735     0.065694
Rotational constants in MHz :  6656.200457  2240.503315  1969.451902

                             ****ORCA TERMINATED NORMALLY****
TOTAL RUN TIME: 0 days 0 hours 0 minutes 34 seconds 413 msec
