                         Program Version 5.0.0 -  RELEASE  -
|  1> !PBE0 D3BJ RIJCOSX def2-TZVPD def2/J TightSCF xyzfile
|  2>
|  3> *xyzfile 0 1 B.xyz
|  4>
|  5> %MaxCore 64000
|  6>
|  7> %pal nprocs 4
|  8> end
|  9>
| 10> %scf
| 11>   MaxIter 150
| 12> end
| 13>
| 14>
| 15>                          ****END OF INPUT****

CARTESIAN COORDINATES (ANGSTROEM)
---------------------------------
  C      3.913853   -1.658291    3.015134
  N      5.039266   -0.901154    2.492821
  C      4.084215    1.742081   -2.114724
  C      4.265245    2.500518   -0.795890
  H      4.868534    3.392674   -0.981134
  H      3.307640    2.824571   -0.387809
  C      4.982240    1.650257    0.247422
  C      6.210384   -1.417261    2.178244
  N      6.535913   -2.677122    2.556078
  N      7.076754   -0.700820    1.478906
  H      7.954643   -1.121554    1.207554
  H      6.756161    0.106637    0.960278
  H      4.842168    0.017609    2.115191
  H      5.993876   -3.126918    3.282784
  H      7.498441   -2.975482    2.468776
  O      4.368065    1.389270    1.313706
  O      6.128919    1.233512   -0.045620
  C      3.139159   -2.376572    1.910609
  H      3.267235   -0.939401    3.520693
  H      4.247195   -2.355095    3.790065
  C      1.997274    0.430918   -1.399218
  C      3.412746    0.376886   -1.965497
  H      4.047407   -0.246590   -1.326706
  H      3.390774   -0.118719   -2.942839
  H      5.068475    1.598504   -2.565728
  H      3.503356    2.363939   -2.804565
  C      2.399946   -1.389579    1.009490
  H      2.440750   -3.087118    2.362976
  H      3.844475   -2.970462    1.318677
  C      2.070177   -1.936705   -0.372401
  H      1.481611   -1.061542    1.509912
  H      3.008628   -0.490001    0.897451
  C      1.322238   -0.935775   -1.256413
  H      1.472747   -2.850902   -0.283997
  H      3.003539   -2.234041   -0.862535
  H      1.376444    1.058920   -2.047420
  H      2.015341    0.929780   -0.426535
  H      0.316648   -0.787213   -0.848278
  H      1.185611   -1.379252   -2.248613

 Total Charge           Charge          ....    0
 Multiplicity           Mult            ....    1
 Number of Electrons    NEL             ....  126
 Basis Dimension        Dim             ....  805

ORBITAL ENERGIES
----------------

  NO   OCC          E(Eh)            E(eV)
   0   2.0000     -19.125312      -520.4262
   1   2.0000     -19.124096      -520.3931
   2   2.0000     -14.449492      -393.1907
   3   2.0000     -14.417186      -392.3116
   4   2.0000     -14.409652      -392.1066
   5   2.0000     -10.378999      -282.4269
   6   2.0000     -10.278968      -279.7049
   7   2.0000     -10.278415      -279.6899
   8   2.0000     -10.229086      -278.3476
   9   2.0000     -10.206986      -277.7462
  10   2.0000     -10.206469      -277.7321
  11   2.0000     -10.202731      -277.6304
  12   2.0000     -10.193604      -277.3821
  13   2.0000     -10.192028      -277.3392
  14   2.0000     -10.191446      -277.3233
  15   2.0000     -10.182220      -277.0723
  16   2.0000      -1.069680       -29.1075
  17   2.0000      -1.037626       -28.2352
  18   2.0000      -0.961195       -26.1555
  19   2.0000      -0.948022       -25.7970
  20   2.0000      -0.937961       -25.5232
  21   2.0000      -0.835206       -22.7271
  22   2.0000      -0.810334       -22.0503
  23   2.0000      -0.781049       -21.2534
  24   2.0000      -0.740436       -20.1483
  25   2.0000      -0.701480       -19.0882
  26   2.0000      -0.682443       -18.5702
  27   2.0000      -0.651729       -17.7345
  28   2.0000      -0.632408       -17.2087
  29   2.0000      -0.621379       -16.9086
  30   2.0000      -0.592817       -16.1314
  31   2.0000      -0.586381       -15.9563
  32   2.0000      -0.555821       -15.1247
  33   2.0000      -0.539239       -14.6734
  34   2.0000      -0.533552       -14.5187
  35   2.0000      -0.512449       -13.9444
  36   2.0000      -0.485504       -13.2112
  37   2.0000      -0.481197       -13.0940
  38   2.0000      -0.472559       -12.8590
  39   2.0000      -0.469159       -12.7665
  40   2.0000      -0.454679       -12.3724
  41   2.0000      -0.438071       -11.9205
  42   2.0000      -0.434637       -11.8271
  43   2.0000      -0.429528       -11.6880
  44   2.0000      -0.421116       -11.4591
  45   2.0000      -0.413081       -11.2405
  46   2.0000      -0.397341       -10.8122
  47   2.0000      -0.383762       -10.4427
  48   2.0000      -0.378420       -10.2973
  49   2.0000      -0.366482        -9.9725
  50   2.0000      -0.359956        -9.7949
  51   2.0000      -0.352013        -9.5788
  52   2.0000      -0.338609        -9.2140
  53   2.0000      -0.330653        -8.9975
  54   2.0000      -0.326285        -8.8787
  55   2.0000      -0.320664        -8.7257
  56   2.0000      -0.310043        -8.4367
  57   2.0000      -0.305433        -8.3113
  58   2.0000      -0.298511        -8.1229
  59   2.0000      -0.287904        -7.8343
  60   2.0000      -0.246477        -6.7070
  61   2.0000      -0.235209        -6.4004
  62   2.0000      -0.230563        -6.2739
  63   0.0000      -0.021561        -0.5867
  64   0.0000       0.000043         0.0012
  65   0.0000       0.007959         0.2166
  66   0.0000       0.023827         0.6484
  67   0.0000       0.028796         0.7836

MULLIKEN ATOMIC CHARGES
-----------------------
   0 C :   -0.765083
   1 N :    0.090410
   2 C :   -0.319824
   3 C :   -0.094180
   4 H :    0.121966
   5 H :    0.160284
   6 C :    0.541284
   7 C :    0.317562
   8 N :   -0.214565
   9 N :   -0.082930
  10 H :    0.193271
  11 H :    0.152915
  12 H :    0.129367
  13 H :    0.160039
  14 H :    0.175867
  15 O :   -0.823876
  16 O :   -0.859149
  17 C :   -0.148620
  18 H :    0.211123
  19 H :    0.220779
  20 C :   -0.269302
  21 C :   -0.249345
  22 H :    0.159768
  23 H :    0.111416
  24 H :    0.139663
  25 H :    0.107858
  26 C :    0.355335
  27 H :    0.174607
  28 H :    0.157255
  29 C :   -0.265746
  30 H :    0.201831
  31 H :   -0.374616
  32 C :   -0.360201
  33 H :    0.094836
  34 H :    0.261931
  35 H :    0.107648
  36 H :    0.195367
  37 H :    0.145834
  38 H :    0.139224
Sum of atomic charges:   -0.0000000

LOEWDIN ATOMIC CHARGES
----------------------
   0 C :   -0.169847
   1 N :    0.103293
   2 C :   -0.204797
   3 C :   -0.125360
   4 H :    0.116076
   5 H :    0.106208
   6 C :   -0.655419
   7 C :   -0.445030
   8 N :    0.175708
   9 N :    0.208261
  10 H :    0.124654
  11 H :    0.041243
  12 H :    0.073986
  13 H :    0.103548
  14 H :    0.116807
  15 O :   -0.051456
  16 O :   -0.038658
  17 C :   -0.185116
  18 H :    0.133362
  19 H :    0.106660
  20 C :   -0.216556
  21 C :   -0.212428
  22 H :    0.105915
  23 H :    0.116855
  24 H :    0.108893
  25 H :    0.109047
  26 C :   -0.213544
  27 H :    0.115525
  28 H :    0.112439
  29 C :   -0.221235
  30 H :    0.129176
  31 H :    0.086210
  32 C :   -0.214036
  33 H :    0.112174
  34 H :    0.109483
  35 H :    0.116361
  36 H :    0.104147
  37 H :    0.108963
  38 H :    0.108488

  Mayer bond orders larger than 0.100000
B(  0-C ,  1-N ) :   1.0473 B(  0-C ,  7-C ) :  -0.1577 B(  0-C , 17-C ) :   0.9578
B(  0-C , 18-H ) :   0.8670 B(  0-C , 19-H ) :   0.9441 B(  0-C , 26-C ) :   0.1705
B(  0-C , 31-H ) :   0.1239 B(  1-N ,  7-C ) :   1.2309 B(  1-N , 12-H ) :   0.7915
B(  1-N , 15-O ) :  -0.1397 B(  2-C ,  3-C ) :   0.8934 B(  2-C ,  6-C ) :   0.2544
B(  2-C , 20-C ) :   0.2537 B(  2-C , 21-C ) :   1.1552 B(  2-C , 24-H ) :   0.9083
B(  2-C , 25-H ) :   0.9061 B(  3-C ,  4-H ) :   0.8622 B(  3-C ,  5-H ) :   0.9619
B(  3-C ,  6-C ) :   1.0314 B(  3-C , 20-C ) :   0.1484 B(  6-C , 15-O ) :   1.3491
B(  6-C , 16-O ) :   1.2224 B(  7-C ,  8-N ) :   1.1526 B(  7-C ,  9-N ) :   1.2427
B(  7-C , 12-H ) :  -0.1698 B(  8-N , 13-H ) :   0.9575 B(  8-N , 14-H ) :   0.9866
B(  9-N , 10-H ) :   0.9481 B(  9-N , 11-H ) :   0.8893 B(  9-N , 16-O ) :  -0.1068
B( 11-H , 16-O ) :   0.1099 B( 12-H , 15-O ) :   0.1705 B( 15-O , 16-O ) :   0.1449
B( 17-C , 26-C ) :   0.8431 B( 17-C , 27-H ) :   0.9958 B( 17-C , 28-H ) :   0.8005
B( 17-C , 29-C ) :   0.4974 B( 17-C , 30-H ) :  -0.1442 B( 20-C , 21-C ) :   0.6312
B( 20-C , 32-C ) :   1.0746 B( 20-C , 35-H ) :   0.9304 B( 20-C , 36-H ) :   0.9688
B( 21-C , 22-H ) :   1.0191 B( 21-C , 23-H ) :   0.9075 B( 21-C , 29-C ) :   0.2080
B( 21-C , 32-C ) :   0.2036 B( 26-C , 29-C ) :   0.7208 B( 26-C , 30-H ) :   0.7158
B( 26-C , 31-H ) :   1.6225 B( 26-C , 32-C ) :   0.2736 B( 29-C , 31-H ) :  -0.1670
B( 29-C , 32-C ) :   1.0469 B( 29-C , 33-H ) :   0.9578 B( 29-C , 34-H ) :   0.8752
B( 30-H , 31-H ) :   0.1724 B( 32-C , 37-H ) :   0.9260 B( 32-C , 38-H ) :   0.9283

Dispersion correction           -0.039130278
FINAL SINGLE POINT ENERGY      -747.238744296833

DIPOLE MOMENT
-------------
                                X             Y             Z
Electronic contribution:     12.27962       3.31778       7.66892
Nuclear contribution   :    -11.44764      -6.21818      -6.18483
                        -----------------------------------------
Total Dipole Moment    :      0.83199      -2.90040       1.48409
                        -----------------------------------------
Magnitude (a.u.)       :      3.36259
Magnitude (Debye)      :      8.54703

Rotational constants in cm-1:     0.020281     0.013510     0.009451
Rotational constants in MHz :   608.005987   405.034308   283.324538

                             ****ORCA TERMINATED NORMALLY****
TOTAL RUN TIME: 0 days 0 hours 11 minutes 41 seconds 544 msec
