                         Program Version 5.0.0 -  RELEASE  -
|  1> !PBE0 D3BJ RIJCOSX def2-TZVPD def2/J TightSCF
|  2> *xyz 0 1
|  3> C          4.08422        1.74208       -2.11472
|  4> C          4.26524        2.50052       -0.79589
|  5> H          4.86853        3.39267       -0.98113
|  6> H          3.30764        2.82457       -0.38781
|  7> C          4.98224        1.65026        0.24742
|  8> F          4.36806        1.38927        1.31371
|  9> O          6.12892        1.23351       -0.04562
| 10> H          3.57911        2.36849       -2.81997
| 11> H          3.50424        0.85965       -1.94198
| 12> H          5.04288        1.46841       -2.50327
| 13> *
| 14> %MaxCore 64000
| 15> %pal nprocs 8
| 16> end
| 17> %scf
| 18>   MaxIter 150
| 19> end
| 20>
| 21>
| 22>                          ****END OF INPUT****

CARTESIAN COORDINATES (ANGSTROEM)
---------------------------------
  C      4.084220    1.742080   -2.114720
  C      4.265240    2.500520   -0.795890
  H      4.868530    3.392670   -0.981130
  H      3.307640    2.824570   -0.387810
  C      4.982240    1.650260    0.247420
  F      4.368060    1.389270    1.313710
  O      6.128920    1.233510   -0.045620
  H      3.579110    2.368490   -2.819970
  H      3.504240    0.859650   -1.941980
  H      5.042880    1.468410   -2.503270

 Total Charge           Charge          ....    0
 Multiplicity           Mult            ....    1
 Number of Electrons    NEL             ....   40
 Basis Dimension        Dim             ....  236

ORBITAL ENERGIES
----------------

  NO   OCC          E(Eh)            E(eV)
   0   2.0000     -24.841704      -675.9771
   1   2.0000     -19.211632      -522.7751
   2   2.0000     -10.398551      -282.9590
   3   2.0000     -10.254024      -279.0262
   4   2.0000     -10.225333      -278.2455
   5   2.0000      -1.351119       -36.7658
   6   2.0000      -1.063002       -28.9258
   7   2.0000      -0.825630       -22.4665
   8   2.0000      -0.711916       -19.3722
   9   2.0000      -0.659042       -17.9334
  10   2.0000      -0.565768       -15.3953
  11   2.0000      -0.552364       -15.0306
  12   2.0000      -0.527164       -14.3449
  13   2.0000      -0.480455       -13.0738
  14   2.0000      -0.450268       -12.2524
  15   2.0000      -0.414219       -11.2715
  16   2.0000      -0.393181       -10.6990
  17   2.0000      -0.387701       -10.5499
  18   2.0000      -0.360471        -9.8089
  19   2.0000      -0.307617        -8.3707
  20   0.0000      -0.027077        -0.7368
  21   0.0000       0.009828         0.2674
  22   0.0000       0.035241         0.9590
  23   0.0000       0.044818         1.2196
  24   0.0000       0.054754         1.4899

MULLIKEN ATOMIC CHARGES
-----------------------
   0 C :   -0.801345
   1 C :    0.118616
   2 H :    0.137955
   3 H :    0.149889
   4 C :    0.384131
   5 F :   -0.170217
   6 O :   -0.465394
   7 H :    0.179052
   8 H :    0.240528
   9 H :    0.226785
Sum of atomic charges:   -0.0000000

LOEWDIN ATOMIC CHARGES
----------------------
   0 C :   -0.087602
   1 C :   -0.157609
   2 H :    0.122346
   3 H :    0.108587
   4 C :   -0.489693
   5 F :    0.204837
   6 O :    0.080788
   7 H :    0.069513
   8 H :    0.075134
   9 H :    0.073699

  Mayer bond orders larger than 0.100000
B(  0-C ,  1-C ) :   0.7828 B(  0-C ,  4-C ) :   0.1941 B(  0-C ,  7-H ) :   0.9857
B(  0-C ,  8-H ) :   0.9448 B(  0-C ,  9-H ) :   1.0045 B(  1-C ,  2-H ) :   0.9290
B(  1-C ,  3-H ) :   0.9746 B(  1-C ,  4-C ) :   0.9112 B(  4-C ,  5-F ) :   1.0609
B(  4-C ,  6-O ) :   1.8139

Dispersion correction           -0.005181145
FINAL SINGLE POINT ENERGY      -292.203372750789

DIPOLE MOMENT
-------------
                                X             Y             Z
Electronic contribution:      1.91849      -2.04111       8.12957
Nuclear contribution   :     -2.87511       2.61564      -8.50037
                        -----------------------------------------
Total Dipole Moment    :     -0.95661       0.57452      -0.37080
                        -----------------------------------------
Magnitude (a.u.)       :      1.17587
Magnitude (Debye)      :      2.98883

Rotational constants in cm-1:     0.297822     0.128965     0.102219
Rotational constants in MHz :  8928.481997  3866.271686  3064.463504

                             ****ORCA TERMINATED NORMALLY****
TOTAL RUN TIME: 0 days 0 hours 0 minutes 16 seconds 34 msec
