                         Program Version 5.0.0 -  RELEASE  -
|  1> !PBE0 D3BJ RIJCOSX def2-TZVPD def2/J TightSCF
|  2> *xyz 0 1
|  3> C          3.91385       -1.65829        3.01513
|  4> C          5.03927       -0.90115        2.49282
|  5> C          6.21038       -1.41726        2.17824
|  6> N          6.53591       -2.67712        2.55608
|  7> N          7.07675       -0.70082        1.47891
|  8> H          7.95464       -1.12155        1.20755
|  9> H          6.75616        0.10664        0.96028
| 10> H          4.84217        0.01761        2.11519
| 11> H          5.99388       -3.12692        3.28278
| 12> C          3.13916       -2.37657        1.91061
| 13> H          3.26723       -0.93940        3.52069
| 14> H          4.24720       -2.35509        3.79006
| 15> H          7.49844       -2.97548        2.46878
| 16> H          2.82969       -1.66654        1.17238
| 17> H          2.27790       -2.85264        2.33072
| 18> H          3.76754       -3.11338        1.45548
| 19> *
| 20> %MaxCore 64000
| 21> %pal nprocs 8
| 22> end
| 23> %scf
| 24>   MaxIter 150
| 25> end
| 26>
| 27>
| 28>                          ****END OF INPUT****

CARTESIAN COORDINATES (ANGSTROEM)
---------------------------------
  C      3.913850   -1.658290    3.015130
  C      5.039270   -0.901150    2.492820
  C      6.210380   -1.417260    2.178240
  N      6.535910   -2.677120    2.556080
  N      7.076750   -0.700820    1.478910
  H      7.954640   -1.121550    1.207550
  H      6.756160    0.106640    0.960280
  H      4.842170    0.017610    2.115190
  H      5.993880   -3.126920    3.282780
  C      3.139160   -2.376570    1.910610
  H      3.267230   -0.939400    3.520690
  H      4.247200   -2.355090    3.790060
  H      7.498440   -2.975480    2.468780
  H      2.829690   -1.666540    1.172380
  H      2.277900   -2.852640    2.330720
  H      3.767540   -3.113380    1.455480

 Total Charge           Charge          ....    0
 Multiplicity           Mult            ....    1
 Number of Electrons    NEL             ....   48
 Basis Dimension        Dim             ....  312

ORBITAL ENERGIES
----------------

  NO   OCC          E(Eh)            E(eV)
   0   2.0000     -14.384558      -391.4237
   1   2.0000     -14.382703      -391.3732
   2   2.0000     -10.262348      -279.2527
   3   2.0000     -10.196153      -277.4514
   4   2.0000     -10.182142      -277.0702
   5   2.0000     -10.143123      -276.0084
   6   2.0000      -0.987539       -26.8723
   7   2.0000      -0.895706       -24.3734
   8   2.0000      -0.798040       -21.7158
   9   2.0000      -0.715784       -19.4775
  10   2.0000      -0.636146       -17.3104
  11   2.0000      -0.593787       -16.1578
  12   2.0000      -0.555688       -15.1210
  13   2.0000      -0.526245       -14.3198
  14   2.0000      -0.487233       -13.2583
  15   2.0000      -0.451791       -12.2939
  16   2.0000      -0.432260       -11.7624
  17   2.0000      -0.401633       -10.9290
  18   2.0000      -0.395274       -10.7560
  19   2.0000      -0.366758        -9.9800
  20   2.0000      -0.339950        -9.2505
  21   2.0000      -0.330606        -8.9962
  22   2.0000      -0.279513        -7.6059
  23   2.0000      -0.171500        -4.6667
  24   0.0000       0.004567         0.1243
  25   0.0000       0.031090         0.8460
  26   0.0000       0.035946         0.9781
  27   0.0000       0.048145         1.3101
  28   0.0000       0.063730         1.7342

MULLIKEN ATOMIC CHARGES
-----------------------
   0 C :   -0.231579
   1 C :   -0.517353
   2 C :    0.282424
   3 N :   -0.281345
   4 N :   -0.304163
   5 H :    0.132551
   6 H :    0.174663
   7 H :    0.267749
   8 H :    0.151927
   9 C :   -0.789159
  10 H :    0.096871
  11 H :    0.240140
  12 H :    0.135340
  13 H :    0.238991
  14 H :    0.189662
  15 H :    0.213283
Sum of atomic charges:    0.0000000

LOEWDIN ATOMIC CHARGES
----------------------
   0 C :   -0.286536
   1 C :   -0.151016
   2 C :   -0.548186
   3 N :    0.125259
   4 N :    0.108022
   5 H :    0.098514
   6 H :    0.112618
   7 H :    0.070487
   8 H :    0.095362
   9 C :   -0.105023
  10 H :    0.103356
  11 H :    0.094602
  12 H :    0.096024
  13 H :    0.066605
  14 H :    0.057191
  15 H :    0.062720

  Mayer bond orders larger than 0.100000
B(  0-C ,  1-C ) :   0.9645 B(  0-C ,  2-C ) :   0.1566 B(  0-C ,  9-C ) :   0.7126
B(  0-C , 10-H ) :   1.0895 B(  0-C , 11-H ) :   0.9217 B(  1-C ,  2-C ) :   1.4369
B(  1-C ,  7-H ) :   0.9447 B(  1-C ,  9-C ) :   0.2339 B(  2-C ,  3-N ) :   1.0794
B(  2-C ,  4-N ) :   1.1308 B(  2-C ,  7-H ) :  -0.1285 B(  3-N ,  8-H ) :   0.9588
B(  3-N , 12-H ) :   1.0403 B(  4-N ,  5-H ) :   1.0302 B(  4-N ,  6-H ) :   0.9777
B(  9-C , 13-H ) :   0.9943 B(  9-C , 14-H ) :   0.9904 B(  9-C , 15-H ) :   1.0014

Dispersion correction           -0.010896804
FINAL SINGLE POINT ENERGY      -267.710450646119

DIPOLE MOMENT
-------------
                                X             Y             Z
Electronic contribution:      4.60649       1.23705      -0.03724
Nuclear contribution   :     -3.74303      -1.46908      -0.23637
                        -----------------------------------------
Total Dipole Moment    :      0.86346      -0.23203      -0.27361
                        -----------------------------------------
Magnitude (a.u.)       :      0.93502
Magnitude (Debye)      :      2.37664

Rotational constants in cm-1:     0.225937     0.074877     0.065953
Rotational constants in MHz :  6773.424301  2244.750632  1977.214101

                             ****ORCA TERMINATED NORMALLY****
TOTAL RUN TIME: 0 days 0 hours 0 minutes 31 seconds 158 msec
