                         Program Version 5.0.0 -  RELEASE  -
|  1> !PBE0 D3BJ RIJCOSX def2-TZVPD def2/J TightSCF
|  2> *xyz 0 1
|  3> C          4.08422        1.74208       -2.11472
|  4> C          4.26524        2.50052       -0.79589
|  5> H          4.86853        3.39267       -0.98113
|  6> H          3.30764        2.82457       -0.38781
|  7> C          4.98224        1.65026        0.24742
|  8> O          4.36806        1.38927        1.31371
|  9> F          6.12892        1.23351       -0.04562
| 10> H          3.57911        2.36849       -2.81997
| 11> H          3.50424        0.85965       -1.94198
| 12> H          5.04288        1.46841       -2.50327
| 13> *
| 14> %MaxCore 64000
| 15> %pal nprocs 8
| 16> end
| 17> %scf
| 18>   MaxIter 150
| 19> end
| 20>
| 21>
| 22>                          ****END OF INPUT****

CARTESIAN COORDINATES (ANGSTROEM)
---------------------------------
  C      4.084220    1.742080   -2.114720
  C      4.265240    2.500520   -0.795890
  H      4.868530    3.392670   -0.981130
  H      3.307640    2.824570   -0.387810
  C      4.982240    1.650260    0.247420
  O      4.368060    1.389270    1.313710
  F      6.128920    1.233510   -0.045620
  H      3.579110    2.368490   -2.819970
  H      3.504240    0.859650   -1.941980
  H      5.042880    1.468410   -2.503270

 Total Charge           Charge          ....    0
 Multiplicity           Mult            ....    1
 Number of Electrons    NEL             ....   40
 Basis Dimension        Dim             ....  236

ORBITAL ENERGIES
----------------

  NO   OCC          E(Eh)            E(eV)
   0   2.0000     -24.842753      -676.0057
   1   2.0000     -19.211141      -522.7617
   2   2.0000     -10.398150      -282.9481
   3   2.0000     -10.253758      -279.0189
   4   2.0000     -10.229895      -278.3696
   5   2.0000      -1.353641       -36.8344
   6   2.0000      -1.059998       -28.8440
   7   2.0000      -0.829638       -22.5756
   8   2.0000      -0.709564       -19.3082
   9   2.0000      -0.664455       -18.0808
  10   2.0000      -0.568856       -15.4794
  11   2.0000      -0.557883       -15.1808
  12   2.0000      -0.520443       -14.1620
  13   2.0000      -0.481061       -13.0903
  14   2.0000      -0.451263       -12.2795
  15   2.0000      -0.417380       -11.3575
  16   2.0000      -0.397610       -10.8195
  17   2.0000      -0.390397       -10.6233
  18   2.0000      -0.364000        -9.9049
  19   2.0000      -0.302850        -8.2410
  20   0.0000      -0.024176        -0.6579
  21   0.0000       0.008296         0.2257
  22   0.0000       0.034968         0.9515
  23   0.0000       0.043945         1.1958
  24   0.0000       0.054760         1.4901

MULLIKEN ATOMIC CHARGES
-----------------------
   0 C :   -0.824192
   1 C :    0.153762
   2 H :    0.159121
   3 H :    0.120280
   4 C :    0.375891
   5 O :   -0.459375
   6 F :   -0.182364
   7 H :    0.177010
   8 H :    0.246519
   9 H :    0.233347
Sum of atomic charges:   -0.0000000

LOEWDIN ATOMIC CHARGES
----------------------
   0 C :   -0.090455
   1 C :   -0.153677
   2 H :    0.118614
   3 H :    0.118130
   4 C :   -0.495795
   5 O :    0.077033
   6 F :    0.209484
   7 H :    0.069953
   8 H :    0.076710
   9 H :    0.070002

  Mayer bond orders larger than 0.100000
B(  0-C ,  1-C ) :   0.7312 B(  0-C ,  4-C ) :   0.1897 B(  0-C ,  7-H ) :   0.9952
B(  0-C ,  8-H ) :   0.9742 B(  0-C ,  9-H ) :   0.9756 B(  1-C ,  2-H ) :   0.9237
B(  1-C ,  3-H ) :   0.9989 B(  1-C ,  4-C ) :   0.9244 B(  4-C ,  5-O ) :   1.7923
B(  4-C ,  6-F ) :   1.0556

Dispersion correction           -0.005152739
FINAL SINGLE POINT ENERGY      -292.202737033465

DIPOLE MOMENT
-------------
                                X             Y             Z
Electronic contribution:      4.83887      -2.28918       5.84408
Nuclear contribution   :     -4.79499       2.78546      -7.01827
                        -----------------------------------------
Total Dipole Moment    :      0.04388       0.49628      -1.17419
                        -----------------------------------------
Magnitude (a.u.)       :      1.27552
Magnitude (Debye)      :      3.24211

Rotational constants in cm-1:     0.286098     0.133492     0.103343
Rotational constants in MHz :  8577.003657  4001.981591  3098.148068

                             ****ORCA TERMINATED NORMALLY****
TOTAL RUN TIME: 0 days 0 hours 0 minutes 18 seconds 236 msec
