                         Program Version 5.0.0 -  RELEASE  -
|  1> !PBE0 D3BJ RIJCOSX def2-TZVPD def2/J TightSCF
|  2> *xyz 0 1
|  3> C          3.91385       -1.65829        3.01513
|  4> N          5.03927       -0.90115        2.49282
|  5> C          6.21038       -1.41726        2.17824
|  6> C          6.53591       -2.67712        2.55608
|  7> N          7.07675       -0.70082        1.47891
|  8> H          7.95464       -1.12155        1.20755
|  9> H          6.75616        0.10664        0.96028
| 10> H          4.84217        0.01761        2.11519
| 11> H          5.99388       -3.12692        3.28278
| 12> C          3.13916       -2.37657        1.91061
| 13> H          3.26723       -0.93940        3.52069
| 14> H          4.24720       -2.35509        3.79006
| 15> H          7.49844       -2.97548        2.46878
| 16> H          2.82969       -1.66654        1.17238
| 17> H          2.27790       -2.85264        2.33072
| 18> H          3.76754       -3.11338        1.45548
| 19> *
| 20> %MaxCore 64000
| 21> %pal nprocs 8
| 22> end
| 23> %scf
| 24>   MaxIter 150
| 25> end
| 26>
| 27>
| 28>                          ****END OF INPUT****

CARTESIAN COORDINATES (ANGSTROEM)
---------------------------------
  C      3.913850   -1.658290    3.015130
  N      5.039270   -0.901150    2.492820
  C      6.210380   -1.417260    2.178240
  C      6.535910   -2.677120    2.556080
  N      7.076750   -0.700820    1.478910
  H      7.954640   -1.121550    1.207550
  H      6.756160    0.106640    0.960280
  H      4.842170    0.017610    2.115190
  H      5.993880   -3.126920    3.282780
  C      3.139160   -2.376570    1.910610
  H      3.267230   -0.939400    3.520690
  H      4.247200   -2.355090    3.790060
  H      7.498440   -2.975480    2.468780
  H      2.829690   -1.666540    1.172380
  H      2.277900   -2.852640    2.330720
  H      3.767540   -3.113380    1.455480

 Total Charge           Charge          ....    0
 Multiplicity           Mult            ....    1
 Number of Electrons    NEL             ....   48
 Basis Dimension        Dim             ....  312

ORBITAL ENERGIES
----------------

  NO   OCC          E(Eh)            E(eV)
   0   2.0000     -14.390161      -391.5762
   1   2.0000     -14.385820      -391.4581
   2   2.0000     -10.268533      -279.4210
   3   2.0000     -10.254465      -279.0382
   4   2.0000     -10.199934      -277.5543
   5   2.0000     -10.131957      -275.7046
   6   2.0000      -1.001524       -27.2528
   7   2.0000      -0.916035       -24.9266
   8   2.0000      -0.777053       -21.1447
   9   2.0000      -0.728058       -19.8115
  10   2.0000      -0.661437       -17.9986
  11   2.0000      -0.582467       -15.8497
  12   2.0000      -0.567494       -15.4423
  13   2.0000      -0.536619       -14.6021
  14   2.0000      -0.481025       -13.0894
  15   2.0000      -0.453309       -12.3352
  16   2.0000      -0.432608       -11.7719
  17   2.0000      -0.411610       -11.2005
  18   2.0000      -0.392071       -10.6688
  19   2.0000      -0.379494       -10.3265
  20   2.0000      -0.375554       -10.2193
  21   2.0000      -0.356963        -9.7135
  22   2.0000      -0.264471        -7.1966
  23   2.0000      -0.175078        -4.7641
  24   0.0000       0.004794         0.1305
  25   0.0000       0.027754         0.7552
  26   0.0000       0.037749         1.0272
  27   0.0000       0.041306         1.1240
  28   0.0000       0.066755         1.8165

MULLIKEN ATOMIC CHARGES
-----------------------
   0 C :   -0.288623
   1 N :   -0.126907
   2 C :    0.719880
   3 C :   -1.196914
   4 N :   -0.300509
   5 H :    0.163988
   6 H :    0.149026
   7 H :    0.184176
   8 H :    0.185560
   9 C :   -0.758471
  10 H :    0.173107
  11 H :    0.200372
  12 H :    0.230638
  13 H :    0.198606
  14 H :    0.233915
  15 H :    0.232155
Sum of atomic charges:    0.0000000

LOEWDIN ATOMIC CHARGES
----------------------
   0 C :   -0.239344
   1 N :    0.010330
   2 C :   -0.571345
   3 C :    0.003351
   4 N :    0.114004
   5 H :    0.111928
   6 H :    0.101858
   7 H :    0.140313
   8 H :   -0.003762
   9 C :   -0.084424
  10 H :    0.112048
  11 H :    0.108334
  12 H :    0.004352
  13 H :    0.064420
  14 H :    0.064041
  15 H :    0.063897

  Mayer bond orders larger than 0.100000
B(  0-C ,  1-N ) :   0.9415 B(  0-C ,  3-C ) :   0.1210 B(  0-C ,  9-C ) :   0.8681
B(  0-C , 10-H ) :   0.9593 B(  0-C , 11-H ) :   0.9142 B(  1-N ,  2-C ) :   1.0941
B(  1-N ,  7-H ) :   0.9762 B(  2-C ,  3-C ) :   1.2366 B(  2-C ,  4-N ) :   1.0427
B(  3-C ,  4-N ) :   0.1081 B(  3-C ,  8-H ) :   1.0531 B(  3-C , 12-H ) :   1.0384
B(  4-N ,  5-H ) :   0.9812 B(  4-N ,  6-H ) :   1.0134 B(  9-C , 13-H ) :   0.9952
B(  9-C , 14-H ) :   0.9653 B(  9-C , 15-H ) :   1.0251

Dispersion correction           -0.010867221
FINAL SINGLE POINT ENERGY      -267.700523056842

DIPOLE MOMENT
-------------
                                X             Y             Z
Electronic contribution:      3.05882       2.80608      -0.20452
Nuclear contribution   :     -3.42552      -1.84584      -0.22295
                        -----------------------------------------
Total Dipole Moment    :     -0.36671       0.96024      -0.42747
                        -----------------------------------------
Magnitude (a.u.)       :      1.11322
Magnitude (Debye)      :      2.82959

Rotational constants in cm-1:     0.233526     0.075277     0.067092
Rotational constants in MHz :  7000.931279  2256.752901  2011.361214

                             ****ORCA TERMINATED NORMALLY****
TOTAL RUN TIME: 0 days 0 hours 0 minutes 34 seconds 763 msec
