                         Program Version 5.0.0 -  RELEASE  -
|  1> !PBE0 D3BJ RIJCOSX def2-TZVPD def2/J TightSCF
|  2> *xyz 0 1
|  3> C          3.91385       -1.65829        3.01513
|  4> N          5.03927       -0.90115        2.49282
|  5> C          6.21038       -1.41726        2.17824
|  6> N          6.53591       -2.67712        2.55608
|  7> C          7.07675       -0.70082        1.47891
|  8> H          7.95464       -1.12155        1.20755
|  9> H          6.75616        0.10664        0.96028
| 10> H          4.84217        0.01761        2.11519
| 11> H          5.99388       -3.12692        3.28278
| 12> C          3.13916       -2.37657        1.91061
| 13> H          3.26723       -0.93940        3.52069
| 14> H          4.24720       -2.35509        3.79006
| 15> H          7.49844       -2.97548        2.46878
| 16> H          2.82969       -1.66654        1.17238
| 17> H          2.27790       -2.85264        2.33072
| 18> H          3.76754       -3.11338        1.45548
| 19> *
| 20> %MaxCore 64000
| 21> %pal nprocs 8
| 22> end
| 23> %scf
| 24>   MaxIter 150
| 25> end
| 26>
| 27>
| 28>                          ****END OF INPUT****

CARTESIAN COORDINATES (ANGSTROEM)
---------------------------------
  C      3.913850   -1.658290    3.015130
  N      5.039270   -0.901150    2.492820
  C      6.210380   -1.417260    2.178240
  N      6.535910   -2.677120    2.556080
  C      7.076750   -0.700820    1.478910
  H      7.954640   -1.121550    1.207550
  H      6.756160    0.106640    0.960280
  H      4.842170    0.017610    2.115190
  H      5.993880   -3.126920    3.282780
  C      3.139160   -2.376570    1.910610
  H      3.267230   -0.939400    3.520690
  H      4.247200   -2.355090    3.790060
  H      7.498440   -2.975480    2.468780
  H      2.829690   -1.666540    1.172380
  H      2.277900   -2.852640    2.330720
  H      3.767540   -3.113380    1.455480

 Total Charge           Charge          ....    0
 Multiplicity           Mult            ....    1
 Number of Electrons    NEL             ....   48
 Basis Dimension        Dim             ....  312

ORBITAL ENERGIES
----------------

  NO   OCC          E(Eh)            E(eV)
   0   2.0000     -14.386343      -391.4723
   1   2.0000     -14.383667      -391.3995
   2   2.0000     -10.265562      -279.3401
   3   2.0000     -10.262530      -279.2576
   4   2.0000     -10.207546      -277.7615
   5   2.0000     -10.129795      -275.6457
   6   2.0000      -0.996407       -27.1136
   7   2.0000      -0.908586       -24.7239
   8   2.0000      -0.794565       -21.6212
   9   2.0000      -0.724376       -19.7113
  10   2.0000      -0.649647       -17.6778
  11   2.0000      -0.617496       -16.8029
  12   2.0000      -0.551488       -15.0067
  13   2.0000      -0.513230       -13.9657
  14   2.0000      -0.492205       -13.3936
  15   2.0000      -0.453696       -12.3457
  16   2.0000      -0.445849       -12.1322
  17   2.0000      -0.418521       -11.3885
  18   2.0000      -0.393547       -10.7090
  19   2.0000      -0.383986       -10.4488
  20   2.0000      -0.372470       -10.1354
  21   2.0000      -0.368525       -10.0281
  22   2.0000      -0.267981        -7.2921
  23   2.0000      -0.173912        -4.7324
  24   0.0000       0.005012         0.1364
  25   0.0000       0.029659         0.8071
  26   0.0000       0.034488         0.9385
  27   0.0000       0.038298         1.0421
  28   0.0000       0.067718         1.8427

MULLIKEN ATOMIC CHARGES
-----------------------
   0 C :   -0.339788
   1 N :   -0.051097
   2 C :    0.721053
   3 N :   -0.292560
   4 C :   -1.190052
   5 H :    0.183498
   6 H :    0.214005
   7 H :    0.172091
   8 H :    0.123822
   9 C :   -0.733134
  10 H :    0.165120
  11 H :    0.207085
  12 H :    0.160212
  13 H :    0.197790
  14 H :    0.237821
  15 H :    0.224136
Sum of atomic charges:    0.0000000

LOEWDIN ATOMIC CHARGES
----------------------
   0 C :   -0.243517
   1 N :    0.014851
   2 C :   -0.568955
   3 N :    0.120976
   4 C :   -0.007018
   5 H :    0.006082
   6 H :    0.008981
   7 H :    0.148761
   8 H :    0.085245
   9 C :   -0.085480
  10 H :    0.112621
  11 H :    0.103458
  12 H :    0.108422
  13 H :    0.067742
  14 H :    0.062768
  15 H :    0.065063

  Mayer bond orders larger than 0.100000
B(  0-C ,  1-N ) :   0.9696 B(  0-C ,  9-C ) :   0.8734 B(  0-C , 10-H ) :   1.0048
B(  0-C , 11-H ) :   0.9264 B(  1-N ,  2-C ) :   1.1317 B(  1-N ,  7-H ) :   0.9437
B(  2-C ,  3-N ) :   1.0342 B(  2-C ,  4-C ) :   1.2141 B(  2-C ,  5-H ) :  -0.1069
B(  3-N ,  8-H ) :   1.0079 B(  3-N , 12-H ) :   0.9908 B(  4-C ,  5-H ) :   1.1371
B(  4-C ,  6-H ) :   0.9769 B(  9-C , 13-H ) :   1.0012 B(  9-C , 14-H ) :   0.9878
B(  9-C , 15-H ) :   1.0068

Dispersion correction           -0.010806995
FINAL SINGLE POINT ENERGY      -267.700197669770

DIPOLE MOMENT
-------------
                                X             Y             Z
Electronic contribution:      2.51344       0.91898       0.95858
Nuclear contribution   :     -3.31079      -1.42658      -0.45147
                        -----------------------------------------
Total Dipole Moment    :     -0.79735      -0.50760       0.50711
                        -----------------------------------------
Magnitude (a.u.)       :      1.07266
Magnitude (Debye)      :      2.72648

Rotational constants in cm-1:     0.225507     0.077571     0.068070
Rotational constants in MHz :  6760.542142  2325.533779  2040.680522

                             ****ORCA TERMINATED NORMALLY****
TOTAL RUN TIME: 0 days 0 hours 0 minutes 27 seconds 909 msec
