                         Program Version 5.0.0 -  RELEASE  -
|  1> !PBE0 D3BJ RIJCOSX def2-TZVPD def2/J TightSCF xyzfile
|  2>
|  3> *xyzfile 0 1 D1.xyz
|  4>
|  5> %MaxCore 64000
|  6>
|  7> %pal nprocs 4
|  8> end
|  9>
| 10> %scf
| 11>   MaxIter 150
| 12> end
| 13>
| 14>
| 15>                          ****END OF INPUT****

CARTESIAN COORDINATES (ANGSTROEM)
---------------------------------
  C      3.913853   -1.658291    3.015134
  C      5.039266   -0.901154    2.492821
  C      4.084215    1.742081   -2.114724
  C      4.265245    2.500518   -0.795890
  H      4.868534    3.392674   -0.981134
  H      3.307640    2.824571   -0.387809
  C      4.982240    1.650257    0.247422
  C      6.210384   -1.417261    2.178244
  N      6.535913   -2.677122    2.556078
  N      7.076754   -0.700820    1.478906
  H      7.954643   -1.121554    1.207554
  H      6.756161    0.106637    0.960278
  H      4.842168    0.017609    2.115191
  H      5.993876   -3.126918    3.282784
  H      7.498441   -2.975482    2.468776
  F      4.368065    1.389270    1.313706
  O      6.128919    1.233512   -0.045620
  C      3.139159   -2.376572    1.910609
  H      3.267235   -0.939401    3.520693
  H      4.247195   -2.355095    3.790065
  C      1.997274    0.430918   -1.399218
  C      3.412746    0.376886   -1.965497
  H      4.047407   -0.246590   -1.326706
  H      3.390774   -0.118719   -2.942839
  H      5.068475    1.598504   -2.565728
  H      3.503356    2.363939   -2.804565
  C      2.399946   -1.389579    1.009490
  H      2.440750   -3.087118    2.362976
  H      3.844475   -2.970462    1.318677
  C      2.070177   -1.936705   -0.372401
  H      1.481611   -1.061542    1.509912
  H      3.008628   -0.490001    0.897451
  C      1.322238   -0.935775   -1.256413
  H      1.472747   -2.850902   -0.283997
  H      3.003539   -2.234041   -0.862535
  H      1.376444    1.058920   -2.047420
  H      2.015341    0.929780   -0.426535
  H      0.316648   -0.787213   -0.848278
  H      1.185611   -1.379252   -2.248613

 Total Charge           Charge          ....    0
 Multiplicity           Mult            ....    1
 Number of Electrons    NEL             ....  126
 Basis Dimension        Dim             ....  805

ORBITAL ENERGIES
----------------

  NO   OCC          E(Eh)            E(eV)
   0   2.0000     -24.855838      -676.3617
   1   2.0000     -19.234189      -523.3889
   2   2.0000     -14.368430      -390.9849
   3   2.0000     -14.343452      -390.3052
   4   2.0000     -10.419873      -283.5392
   5   2.0000     -10.259874      -279.1854
   6   2.0000     -10.243406      -278.7372
   7   2.0000     -10.240539      -278.6592
   8   2.0000     -10.224248      -278.2159
   9   2.0000     -10.219097      -278.0758
  10   2.0000     -10.212980      -277.9093
  11   2.0000     -10.205137      -277.6959
  12   2.0000     -10.198629      -277.5188
  13   2.0000     -10.190378      -277.2943
  14   2.0000     -10.185429      -277.1596
  15   2.0000     -10.119123      -275.3553
  16   2.0000      -1.370193       -37.2849
  17   2.0000      -1.091136       -29.6913
  18   2.0000      -0.964753       -26.2523
  19   2.0000      -0.872493       -23.7417
  20   2.0000      -0.856601       -23.3093
  21   2.0000      -0.827382       -22.5142
  22   2.0000      -0.798848       -21.7378
  23   2.0000      -0.769302       -20.9338
  24   2.0000      -0.731499       -19.9051
  25   2.0000      -0.709713       -19.3123
  26   2.0000      -0.682815       -18.5803
  27   2.0000      -0.655940       -17.8490
  28   2.0000      -0.623190       -16.9579
  29   2.0000      -0.606052       -16.4915
  30   2.0000      -0.585304       -15.9269
  31   2.0000      -0.577253       -15.7079
  32   2.0000      -0.575410       -15.6577
  33   2.0000      -0.568832       -15.4787
  34   2.0000      -0.543255       -14.7827
  35   2.0000      -0.531186       -14.4543
  36   2.0000      -0.504264       -13.7217
  37   2.0000      -0.495105       -13.4725
  38   2.0000      -0.491456       -13.3732
  39   2.0000      -0.473920       -12.8960
  40   2.0000      -0.461511       -12.5584
  41   2.0000      -0.451995       -12.2994
  42   2.0000      -0.441560       -12.0155
  43   2.0000      -0.431834       -11.7508
  44   2.0000      -0.428326       -11.6553
  45   2.0000      -0.421769       -11.4769
  46   2.0000      -0.405202       -11.0261
  47   2.0000      -0.401545       -10.9266
  48   2.0000      -0.383818       -10.4442
  49   2.0000      -0.378594       -10.3021
  50   2.0000      -0.375182       -10.2092
  51   2.0000      -0.373273       -10.1573
  52   2.0000      -0.361094        -9.8259
  53   2.0000      -0.349931        -9.5221
  54   2.0000      -0.347317        -9.4510
  55   2.0000      -0.334730        -9.1085
  56   2.0000      -0.323471        -8.8021
  57   2.0000      -0.319605        -8.6969
  58   2.0000      -0.315139        -8.5754
  59   2.0000      -0.310106        -8.4384
  60   2.0000      -0.304046        -8.2735
  61   2.0000      -0.256145        -6.9701
  62   2.0000      -0.153884        -4.1874
  63   0.0000      -0.045672        -1.2428
  64   0.0000       0.007057         0.1920
  65   0.0000       0.016706         0.4546
  66   0.0000       0.021435         0.5833
  67   0.0000       0.023903         0.6504

MULLIKEN ATOMIC CHARGES
-----------------------
   0 C :   -0.265663
   1 C :   -0.819270
   2 C :   -0.293902
   3 C :   -0.151229
   4 H :    0.121863
   5 H :    0.206713
   6 C :    0.572447
   7 C :   -0.357099
   8 N :   -0.258733
   9 N :   -0.172631
  10 H :    0.146348
  11 H :    0.159374
  12 H :    0.655350
  13 H :    0.162945
  14 H :    0.123199
  15 F :   -0.144846
  16 O :   -0.613009
  17 C :   -0.265854
  18 H :    0.134087
  19 H :    0.257090
  20 C :   -0.255554
  21 C :   -0.327509
  22 H :    0.220609
  23 H :    0.119151
  24 H :    0.173220
  25 H :    0.114294
  26 C :    0.459373
  27 H :    0.139686
  28 H :    0.215760
  29 C :   -0.248522
  30 H :    0.175895
  31 H :   -0.547803
  32 C :   -0.369570
  33 H :    0.093550
  34 H :    0.244779
  35 H :    0.100820
  36 H :    0.213582
  37 H :    0.141475
  38 H :    0.139582
Sum of atomic charges:   -0.0000000

LOEWDIN ATOMIC CHARGES
----------------------
   0 C :   -0.229700
   1 C :   -0.137057
   2 C :   -0.191805
   3 C :   -0.094734
   4 H :    0.129614
   5 H :    0.114917
   6 C :   -0.431809
   7 C :   -0.526457
   8 N :    0.125572
   9 N :    0.123208
  10 H :    0.100302
  11 H :    0.031246
  12 H :    0.033827
  13 H :    0.092242
  14 H :    0.094215
  15 F :    0.188647
  16 O :    0.090715
  17 C :   -0.203687
  18 H :    0.111342
  19 H :    0.096786
  20 C :   -0.219241
  21 C :   -0.207809
  22 H :    0.110303
  23 H :    0.123737
  24 H :    0.115953
  25 H :    0.118309
  26 C :   -0.219120
  27 H :    0.107776
  28 H :    0.113756
  29 C :   -0.219175
  30 H :    0.125800
  31 H :    0.082508
  32 C :   -0.213067
  33 H :    0.115083
  34 H :    0.110619
  35 H :    0.117126
  36 H :    0.100018
  37 H :    0.110574
  38 H :    0.109464

  Mayer bond orders larger than 0.100000
B(  0-C ,  1-C ) :   0.6741 B(  0-C ,  7-C ) :   0.1117 B(  0-C , 17-C ) :   0.8162
B(  0-C , 18-H ) :   0.9949 B(  0-C , 19-H ) :   1.0172 B(  0-C , 26-C ) :   0.2688
B(  1-C ,  7-C ) :   1.4305 B(  1-C ,  9-N ) :  -0.1206 B(  1-C , 12-H ) :   0.1908
B(  1-C , 17-C ) :   0.1332 B(  1-C , 19-H ) :  -0.1650 B(  1-C , 26-C ) :   0.2141
B(  2-C ,  3-C ) :   0.9014 B(  2-C ,  6-C ) :   0.2547 B(  2-C , 20-C ) :   0.2107
B(  2-C , 21-C ) :   1.1574 B(  2-C , 24-H ) :   0.9099 B(  2-C , 25-H ) :   0.9128
B(  3-C ,  4-H ) :   0.8566 B(  3-C ,  5-H ) :   0.9594 B(  3-C ,  6-C ) :   1.0481
B(  3-C , 20-C ) :   0.1621 B(  6-C , 15-F ) :   0.9982 B(  6-C , 16-O ) :   1.5800
B(  6-C , 21-C ) :   0.1058 B(  7-C ,  8-N ) :   1.1727 B(  7-C ,  9-N ) :   1.2450
B(  7-C , 12-H ) :   0.1937 B(  7-C , 13-H ) :   0.1256 B(  8-N , 13-H ) :   0.9476
B(  8-N , 14-H ) :   1.0401 B(  9-N , 10-H ) :   0.9784 B(  9-N , 11-H ) :   0.9047
B( 12-H , 15-F ) :  -0.2641 B( 17-C , 26-C ) :   0.8078 B( 17-C , 27-H ) :   1.0043
B( 17-C , 28-H ) :   0.8306 B( 17-C , 29-C ) :   0.5336 B( 17-C , 30-H ) :  -0.1233
B( 20-C , 21-C ) :   0.5787 B( 20-C , 26-C ) :   0.1136 B( 20-C , 32-C ) :   1.1060
B( 20-C , 35-H ) :   0.9338 B( 20-C , 36-H ) :   0.9847 B( 21-C , 22-H ) :   1.0248
B( 21-C , 23-H ) :   0.8967 B( 21-C , 29-C ) :   0.1835 B( 21-C , 32-C ) :   0.2174
B( 21-C , 36-H ) :  -0.1143 B( 26-C , 29-C ) :   0.6947 B( 26-C , 30-H ) :   0.7358
B( 26-C , 31-H ) :   1.4796 B( 26-C , 32-C ) :   0.2734 B( 29-C , 31-H ) :  -0.1266
B( 29-C , 32-C ) :   1.0178 B( 29-C , 33-H ) :   0.9635 B( 29-C , 34-H ) :   0.8770
B( 30-H , 31-H ) :   0.1367 B( 32-C , 37-H ) :   0.9394 B( 32-C , 38-H ) :   0.9273

Dispersion correction           -0.038993874
FINAL SINGLE POINT ENERGY      -755.110751223276

DIPOLE MOMENT
-------------
                                X             Y             Z
Electronic contribution:     11.29978       8.97655       5.89046
Nuclear contribution   :    -11.48003      -8.36271      -6.78621
                        -----------------------------------------
Total Dipole Moment    :     -0.18025       0.61384      -0.89576
                        -----------------------------------------
Magnitude (a.u.)       :      1.10076
Magnitude (Debye)      :      2.79791

Rotational constants in cm-1:     0.020055     0.013548     0.009477
Rotational constants in MHz :   601.234832   406.162779   284.104317

                             ****ORCA TERMINATED NORMALLY****
TOTAL RUN TIME: 0 days 0 hours 10 minutes 37 seconds 75 msec
