                         Program Version 5.0.0 -  RELEASE  -
|  1> !PBE0 D3BJ RIJCOSX def2-TZVPD def2/J TightSCF xyzfile
|  2>
|  3> *xyzfile 0 1 D2.xyz
|  4>
|  5> %MaxCore 64000
|  6>
|  7> %pal nprocs 4
|  8> end
|  9>
| 10> %scf
| 11>   MaxIter 150
| 12> end
| 13>
| 14>
| 15>                          ****END OF INPUT****

CARTESIAN COORDINATES (ANGSTROEM)
---------------------------------
  C      3.913853   -1.658291    3.015134
  N      5.039266   -0.901154    2.492821
  C      4.084215    1.742081   -2.114724
  C      4.265245    2.500518   -0.795890
  H      4.868534    3.392674   -0.981134
  H      3.307640    2.824571   -0.387809
  C      4.982240    1.650257    0.247422
  C      6.210384   -1.417261    2.178244
  C      6.535913   -2.677122    2.556078
  N      7.076754   -0.700820    1.478906
  H      7.954643   -1.121554    1.207554
  H      6.756161    0.106637    0.960278
  H      4.842168    0.017609    2.115191
  H      5.993876   -3.126918    3.282784
  H      7.498441   -2.975482    2.468776
  F      4.368065    1.389270    1.313706
  O      6.128919    1.233512   -0.045620
  C      3.139159   -2.376572    1.910609
  H      3.267235   -0.939401    3.520693
  H      4.247195   -2.355095    3.790065
  C      1.997274    0.430918   -1.399218
  C      3.412746    0.376886   -1.965497
  H      4.047407   -0.246590   -1.326706
  H      3.390774   -0.118719   -2.942839
  H      5.068475    1.598504   -2.565728
  H      3.503356    2.363939   -2.804565
  C      2.399946   -1.389579    1.009490
  H      2.440750   -3.087118    2.362976
  H      3.844475   -2.970462    1.318677
  C      2.070177   -1.936705   -0.372401
  H      1.481611   -1.061542    1.509912
  H      3.008628   -0.490001    0.897451
  C      1.322238   -0.935775   -1.256413
  H      1.472747   -2.850902   -0.283997
  H      3.003539   -2.234041   -0.862535
  H      1.376444    1.058920   -2.047420
  H      2.015341    0.929780   -0.426535
  H      0.316648   -0.787213   -0.848278
  H      1.185611   -1.379252   -2.248613

 Total Charge           Charge          ....    0
 Multiplicity           Mult            ....    1
 Number of Electrons    NEL             ....  126
 Basis Dimension        Dim             ....  805

ORBITAL ENERGIES
----------------

  NO   OCC          E(Eh)            E(eV)
   0   2.0000     -24.883008      -677.1011
   1   2.0000     -19.248805      -523.7866
   2   2.0000     -14.366941      -390.9443
   3   2.0000     -14.344110      -390.3231
   4   2.0000     -10.434475      -283.9365
   5   2.0000     -10.271415      -279.4994
   6   2.0000     -10.249755      -278.9100
   7   2.0000     -10.245944      -278.8063
   8   2.0000     -10.241664      -278.6898
   9   2.0000     -10.233559      -278.4693
  10   2.0000     -10.228647      -278.3356
  11   2.0000     -10.222251      -278.1616
  12   2.0000     -10.216031      -277.9923
  13   2.0000     -10.214512      -277.9510
  14   2.0000     -10.205948      -277.7180
  15   2.0000     -10.112079      -275.1637
  16   2.0000      -1.395878       -37.9838
  17   2.0000      -1.105608       -30.0851
  18   2.0000      -0.978747       -26.6331
  19   2.0000      -0.891194       -24.2506
  20   2.0000      -0.867242       -23.5988
  21   2.0000      -0.836083       -22.7510
  22   2.0000      -0.801200       -21.8018
  23   2.0000      -0.767229       -20.8774
  24   2.0000      -0.737663       -20.0728
  25   2.0000      -0.715097       -19.4588
  26   2.0000      -0.701240       -19.0817
  27   2.0000      -0.675686       -18.3864
  28   2.0000      -0.639516       -17.4021
  29   2.0000      -0.617889       -16.8136
  30   2.0000      -0.607075       -16.5194
  31   2.0000      -0.597944       -16.2709
  32   2.0000      -0.585556       -15.9338
  33   2.0000      -0.568902       -15.4806
  34   2.0000      -0.552174       -15.0254
  35   2.0000      -0.529844       -14.4178
  36   2.0000      -0.513102       -13.9622
  37   2.0000      -0.502804       -13.6820
  38   2.0000      -0.502515       -13.6741
  39   2.0000      -0.483935       -13.1686
  40   2.0000      -0.468817       -12.7572
  41   2.0000      -0.461936       -12.5699
  42   2.0000      -0.449153       -12.2221
  43   2.0000      -0.442833       -12.0501
  44   2.0000      -0.433309       -11.7909
  45   2.0000      -0.422810       -11.5052
  46   2.0000      -0.417206       -11.3527
  47   2.0000      -0.405720       -11.0402
  48   2.0000      -0.394801       -10.7431
  49   2.0000      -0.390523       -10.6267
  50   2.0000      -0.383057       -10.4235
  51   2.0000      -0.375625       -10.2213
  52   2.0000      -0.372208       -10.1283
  53   2.0000      -0.363580        -9.8935
  54   2.0000      -0.356059        -9.6889
  55   2.0000      -0.350744        -9.5442
  56   2.0000      -0.341223        -9.2851
  57   2.0000      -0.330355        -8.9894
  58   2.0000      -0.329508        -8.9664
  59   2.0000      -0.327573        -8.9137
  60   2.0000      -0.322929        -8.7873
  61   2.0000      -0.239986        -6.5304
  62   2.0000      -0.155011        -4.2181
  63   0.0000      -0.060430        -1.6444
  64   0.0000      -0.001921        -0.0523
  65   0.0000       0.013625         0.3708
  66   0.0000       0.015981         0.4349
  67   0.0000       0.021717         0.5909

MULLIKEN ATOMIC CHARGES
-----------------------
   0 C :   -0.752023
   1 N :   -0.101375
   2 C :   -0.296911
   3 C :   -0.177934
   4 H :    0.127807
   5 H :    0.214580
   6 C :    0.555248
   7 C :    0.736867
   8 C :   -1.292421
   9 N :   -0.219173
  10 H :    0.163292
  11 H :    0.167720
  12 H :    0.297547
  13 H :    0.195921
  14 H :    0.235378
  15 F :   -0.287577
  16 O :   -0.612229
  17 C :   -0.215887
  18 H :    0.186242
  19 H :    0.203278
  20 C :   -0.234650
  21 C :   -0.321054
  22 H :    0.207063
  23 H :    0.127142
  24 H :    0.178603
  25 H :    0.117321
  26 C :    0.419044
  27 H :    0.168728
  28 H :    0.226085
  29 C :   -0.240896
  30 H :    0.217561
  31 H :   -0.549445
  32 C :   -0.381242
  33 H :    0.110190
  34 H :    0.224872
  35 H :    0.105335
  36 H :    0.203340
  37 H :    0.155540
  38 H :    0.138112
Sum of atomic charges:    0.0000000

LOEWDIN ATOMIC CHARGES
----------------------
   0 C :   -0.187186
   1 N :    0.033194
   2 C :   -0.189742
   3 C :   -0.094210
   4 H :    0.131134
   5 H :    0.115244
   6 C :   -0.433833
   7 C :   -0.556733
   8 C :   -0.001337
   9 N :    0.130062
  10 H :    0.113458
  11 H :    0.025237
  12 H :    0.088857
  13 H :   -0.009251
  14 H :    0.000990
  15 F :    0.192821
  16 O :    0.094970
  17 C :   -0.183580
  18 H :    0.119861
  19 H :    0.110431
  20 C :   -0.219238
  21 C :   -0.207027
  22 H :    0.109969
  23 H :    0.125200
  24 H :    0.117327
  25 H :    0.119685
  26 C :   -0.221584
  27 H :    0.115034
  28 H :    0.114200
  29 C :   -0.216816
  30 H :    0.125327
  31 H :    0.079233
  32 C :   -0.211350
  33 H :    0.117200
  34 H :    0.112913
  35 H :    0.118185
  36 H :    0.098950
  37 H :    0.111336
  38 H :    0.111071

  Mayer bond orders larger than 0.100000
B(  0-C ,  1-N ) :   1.0793 B(  0-C ,  8-C ) :   0.1101 B(  0-C , 17-C ) :   0.9208
B(  0-C , 18-H ) :   0.8745 B(  0-C , 19-H ) :   0.9164 B(  0-C , 26-C ) :   0.2516
B(  1-N ,  7-C ) :   1.0236 B(  1-N ,  8-C ) :   0.1068 B(  1-N , 12-H ) :   0.7181
B(  2-C ,  3-C ) :   0.8929 B(  2-C ,  6-C ) :   0.2562 B(  2-C , 20-C ) :   0.2139
B(  2-C , 21-C ) :   1.1661 B(  2-C , 24-H ) :   0.9049 B(  2-C , 25-H ) :   0.9151
B(  3-C ,  4-H ) :   0.8664 B(  3-C ,  5-H ) :   0.9540 B(  3-C ,  6-C ) :   1.0408
B(  3-C , 20-C ) :   0.1631 B(  6-C , 15-F ) :   0.9379 B(  6-C , 16-O ) :   1.6078
B(  6-C , 21-C ) :   0.1020 B(  7-C ,  8-C ) :   1.1003 B(  7-C ,  9-N ) :   1.0369
B(  7-C , 11-H ) :  -0.1016 B(  7-C , 12-H ) :  -0.1309 B(  8-C ,  9-N ) :   0.1079
B(  8-C , 13-H ) :   1.0723 B(  8-C , 14-H ) :   1.0438 B(  9-N , 10-H ) :   0.9590
B(  9-N , 11-H ) :   0.9062 B( 17-C , 26-C ) :   0.8276 B( 17-C , 27-H ) :   1.0018
B( 17-C , 28-H ) :   0.7969 B( 17-C , 29-C ) :   0.5193 B( 17-C , 30-H ) :  -0.1395
B( 20-C , 21-C ) :   0.5570 B( 20-C , 32-C ) :   1.1343 B( 20-C , 35-H ) :   0.9385
B( 20-C , 36-H ) :   0.9770 B( 21-C , 22-H ) :   1.0398 B( 21-C , 23-H ) :   0.8944
B( 21-C , 29-C ) :   0.1694 B( 21-C , 32-C ) :   0.2381 B( 21-C , 36-H ) :  -0.1157
B( 26-C , 29-C ) :   0.7276 B( 26-C , 30-H ) :   0.7434 B( 26-C , 31-H ) :   1.6169
B( 26-C , 32-C ) :   0.2795 B( 29-C , 31-H ) :  -0.1398 B( 29-C , 32-C ) :   1.0459
B( 29-C , 33-H ) :   0.9473 B( 29-C , 34-H ) :   0.8937 B( 30-H , 31-H ) :   0.1136
B( 32-C , 37-H ) :   0.9272 B( 32-C , 38-H ) :   0.9229

Dispersion correction           -0.038794682
FINAL SINGLE POINT ENERGY      -755.106089218761

DIPOLE MOMENT
-------------
                                X             Y             Z
Electronic contribution:      9.75340      10.53768       5.52168
Nuclear contribution   :    -11.22009      -8.67117      -6.77523
                        -----------------------------------------
Total Dipole Moment    :     -1.46669       1.86651      -1.25355
                        -----------------------------------------
Magnitude (a.u.)       :      2.68448
Magnitude (Debye)      :      6.82341

Rotational constants in cm-1:     0.020086     0.013778     0.009581
Rotational constants in MHz :   602.172053   413.051122   287.243919

                             ****ORCA TERMINATED NORMALLY****
TOTAL RUN TIME: 0 days 0 hours 9 minutes 21 seconds 874 msec
