                         Program Version 5.0.0 -  RELEASE  -
|  1> !PBE0 D3BJ RIJCOSX def2-TZVPD def2/J TightSCF xyzfile
|  2>
|  3> *xyzfile 0 1 D3.xyz
|  4>
|  5> %MaxCore 64000
|  6>
|  7> %pal nprocs 4
|  8> end
|  9>
| 10> %scf
| 11>   MaxIter 150
| 12> end
| 13>
| 14>
| 15>                          ****END OF INPUT****

CARTESIAN COORDINATES (ANGSTROEM)
---------------------------------
  C      3.913853   -1.658291    3.015134
  N      5.039266   -0.901154    2.492821
  C      4.084215    1.742081   -2.114724
  C      4.265245    2.500518   -0.795890
  H      4.868534    3.392674   -0.981134
  H      3.307640    2.824571   -0.387809
  C      4.982240    1.650257    0.247422
  C      6.210384   -1.417261    2.178244
  N      6.535913   -2.677122    2.556078
  C      7.076754   -0.700820    1.478906
  H      7.954643   -1.121554    1.207554
  H      6.756161    0.106637    0.960278
  H      4.842168    0.017609    2.115191
  H      5.993876   -3.126918    3.282784
  H      7.498441   -2.975482    2.468776
  F      4.368065    1.389270    1.313706
  O      6.128919    1.233512   -0.045620
  C      3.139159   -2.376572    1.910609
  H      3.267235   -0.939401    3.520693
  H      4.247195   -2.355095    3.790065
  C      1.997274    0.430918   -1.399218
  C      3.412746    0.376886   -1.965497
  H      4.047407   -0.246590   -1.326706
  H      3.390774   -0.118719   -2.942839
  H      5.068475    1.598504   -2.565728
  H      3.503356    2.363939   -2.804565
  C      2.399946   -1.389579    1.009490
  H      2.440750   -3.087118    2.362976
  H      3.844475   -2.970462    1.318677
  C      2.070177   -1.936705   -0.372401
  H      1.481611   -1.061542    1.509912
  H      3.008628   -0.490001    0.897451
  C      1.322238   -0.935775   -1.256413
  H      1.472747   -2.850902   -0.283997
  H      3.003539   -2.234041   -0.862535
  H      1.376444    1.058920   -2.047420
  H      2.015341    0.929780   -0.426535
  H      0.316648   -0.787213   -0.848278
  H      1.185611   -1.379252   -2.248613

 Total Charge           Charge          ....    0
 Multiplicity           Mult            ....    1
 Number of Electrons    NEL             ....  126
 Basis Dimension        Dim             ....  805

ORBITAL ENERGIES
----------------

  NO   OCC          E(Eh)            E(eV)
   0   2.0000     -24.865062      -676.6127
   1   2.0000     -19.219988      -523.0025
   2   2.0000     -14.365261      -390.8986
   3   2.0000     -14.363346      -390.8465
   4   2.0000     -10.410802      -283.2923
   5   2.0000     -10.257195      -279.1125
   6   2.0000     -10.249244      -278.8961
   7   2.0000     -10.242377      -278.7092
   8   2.0000     -10.238839      -278.6130
   9   2.0000     -10.225474      -278.2493
  10   2.0000     -10.223386      -278.1925
  11   2.0000     -10.219912      -278.0979
  12   2.0000     -10.216244      -277.9981
  13   2.0000     -10.215906      -277.9889
  14   2.0000     -10.212376      -277.8929
  15   2.0000     -10.094638      -274.6891
  16   2.0000      -1.378179       -37.5022
  17   2.0000      -1.078216       -29.3397
  18   2.0000      -0.978000       -26.6127
  19   2.0000      -0.892186       -24.2776
  20   2.0000      -0.857782       -23.3414
  21   2.0000      -0.832068       -22.6417
  22   2.0000      -0.802148       -21.8275
  23   2.0000      -0.764339       -20.7987
  24   2.0000      -0.737909       -20.0795
  25   2.0000      -0.712782       -19.3958
  26   2.0000      -0.688195       -18.7267
  27   2.0000      -0.664603       -18.0848
  28   2.0000      -0.628874       -17.1125
  29   2.0000      -0.618590       -16.8327
  30   2.0000      -0.600106       -16.3297
  31   2.0000      -0.588459       -16.0128
  32   2.0000      -0.579964       -15.7816
  33   2.0000      -0.565417       -15.3858
  34   2.0000      -0.547273       -14.8921
  35   2.0000      -0.525013       -14.2863
  36   2.0000      -0.504616       -13.7313
  37   2.0000      -0.497370       -13.5341
  38   2.0000      -0.488511       -13.2931
  39   2.0000      -0.476253       -12.9595
  40   2.0000      -0.472537       -12.8584
  41   2.0000      -0.456833       -12.4310
  42   2.0000      -0.446517       -12.1503
  43   2.0000      -0.442608       -12.0440
  44   2.0000      -0.431366       -11.7381
  45   2.0000      -0.415199       -11.2981
  46   2.0000      -0.410268       -11.1640
  47   2.0000      -0.402149       -10.9430
  48   2.0000      -0.390015       -10.6128
  49   2.0000      -0.383054       -10.4234
  50   2.0000      -0.378611       -10.3025
  51   2.0000      -0.377056       -10.2602
  52   2.0000      -0.367751       -10.0070
  53   2.0000      -0.361152        -9.8275
  54   2.0000      -0.354844        -9.6558
  55   2.0000      -0.348299        -9.4777
  56   2.0000      -0.341052        -9.2805
  57   2.0000      -0.329850        -8.9757
  58   2.0000      -0.327455        -8.9105
  59   2.0000      -0.324160        -8.8209
  60   2.0000      -0.283857        -7.7242
  61   2.0000      -0.251078        -6.8322
  62   2.0000      -0.151075        -4.1110
  63   0.0000      -0.039739        -1.0814
  64   0.0000       0.005404         0.1471
  65   0.0000       0.016052         0.4368
  66   0.0000       0.017682         0.4812
  67   0.0000       0.021572         0.5870

MULLIKEN ATOMIC CHARGES
-----------------------
   0 C :   -0.789992
   1 N :   -0.003239
   2 C :   -0.290280
   3 C :   -0.180612
   4 H :    0.113618
   5 H :    0.211264
   6 C :    0.532105
   7 C :    0.845707
   8 N :   -0.287974
   9 C :   -1.802090
  10 H :    0.119919
  11 H :    0.689479
  12 H :    0.213609
  13 H :    0.115092
  14 H :    0.179460
  15 F :   -0.282949
  16 O :   -0.493788
  17 C :   -0.141740
  18 H :    0.157268
  19 H :    0.221686
  20 C :   -0.235847
  21 C :   -0.365662
  22 H :    0.253403
  23 H :    0.120952
  24 H :    0.169785
  25 H :    0.116338
  26 C :    0.484182
  27 H :    0.186552
  28 H :    0.205053
  29 C :   -0.266793
  30 H :    0.237477
  31 H :   -0.619422
  32 C :   -0.363812
  33 H :    0.103724
  34 H :    0.246305
  35 H :    0.102649
  36 H :    0.203519
  37 H :    0.154086
  38 H :    0.140970
Sum of atomic charges:    0.0000000

LOEWDIN ATOMIC CHARGES
----------------------
   0 C :   -0.191833
   1 N :    0.033570
   2 C :   -0.190973
   3 C :   -0.098069
   4 H :    0.129287
   5 H :    0.112406
   6 C :   -0.439650
   7 C :   -0.548188
   8 N :    0.116370
   9 C :    0.012080
  10 H :    0.014243
  11 H :   -0.045226
  12 H :    0.094238
  13 H :    0.081178
  14 H :    0.105620
  15 F :    0.188211
  16 O :    0.089936
  17 C :   -0.188652
  18 H :    0.120367
  19 H :    0.105722
  20 C :   -0.219392
  21 C :   -0.207126
  22 H :    0.110815
  23 H :    0.124118
  24 H :    0.117336
  25 H :    0.117954
  26 C :   -0.219483
  27 H :    0.112628
  28 H :    0.115809
  29 C :   -0.217528
  30 H :    0.126226
  31 H :    0.081874
  32 C :   -0.211663
  33 H :    0.116149
  34 H :    0.112898
  35 H :    0.117884
  36 H :    0.099114
  37 H :    0.110821
  38 H :    0.110929

  Mayer bond orders larger than 0.100000
B(  0-C ,  1-N ) :   1.0712 B(  0-C ,  7-C ) :  -0.1386 B(  0-C ,  8-N ) :   0.1116
B(  0-C , 17-C ) :   0.8504 B(  0-C , 18-H ) :   0.9455 B(  0-C , 19-H ) :   0.9293
B(  0-C , 26-C ) :   0.1801 B(  0-C , 31-H ) :   0.1363 B(  1-N ,  7-C ) :   1.1545
B(  1-N , 12-H ) :   0.7645 B(  2-C ,  3-C ) :   0.8910 B(  2-C ,  6-C ) :   0.2563
B(  2-C , 20-C ) :   0.2170 B(  2-C , 21-C ) :   1.1837 B(  2-C , 24-H ) :   0.9062
B(  2-C , 25-H ) :   0.9138 B(  3-C ,  4-H ) :   0.8750 B(  3-C ,  5-H ) :   0.9512
B(  3-C ,  6-C ) :   1.0404 B(  3-C , 20-C ) :   0.1576 B(  6-C , 15-F ) :   0.9195
B(  6-C , 16-O ) :   1.6766 B(  6-C , 21-C ) :   0.1015 B(  7-C ,  8-N ) :   1.0466
B(  7-C ,  9-C ) :   0.9271 B(  7-C , 10-H ) :  -0.2507 B(  7-C , 12-H ) :  -0.1296
B(  8-N , 13-H ) :   1.0296 B(  8-N , 14-H ) :   0.9699 B(  9-C , 10-H ) :   1.2858
B(  9-C , 11-H ) :   0.6792 B(  9-C , 16-O ) :   0.1335 B( 10-H , 11-H ) :   0.1263
B( 11-H , 16-O ) :  -0.2696 B( 17-C , 26-C ) :   0.8250 B( 17-C , 27-H ) :   1.0113
B( 17-C , 28-H ) :   0.7928 B( 17-C , 29-C ) :   0.5070 B( 17-C , 30-H ) :  -0.1398
B( 20-C , 21-C ) :   0.5438 B( 20-C , 32-C ) :   1.1117 B( 20-C , 35-H ) :   0.9421
B( 20-C , 36-H ) :   0.9811 B( 21-C , 22-H ) :   0.9985 B( 21-C , 23-H ) :   0.9051
B( 21-C , 29-C ) :   0.1805 B( 21-C , 32-C ) :   0.2167 B( 21-C , 36-H ) :  -0.1155
B( 26-C , 29-C ) :   0.7289 B( 26-C , 30-H ) :   0.7727 B( 26-C , 31-H ) :   1.5401
B( 26-C , 32-C ) :   0.2714 B( 29-C , 31-H ) :  -0.1612 B( 29-C , 32-C ) :   1.0321
B( 29-C , 33-H ) :   0.9567 B( 29-C , 34-H ) :   0.8892 B( 32-C , 37-H ) :   0.9306
B( 32-C , 38-H ) :   0.9248

Dispersion correction           -0.038843509
FINAL SINGLE POINT ENERGY      -755.085936719909

DIPOLE MOMENT
-------------
                                X             Y             Z
Electronic contribution:      9.45857       8.67115       6.68596
Nuclear contribution   :    -11.12616      -8.32792      -6.96231
                        -----------------------------------------
Total Dipole Moment    :     -1.66758       0.34323      -0.27635
                        -----------------------------------------
Magnitude (a.u.)       :      1.72482
Magnitude (Debye)      :      4.38414

Rotational constants in cm-1:     0.020226     0.013574     0.009520
Rotational constants in MHz :   606.360011   406.923773   285.390769

                             ****ORCA TERMINATED NORMALLY****
TOTAL RUN TIME: 0 days 0 hours 12 minutes 1 seconds 390 msec
