                         Program Version 5.0.0 -  RELEASE  -
|  1> !PBE0 D3BJ RIJCOSX def2-TZVPD def2/J TightSCF xyzfile
|  2>
|  3> *xyzfile 0 1 D4.xyz
|  4>
|  5> %MaxCore 64000
|  6>
|  7> %pal nprocs 4
|  8> end
|  9>
| 10> %scf
| 11>   MaxIter 150
| 12> end
| 13>
| 14>
| 15>                          ****END OF INPUT****

CARTESIAN COORDINATES (ANGSTROEM)
---------------------------------
  C      3.913853   -1.658291    3.015134
  C      5.039266   -0.901154    2.492821
  C      4.084215    1.742081   -2.114724
  C      4.265245    2.500518   -0.795890
  H      4.868534    3.392674   -0.981134
  H      3.307640    2.824571   -0.387809
  C      4.982240    1.650257    0.247422
  C      6.210384   -1.417261    2.178244
  N      6.535913   -2.677122    2.556078
  N      7.076754   -0.700820    1.478906
  H      7.954643   -1.121554    1.207554
  H      6.756161    0.106637    0.960278
  H      4.842168    0.017609    2.115191
  H      5.993876   -3.126918    3.282784
  H      7.498441   -2.975482    2.468776
  O      4.368065    1.389270    1.313706
  F      6.128919    1.233512   -0.045620
  C      3.139159   -2.376572    1.910609
  H      3.267235   -0.939401    3.520693
  H      4.247195   -2.355095    3.790065
  C      1.997274    0.430918   -1.399218
  C      3.412746    0.376886   -1.965497
  H      4.047407   -0.246590   -1.326706
  H      3.390774   -0.118719   -2.942839
  H      5.068475    1.598504   -2.565728
  H      3.503356    2.363939   -2.804565
  C      2.399946   -1.389579    1.009490
  H      2.440750   -3.087118    2.362976
  H      3.844475   -2.970462    1.318677
  C      2.070177   -1.936705   -0.372401
  H      1.481611   -1.061542    1.509912
  H      3.008628   -0.490001    0.897451
  C      1.322238   -0.935775   -1.256413
  H      1.472747   -2.850902   -0.283997
  H      3.003539   -2.234041   -0.862535
  H      1.376444    1.058920   -2.047420
  H      2.015341    0.929780   -0.426535
  H      0.316648   -0.787213   -0.848278
  H      1.185611   -1.379252   -2.248613

 Total Charge           Charge          ....    0
 Multiplicity           Mult            ....    1
 Number of Electrons    NEL             ....  126
 Basis Dimension        Dim             ....  805

ORBITAL ENERGIES
----------------

  NO   OCC          E(Eh)            E(eV)
   0   2.0000     -24.869222      -676.7259
   1   2.0000     -19.224386      -523.1221
   2   2.0000     -14.367899      -390.9704
   3   2.0000     -14.359343      -390.7376
   4   2.0000     -10.414062      -283.3810
   5   2.0000     -10.258205      -279.1399
   6   2.0000     -10.242751      -278.7194
   7   2.0000     -10.241334      -278.6809
   8   2.0000     -10.225557      -278.2515
   9   2.0000     -10.215194      -277.9696
  10   2.0000     -10.209332      -277.8101
  11   2.0000     -10.200542      -277.5709
  12   2.0000     -10.189543      -277.2716
  13   2.0000     -10.185276      -277.1554
  14   2.0000     -10.179022      -276.9853
  15   2.0000     -10.109810      -275.1019
  16   2.0000      -1.383406       -37.6444
  17   2.0000      -1.080149       -29.3923
  18   2.0000      -0.969101       -26.3706
  19   2.0000      -0.878959       -23.9177
  20   2.0000      -0.857499       -23.3337
  21   2.0000      -0.823586       -22.4109
  22   2.0000      -0.794823       -21.6282
  23   2.0000      -0.765378       -20.8270
  24   2.0000      -0.732469       -19.9315
  25   2.0000      -0.707751       -19.2589
  26   2.0000      -0.688941       -18.7470
  27   2.0000      -0.653022       -17.7696
  28   2.0000      -0.623251       -16.9595
  29   2.0000      -0.608714       -16.5639
  30   2.0000      -0.592807       -16.1311
  31   2.0000      -0.588757       -16.0209
  32   2.0000      -0.569087       -15.4857
  33   2.0000      -0.558493       -15.1974
  34   2.0000      -0.547370       -14.8947
  35   2.0000      -0.528158       -14.3719
  36   2.0000      -0.501859       -13.6563
  37   2.0000      -0.495366       -13.4796
  38   2.0000      -0.492182       -13.3930
  39   2.0000      -0.471896       -12.8409
  40   2.0000      -0.463479       -12.6119
  41   2.0000      -0.451041       -12.2735
  42   2.0000      -0.440971       -11.9994
  43   2.0000      -0.425638       -11.5822
  44   2.0000      -0.421947       -11.4818
  45   2.0000      -0.414914       -11.2904
  46   2.0000      -0.406409       -11.0590
  47   2.0000      -0.397904       -10.8275
  48   2.0000      -0.390983       -10.6392
  49   2.0000      -0.385109       -10.4794
  50   2.0000      -0.375106       -10.2071
  51   2.0000      -0.372908       -10.1474
  52   2.0000      -0.353689        -9.6244
  53   2.0000      -0.345353        -9.3975
  54   2.0000      -0.343811        -9.3556
  55   2.0000      -0.338567        -9.2129
  56   2.0000      -0.319518        -8.6945
  57   2.0000      -0.313307        -8.5255
  58   2.0000      -0.308064        -8.3828
  59   2.0000      -0.304087        -8.2746
  60   2.0000      -0.276417        -7.5217
  61   2.0000      -0.262232        -7.1357
  62   2.0000      -0.151343        -4.1183
  63   0.0000      -0.039797        -1.0829
  64   0.0000       0.002315         0.0630
  65   0.0000       0.015467         0.4209
  66   0.0000       0.022667         0.6168
  67   0.0000       0.024160         0.6574

MULLIKEN ATOMIC CHARGES
-----------------------
   0 C :   -0.286586
   1 C :   -0.852545
   2 C :   -0.327018
   3 C :   -0.105434
   4 H :    0.146510
   5 H :    0.184559
   6 C :    0.515364
   7 C :   -0.404606
   8 N :   -0.263310
   9 N :   -0.198914
  10 H :    0.148310
  11 H :    0.218994
  12 H :    0.769256
  13 H :    0.166117
  14 H :    0.116993
  15 O :   -0.459989
  16 F :   -0.324111
  17 C :   -0.305275
  18 H :    0.116391
  19 H :    0.266917
  20 C :   -0.307187
  21 C :   -0.208068
  22 H :    0.157085
  23 H :    0.118463
  24 H :    0.179447
  25 H :    0.122255
  26 C :    0.480078
  27 H :    0.132561
  28 H :    0.210230
  29 C :   -0.233057
  30 H :    0.161048
  31 H :   -0.503296
  32 C :   -0.368387
  33 H :    0.085438
  34 H :    0.241013
  35 H :    0.103031
  36 H :    0.231709
  37 H :    0.139443
  38 H :    0.136572
Sum of atomic charges:   -0.0000000

LOEWDIN ATOMIC CHARGES
----------------------
   0 C :   -0.224349
   1 C :   -0.133797
   2 C :   -0.197755
   3 C :   -0.092881
   4 H :    0.125451
   5 H :    0.122678
   6 C :   -0.440412
   7 C :   -0.528970
   8 N :    0.123093
   9 N :    0.122213
  10 H :    0.100130
  11 H :    0.060395
  12 H :    0.012479
  13 H :    0.092612
  14 H :    0.091891
  15 O :    0.080856
  16 F :    0.201280
  17 C :   -0.203191
  18 H :    0.113678
  19 H :    0.095736
  20 C :   -0.215896
  21 C :   -0.208792
  22 H :    0.109532
  23 H :    0.122747
  24 H :    0.112018
  25 H :    0.117898
  26 C :   -0.216517
  27 H :    0.107004
  28 H :    0.112341
  29 C :   -0.220562
  30 H :    0.126583
  31 H :    0.082698
  32 C :   -0.213187
  33 H :    0.114121
  34 H :    0.108911
  35 H :    0.117020
  36 H :    0.103759
  37 H :    0.110792
  38 H :    0.108393

  Mayer bond orders larger than 0.100000
B(  0-C ,  1-C ) :   0.8015 B(  0-C ,  7-C ) :   0.1322 B(  0-C , 17-C ) :   0.8261
B(  0-C , 18-H ) :   0.9822 B(  0-C , 19-H ) :   1.0187 B(  0-C , 26-C ) :   0.2417
B(  0-C , 31-H ) :   0.1069 B(  1-C ,  7-C ) :   1.4206 B(  1-C ,  9-N ) :  -0.1423
B(  1-C , 12-H ) :   0.2193 B(  1-C , 15-O ) :   0.1657 B(  1-C , 17-C ) :   0.1491
B(  1-C , 19-H ) :  -0.1726 B(  1-C , 26-C ) :   0.1949 B(  2-C ,  3-C ) :   0.8615
B(  2-C ,  6-C ) :   0.2328 B(  2-C , 20-C ) :   0.2233 B(  2-C , 21-C ) :   1.0827
B(  2-C , 24-H ) :   0.9361 B(  2-C , 25-H ) :   0.8977 B(  3-C ,  4-H ) :   0.8787
B(  3-C ,  5-H ) :   0.9591 B(  3-C ,  6-C ) :   1.0115 B(  3-C , 20-C ) :   0.1717
B(  6-C , 15-O ) :   1.7949 B(  6-C , 16-F ) :   0.7761 B(  7-C ,  8-N ) :   1.1567
B(  7-C ,  9-N ) :   1.2664 B(  7-C , 12-H ) :   0.1953 B(  7-C , 13-H ) :   0.1262
B(  8-N , 13-H ) :   0.9462 B(  8-N , 14-H ) :   1.0491 B(  9-N , 10-H ) :   0.9875
B(  9-N , 11-H ) :   0.8816 B( 12-H , 15-O ) :  -0.4182 B( 15-O , 16-F ) :   0.1388
B( 17-C , 26-C ) :   0.8257 B( 17-C , 27-H ) :   1.0052 B( 17-C , 28-H ) :   0.8301
B( 17-C , 29-C ) :   0.5269 B( 17-C , 30-H ) :  -0.1172 B( 20-C , 21-C ) :   0.6574
B( 20-C , 26-C ) :   0.1156 B( 20-C , 32-C ) :   1.1054 B( 20-C , 35-H ) :   0.9327
B( 20-C , 36-H ) :   0.9593 B( 21-C , 22-H ) :   1.0169 B( 21-C , 23-H ) :   0.9183
B( 21-C , 29-C ) :   0.1905 B( 21-C , 32-C ) :   0.2088 B( 21-C , 35-H ) :  -0.1037
B( 26-C , 29-C ) :   0.6940 B( 26-C , 30-H ) :   0.7081 B( 26-C , 31-H ) :   1.5420
B( 26-C , 32-C ) :   0.2600 B( 29-C , 31-H ) :  -0.1562 B( 29-C , 32-C ) :   1.0161
B( 29-C , 33-H ) :   0.9673 B( 29-C , 34-H ) :   0.8761 B( 30-H , 31-H ) :   0.1851
B( 32-C , 37-H ) :   0.9369 B( 32-C , 38-H ) :   0.9300

Dispersion correction           -0.039117548
FINAL SINGLE POINT ENERGY      -755.098416168734

DIPOLE MOMENT
-------------
                                X             Y             Z
Electronic contribution:     14.27475       8.77641       3.67954
Nuclear contribution   :    -13.61164      -8.17416      -5.14068
                        -----------------------------------------
Total Dipole Moment    :      0.66311       0.60225      -1.46114
                        -----------------------------------------
Magnitude (a.u.)       :      1.71387
Magnitude (Debye)      :      4.35631

Rotational constants in cm-1:     0.019858     0.013613     0.009401
Rotational constants in MHz :   595.331791   408.100423   281.843625

                             ****ORCA TERMINATED NORMALLY****
TOTAL RUN TIME: 0 days 0 hours 10 minutes 9 seconds 846 msec
