                         Program Version 5.0.0 -  RELEASE  -
|  1> !PBE0 D3BJ RIJCOSX def2-TZVPD def2/J TightSCF xyzfile
|  2>
|  3> *xyzfile 0 1 D5.xyz
|  4>
|  5> %MaxCore 64000
|  6>
|  7> %pal nprocs 4
|  8> end
|  9>
| 10> %scf
| 11>   MaxIter 150
| 12> end
| 13>
| 14>
| 15>                          ****END OF INPUT****

CARTESIAN COORDINATES (ANGSTROEM)
---------------------------------
  C      3.913853   -1.658291    3.015134
  N      5.039266   -0.901154    2.492821
  C      4.084215    1.742081   -2.114724
  C      4.265245    2.500518   -0.795890
  H      4.868534    3.392674   -0.981134
  H      3.307640    2.824571   -0.387809
  C      4.982240    1.650257    0.247422
  C      6.210384   -1.417261    2.178244
  C      6.535913   -2.677122    2.556078
  N      7.076754   -0.700820    1.478906
  H      7.954643   -1.121554    1.207554
  H      6.756161    0.106637    0.960278
  H      4.842168    0.017609    2.115191
  H      5.993876   -3.126918    3.282784
  H      7.498441   -2.975482    2.468776
  O      4.368065    1.389270    1.313706
  F      6.128919    1.233512   -0.045620
  C      3.139159   -2.376572    1.910609
  H      3.267235   -0.939401    3.520693
  H      4.247195   -2.355095    3.790065
  C      1.997274    0.430918   -1.399218
  C      3.412746    0.376886   -1.965497
  H      4.047407   -0.246590   -1.326706
  H      3.390774   -0.118719   -2.942839
  H      5.068475    1.598504   -2.565728
  H      3.503356    2.363939   -2.804565
  C      2.399946   -1.389579    1.009490
  H      2.440750   -3.087118    2.362976
  H      3.844475   -2.970462    1.318677
  C      2.070177   -1.936705   -0.372401
  H      1.481611   -1.061542    1.509912
  H      3.008628   -0.490001    0.897451
  C      1.322238   -0.935775   -1.256413
  H      1.472747   -2.850902   -0.283997
  H      3.003539   -2.234041   -0.862535
  H      1.376444    1.058920   -2.047420
  H      2.015341    0.929780   -0.426535
  H      0.316648   -0.787213   -0.848278
  H      1.185611   -1.379252   -2.248613

 Total Charge           Charge          ....    0
 Multiplicity           Mult            ....    1
 Number of Electrons    NEL             ....  126
 Basis Dimension        Dim             ....  805

ORBITAL ENERGIES
----------------

  NO   OCC          E(Eh)            E(eV)
   0   2.0000     -24.885112      -677.1583
   1   2.0000     -19.250226      -523.8253
   2   2.0000     -14.360915      -390.7804
   3   2.0000     -14.352646      -390.5554
   4   2.0000     -10.435465      -283.9634
   5   2.0000     -10.271869      -279.5118
   6   2.0000     -10.253631      -279.0155
   7   2.0000     -10.246588      -278.8238
   8   2.0000     -10.235537      -278.5231
   9   2.0000     -10.232739      -278.4470
  10   2.0000     -10.224994      -278.2362
  11   2.0000     -10.218401      -278.0568
  12   2.0000     -10.210736      -277.8482
  13   2.0000     -10.203949      -277.6636
  14   2.0000     -10.198992      -277.5287
  15   2.0000     -10.112646      -275.1791
  16   2.0000      -1.399240       -38.0753
  17   2.0000      -1.104715       -30.0608
  18   2.0000      -0.976965       -26.5846
  19   2.0000      -0.893927       -24.3250
  20   2.0000      -0.869605       -23.6632
  21   2.0000      -0.832963       -22.6661
  22   2.0000      -0.796529       -21.6747
  23   2.0000      -0.766158       -20.8482
  24   2.0000      -0.730737       -19.8844
  25   2.0000      -0.716513       -19.4973
  26   2.0000      -0.702693       -19.1213
  27   2.0000      -0.671142       -18.2627
  28   2.0000      -0.638472       -17.3737
  29   2.0000      -0.613086       -16.6829
  30   2.0000      -0.609851       -16.5949
  31   2.0000      -0.607474       -16.5302
  32   2.0000      -0.574407       -15.6304
  33   2.0000      -0.569656       -15.5011
  34   2.0000      -0.552166       -15.0252
  35   2.0000      -0.524542       -14.2735
  36   2.0000      -0.517109       -14.0712
  37   2.0000      -0.505666       -13.7599
  38   2.0000      -0.501622       -13.6498
  39   2.0000      -0.481480       -13.1017
  40   2.0000      -0.465888       -12.6775
  41   2.0000      -0.459372       -12.5002
  42   2.0000      -0.446343       -12.1456
  43   2.0000      -0.436163       -11.8686
  44   2.0000      -0.428856       -11.6698
  45   2.0000      -0.427204       -11.6248
  46   2.0000      -0.415468       -11.3055
  47   2.0000      -0.404379       -11.0037
  48   2.0000      -0.400763       -10.9053
  49   2.0000      -0.390849       -10.6355
  50   2.0000      -0.381101       -10.3703
  51   2.0000      -0.373162       -10.1543
  52   2.0000      -0.368663       -10.0318
  53   2.0000      -0.361722        -9.8430
  54   2.0000      -0.354144        -9.6367
  55   2.0000      -0.351854        -9.5744
  56   2.0000      -0.336389        -9.1536
  57   2.0000      -0.328458        -8.9378
  58   2.0000      -0.323379        -8.7996
  59   2.0000      -0.320155        -8.7118
  60   2.0000      -0.315416        -8.5829
  61   2.0000      -0.240135        -6.5344
  62   2.0000      -0.155274        -4.2252
  63   0.0000      -0.059165        -1.6100
  64   0.0000      -0.004487        -0.1221
  65   0.0000       0.013839         0.3766
  66   0.0000       0.016583         0.4512
  67   0.0000       0.022812         0.6208

MULLIKEN ATOMIC CHARGES
-----------------------
   0 C :   -0.720956
   1 N :   -0.067052
   2 C :   -0.332497
   3 C :   -0.110400
   4 H :    0.154716
   5 H :    0.186384
   6 C :    0.494282
   7 C :    0.742401
   8 C :   -1.291430
   9 N :   -0.243261
  10 H :    0.167958
  11 H :    0.229404
  12 H :    0.202190
  13 H :    0.192051
  14 H :    0.236209
  15 O :   -0.592357
  16 F :   -0.344040
  17 C :   -0.248805
  18 H :    0.194262
  19 H :    0.194871
  20 C :   -0.278776
  21 C :   -0.210559
  22 H :    0.146459
  23 H :    0.128412
  24 H :    0.183175
  25 H :    0.128229
  26 C :    0.437909
  27 H :    0.162063
  28 H :    0.219911
  29 C :   -0.228643
  30 H :    0.197772
  31 H :   -0.485168
  32 C :   -0.377405
  33 H :    0.102673
  34 H :    0.219183
  35 H :    0.106019
  36 H :    0.217371
  37 H :    0.152655
  38 H :    0.134788
Sum of atomic charges:   -0.0000000

LOEWDIN ATOMIC CHARGES
----------------------
   0 C :   -0.185465
   1 N :    0.032193
   2 C :   -0.194734
   3 C :   -0.090031
   4 H :    0.127832
   5 H :    0.123784
   6 C :   -0.435599
   7 C :   -0.556967
   8 C :   -0.000701
   9 N :    0.130682
  10 H :    0.113709
  11 H :    0.053992
  12 H :    0.062056
  13 H :   -0.007702
  14 H :   -0.000731
  15 O :    0.082565
  16 F :    0.204546
  17 C :   -0.184186
  18 H :    0.121514
  19 H :    0.108716
  20 C :   -0.215865
  21 C :   -0.207820
  22 H :    0.109349
  23 H :    0.124397
  24 H :    0.113619
  25 H :    0.119738
  26 C :   -0.219572
  27 H :    0.113747
  28 H :    0.112546
  29 C :   -0.218484
  30 H :    0.125889
  31 H :    0.078985
  32 C :   -0.211513
  33 H :    0.116113
  34 H :    0.111057
  35 H :    0.118023
  36 H :    0.102820
  37 H :    0.111578
  38 H :    0.109923

  Mayer bond orders larger than 0.100000
B(  0-C ,  1-N ) :   1.0509 B(  0-C ,  8-C ) :   0.1074 B(  0-C , 12-H ) :  -0.1064
B(  0-C , 17-C ) :   0.9457 B(  0-C , 18-H ) :   0.8630 B(  0-C , 19-H ) :   0.9230
B(  0-C , 26-C ) :   0.2148 B(  0-C , 31-H ) :   0.1071 B(  1-N ,  7-C ) :   0.9864
B(  1-N , 12-H ) :   0.7883 B(  2-C ,  3-C ) :   0.8513 B(  2-C ,  6-C ) :   0.2503
B(  2-C , 20-C ) :   0.2315 B(  2-C , 21-C ) :   1.0862 B(  2-C , 24-H ) :   0.9341
B(  2-C , 25-H ) :   0.8990 B(  3-C ,  4-H ) :   0.8832 B(  3-C ,  5-H ) :   0.9520
B(  3-C ,  6-C ) :   1.0177 B(  3-C , 20-C ) :   0.1702 B(  6-C , 15-O ) :   1.7282
B(  6-C , 16-F ) :   0.8018 B(  7-C ,  8-C ) :   1.1026 B(  7-C ,  9-N ) :   1.0585
B(  7-C , 12-H ) :  -0.1827 B(  8-C ,  9-N ) :   0.1014 B(  8-C , 13-H ) :   1.0769
B(  8-C , 14-H ) :   1.0523 B(  9-N , 10-H ) :   0.9586 B(  9-N , 11-H ) :   0.8733
B( 15-O , 16-F ) :   0.1390 B( 17-C , 26-C ) :   0.8292 B( 17-C , 27-H ) :   1.0042
B( 17-C , 28-H ) :   0.7941 B( 17-C , 29-C ) :   0.5081 B( 17-C , 30-H ) :  -0.1397
B( 20-C , 21-C ) :   0.6316 B( 20-C , 32-C ) :   1.1324 B( 20-C , 35-H ) :   0.9368
B( 20-C , 36-H ) :   0.9560 B( 21-C , 22-H ) :   1.0276 B( 21-C , 23-H ) :   0.9144
B( 21-C , 29-C ) :   0.1754 B( 21-C , 32-C ) :   0.2308 B( 21-C , 35-H ) :  -0.1000
B( 26-C , 29-C ) :   0.7259 B( 26-C , 30-H ) :   0.7120 B( 26-C , 31-H ) :   1.6724
B( 26-C , 32-C ) :   0.2659 B( 29-C , 31-H ) :  -0.1669 B( 29-C , 32-C ) :   1.0388
B( 29-C , 33-H ) :   0.9531 B( 29-C , 34-H ) :   0.8933 B( 30-H , 31-H ) :   0.1640
B( 32-C , 37-H ) :   0.9250 B( 32-C , 38-H ) :   0.9242

Dispersion correction           -0.038915834
FINAL SINGLE POINT ENERGY      -755.106029170221

DIPOLE MOMENT
-------------
                                X             Y             Z
Electronic contribution:     12.76595      10.37188       3.24801
Nuclear contribution   :    -13.35170      -8.48261      -5.12969
                        -----------------------------------------
Total Dipole Moment    :     -0.58575       1.88927      -1.88168
                        -----------------------------------------
Magnitude (a.u.)       :      2.73005
Magnitude (Debye)      :      6.93923

Rotational constants in cm-1:     0.019886     0.013843     0.009504
Rotational constants in MHz :   596.157485   415.004628   284.931121

                             ****ORCA TERMINATED NORMALLY****
TOTAL RUN TIME: 0 days 0 hours 9 minutes 58 seconds 876 msec
