                         Program Version 5.0.0 -  RELEASE  -
|  1> !PBE0 D3BJ RIJCOSX def2-TZVPD def2/J TightSCF xyzfile
|  2>
|  3> *xyzfile 0 1 D6.xyz
|  4>
|  5> %MaxCore 64000
|  6>
|  7> %pal nprocs 4
|  8> end
|  9>
| 10> %scf
| 11>   MaxIter 150
| 12> end
| 13>
| 14>
| 15>                          ****END OF INPUT****

CARTESIAN COORDINATES (ANGSTROEM)
---------------------------------
  C      3.913853   -1.658291    3.015134
  N      5.039266   -0.901154    2.492821
  C      4.084215    1.742081   -2.114724
  C      4.265245    2.500518   -0.795890
  H      4.868534    3.392674   -0.981134
  H      3.307640    2.824571   -0.387809
  C      4.982240    1.650257    0.247422
  C      6.210384   -1.417261    2.178244
  N      6.535913   -2.677122    2.556078
  C      7.076754   -0.700820    1.478906
  H      7.954643   -1.121554    1.207554
  H      6.756161    0.106637    0.960278
  H      4.842168    0.017609    2.115191
  H      5.993876   -3.126918    3.282784
  H      7.498441   -2.975482    2.468776
  O      4.368065    1.389270    1.313706
  F      6.128919    1.233512   -0.045620
  C      3.139159   -2.376572    1.910609
  H      3.267235   -0.939401    3.520693
  H      4.247195   -2.355095    3.790065
  C      1.997274    0.430918   -1.399218
  C      3.412746    0.376886   -1.965497
  H      4.047407   -0.246590   -1.326706
  H      3.390774   -0.118719   -2.942839
  H      5.068475    1.598504   -2.565728
  H      3.503356    2.363939   -2.804565
  C      2.399946   -1.389579    1.009490
  H      2.440750   -3.087118    2.362976
  H      3.844475   -2.970462    1.318677
  C      2.070177   -1.936705   -0.372401
  H      1.481611   -1.061542    1.509912
  H      3.008628   -0.490001    0.897451
  C      1.322238   -0.935775   -1.256413
  H      1.472747   -2.850902   -0.283997
  H      3.003539   -2.234041   -0.862535
  H      1.376444    1.058920   -2.047420
  H      2.015341    0.929780   -0.426535
  H      0.316648   -0.787213   -0.848278
  H      1.185611   -1.379252   -2.248613

 Total Charge           Charge          ....    0
 Multiplicity           Mult            ....    1
 Number of Electrons    NEL             ....  126
 Basis Dimension        Dim             ....  805

ORBITAL ENERGIES
----------------

  NO   OCC          E(Eh)            E(eV)
   0   2.0000     -24.854753      -676.3322
   1   2.0000     -19.233797      -523.3782
   2   2.0000     -14.366175      -390.9235
   3   2.0000     -14.349708      -390.4754
   4   2.0000     -10.419517      -283.5295
   5   2.0000     -10.260029      -279.1896
   6   2.0000     -10.245224      -278.7867
   7   2.0000     -10.244549      -278.7684
   8   2.0000     -10.240635      -278.6619
   9   2.0000     -10.228420      -278.3295
  10   2.0000     -10.220505      -278.1141
  11   2.0000     -10.216605      -278.0080
  12   2.0000     -10.211058      -277.8570
  13   2.0000     -10.206004      -277.7195
  14   2.0000     -10.205642      -277.7096
  15   2.0000     -10.105204      -274.9766
  16   2.0000      -1.370445       -37.2917
  17   2.0000      -1.088691       -29.6248
  18   2.0000      -0.972843       -26.4724
  19   2.0000      -0.888206       -24.1693
  20   2.0000      -0.860677       -23.4202
  21   2.0000      -0.829577       -22.5739
  22   2.0000      -0.798551       -21.7297
  23   2.0000      -0.761855       -20.7311
  24   2.0000      -0.736142       -20.0314
  25   2.0000      -0.701051       -19.0766
  26   2.0000      -0.693617       -18.8743
  27   2.0000      -0.659634       -17.9495
  28   2.0000      -0.629426       -17.1276
  29   2.0000      -0.613300       -16.6887
  30   2.0000      -0.591889       -16.1061
  31   2.0000      -0.585742       -15.9388
  32   2.0000      -0.580987       -15.8095
  33   2.0000      -0.569385       -15.4937
  34   2.0000      -0.540759       -14.7148
  35   2.0000      -0.525089       -14.2884
  36   2.0000      -0.501469       -13.6457
  37   2.0000      -0.498707       -13.5705
  38   2.0000      -0.489274       -13.3138
  39   2.0000      -0.476914       -12.9775
  40   2.0000      -0.469726       -12.7819
  41   2.0000      -0.450742       -12.2653
  42   2.0000      -0.445893       -12.1334
  43   2.0000      -0.437217       -11.8973
  44   2.0000      -0.430796       -11.7226
  45   2.0000      -0.423832       -11.5331
  46   2.0000      -0.407746       -11.0953
  47   2.0000      -0.398718       -10.8497
  48   2.0000      -0.394351       -10.7308
  49   2.0000      -0.388874       -10.5818
  50   2.0000      -0.380266       -10.3476
  51   2.0000      -0.367403        -9.9975
  52   2.0000      -0.365683        -9.9507
  53   2.0000      -0.355424        -9.6716
  54   2.0000      -0.352283        -9.5861
  55   2.0000      -0.347339        -9.4516
  56   2.0000      -0.336787        -9.1644
  57   2.0000      -0.325194        -8.8490
  58   2.0000      -0.323459        -8.8018
  59   2.0000      -0.319338        -8.6896
  60   2.0000      -0.312696        -8.5089
  61   2.0000      -0.246074        -6.6960
  62   2.0000      -0.154313        -4.1991
  63   0.0000      -0.043375        -1.1803
  64   0.0000       0.005859         0.1594
  65   0.0000       0.018143         0.4937
  66   0.0000       0.020135         0.5479
  67   0.0000       0.020979         0.5709

MULLIKEN ATOMIC CHARGES
-----------------------
   0 C :   -0.764951
   1 N :    0.015559
   2 C :   -0.319521
   3 C :   -0.101056
   4 H :    0.138490
   5 H :    0.184564
   6 C :    0.461891
   7 C :    0.873503
   8 N :   -0.286967
   9 C :   -1.740326
  10 H :    0.124302
  11 H :    0.642277
  12 H :    0.122871
  13 H :    0.118606
  14 H :    0.175797
  15 O :   -0.597610
  16 F :   -0.211692
  17 C :   -0.171853
  18 H :    0.163907
  19 H :    0.216163
  20 C :   -0.277725
  21 C :   -0.268701
  22 H :    0.205901
  23 H :    0.124121
  24 H :    0.175916
  25 H :    0.130261
  26 C :    0.494760
  27 H :    0.180620
  28 H :    0.198350
  29 C :   -0.252465
  30 H :    0.219633
  31 H :   -0.555499
  32 C :   -0.365712
  33 H :    0.097138
  34 H :    0.240847
  35 H :    0.103395
  36 H :    0.216163
  37 H :    0.151239
  38 H :    0.137805
Sum of atomic charges:   -0.0000000

LOEWDIN ATOMIC CHARGES
----------------------
   0 C :   -0.189963
   1 N :    0.034173
   2 C :   -0.194689
   3 C :   -0.090965
   4 H :    0.127186
   5 H :    0.121818
   6 C :   -0.434120
   7 C :   -0.548061
   8 N :    0.119783
   9 C :    0.005992
  10 H :    0.010077
  11 H :   -0.024245
  12 H :    0.066985
  13 H :    0.083167
  14 H :    0.104960
  15 O :    0.077188
  16 F :    0.197365
  17 C :   -0.189177
  18 H :    0.122071
  19 H :    0.103927
  20 C :   -0.216096
  21 C :   -0.207598
  22 H :    0.110491
  23 H :    0.123586
  24 H :    0.114254
  25 H :    0.118451
  26 C :   -0.217424
  27 H :    0.111397
  28 H :    0.114115
  29 C :   -0.219039
  30 H :    0.126828
  31 H :    0.081333
  32 C :   -0.211690
  33 H :    0.115137
  34 H :    0.111160
  35 H :    0.117727
  36 H :    0.102902
  37 H :    0.111137
  38 H :    0.109855

  Mayer bond orders larger than 0.100000
B(  0-C ,  1-N ) :   1.0641 B(  0-C ,  7-C ) :  -0.1390 B(  0-C ,  8-N ) :   0.1088
B(  0-C , 17-C ) :   0.8779 B(  0-C , 18-H ) :   0.9349 B(  0-C , 19-H ) :   0.9337
B(  0-C , 26-C ) :   0.1482 B(  0-C , 31-H ) :   0.1561 B(  1-N ,  7-C ) :   1.1139
B(  1-N , 12-H ) :   0.8207 B(  1-N , 15-O ) :  -0.1093 B(  2-C ,  3-C ) :   0.8553
B(  2-C ,  6-C ) :   0.2462 B(  2-C , 20-C ) :   0.2372 B(  2-C , 21-C ) :   1.1135
B(  2-C , 24-H ) :   0.9304 B(  2-C , 25-H ) :   0.8960 B(  3-C ,  4-H ) :   0.8922
B(  3-C ,  5-H ) :   0.9461 B(  3-C ,  6-C ) :   1.0190 B(  3-C , 20-C ) :   0.1640
B(  6-C , 15-O ) :   1.7208 B(  6-C , 16-F ) :   0.8729 B(  7-C ,  8-N ) :   1.0465
B(  7-C ,  9-C ) :   1.0004 B(  7-C , 10-H ) :  -0.2238 B(  7-C , 12-H ) :  -0.1582
B(  8-N , 13-H ) :   1.0252 B(  8-N , 14-H ) :   0.9729 B(  9-C , 10-H ) :   1.2596
B(  9-C , 11-H ) :   0.6065 B( 10-H , 11-H ) :   0.1244 B( 11-H , 16-F ) :  -0.1612
B( 15-O , 16-F ) :   0.1411 B( 17-C , 26-C ) :   0.8244 B( 17-C , 27-H ) :   1.0154
B( 17-C , 28-H ) :   0.7882 B( 17-C , 29-C ) :   0.4996 B( 17-C , 30-H ) :  -0.1415
B( 20-C , 21-C ) :   0.6168 B( 20-C , 32-C ) :   1.1149 B( 20-C , 35-H ) :   0.9403
B( 20-C , 36-H ) :   0.9590 B( 21-C , 22-H ) :   0.9794 B( 21-C , 23-H ) :   0.9239
B( 21-C , 29-C ) :   0.1862 B( 21-C , 32-C ) :   0.2110 B( 21-C , 35-H ) :  -0.1009
B( 26-C , 29-C ) :   0.7281 B( 26-C , 30-H ) :   0.7427 B( 26-C , 31-H ) :   1.6183
B( 26-C , 32-C ) :   0.2565 B( 29-C , 31-H ) :  -0.1897 B( 29-C , 32-C ) :   1.0265
B( 29-C , 33-H ) :   0.9619 B( 29-C , 34-H ) :   0.8885 B( 30-H , 31-H ) :   0.1326
B( 32-C , 37-H ) :   0.9285 B( 32-C , 38-H ) :   0.9259

Dispersion correction           -0.038962809
FINAL SINGLE POINT ENERGY      -755.099396826971

DIPOLE MOMENT
-------------
                                X             Y             Z
Electronic contribution:     12.38055       8.53563       4.38280
Nuclear contribution   :    -13.25777      -8.13937      -5.31678
                        -----------------------------------------
Total Dipole Moment    :     -0.87722       0.39626      -0.93398
                        -----------------------------------------
Magnitude (a.u.)       :      1.34121
Magnitude (Debye)      :      3.40909

Rotational constants in cm-1:     0.020021     0.013636     0.009443
Rotational constants in MHz :   600.208195   408.782966   283.102361

                             ****ORCA TERMINATED NORMALLY****
TOTAL RUN TIME: 0 days 0 hours 11 minutes 12 seconds 135 msec
