                         Program Version 5.0.0 -  RELEASE  -
|  1> !wB97X-D3 RIJCOSX def2-TZVP def2/J TightSCF
|  2> *xyz -1 1
|  3> C          2.49670       -1.84416       -5.73570
|  4> O          2.45973       -0.50920       -5.50576
|  5> H          2.07863       -2.36209       -4.89793
|  6> H          3.51118       -2.15388       -5.87645
|  7> H          1.92949       -2.07059       -6.61428
|  8> *
|  9>
| 10> %MaxCore 64000
| 11>
| 12> %pal nprocs 18
| 13> end
| 14>
| 15> %scf
| 16>   MaxIter 150
| 17> end
| 18>
| 19>
| 20>                          ****END OF INPUT****

CARTESIAN COORDINATES (ANGSTROEM)
---------------------------------
  C      2.496700   -1.844160   -5.735700
  O      2.459730   -0.509200   -5.505760
  H      2.078630   -2.362090   -4.897930
  H      3.511180   -2.153880   -5.876450
  H      1.929490   -2.070590   -6.614280

 Total Charge           Charge          ....   -1
 Multiplicity           Mult            ....    1
 Number of Electrons    NEL             ....   18
 Basis Dimension        Dim             ....   80

ORBITAL ENERGIES
----------------

  NO   OCC          E(Eh)            E(eV)
   0   2.0000     -18.838555      -512.6231
   1   2.0000     -10.042124      -273.2601
   2   2.0000      -0.756420       -20.5832
   3   2.0000      -0.493284       -13.4229
   4   2.0000      -0.283380        -7.7112
   5   2.0000      -0.283376        -7.7110
   6   2.0000      -0.175983        -4.7887
   7   2.0000      -0.019346        -0.5264
   8   2.0000      -0.019345        -0.5264
   9   0.0000       0.330679         8.9982
  10   0.0000       0.403936        10.9917
  11   0.0000       0.403939        10.9917
  12   0.0000       0.409432        11.1412
  13   0.0000       0.513761        13.9801

MULLIKEN ATOMIC CHARGES
-----------------------
   0 C :   -0.000703
   1 O :   -0.866582
   2 H :   -0.044246
   3 H :   -0.044238
   4 H :   -0.044231
Sum of atomic charges:   -1.0000000

LOEWDIN ATOMIC CHARGES
----------------------
   0 C :   -0.579965
   1 O :   -0.512172
   2 H :    0.030712
   3 H :    0.030707
   4 H :    0.030718

  Mayer bond orders larger than 0.100000
B(  0-C ,  1-O ) :   1.4688 B(  0-C ,  2-H ) :   0.9537 B(  0-C ,  3-H ) :   0.9537
B(  0-C ,  4-H ) :   0.9537

Dispersion correction           -0.000086560
FINAL SINGLE POINT ENERGY      -115.095268494877

DIPOLE MOMENT
-------------
                                X             Y             Z
Electronic contribution:     -0.05417       1.95495       0.33676
Nuclear contribution   :      0.07809      -2.81948      -0.48564
                        -----------------------------------------
Total Dipole Moment    :      0.02392      -0.86453      -0.14888
                        -----------------------------------------
Magnitude (a.u.)       :      0.87758
Magnitude (Debye)      :      2.23064

Rotational constants in cm-1:     5.477724     0.956378     0.956377
Rotational constants in MHz : 164218.041992 28671.483536 28671.460928

                             ****ORCA TERMINATED NORMALLY****
TOTAL RUN TIME: 0 days 0 hours 0 minutes 4 seconds 307 msec
