                         Program Version 5.0.0 -  RELEASE  -
|  1> !wB97X-D3 RIJCOSX def2-TZVP def2/J TightSCF
|  2> *xyz 1 1
|  3> C          4.99986       -1.59613       -5.92488
|  4> N          5.28156       -1.97413       -4.53576
|  5> C          4.79250       -1.36132       -3.45730
|  6> N          3.93990       -0.37492       -3.55736
|  7> N          5.25986       -1.75422       -2.23913
|  8> H          5.92282       -2.52145       -2.18672
|  9> H          4.65468       -1.64040       -1.44202
| 10> H          5.70914       -2.87560       -4.38702
| 11> H          3.33010       -0.31764       -4.36125
| 12> H          3.69849        0.11447       -2.70833
| 13> H          5.52133       -2.25562       -6.58673
| 14> H          5.32493       -0.59081       -6.09388
| 15> H          3.94785       -1.66624       -6.10727
| 16> *
| 17>
| 18> %MaxCore 64000
| 19>
| 20> %pal nprocs 18
| 21> end
| 22>
| 23> %scf
| 24>   MaxIter 150
| 25> end
| 26>
| 27>
| 28>                          ****END OF INPUT****

CARTESIAN COORDINATES (ANGSTROEM)
---------------------------------
  C      4.999860   -1.596130   -5.924880
  N      5.281560   -1.974130   -4.535760
  C      4.792500   -1.361320   -3.457300
  N      3.939900   -0.374920   -3.557360
  N      5.259860   -1.754220   -2.239130
  H      5.922820   -2.521450   -2.186720
  H      4.654680   -1.640400   -1.442020
  H      5.709140   -2.875600   -4.387020
  H      3.330100   -0.317640   -4.361250
  H      3.698490    0.114470   -2.708330
  H      5.521330   -2.255620   -6.586730
  H      5.324930   -0.590810   -6.093880
  H      3.947850   -1.666240   -6.107270

 Total Charge           Charge          ....    1
 Multiplicity           Mult            ....    1
 Number of Electrons    NEL             ....   40
 Basis Dimension        Dim             ....  203

ORBITAL ENERGIES
----------------

  NO   OCC          E(Eh)            E(eV)
   0   2.0000     -14.653319      -398.7371
   1   2.0000     -14.652468      -398.7139
   2   2.0000     -14.642886      -398.4532
   3   2.0000     -10.618014      -288.9308
   4   2.0000     -10.478328      -285.1298
   5   2.0000      -1.337967       -36.4079
   6   2.0000      -1.225922       -33.3590
   7   2.0000      -1.209741       -32.9187
   8   2.0000      -1.018841       -27.7241
   9   2.0000      -0.939308       -25.5599
  10   2.0000      -0.895323       -24.3630
  11   2.0000      -0.852603       -23.2005
  12   2.0000      -0.803434       -21.8626
  13   2.0000      -0.794231       -21.6121
  14   2.0000      -0.754128       -20.5209
  15   2.0000      -0.731612       -19.9082
  16   2.0000      -0.691371       -18.8131
  17   2.0000      -0.677334       -18.4312
  18   2.0000      -0.579302       -15.7636
  19   2.0000      -0.551488       -15.0067
  20   0.0000      -0.093893        -2.5550
  21   0.0000      -0.069771        -1.8986
  22   0.0000      -0.035058        -0.9540
  23   0.0000      -0.024464        -0.6657
  24   0.0000      -0.005541        -0.1508

MULLIKEN ATOMIC CHARGES
-----------------------
   0 C :   -0.296392
   1 N :   -0.302028
   2 C :    0.494920
   3 N :   -0.429022
   4 N :   -0.466759
   5 H :    0.294105
   6 H :    0.295708
   7 H :    0.275023
   8 H :    0.307428
   9 H :    0.300768
  10 H :    0.181709
  11 H :    0.188294
  12 H :    0.156246
Sum of atomic charges:    1.0000000

LOEWDIN ATOMIC CHARGES
----------------------
   0 C :   -0.258688
   1 N :    0.139028
   2 C :   -0.396315
   3 N :    0.087502
   4 N :    0.034810
   5 H :    0.196859
   6 H :    0.192377
   7 H :    0.208020
   8 H :    0.204638
   9 H :    0.205468
  10 H :    0.136659
  11 H :    0.130412
  12 H :    0.119229

  Mayer bond orders larger than 0.100000
B(  0-C ,  1-N ) :   0.8923 B(  0-C , 10-H ) :   0.9553 B(  0-C , 11-H ) :   0.9612
B(  0-C , 12-H ) :   0.9684 B(  1-N ,  2-C ) :   1.3728 B(  1-N ,  7-H ) :   0.8996
B(  2-C ,  3-N ) :   1.3602 B(  2-C ,  4-N ) :   1.2819 B(  3-N ,  8-H ) :   0.8785
B(  3-N ,  9-H ) :   0.8902 B(  4-N ,  5-H ) :   0.8976 B(  4-N ,  6-H ) :   0.8893

Dispersion correction           -0.002409744
FINAL SINGLE POINT ENERGY      -245.106833107138

DIPOLE MOMENT
-------------
                                X             Y             Z
Electronic contribution:      0.16000       0.09845       2.69902
Nuclear contribution   :     -0.59263      -0.40751      -2.24260
                        -----------------------------------------
Total Dipole Moment    :     -0.43263      -0.30906       0.45642
                        -----------------------------------------
Magnitude (a.u.)       :      0.70072
Magnitude (Debye)      :      1.78110

Rotational constants in cm-1:     0.316984     0.131419     0.095004
Rotational constants in MHz :  9502.926758  3939.829875  2848.138998

                             ****ORCA TERMINATED NORMALLY****
TOTAL RUN TIME: 0 days 0 hours 0 minutes 10 seconds 697 msec
