                         Program Version 5.0.0 -  RELEASE  -
|  1> !wB97X-D3 RIJCOSX def2-TZVP def2/J TightSCF
|  2> *xyz 0 1
|  3> C          2.49670       -1.84416       -5.73570
|  4> F          2.45973       -0.50920       -5.50576
|  5> H          2.07863       -2.36209       -4.89793
|  6> H          3.51118       -2.15388       -5.87645
|  7> H          1.92949       -2.07059       -6.61428
|  8> *
|  9>
| 10> %MaxCore 64000
| 11>
| 12> %pal nprocs 18
| 13> end
| 14>
| 15> %scf
| 16>   MaxIter 150
| 17> end
| 18>
| 19>
| 20>                          ****END OF INPUT****

CARTESIAN COORDINATES (ANGSTROEM)
---------------------------------
  C      2.496700   -1.844160   -5.735700
  F      2.459730   -0.509200   -5.505760
  H      2.078630   -2.362090   -4.897930
  H      3.511180   -2.153880   -5.876450
  H      1.929490   -2.070590   -6.614280

 Total Charge           Charge          ....    0
 Multiplicity           Mult            ....    1
 Number of Electrons    NEL             ....   18
 Basis Dimension        Dim             ....   80

ORBITAL ENERGIES
----------------

  NO   OCC          E(Eh)            E(eV)
   0   2.0000     -24.764424      -673.8742
   1   2.0000     -10.336912      -281.2817
   2   2.0000      -1.314960       -35.7819
   3   2.0000      -0.818791       -22.2804
   4   2.0000      -0.596566       -16.2334
   5   2.0000      -0.593336       -16.1455
   6   2.0000      -0.593332       -16.1454
   7   2.0000      -0.444370       -12.0919
   8   2.0000      -0.444361       -12.0917
   9   0.0000       0.139625         3.7994
  10   0.0000       0.167979         4.5709
  11   0.0000       0.204647         5.5687
  12   0.0000       0.204649         5.5688
  13   0.0000       0.294882         8.0242

MULLIKEN ATOMIC CHARGES
-----------------------
   0 C :   -0.066152
   1 F :   -0.244080
   2 H :    0.103374
   3 H :    0.103435
   4 H :    0.103423
Sum of atomic charges:    0.0000000

LOEWDIN ATOMIC CHARGES
----------------------
   0 C :   -0.359131
   1 F :    0.077404
   2 H :    0.093903
   3 H :    0.093912
   4 H :    0.093912

  Mayer bond orders larger than 0.100000
B(  0-C ,  1-F ) :   0.9820 B(  0-C ,  2-H ) :   0.9795 B(  0-C ,  3-H ) :   0.9795
B(  0-C ,  4-H ) :   0.9795

Dispersion correction           -0.000124156
FINAL SINGLE POINT ENERGY      -139.764397405850

DIPOLE MOMENT
-------------
                                X             Y             Z
Electronic contribution:     -0.08016       2.89439       0.49857
Nuclear contribution   :      0.09898      -3.57380      -0.61557
                        -----------------------------------------
Total Dipole Moment    :      0.01882      -0.67941      -0.11699
                        -----------------------------------------
Magnitude (a.u.)       :      0.68967
Magnitude (Debye)      :      1.75299

Rotational constants in cm-1:     5.477724     0.890368     0.890367
Rotational constants in MHz : 164218.041992 26692.553985 26692.534390

                             ****ORCA TERMINATED NORMALLY****
TOTAL RUN TIME: 0 days 0 hours 0 minutes 5 seconds 962 msec
