                         Program Version 5.0.0 -  RELEASE  -
|  1> !wB97X-D3 RIJCOSX def2-TZVP def2/J TightSCF
|  2> *xyz 0 1
|  3> C          4.99986       -1.59613       -5.92488
|  4> C          5.28156       -1.97413       -4.53576
|  5> C          4.79250       -1.36132       -3.45730
|  6> N          3.93990       -0.37492       -3.55736
|  7> N          5.25986       -1.75422       -2.23913
|  8> H          5.92282       -2.52145       -2.18672
|  9> H          4.65468       -1.64040       -1.44202
| 10> H          5.70914       -2.87560       -4.38702
| 11> H          3.33010       -0.31764       -4.36125
| 12> H          3.69849        0.11447       -2.70833
| 13> H          5.52133       -2.25562       -6.58673
| 14> H          5.32493       -0.59081       -6.09388
| 15> H          3.94785       -1.66624       -6.10727
| 16> *
| 17>
| 18> %MaxCore 64000
| 19>
| 20> %pal nprocs 18
| 21> end
| 22>
| 23> %scf
| 24>   MaxIter 150
| 25> end
| 26>
| 27>
| 28>                          ****END OF INPUT****

CARTESIAN COORDINATES (ANGSTROEM)
---------------------------------
  C      4.999860   -1.596130   -5.924880
  C      5.281560   -1.974130   -4.535760
  C      4.792500   -1.361320   -3.457300
  N      3.939900   -0.374920   -3.557360
  N      5.259860   -1.754220   -2.239130
  H      5.922820   -2.521450   -2.186720
  H      4.654680   -1.640400   -1.442020
  H      5.709140   -2.875600   -4.387020
  H      3.330100   -0.317640   -4.361250
  H      3.698490    0.114470   -2.708330
  H      5.521330   -2.255620   -6.586730
  H      5.324930   -0.590810   -6.093880
  H      3.947850   -1.666240   -6.107270

 Total Charge           Charge          ....    0
 Multiplicity           Mult            ....    1
 Number of Electrons    NEL             ....   40
 Basis Dimension        Dim             ....  203

ORBITAL ENERGIES
----------------

  NO   OCC          E(Eh)            E(eV)
   0   2.0000     -14.422662      -392.4606
   1   2.0000     -14.412965      -392.1967
   2   2.0000     -10.314718      -280.6778
   3   2.0000     -10.234736      -278.5013
   4   2.0000     -10.194684      -277.4115
   5   2.0000      -1.077421       -29.3181
   6   2.0000      -0.983403       -26.7597
   7   2.0000      -0.863594       -23.4996
   8   2.0000      -0.764888       -20.8136
   9   2.0000      -0.686864       -18.6905
  10   2.0000      -0.644869       -17.5478
  11   2.0000      -0.603515       -16.4225
  12   2.0000      -0.573563       -15.6074
  13   2.0000      -0.526620       -14.3301
  14   2.0000      -0.504335       -13.7236
  15   2.0000      -0.469954       -12.7881
  16   2.0000      -0.451606       -12.2888
  17   2.0000      -0.430527       -11.7152
  18   2.0000      -0.358498        -9.7552
  19   2.0000      -0.244458        -6.6520
  20   0.0000       0.104703         2.8491
  21   0.0000       0.135316         3.6821
  22   0.0000       0.154378         4.2009
  23   0.0000       0.160223         4.3599
  24   0.0000       0.177480         4.8295

MULLIKEN ATOMIC CHARGES
-----------------------
   0 C :   -0.343836
   1 C :   -0.329131
   2 C :    0.366492
   3 N :   -0.519052
   4 N :   -0.529954
   5 H :    0.251849
   6 H :    0.216870
   7 H :    0.089481
   8 H :    0.259165
   9 H :    0.230108
  10 H :    0.108439
  11 H :    0.116415
  12 H :    0.083154
Sum of atomic charges:   -0.0000000

LOEWDIN ATOMIC CHARGES
----------------------
   0 C :   -0.317613
   1 C :   -0.308262
   2 C :   -0.463587
   3 N :    0.001688
   4 N :   -0.047141
   5 H :    0.175434
   6 H :    0.151565
   7 H :    0.113573
   8 H :    0.180651
   9 H :    0.168589
  10 H :    0.121328
  11 H :    0.117478
  12 H :    0.106296

  Mayer bond orders larger than 0.100000
B(  0-C ,  1-C ) :   0.9881 B(  0-C , 10-H ) :   0.9879 B(  0-C , 11-H ) :   0.9848
B(  0-C , 12-H ) :   0.9792 B(  1-C ,  2-C ) :   1.6798 B(  1-C ,  7-H ) :   0.9898
B(  2-C ,  3-N ) :   1.1420 B(  2-C ,  4-N ) :   1.1067 B(  3-N ,  8-H ) :   0.9085
B(  3-N ,  9-H ) :   0.9250 B(  4-N ,  5-H ) :   0.9242 B(  4-N ,  6-H ) :   0.9213

Dispersion correction           -0.002410893
FINAL SINGLE POINT ENERGY      -228.626595692478

DIPOLE MOMENT
-------------
                                X             Y             Z
Electronic contribution:     -0.17719       0.62018       3.14744
Nuclear contribution   :     -0.50372      -0.52081      -2.36443
                        -----------------------------------------
Total Dipole Moment    :     -0.68091       0.09937       0.78301
                        -----------------------------------------
Magnitude (a.u.)       :      1.04241
Magnitude (Debye)      :      2.64960

Rotational constants in cm-1:     0.322219     0.132365     0.095965
Rotational constants in MHz :  9659.878542  3968.206057  2876.950547

                             ****ORCA TERMINATED NORMALLY****
TOTAL RUN TIME: 0 days 0 hours 0 minutes 14 seconds 552 msec
