                         Program Version 5.0.0 -  RELEASE  -
|  1> !wB97X-D3 RIJCOSX def2-TZVP def2/J TightSCF
|  2> *xyz 0 1
|  3> C          4.99986       -1.59613       -5.92488
|  4> N          5.28156       -1.97413       -4.53576
|  5> C          4.79250       -1.36132       -3.45730
|  6> C          3.93990       -0.37492       -3.55736
|  7> N          5.25986       -1.75422       -2.23913
|  8> H          5.92282       -2.52145       -2.18672
|  9> H          4.65468       -1.64040       -1.44202
| 10> H          5.70914       -2.87560       -4.38702
| 11> H          3.33010       -0.31764       -4.36125
| 12> H          3.69849        0.11447       -2.70833
| 13> H          5.52133       -2.25562       -6.58673
| 14> H          5.32493       -0.59081       -6.09388
| 15> H          3.94785       -1.66624       -6.10727
| 16> *
| 17>
| 18> %MaxCore 64000
| 19>
| 20> %pal nprocs 18
| 21> end
| 22>
| 23> %scf
| 24>   MaxIter 150
| 25> end
| 26>
| 27>
| 28>                          ****END OF INPUT****

CARTESIAN COORDINATES (ANGSTROEM)
---------------------------------
  C      4.999860   -1.596130   -5.924880
  N      5.281560   -1.974130   -4.535760
  C      4.792500   -1.361320   -3.457300
  C      3.939900   -0.374920   -3.557360
  N      5.259860   -1.754220   -2.239130
  H      5.922820   -2.521450   -2.186720
  H      4.654680   -1.640400   -1.442020
  H      5.709140   -2.875600   -4.387020
  H      3.330100   -0.317640   -4.361250
  H      3.698490    0.114470   -2.708330
  H      5.521330   -2.255620   -6.586730
  H      5.324930   -0.590810   -6.093880
  H      3.947850   -1.666240   -6.107270

 Total Charge           Charge          ....    0
 Multiplicity           Mult            ....    1
 Number of Electrons    NEL             ....   40
 Basis Dimension        Dim             ....  203

ORBITAL ENERGIES
----------------

  NO   OCC          E(Eh)            E(eV)
   0   2.0000     -14.423740      -392.4899
   1   2.0000     -14.416147      -392.2833
   2   2.0000     -10.319387      -280.8048
   3   2.0000     -10.297085      -280.1979
   4   2.0000     -10.183286      -277.1013
   5   2.0000      -1.078221       -29.3399
   6   2.0000      -0.991666       -26.9846
   7   2.0000      -0.838694       -22.8220
   8   2.0000      -0.808515       -22.0008
   9   2.0000      -0.671776       -18.2800
  10   2.0000      -0.643506       -17.5107
  11   2.0000      -0.613241       -16.6871
  12   2.0000      -0.556574       -15.1451
  13   2.0000      -0.533097       -14.5063
  14   2.0000      -0.514525       -14.0009
  15   2.0000      -0.479374       -13.0444
  16   2.0000      -0.478527       -13.0214
  17   2.0000      -0.452220       -12.3055
  18   2.0000      -0.342731        -9.3262
  19   2.0000      -0.260158        -7.0793
  20   0.0000       0.105514         2.8712
  21   0.0000       0.137679         3.7464
  22   0.0000       0.151074         4.1109
  23   0.0000       0.160672         4.3721
  24   0.0000       0.177510         4.8303

MULLIKEN ATOMIC CHARGES
-----------------------
   0 C :   -0.240158
   1 N :   -0.368690
   2 C :    0.423451
   3 C :   -0.542839
   4 N :   -0.537825
   5 H :    0.222223
   6 H :    0.254343
   7 H :    0.202406
   8 H :    0.108919
   9 H :    0.089642
  10 H :    0.121729
  11 H :    0.142311
  12 H :    0.124489
Sum of atomic charges:    0.0000000

LOEWDIN ATOMIC CHARGES
----------------------
   0 C :   -0.290355
   1 N :    0.079057
   2 C :   -0.456822
   3 C :   -0.330137
   4 N :   -0.040838
   5 H :    0.159159
   6 H :    0.170792
   7 H :    0.172110
   8 H :    0.102436
   9 H :    0.100758
  10 H :    0.111270
  11 H :    0.116026
  12 H :    0.106545

  Mayer bond orders larger than 0.100000
B(  0-C ,  1-N ) :   0.9474 B(  0-C , 10-H ) :   0.9703 B(  0-C , 11-H ) :   0.9739
B(  0-C , 12-H ) :   0.9802 B(  1-N ,  2-C ) :   1.1392 B(  1-N ,  7-H ) :   0.9305
B(  2-C ,  3-C ) :   1.6399 B(  2-C ,  4-N ) :   1.0757 B(  3-C ,  8-H ) :   0.9895
B(  3-C ,  9-H ) :   1.0134 B(  4-N ,  5-H ) :   0.9316 B(  4-N ,  6-H ) :   0.9182

Dispersion correction           -0.002406540
FINAL SINGLE POINT ENERGY      -228.618082718944

DIPOLE MOMENT
-------------
                                X             Y             Z
Electronic contribution:      1.14965      -0.94385       2.13925
Nuclear contribution   :     -0.77547      -0.19690      -2.16626
                        -----------------------------------------
Total Dipole Moment    :      0.37419      -1.14075      -0.02700
                        -----------------------------------------
Magnitude (a.u.)       :      1.20085
Magnitude (Debye)      :      3.05233

Rotational constants in cm-1:     0.340409     0.131955     0.097296
Rotational constants in MHz : 10205.195281  3955.909122  2916.861706

                             ****ORCA TERMINATED NORMALLY****
TOTAL RUN TIME: 0 days 0 hours 0 minutes 14 seconds 204 msec
