                         Program Version 5.0.0 -  RELEASE  -
|  1> !wB97X-D3 RIJCOSX def2-TZVP def2/J TightSCF
|  2> *xyz 0 1
|  3> C          4.99986       -1.59613       -5.92488
|  4> N          5.28156       -1.97413       -4.53576
|  5> C          4.79250       -1.36132       -3.45730
|  6> N          3.93990       -0.37492       -3.55736
|  7> C          5.25986       -1.75422       -2.23913
|  8> H          5.92282       -2.52145       -2.18672
|  9> H          4.65468       -1.64040       -1.44202
| 10> H          5.70914       -2.87560       -4.38702
| 11> H          3.33010       -0.31764       -4.36125
| 12> H          3.69849        0.11447       -2.70833
| 13> H          5.52133       -2.25562       -6.58673
| 14> H          5.32493       -0.59081       -6.09388
| 15> H          3.94785       -1.66624       -6.10727
| 16> *
| 17>
| 18> %MaxCore 64000
| 19>
| 20> %pal nprocs 18
| 21> end
| 22>
| 23> %scf
| 24>   MaxIter 150
| 25> end
| 26>
| 27>
| 28>                          ****END OF INPUT****

CARTESIAN COORDINATES (ANGSTROEM)
---------------------------------
  C      4.999860   -1.596130   -5.924880
  N      5.281560   -1.974130   -4.535760
  C      4.792500   -1.361320   -3.457300
  N      3.939900   -0.374920   -3.557360
  C      5.259860   -1.754220   -2.239130
  H      5.922820   -2.521450   -2.186720
  H      4.654680   -1.640400   -1.442020
  H      5.709140   -2.875600   -4.387020
  H      3.330100   -0.317640   -4.361250
  H      3.698490    0.114470   -2.708330
  H      5.521330   -2.255620   -6.586730
  H      5.324930   -0.590810   -6.093880
  H      3.947850   -1.666240   -6.107270

 Total Charge           Charge          ....    0
 Multiplicity           Mult            ....    1
 Number of Electrons    NEL             ....   40
 Basis Dimension        Dim             ....  203

ORBITAL ENERGIES
----------------

  NO   OCC          E(Eh)            E(eV)
   0   2.0000     -14.424844      -392.5200
   1   2.0000     -14.423632      -392.4870
   2   2.0000     -10.324919      -280.9553
   3   2.0000     -10.306194      -280.4458
   4   2.0000     -10.178762      -276.9782
   5   2.0000      -1.089096       -29.6358
   6   2.0000      -1.003461       -27.3056
   7   2.0000      -0.853390       -23.2219
   8   2.0000      -0.775627       -21.1059
   9   2.0000      -0.709197       -19.2982
  10   2.0000      -0.646834       -17.6012
  11   2.0000      -0.595212       -16.1965
  12   2.0000      -0.580299       -15.7907
  13   2.0000      -0.553096       -15.0505
  14   2.0000      -0.503294       -13.6953
  15   2.0000      -0.487182       -13.2569
  16   2.0000      -0.477016       -12.9803
  17   2.0000      -0.448027       -12.1914
  18   2.0000      -0.350828        -9.5465
  19   2.0000      -0.245068        -6.6686
  20   0.0000       0.103626         2.8198
  21   0.0000       0.134816         3.6685
  22   0.0000       0.147629         4.0172
  23   0.0000       0.153144         4.1673
  24   0.0000       0.179673         4.8892

MULLIKEN ATOMIC CHARGES
-----------------------
   0 C :   -0.271296
   1 N :   -0.360784
   2 C :    0.425635
   3 N :   -0.508192
   4 C :   -0.569546
   5 H :    0.072313
   6 H :    0.094185
   7 H :    0.237949
   8 H :    0.236069
   9 H :    0.260445
  10 H :    0.129027
  11 H :    0.142155
  12 H :    0.112040
Sum of atomic charges:    0.0000000

LOEWDIN ATOMIC CHARGES
----------------------
   0 C :   -0.305987
   1 N :    0.083804
   2 C :   -0.463408
   3 N :    0.007230
   4 C :   -0.373643
   5 H :    0.091413
   6 H :    0.090206
   7 H :    0.190558
   8 H :    0.167347
   9 H :    0.184993
  10 H :    0.115366
  11 H :    0.112006
  12 H :    0.100112

  Mayer bond orders larger than 0.100000
B(  0-C ,  1-N ) :   0.9462 B(  0-C , 10-H ) :   0.9745 B(  0-C , 11-H ) :   0.9720
B(  0-C , 12-H ) :   0.9794 B(  1-N ,  2-C ) :   1.1674 B(  1-N ,  7-H ) :   0.9257
B(  2-C ,  3-N ) :   1.1431 B(  2-C ,  4-C ) :   1.5402 B(  3-N ,  8-H ) :   0.9140
B(  3-N ,  9-H ) :   0.9175 B(  4-C ,  5-H ) :   1.0337 B(  4-C ,  6-H ) :   0.9860

Dispersion correction           -0.002424049
FINAL SINGLE POINT ENERGY      -228.611636818362

DIPOLE MOMENT
-------------
                                X             Y             Z
Electronic contribution:     -0.18570       0.48847       0.73710
Nuclear contribution   :     -0.50812      -0.47627      -1.89926
                        -----------------------------------------
Total Dipole Moment    :     -0.69382       0.01220      -1.16216
                        -----------------------------------------
Magnitude (a.u.)       :      1.35357
Magnitude (Debye)      :      3.44050

Rotational constants in cm-1:     0.323645     0.137193     0.098606
Rotational constants in MHz :  9702.637007  4112.943433  2956.125886

                             ****ORCA TERMINATED NORMALLY****
TOTAL RUN TIME: 0 days 0 hours 0 minutes 14 seconds 431 msec
