                         Program Version 5.0.0 -  RELEASE  -
|  1> !wB97X-D3 RIJCOSX def2-TZVP def2/J TightSCF
|  2> *xyz -1 1
|  3> C          1.87218        0.42790       -2.07750
|  4> S          0.57902        0.14047       -3.29794
|  5> O          0.22886       -1.24687       -3.12787
|  6> O         -0.43927        1.11897       -3.01455
|  7> O          1.24788        0.40347       -4.59565
|  8> H          2.66832       -0.27048       -2.23022
|  9> H          1.46951        0.30034       -1.09440
| 10> H          2.24690        1.42458       -2.18288
| 11> *
| 12>
| 13> %MaxCore 64000
| 14>
| 15> %pal nprocs 8
| 16> end
| 17>
| 18> %scf
| 19>   MaxIter 150
| 20> end
| 21>
| 22>
| 23>                          ****END OF INPUT****

CARTESIAN COORDINATES (ANGSTROEM)
---------------------------------
  C      1.872180    0.427900   -2.077500
  S      0.579020    0.140470   -3.297940
  O      0.228860   -1.246870   -3.127870
  O     -0.439270    1.118970   -3.014550
  O      1.247880    0.403470   -4.595650
  H      2.668320   -0.270480   -2.230220
  H      1.469510    0.300340   -1.094400
  H      2.246900    1.424580   -2.182880

 Total Charge           Charge          ....   -1
 Multiplicity           Mult            ....    1
 Number of Electrons    NEL             ....   50
 Basis Dimension        Dim             ....  179

ORBITAL ENERGIES
----------------

  NO   OCC          E(Eh)            E(eV)
   0   2.0000     -88.927807     -2419.8486
   1   2.0000     -19.001240      -517.0500
   2   2.0000     -19.001151      -517.0476
   3   2.0000     -18.986188      -516.6404
   4   2.0000     -10.115948      -275.2689
   5   2.0000      -7.990064      -217.4207
   6   2.0000      -5.944661      -161.7625
   7   2.0000      -5.942979      -161.7167
   8   2.0000      -5.942683      -161.7086
   9   2.0000      -1.033503       -28.1230
  10   2.0000      -0.903421       -24.5833
  11   2.0000      -0.876755       -23.8577
  12   2.0000      -0.688120       -18.7247
  13   2.0000      -0.485042       -13.1987
  14   2.0000      -0.394118       -10.7245
  15   2.0000      -0.382053       -10.3962
  16   2.0000      -0.381190       -10.3727
  17   2.0000      -0.339050        -9.2260
  18   2.0000      -0.336070        -9.1449
  19   2.0000      -0.243279        -6.6199
  20   2.0000      -0.241933        -6.5833
  21   2.0000      -0.205508        -5.5922
  22   2.0000      -0.196891        -5.3577
  23   2.0000      -0.187040        -5.0896
  24   2.0000      -0.150928        -4.1070
  25   0.0000       0.278895         7.5891
  26   0.0000       0.335951         9.1417
  27   0.0000       0.337992         9.1972
  28   0.0000       0.349531         9.5112
  29   0.0000       0.414450        11.2778

MULLIKEN ATOMIC CHARGES
-----------------------
   0 C :   -0.390954
   1 S :    0.850939
   2 O :   -0.563561
   3 O :   -0.562382
   4 O :   -0.610673
   5 H :    0.094949
   6 H :    0.087279
   7 H :    0.094402
Sum of atomic charges:   -1.0000000

LOEWDIN ATOMIC CHARGES
----------------------
   0 C :   -0.463891
   1 S :    0.389108
   2 O :   -0.384682
   3 O :   -0.384203
   4 O :   -0.441073
   5 H :    0.096001
   6 H :    0.093137
   7 H :    0.095603

  Mayer bond orders larger than 0.100000
B(  0-C ,  1-S ) :   0.8743 B(  0-C ,  5-H ) :   0.9708 B(  0-C ,  6-H ) :   0.9670
B(  0-C ,  7-H ) :   0.9704 B(  1-S ,  2-O ) :   1.8004 B(  1-S ,  3-O ) :   1.8028
B(  1-S ,  4-O ) :   1.7507

Dispersion correction           -0.001525153
FINAL SINGLE POINT ENERGY      -663.900219387699

DIPOLE MOMENT
-------------
                                X             Y             Z
Electronic contribution:     -3.23517      -0.72966      -2.87367
Nuclear contribution   :      4.08143       0.90272       3.93680
                        -----------------------------------------
Total Dipole Moment    :      0.84625       0.17306       1.06313
                        -----------------------------------------
Magnitude (a.u.)       :      1.36980
Magnitude (Debye)      :      3.48174

Rotational constants in cm-1:     0.171796     0.158241     0.155560
Rotational constants in MHz :  5150.307583  4743.954688  4663.569252

                             ****ORCA TERMINATED NORMALLY****
TOTAL RUN TIME: 0 days 0 hours 0 minutes 12 seconds 369 msec
