                         Program Version 5.0.0 -  RELEASE  -
|  1> !wB97X-D3 RIJCOSX def2-TZVP def2/J TightSCF
|  2> *xyz 1 1
|  3> C          3.38093        2.08304       -3.35013
|  4> N          4.53592        1.18245       -3.42852
|  5> C          4.67196        0.12227       -4.22060
|  6> N          5.86602       -0.50785       -4.22428
|  7> N          3.69888       -0.31284       -4.98699
|  8> H          2.73141       -0.05009       -4.84900
|  9> H          3.89005       -1.05517       -5.64373
| 10> H          5.25193        1.30346       -2.72101
| 11> H          6.69516       -0.06232       -3.85160
| 12> H          5.97538       -1.39688       -4.69141
| 13> H          2.69962        1.85926       -4.14426
| 14> H          3.71221        3.09654       -3.43937
| 15> H          2.88835        1.95032       -2.40957
| 16> *
| 17>
| 18> %MaxCore 64000
| 19>
| 20> %pal nprocs 8
| 21> end
| 22>
| 23> %scf
| 24>   MaxIter 150
| 25> end
| 26>
| 27>
| 28>                          ****END OF INPUT****

CARTESIAN COORDINATES (ANGSTROEM)
---------------------------------
  C      3.380930    2.083040   -3.350130
  N      4.535920    1.182450   -3.428520
  C      4.671960    0.122270   -4.220600
  N      5.866020   -0.507850   -4.224280
  N      3.698880   -0.312840   -4.986990
  H      2.731410   -0.050090   -4.849000
  H      3.890050   -1.055170   -5.643730
  H      5.251930    1.303460   -2.721010
  H      6.695160   -0.062320   -3.851600
  H      5.975380   -1.396880   -4.691410
  H      2.699620    1.859260   -4.144260
  H      3.712210    3.096540   -3.439370
  H      2.888350    1.950320   -2.409570

 Total Charge           Charge          ....    1
 Multiplicity           Mult            ....    1
 Number of Electrons    NEL             ....   40
 Basis Dimension        Dim             ....  203

ORBITAL ENERGIES
----------------

  NO   OCC          E(Eh)            E(eV)
   0   2.0000     -14.650163      -398.6512
   1   2.0000     -14.650142      -398.6506
   2   2.0000     -14.642171      -398.4337
   3   2.0000     -10.617777      -288.9244
   4   2.0000     -10.477546      -285.1085
   5   2.0000      -1.335486       -36.3404
   6   2.0000      -1.223138       -33.2833
   7   2.0000      -1.207631       -32.8613
   8   2.0000      -1.019409       -27.7395
   9   2.0000      -0.939572       -25.5670
  10   2.0000      -0.893492       -24.3132
  11   2.0000      -0.856017       -23.2934
  12   2.0000      -0.799718       -21.7614
  13   2.0000      -0.794726       -21.6256
  14   2.0000      -0.750896       -20.4329
  15   2.0000      -0.733082       -19.9482
  16   2.0000      -0.691261       -18.8102
  17   2.0000      -0.678992       -18.4763
  18   2.0000      -0.575695       -15.6655
  19   2.0000      -0.546258       -14.8644
  20   0.0000      -0.082518        -2.2454
  21   0.0000      -0.068548        -1.8653
  22   0.0000      -0.033900        -0.9225
  23   0.0000      -0.024791        -0.6746
  24   0.0000      -0.005714        -0.1555

MULLIKEN ATOMIC CHARGES
-----------------------
   0 C :   -0.244109
   1 N :   -0.312918
   2 C :    0.535006
   3 N :   -0.486117
   4 N :   -0.466445
   5 H :    0.306781
   6 H :    0.299954
   7 H :    0.278280
   8 H :    0.305127
   9 H :    0.299103
  10 H :    0.122254
  11 H :    0.180504
  12 H :    0.182580
Sum of atomic charges:    1.0000000

LOEWDIN ATOMIC CHARGES
----------------------
   0 C :   -0.251204
   1 N :    0.140865
   2 C :   -0.401497
   3 N :    0.044208
   4 N :    0.078737
   5 H :    0.200026
   6 H :    0.202360
   7 H :    0.211813
   8 H :    0.197632
   9 H :    0.194930
  10 H :    0.120684
  11 H :    0.132271
  12 H :    0.129175

  Mayer bond orders larger than 0.100000
B(  0-C ,  1-N ) :   0.8908 B(  0-C , 10-H ) :   0.9742 B(  0-C , 11-H ) :   0.9604
B(  0-C , 12-H ) :   0.9598 B(  1-N ,  2-C ) :   1.3793 B(  1-N ,  7-H ) :   0.8986
B(  2-C ,  3-N ) :   1.2894 B(  2-C ,  4-N ) :   1.3453 B(  3-N ,  8-H ) :   0.8911
B(  3-N ,  9-H ) :   0.8939 B(  4-N ,  5-H ) :   0.8887 B(  4-N ,  6-H ) :   0.8913

Dispersion correction           -0.002351678
FINAL SINGLE POINT ENERGY      -245.108370257224

DIPOLE MOMENT
-------------
                                X             Y             Z
Electronic contribution:      1.70713      -1.99669      -0.72778
Nuclear contribution   :     -1.49827       1.51766       0.59175
                        -----------------------------------------
Total Dipole Moment    :      0.20885      -0.47902      -0.13603
                        -----------------------------------------
Magnitude (a.u.)       :      0.53999
Magnitude (Debye)      :      1.37254

Rotational constants in cm-1:     0.316446     0.130424     0.094259
Rotational constants in MHz :  9486.821695  3910.013387  2825.801764

                             ****ORCA TERMINATED NORMALLY****
TOTAL RUN TIME: 0 days 0 hours 0 minutes 17 seconds 580 msec
