                         Program Version 5.0.0 -  RELEASE  -
|  1> !wB97X-D3 RIJCOSX def2-TZVP def2/J TightSCF
|  2> *xyz 0 1
|  3> C          1.87218        0.42790       -2.07750
|  4> S          0.57902        0.14047       -3.29794
|  5> F          0.22886       -1.24687       -3.12787
|  6> O         -0.43927        1.11897       -3.01455
|  7> O          1.24788        0.40347       -4.59565
|  8> H          2.66832       -0.27048       -2.23022
|  9> H          1.46951        0.30034       -1.09440
| 10> H          2.24690        1.42458       -2.18288
| 11> *
| 12>
| 13> %MaxCore 64000
| 14>
| 15> %pal nprocs 8
| 16> end
| 17>
| 18> %scf
| 19>   MaxIter 150
| 20> end
| 21>
| 22>
| 23>                          ****END OF INPUT****

CARTESIAN COORDINATES (ANGSTROEM)
---------------------------------
  C      1.872180    0.427900   -2.077500
  S      0.579020    0.140470   -3.297940
  F      0.228860   -1.246870   -3.127870
  O     -0.439270    1.118970   -3.014550
  O      1.247880    0.403470   -4.595650
  H      2.668320   -0.270480   -2.230220
  H      1.469510    0.300340   -1.094400
  H      2.246900    1.424580   -2.182880

 Total Charge           Charge          ....    0
 Multiplicity           Mult            ....    1
 Number of Electrons    NEL             ....   50
 Basis Dimension        Dim             ....  179

ORBITAL ENERGIES
----------------

  NO   OCC          E(Eh)            E(eV)
   0   2.0000     -89.201614     -2427.2993
   1   2.0000     -24.912321      -677.8987
   2   2.0000     -19.246952      -523.7362
   3   2.0000     -19.232212      -523.3351
   4   2.0000     -10.328744      -281.0594
   5   2.0000      -8.264358      -224.8846
   6   2.0000      -6.221731      -169.3019
   7   2.0000      -6.215633      -169.1360
   8   2.0000      -6.214859      -169.1149
   9   2.0000      -1.506469       -40.9931
  10   2.0000      -1.224648       -33.3244
  11   2.0000      -1.121533       -30.5185
  12   2.0000      -0.914252       -24.8781
  13   2.0000      -0.829616       -22.5750
  14   2.0000      -0.710570       -19.3356
  15   2.0000      -0.697613       -18.9830
  16   2.0000      -0.660856       -17.9828
  17   2.0000      -0.577323       -15.7097
  18   2.0000      -0.576201       -15.6792
  19   2.0000      -0.562752       -15.3133
  20   2.0000      -0.535854       -14.5813
  21   2.0000      -0.488076       -13.2812
  22   2.0000      -0.435713       -11.8563
  23   2.0000      -0.421643       -11.4735
  24   2.0000      -0.403988       -10.9931
  25   0.0000       0.101632         2.7656
  26   0.0000       0.134837         3.6691
  27   0.0000       0.137227         3.7341
  28   0.0000       0.158245         4.3061
  29   0.0000       0.169877         4.6226

MULLIKEN ATOMIC CHARGES
-----------------------
   0 C :   -0.391984
   1 S :    0.867819
   2 F :   -0.094641
   3 O :   -0.410621
   4 O :   -0.457109
   5 H :    0.155979
   6 H :    0.153231
   7 H :    0.177325
Sum of atomic charges:   -0.0000000

LOEWDIN ATOMIC CHARGES
----------------------
   0 C :   -0.399922
   1 S :    0.514199
   2 F :    0.100505
   3 O :   -0.263624
   4 O :   -0.317582
   5 H :    0.118426
   6 H :    0.116959
   7 H :    0.131040

  Mayer bond orders larger than 0.100000
B(  0-C ,  1-S ) :   0.9265 B(  0-C ,  5-H ) :   0.9485 B(  0-C ,  6-H ) :   0.9468
B(  0-C ,  7-H ) :   0.9502 B(  1-S ,  2-F ) :   1.1505 B(  1-S ,  3-O ) :   1.9415
B(  1-S ,  4-O ) :   1.8866

Dispersion correction           -0.001537553
FINAL SINGLE POINT ENERGY      -688.418654584126

DIPOLE MOMENT
-------------
                                X             Y             Z
Electronic contribution:     -3.81479      -3.06187      -2.52980
Nuclear contribution   :      4.52607       2.31146       3.82544
                        -----------------------------------------
Total Dipole Moment    :      0.71128      -0.75041       1.29565
                        -----------------------------------------
Magnitude (a.u.)       :      1.65763
Magnitude (Debye)      :      4.21337

Rotational constants in cm-1:     0.162724     0.156586     0.147157
Rotational constants in MHz :  4878.333818  4694.318771  4411.658495

                             ****ORCA TERMINATED NORMALLY****
TOTAL RUN TIME: 0 days 0 hours 0 minutes 12 seconds 451 msec
