                         Program Version 5.0.0 -  RELEASE  -
|  1> !wB97X-D3 RIJCOSX def2-TZVP def2/J TightSCF
|  2> *xyz 0 1
|  3> C          3.38093        2.08304       -3.35013
|  4> C          4.53592        1.18245       -3.42852
|  5> C          4.67196        0.12227       -4.22060
|  6> N          5.86602       -0.50785       -4.22428
|  7> N          3.69888       -0.31284       -4.98699
|  8> H          2.73141       -0.05009       -4.84900
|  9> H          3.89005       -1.05517       -5.64373
| 10> H          5.25193        1.30346       -2.72101
| 11> H          6.69516       -0.06232       -3.85160
| 12> H          5.97538       -1.39688       -4.69141
| 13> H          2.69962        1.85926       -4.14426
| 14> H          3.71221        3.09654       -3.43937
| 15> H          2.88835        1.95032       -2.40957
| 16> *
| 17>
| 18> %MaxCore 64000
| 19>
| 20> %pal nprocs 8
| 21> end
| 22>
| 23> %scf
| 24>   MaxIter 150
| 25> end
| 26>
| 27>
| 28>                          ****END OF INPUT****

CARTESIAN COORDINATES (ANGSTROEM)
---------------------------------
  C      3.380930    2.083040   -3.350130
  C      4.535920    1.182450   -3.428520
  C      4.671960    0.122270   -4.220600
  N      5.866020   -0.507850   -4.224280
  N      3.698880   -0.312840   -4.986990
  H      2.731410   -0.050090   -4.849000
  H      3.890050   -1.055170   -5.643730
  H      5.251930    1.303460   -2.721010
  H      6.695160   -0.062320   -3.851600
  H      5.975380   -1.396880   -4.691410
  H      2.699620    1.859260   -4.144260
  H      3.712210    3.096540   -3.439370
  H      2.888350    1.950320   -2.409570

 Total Charge           Charge          ....    0
 Multiplicity           Mult            ....    1
 Number of Electrons    NEL             ....   40
 Basis Dimension        Dim             ....  203

ORBITAL ENERGIES
----------------

  NO   OCC          E(Eh)            E(eV)
   0   2.0000     -14.419589      -392.3770
   1   2.0000     -14.412109      -392.1734
   2   2.0000     -10.315484      -280.6986
   3   2.0000     -10.233540      -278.4688
   4   2.0000     -10.191616      -277.3280
   5   2.0000      -1.075073       -29.2542
   6   2.0000      -0.980787       -26.6886
   7   2.0000      -0.861294       -23.4370
   8   2.0000      -0.766255       -20.8509
   9   2.0000      -0.688093       -18.7240
  10   2.0000      -0.642820       -17.4920
  11   2.0000      -0.605632       -16.4801
  12   2.0000      -0.574911       -15.6441
  13   2.0000      -0.523273       -14.2390
  14   2.0000      -0.500708       -13.6250
  15   2.0000      -0.468510       -12.7488
  16   2.0000      -0.452703       -12.3187
  17   2.0000      -0.430668       -11.7191
  18   2.0000      -0.356265        -9.6945
  19   2.0000      -0.238810        -6.4984
  20   0.0000       0.105267         2.8645
  21   0.0000       0.137161         3.7323
  22   0.0000       0.151596         4.1251
  23   0.0000       0.172161         4.6847
  24   0.0000       0.179789         4.8923

MULLIKEN ATOMIC CHARGES
-----------------------
   0 C :   -0.278819
   1 C :   -0.364995
   2 C :    0.410578
   3 N :   -0.543601
   4 N :   -0.543085
   5 H :    0.256451
   6 H :    0.228314
   7 H :    0.092372
   8 H :    0.257551
   9 H :    0.222568
  10 H :    0.051713
  11 H :    0.105702
  12 H :    0.105251
Sum of atomic charges:   -0.0000000

LOEWDIN ATOMIC CHARGES
----------------------
   0 C :   -0.310859
   1 C :   -0.307084
   2 C :   -0.467732
   3 N :   -0.036476
   4 N :   -0.006692
   5 H :    0.176020
   6 H :    0.164988
   7 H :    0.116129
   8 H :    0.175404
   9 H :    0.156266
  10 H :    0.108876
  11 H :    0.116950
  12 H :    0.114207

  Mayer bond orders larger than 0.100000
B(  0-C ,  1-C ) :   0.9863 B(  0-C , 10-H ) :   0.9887 B(  0-C , 11-H ) :   0.9861
B(  0-C , 12-H ) :   0.9831 B(  1-C ,  2-C ) :   1.6684 B(  1-C ,  7-H ) :   1.0036
B(  2-C ,  3-N ) :   1.0958 B(  2-C ,  4-N ) :   1.1192 B(  3-N ,  8-H ) :   0.9185
B(  3-N ,  9-H ) :   0.9284 B(  4-N ,  5-H ) :   0.9189 B(  4-N ,  6-H ) :   0.9258

Dispersion correction           -0.002353165
FINAL SINGLE POINT ENERGY      -228.625871878518

DIPOLE MOMENT
-------------
                                X             Y             Z
Electronic contribution:      1.58473      -2.54030      -1.27625
Nuclear contribution   :     -1.47697       1.65537       0.71722
                        -----------------------------------------
Total Dipole Moment    :      0.10776      -0.88493      -0.55903
                        -----------------------------------------
Magnitude (a.u.)       :      1.05225
Magnitude (Debye)      :      2.67462

Rotational constants in cm-1:     0.321284     0.131400     0.095192
Rotational constants in MHz :  9631.850868  3939.260061  2853.789421

                             ****ORCA TERMINATED NORMALLY****
TOTAL RUN TIME: 0 days 0 hours 0 minutes 18 seconds 115 msec
