                         Program Version 5.0.0 -  RELEASE  -
|  1> !wB97X-D3 RIJCOSX def2-TZVP def2/J TightSCF
|  2> *xyz 0 1
|  3> C          1.87218        0.42790       -2.07750
|  4> S          0.57902        0.14047       -3.29794
|  5> O          0.22886       -1.24687       -3.12787
|  6> F         -0.43927        1.11897       -3.01455
|  7> O          1.24788        0.40347       -4.59565
|  8> H          2.66832       -0.27048       -2.23022
|  9> H          1.46951        0.30034       -1.09440
| 10> H          2.24690        1.42458       -2.18288
| 11> *
| 12>
| 13> %MaxCore 64000
| 14>
| 15> %pal nprocs 8
| 16> end
| 17>
| 18> %scf
| 19>   MaxIter 150
| 20> end
| 21>
| 22>
| 23>                          ****END OF INPUT****

CARTESIAN COORDINATES (ANGSTROEM)
---------------------------------
  C      1.872180    0.427900   -2.077500
  S      0.579020    0.140470   -3.297940
  O      0.228860   -1.246870   -3.127870
  F     -0.439270    1.118970   -3.014550
  O      1.247880    0.403470   -4.595650
  H      2.668320   -0.270480   -2.230220
  H      1.469510    0.300340   -1.094400
  H      2.246900    1.424580   -2.182880

 Total Charge           Charge          ....    0
 Multiplicity           Mult            ....    1
 Number of Electrons    NEL             ....   50
 Basis Dimension        Dim             ....  179

ORBITAL ENERGIES
----------------

  NO   OCC          E(Eh)            E(eV)
   0   2.0000     -89.201720     -2427.3022
   1   2.0000     -24.912431      -677.9017
   2   2.0000     -19.247044      -523.7387
   3   2.0000     -19.232364      -523.3392
   4   2.0000     -10.328578      -281.0549
   5   2.0000      -8.264444      -224.8870
   6   2.0000      -6.221811      -169.3041
   7   2.0000      -6.215782      -169.1400
   8   2.0000      -6.214893      -169.1158
   9   2.0000      -1.506698       -40.9993
  10   2.0000      -1.224258       -33.3137
  11   2.0000      -1.122314       -30.5397
  12   2.0000      -0.913481       -24.8571
  13   2.0000      -0.829730       -22.5781
  14   2.0000      -0.710740       -19.3402
  15   2.0000      -0.697482       -18.9794
  16   2.0000      -0.661127       -17.9902
  17   2.0000      -0.577067       -15.7028
  18   2.0000      -0.575847       -15.6696
  19   2.0000      -0.563460       -15.3325
  20   2.0000      -0.535963       -14.5843
  21   2.0000      -0.487416       -13.2633
  22   2.0000      -0.435029       -11.8378
  23   2.0000      -0.421602       -11.4724
  24   2.0000      -0.405023       -11.0212
  25   0.0000       0.101255         2.7553
  26   0.0000       0.133493         3.6325
  27   0.0000       0.137683         3.7465
  28   0.0000       0.159978         4.3532
  29   0.0000       0.170149         4.6300

MULLIKEN ATOMIC CHARGES
-----------------------
   0 C :   -0.391185
   1 S :    0.868437
   2 O :   -0.411682
   3 F :   -0.093865
   4 O :   -0.457892
   5 H :    0.177604
   6 H :    0.151843
   7 H :    0.156740
Sum of atomic charges:   -0.0000000

LOEWDIN ATOMIC CHARGES
----------------------
   0 C :   -0.399878
   1 S :    0.514598
   2 O :   -0.264186
   3 F :    0.101237
   4 O :   -0.318126
   5 H :    0.131294
   6 H :    0.116548
   7 H :    0.118513

  Mayer bond orders larger than 0.100000
B(  0-C ,  1-S ) :   0.9269 B(  0-C ,  5-H ) :   0.9499 B(  0-C ,  6-H ) :   0.9470
B(  0-C ,  7-H ) :   0.9486 B(  1-S ,  2-O ) :   1.9392 B(  1-S ,  3-F ) :   1.1522
B(  1-S ,  4-O ) :   1.8865

Dispersion correction           -0.001534974
FINAL SINGLE POINT ENERGY      -688.418663854023

DIPOLE MOMENT
-------------
                                X             Y             Z
Electronic contribution:     -4.93928       0.91513      -2.33655
Nuclear contribution   :      5.19357      -0.05217       3.71223
                        -----------------------------------------
Total Dipole Moment    :      0.25429       0.86296       1.37568
                        -----------------------------------------
Magnitude (a.u.)       :      1.64373
Magnitude (Debye)      :      4.17803

Rotational constants in cm-1:     0.163837     0.155047     0.147593
Rotational constants in MHz :  4911.724022  4648.196128  4424.713532

                             ****ORCA TERMINATED NORMALLY****
TOTAL RUN TIME: 0 days 0 hours 0 minutes 12 seconds 392 msec
