                         Program Version 5.0.0 -  RELEASE  -
|  1> !wB97X-D3 RIJCOSX def2-TZVP def2/J TightSCF
|  2> *xyz 0 1
|  3> C          3.38093        2.08304       -3.35013
|  4> N          4.53592        1.18245       -3.42852
|  5> C          4.67196        0.12227       -4.22060
|  6> C          5.86602       -0.50785       -4.22428
|  7> N          3.69888       -0.31284       -4.98699
|  8> H          2.73141       -0.05009       -4.84900
|  9> H          3.89005       -1.05517       -5.64373
| 10> H          5.25193        1.30346       -2.72101
| 11> H          6.69516       -0.06232       -3.85160
| 12> H          5.97538       -1.39688       -4.69141
| 13> H          2.69962        1.85926       -4.14426
| 14> H          3.71221        3.09654       -3.43937
| 15> H          2.88835        1.95032       -2.40957
| 16> *
| 17>
| 18> %MaxCore 64000
| 19>
| 20> %pal nprocs 8
| 21> end
| 22>
| 23> %scf
| 24>   MaxIter 150
| 25> end
| 26>
| 27>
| 28>                          ****END OF INPUT****

CARTESIAN COORDINATES (ANGSTROEM)
---------------------------------
  C      3.380930    2.083040   -3.350130
  N      4.535920    1.182450   -3.428520
  C      4.671960    0.122270   -4.220600
  C      5.866020   -0.507850   -4.224280
  N      3.698880   -0.312840   -4.986990
  H      2.731410   -0.050090   -4.849000
  H      3.890050   -1.055170   -5.643730
  H      5.251930    1.303460   -2.721010
  H      6.695160   -0.062320   -3.851600
  H      5.975380   -1.396880   -4.691410
  H      2.699620    1.859260   -4.144260
  H      3.712210    3.096540   -3.439370
  H      2.888350    1.950320   -2.409570

 Total Charge           Charge          ....    0
 Multiplicity           Mult            ....    1
 Number of Electrons    NEL             ....   40
 Basis Dimension        Dim             ....  203

ORBITAL ENERGIES
----------------

  NO   OCC          E(Eh)            E(eV)
   0   2.0000     -14.422321      -392.4513
   1   2.0000     -14.421586      -392.4313
   2   2.0000     -10.323485      -280.9163
   3   2.0000     -10.305497      -280.4268
   4   2.0000     -10.177264      -276.9374
   5   2.0000      -1.084724       -29.5168
   6   2.0000      -1.000574       -27.2270
   7   2.0000      -0.853827       -23.2338
   8   2.0000      -0.775000       -21.0888
   9   2.0000      -0.707828       -19.2610
  10   2.0000      -0.645550       -17.5663
  11   2.0000      -0.592454       -16.1215
  12   2.0000      -0.577040       -15.7021
  13   2.0000      -0.551451       -15.0058
  14   2.0000      -0.504331       -13.7235
  15   2.0000      -0.490120       -13.3368
  16   2.0000      -0.476246       -12.9593
  17   2.0000      -0.452162       -12.3040
  18   2.0000      -0.346776        -9.4363
  19   2.0000      -0.242037        -6.5862
  20   0.0000       0.106156         2.8886
  21   0.0000       0.138684         3.7738
  22   0.0000       0.146971         3.9993
  23   0.0000       0.160239         4.3603
  24   0.0000       0.184189         5.0120

MULLIKEN ATOMIC CHARGES
-----------------------
   0 C :   -0.220895
   1 N :   -0.362803
   2 C :    0.464718
   3 C :   -0.616657
   4 N :   -0.538950
   5 H :    0.231904
   6 H :    0.260265
   7 H :    0.238851
   8 H :    0.106223
   9 H :    0.093569
  10 H :    0.095459
  11 H :    0.124024
  12 H :    0.124295
Sum of atomic charges:    0.0000000

LOEWDIN ATOMIC CHARGES
----------------------
   0 C :   -0.299171
   1 N :    0.087751
   2 C :   -0.467180
   3 C :   -0.366893
   4 N :    0.000009
   5 H :    0.161742
   6 H :    0.182462
   7 H :    0.194183
   8 H :    0.092645
   9 H :    0.090613
  10 H :    0.109564
  11 H :    0.108828
  12 H :    0.105448

  Mayer bond orders larger than 0.100000
B(  0-C ,  1-N ) :   0.9365 B(  0-C , 10-H ) :   0.9822 B(  0-C , 11-H ) :   0.9767
B(  0-C , 12-H ) :   0.9735 B(  1-N ,  2-C ) :   1.1830 B(  1-N ,  7-H ) :   0.9236
B(  2-C ,  3-C ) :   1.5308 B(  2-C ,  4-N ) :   1.1458 B(  3-C ,  8-H ) :   1.0134
B(  3-C ,  9-H ) :   1.0178 B(  4-N ,  5-H ) :   0.9237 B(  4-N ,  6-H ) :   0.9175

Dispersion correction           -0.002365903
FINAL SINGLE POINT ENERGY      -228.612992348659

DIPOLE MOMENT
-------------
                                X             Y             Z
Electronic contribution:      0.10084      -0.78926      -0.46356
Nuclear contribution   :     -1.20756       1.31300       0.55604
                        -----------------------------------------
Total Dipole Moment    :     -1.10672       0.52374       0.09248
                        -----------------------------------------
Magnitude (a.u.)       :      1.22788
Magnitude (Debye)      :      3.12102

Rotational constants in cm-1:     0.323683     0.135884     0.097747
Rotational constants in MHz :  9703.770798  4073.695357  2930.389562

                             ****ORCA TERMINATED NORMALLY****
TOTAL RUN TIME: 0 days 0 hours 0 minutes 17 seconds 784 msec
