                         Program Version 5.0.0 -  RELEASE  -
|  1> !wB97X-D3 RIJCOSX def2-TZVP def2/J TightSCF
|  2> *xyz 0 1
|  3> C          1.87218        0.42790       -2.07750
|  4> S          0.57902        0.14047       -3.29794
|  5> O          0.22886       -1.24687       -3.12787
|  6> O         -0.43927        1.11897       -3.01455
|  7> F          1.24788        0.40347       -4.59565
|  8> H          2.66832       -0.27048       -2.23022
|  9> H          1.46951        0.30034       -1.09440
| 10> H          2.24690        1.42458       -2.18288
| 11> *
| 12>
| 13> %MaxCore 64000
| 14>
| 15> %pal nprocs 8
| 16> end
| 17>
| 18> %scf
| 19>   MaxIter 150
| 20> end
| 21>
| 22>
| 23>                          ****END OF INPUT****

CARTESIAN COORDINATES (ANGSTROEM)
---------------------------------
  C      1.872180    0.427900   -2.077500
  S      0.579020    0.140470   -3.297940
  O      0.228860   -1.246870   -3.127870
  O     -0.439270    1.118970   -3.014550
  F      1.247880    0.403470   -4.595650
  H      2.668320   -0.270480   -2.230220
  H      1.469510    0.300340   -1.094400
  H      2.246900    1.424580   -2.182880

 Total Charge           Charge          ....    0
 Multiplicity           Mult            ....    1
 Number of Electrons    NEL             ....   50
 Basis Dimension        Dim             ....  179

ORBITAL ENERGIES
----------------

  NO   OCC          E(Eh)            E(eV)
   0   2.0000     -89.199461     -2427.2407
   1   2.0000     -24.890205      -677.2969
   2   2.0000     -19.246678      -523.7287
   3   2.0000     -19.246643      -523.7278
   4   2.0000     -10.327811      -281.0340
   5   2.0000      -8.262202      -224.8259
   6   2.0000      -6.219617      -169.2444
   7   2.0000      -6.213721      -169.0839
   8   2.0000      -6.212561      -169.0524
   9   2.0000      -1.470833       -40.0234
  10   2.0000      -1.235069       -33.6079
  11   2.0000      -1.143504       -31.1163
  12   2.0000      -0.911423       -24.8011
  13   2.0000      -0.811414       -22.0797
  14   2.0000      -0.692510       -18.8441
  15   2.0000      -0.672293       -18.2940
  16   2.0000      -0.657928       -17.9031
  17   2.0000      -0.578915       -15.7531
  18   2.0000      -0.577076       -15.7030
  19   2.0000      -0.561693       -15.2844
  20   2.0000      -0.542898       -14.7730
  21   2.0000      -0.493889       -13.4394
  22   2.0000      -0.441638       -12.0176
  23   2.0000      -0.434161       -11.8141
  24   2.0000      -0.420604       -11.4452
  25   0.0000       0.104044         2.8312
  26   0.0000       0.132939         3.6175
  27   0.0000       0.139045         3.7836
  28   0.0000       0.165303         4.4981
  29   0.0000       0.168295         4.5795

MULLIKEN ATOMIC CHARGES
-----------------------
   0 C :   -0.393369
   1 S :    0.874072
   2 O :   -0.420112
   3 O :   -0.420037
   4 F :   -0.126390
   5 H :    0.157196
   6 H :    0.173494
   7 H :    0.155145
Sum of atomic charges:    0.0000000

LOEWDIN ATOMIC CHARGES
----------------------
   0 C :   -0.399542
   1 S :    0.520562
   2 O :   -0.267922
   3 O :   -0.267998
   4 F :    0.048761
   5 H :    0.118750
   6 H :    0.129516
   7 H :    0.117874

  Mayer bond orders larger than 0.100000
B(  0-C ,  1-S ) :   0.9266 B(  0-C ,  5-H ) :   0.9487 B(  0-C ,  6-H ) :   0.9492
B(  0-C ,  7-H ) :   0.9489 B(  1-S ,  2-O ) :   1.9376 B(  1-S ,  3-O ) :   1.9390
B(  1-S ,  4-F ) :   1.1107

Dispersion correction           -0.001534362
FINAL SINGLE POINT ENERGY      -688.436808364379

DIPOLE MOMENT
-------------
                                X             Y             Z
Electronic contribution:     -2.08589      -0.28431      -5.01585
Nuclear contribution   :      3.50800       0.66266       5.29185
                        -----------------------------------------
Total Dipole Moment    :      1.42212       0.37835       0.27601
                        -----------------------------------------
Magnitude (a.u.)       :      1.49725
Magnitude (Debye)      :      3.80570

Rotational constants in cm-1:     0.163942     0.153101     0.149133
Rotational constants in MHz :  4914.860621  4589.839477  4470.901507

                             ****ORCA TERMINATED NORMALLY****
TOTAL RUN TIME: 0 days 0 hours 0 minutes 12 seconds 406 msec
