                         Program Version 5.0.0 -  RELEASE  -
|  1> !wB97X-D3 RIJCOSX def2-TZVP def2/J TightSCF
|  2> *xyz 0 1
|  3> C          3.38093        2.08304       -3.35013
|  4> N          4.53592        1.18245       -3.42852
|  5> C          4.67196        0.12227       -4.22060
|  6> N          5.86602       -0.50785       -4.22428
|  7> C          3.69888       -0.31284       -4.98699
|  8> H          2.73141       -0.05009       -4.84900
|  9> H          3.89005       -1.05517       -5.64373
| 10> H          5.25193        1.30346       -2.72101
| 11> H          6.69516       -0.06232       -3.85160
| 12> H          5.97538       -1.39688       -4.69141
| 13> H          2.69962        1.85926       -4.14426
| 14> H          3.71221        3.09654       -3.43937
| 15> H          2.88835        1.95032       -2.40957
| 16> *
| 17>
| 18> %MaxCore 64000
| 19>
| 20> %pal nprocs 8
| 21> end
| 22>
| 23> %scf
| 24>   MaxIter 150
| 25> end
| 26>
| 27>
| 28>                          ****END OF INPUT****

CARTESIAN COORDINATES (ANGSTROEM)
---------------------------------
  C      3.380930    2.083040   -3.350130
  N      4.535920    1.182450   -3.428520
  C      4.671960    0.122270   -4.220600
  N      5.866020   -0.507850   -4.224280
  C      3.698880   -0.312840   -4.986990
  H      2.731410   -0.050090   -4.849000
  H      3.890050   -1.055170   -5.643730
  H      5.251930    1.303460   -2.721010
  H      6.695160   -0.062320   -3.851600
  H      5.975380   -1.396880   -4.691410
  H      2.699620    1.859260   -4.144260
  H      3.712210    3.096540   -3.439370
  H      2.888350    1.950320   -2.409570

 Total Charge           Charge          ....    0
 Multiplicity           Mult            ....    1
 Number of Electrons    NEL             ....   40
 Basis Dimension        Dim             ....  203

ORBITAL ENERGIES
----------------

  NO   OCC          E(Eh)            E(eV)
   0   2.0000     -14.421357      -392.4251
   1   2.0000     -14.415319      -392.2608
   2   2.0000     -10.320091      -280.8240
   3   2.0000     -10.296296      -280.1765
   4   2.0000     -10.180623      -277.0288
   5   2.0000      -1.077700       -29.3257
   6   2.0000      -0.990808       -26.9612
   7   2.0000      -0.835730       -22.7414
   8   2.0000      -0.807364       -21.9695
   9   2.0000      -0.671941       -18.2844
  10   2.0000      -0.645509       -17.5652
  11   2.0000      -0.615765       -16.7558
  12   2.0000      -0.552336       -15.0298
  13   2.0000      -0.536244       -14.5919
  14   2.0000      -0.514869       -14.0103
  15   2.0000      -0.481435       -13.1005
  16   2.0000      -0.477633       -12.9971
  17   2.0000      -0.451183       -12.2773
  18   2.0000      -0.339065        -9.2264
  19   2.0000      -0.254306        -6.9200
  20   0.0000       0.108958         2.9649
  21   0.0000       0.139535         3.7969
  22   0.0000       0.155440         4.2297
  23   0.0000       0.162466         4.4209
  24   0.0000       0.176475         4.8021

MULLIKEN ATOMIC CHARGES
-----------------------
   0 C :   -0.211068
   1 N :   -0.380336
   2 C :    0.461813
   3 N :   -0.555078
   4 C :   -0.578572
   5 H :    0.107366
   6 H :    0.090024
   7 H :    0.206275
   8 H :    0.229291
   9 H :    0.256177
  10 H :    0.133922
  11 H :    0.118220
  12 H :    0.121966
Sum of atomic charges:   -0.0000000

LOEWDIN ATOMIC CHARGES
----------------------
   0 C :   -0.284711
   1 N :    0.081578
   2 C :   -0.463566
   3 N :   -0.031845
   4 C :   -0.341588
   5 H :    0.096677
   6 H :    0.097709
   7 H :    0.176098
   8 H :    0.158821
   9 H :    0.174387
  10 H :    0.122113
  11 H :    0.107604
  12 H :    0.106724

  Mayer bond orders larger than 0.100000
B(  0-C ,  1-N ) :   0.9144 B(  0-C , 10-H ) :   0.9759 B(  0-C , 11-H ) :   0.9782
B(  0-C , 12-H ) :   0.9784 B(  1-N ,  2-C ) :   1.1534 B(  1-N ,  7-H ) :   0.9320
B(  2-C ,  3-N ) :   1.0939 B(  2-C ,  4-C ) :   1.6024 B(  3-N ,  8-H ) :   0.9249
B(  3-N ,  9-H ) :   0.9205 B(  4-C ,  5-H ) :   1.0093 B(  4-C ,  6-H ) :   1.0166

Dispersion correction           -0.002350795
FINAL SINGLE POINT ENERGY      -228.617592632431

DIPOLE MOMENT
-------------
                                X             Y             Z
Electronic contribution:      2.37823      -0.99897       0.28169
Nuclear contribution   :     -1.64651       1.35250       0.40156
                        -----------------------------------------
Total Dipole Moment    :      0.73173       0.35353       0.68325
                        -----------------------------------------
Magnitude (a.u.)       :      1.06171
Magnitude (Debye)      :      2.69866

Rotational constants in cm-1:     0.339624     0.131069     0.096565
Rotational constants in MHz : 10181.679558  3929.342810  2894.941560

                             ****ORCA TERMINATED NORMALLY****
TOTAL RUN TIME: 0 days 0 hours 0 minutes 17 seconds 710 msec
