                         Program Version 5.0.0 -  RELEASE  -
|  1> !wB97X-D3 RIJCOSX def2-TZVP def2/J TightSCF xyzfile
|  2>
|  3> *xyzfile 0 1 D2.xyz
|  4>
|  5> %MaxCore 64000
|  6>
|  7> %pal nprocs 18
|  8> end
|  9>
| 10> %scf
| 11>   MaxIter 150
| 12> end
| 13>
| 14>
| 15>                          ****END OF INPUT****

CARTESIAN COORDINATES (ANGSTROEM)
---------------------------------
  C      3.380928    2.083045   -3.350127
  N      4.535924    1.182447   -3.428518
  C      2.495557    1.816150   -2.136364
  C      1.872181    0.427903   -2.077497
  H      2.614270   -0.365825   -2.198894
  H      1.389953    0.273087   -1.112360
  S      0.579024    0.140472   -3.297943
  C      4.671956    0.122273   -4.220598
  C      5.866023   -0.507849   -4.224284
  N      3.698881   -0.312844   -4.986988
  H      2.731405   -0.050091   -4.849000
  H      3.890046   -1.055172   -5.643730
  H      5.251933    1.303459   -2.721014
  H      6.695165   -0.062322   -3.851596
  H      5.975383   -1.396884   -4.691414
  F      0.228860   -1.246868   -3.127871
  O     -0.439269    1.118966   -3.014550
  O      1.247881    0.403474   -4.595647
  H      1.697003    2.561969   -2.141109
  H      3.080787    1.987436   -1.225838
  H      2.806463    1.986511   -4.268484
  H      3.778714    3.098282   -3.307383

 Total Charge           Charge          ....    0
 Multiplicity           Mult            ....    1
 Number of Electrons    NEL             ....   96
 Basis Dimension        Dim             ....  413

ORBITAL ENERGIES
----------------

  NO   OCC          E(Eh)            E(eV)
   0   2.0000     -89.219235     -2427.7788
   1   2.0000     -24.928614      -678.3421
   2   2.0000     -19.265540      -524.2420
   3   2.0000     -19.259548      -524.0789
   4   2.0000     -14.421477      -392.4283
   5   2.0000     -14.392904      -391.6508
   6   2.0000     -10.346606      -281.5455
   7   2.0000     -10.317990      -280.7668
   8   2.0000     -10.315725      -280.7052
   9   2.0000     -10.311897      -280.6010
  10   2.0000     -10.171402      -276.7779
  11   2.0000      -8.282784      -225.3860
  12   2.0000      -6.239955      -169.7978
  13   2.0000      -6.233960      -169.6347
  14   2.0000      -6.233356      -169.6182
  15   2.0000      -1.522483       -41.4289
  16   2.0000      -1.248096       -33.9624
  17   2.0000      -1.151937       -31.3458
  18   2.0000      -1.078888       -29.3580
  19   2.0000      -0.995905       -27.1000
  20   2.0000      -0.952437       -25.9171
  21   2.0000      -0.885169       -24.0867
  22   2.0000      -0.838513       -22.8171
  23   2.0000      -0.799573       -21.7575
  24   2.0000      -0.747096       -20.3295
  25   2.0000      -0.715862       -19.4796
  26   2.0000      -0.704170       -19.1614
  27   2.0000      -0.702365       -19.1123
  28   2.0000      -0.687609       -18.7108
  29   2.0000      -0.648204       -17.6385
  30   2.0000      -0.611659       -16.6441
  31   2.0000      -0.593543       -16.1511
  32   2.0000      -0.587748       -15.9934
  33   2.0000      -0.580980       -15.8093
  34   2.0000      -0.564059       -15.3488
  35   2.0000      -0.544615       -14.8197
  36   2.0000      -0.514896       -14.0110
  37   2.0000      -0.506600       -13.7853
  38   2.0000      -0.503842       -13.7102
  39   2.0000      -0.484494       -13.1838
  40   2.0000      -0.479562       -13.0495
  41   2.0000      -0.464023       -12.6267
  42   2.0000      -0.451880       -12.2963
  43   2.0000      -0.442850       -12.0506
  44   2.0000      -0.432736       -11.7753
  45   2.0000      -0.420451       -11.4411
  46   2.0000      -0.339368        -9.2347
  47   2.0000      -0.236784        -6.4432
  48   0.0000       0.089219         2.4278
  49   0.0000       0.096779         2.6335
  50   0.0000       0.129180         3.5152
  51   0.0000       0.131976         3.5912
  52   0.0000       0.135367         3.6835

MULLIKEN ATOMIC CHARGES
-----------------------
   0 C :   -0.214558
   1 N :   -0.361142
   2 C :   -0.193487
   3 C :   -0.320738
   4 H :    0.190508
   5 H :    0.163827
   6 S :    0.907401
   7 C :    0.437075
   8 C :   -0.633945
   9 N :   -0.527143
  10 H :    0.251411
  11 H :    0.242966
  12 H :    0.232114
  13 H :    0.102962
  14 H :    0.092317
  15 F :   -0.086469
  16 O :   -0.402953
  17 O :   -0.467202
  18 H :    0.141804
  19 H :    0.127299
  20 H :    0.189545
  21 H :    0.128410
Sum of atomic charges:    0.0000000

LOEWDIN ATOMIC CHARGES
----------------------
   0 C :   -0.281772
   1 N :    0.113395
   2 C :   -0.281729
   3 C :   -0.367113
   4 H :    0.148896
   5 H :    0.142692
   6 S :    0.555826
   7 C :   -0.477605
   8 C :   -0.375838
   9 N :   -0.001002
  10 H :    0.124457
  11 H :    0.176947
  12 H :    0.193389
  13 H :    0.090259
  14 H :    0.089965
  15 F :    0.110677
  16 O :   -0.249380
  17 O :   -0.286392
  18 H :    0.150150
  19 H :    0.146904
  20 H :    0.143095
  21 H :    0.134179

  Mayer bond orders larger than 0.100000
B(  0-C ,  1-N ) :   0.8977 B(  0-C ,  2-C ) :   0.9636 B(  0-C , 20-H ) :   0.9761
B(  0-C , 21-H ) :   0.9806 B(  1-N ,  7-C ) :   1.1600 B(  1-N , 12-H ) :   0.9235
B(  2-C ,  3-C ) :   0.9706 B(  2-C , 18-H ) :   0.9617 B(  2-C , 19-H ) :   0.9594
B(  3-C ,  4-H ) :   0.9298 B(  3-C ,  5-H ) :   0.9436 B(  3-C ,  6-S ) :   0.9328
B(  6-S , 15-F ) :   1.1655 B(  6-S , 16-O ) :   1.9461 B(  6-S , 17-O ) :   1.7299
B(  7-C ,  8-C ) :   1.5278 B(  7-C ,  9-N ) :   1.1859 B(  8-C , 13-H ) :   1.0148
B(  8-C , 14-H ) :   1.0165 B(  9-N , 10-H ) :   0.8501 B(  9-N , 11-H ) :   0.9266
B( 10-H , 17-O ) :   0.1170

Dispersion correction           -0.009881783
FINAL SINGLE POINT ENERGY      -955.154777457761

DIPOLE MOMENT
-------------
                                X             Y             Z
Electronic contribution:    -16.82025      -5.26024      -0.36182
Nuclear contribution   :     16.05479       5.17692       1.74190
                        -----------------------------------------
Total Dipole Moment    :     -0.76546      -0.08332       1.38008
                        -----------------------------------------
Magnitude (a.u.)       :      1.58035
Magnitude (Debye)      :      4.01692

Rotational constants in cm-1:     0.058652     0.021107     0.018077
Rotational constants in MHz :  1758.344290   632.763813   541.920558

                             ****ORCA TERMINATED NORMALLY****
TOTAL RUN TIME: 0 days 0 hours 0 minutes 42 seconds 697 msec
