                         Program Version 5.0.0 -  RELEASE  -
|  1> !wB97X-D3 RIJCOSX def2-TZVP def2/J TightSCF xyzfile
|  2>
|  3> *xyzfile 0 1 D3.xyz
|  4>
|  5> %MaxCore 64000
|  6>
|  7> %pal nprocs 18
|  8> end
|  9>
| 10> %scf
| 11>   MaxIter 150
| 12> end
| 13>
| 14>
| 15>                          ****END OF INPUT****

CARTESIAN COORDINATES (ANGSTROEM)
---------------------------------
  C      3.380928    2.083045   -3.350127
  N      4.535924    1.182447   -3.428518
  C      2.495557    1.816150   -2.136364
  C      1.872181    0.427903   -2.077497
  H      2.614270   -0.365825   -2.198894
  H      1.389953    0.273087   -1.112360
  S      0.579024    0.140472   -3.297943
  C      4.671956    0.122273   -4.220598
  N      5.866023   -0.507849   -4.224284
  C      3.698881   -0.312844   -4.986988
  H      2.731405   -0.050091   -4.849000
  H      3.890046   -1.055172   -5.643730
  H      5.251933    1.303459   -2.721014
  H      6.695165   -0.062322   -3.851596
  H      5.975383   -1.396884   -4.691414
  F      0.228860   -1.246868   -3.127871
  O     -0.439269    1.118966   -3.014550
  O      1.247881    0.403474   -4.595647
  H      1.697003    2.561969   -2.141109
  H      3.080787    1.987436   -1.225838
  H      2.806463    1.986511   -4.268484
  H      3.778714    3.098282   -3.307383

 Total Charge           Charge          ....    0
 Multiplicity           Mult            ....    1
 Number of Electrons    NEL             ....   96
 Basis Dimension        Dim             ....  413

ORBITAL ENERGIES
----------------

  NO   OCC          E(Eh)            E(eV)
   0   2.0000     -89.196257     -2427.1535
   1   2.0000     -24.908916      -677.8061
   2   2.0000     -19.244768      -523.6768
   3   2.0000     -19.228932      -523.2458
   4   2.0000     -14.421242      -392.4219
   5   2.0000     -14.410204      -392.1216
   6   2.0000     -10.331502      -281.1345
   7   2.0000     -10.311454      -280.5889
   8   2.0000     -10.310850      -280.5725
   9   2.0000     -10.302846      -280.3547
  10   2.0000     -10.158446      -276.4254
  11   2.0000      -8.259803      -224.7607
  12   2.0000      -6.217052      -169.1746
  13   2.0000      -6.210722      -169.0023
  14   2.0000      -6.210547      -168.9976
  15   2.0000      -1.502694       -40.8904
  16   2.0000      -1.224797       -33.3284
  17   2.0000      -1.125484       -30.6260
  18   2.0000      -1.077049       -29.3080
  19   2.0000      -0.994163       -27.0525
  20   2.0000      -0.938487       -25.5375
  21   2.0000      -0.866077       -23.5671
  22   2.0000      -0.827791       -22.5253
  23   2.0000      -0.805622       -21.9221
  24   2.0000      -0.751459       -20.4482
  25   2.0000      -0.695287       -18.9197
  26   2.0000      -0.691878       -18.8270
  27   2.0000      -0.677295       -18.4301
  28   2.0000      -0.658059       -17.9067
  29   2.0000      -0.639225       -17.3942
  30   2.0000      -0.617022       -16.7900
  31   2.0000      -0.594846       -16.1866
  32   2.0000      -0.590705       -16.0739
  33   2.0000      -0.553718       -15.0674
  34   2.0000      -0.549080       -14.9412
  35   2.0000      -0.544444       -14.8151
  36   2.0000      -0.503330       -13.6963
  37   2.0000      -0.494371       -13.4525
  38   2.0000      -0.487518       -13.2660
  39   2.0000      -0.476480       -12.9657
  40   2.0000      -0.473049       -12.8723
  41   2.0000      -0.463567       -12.6143
  42   2.0000      -0.444400       -12.0927
  43   2.0000      -0.429548       -11.6886
  44   2.0000      -0.411107       -11.1868
  45   2.0000      -0.374057       -10.1786
  46   2.0000      -0.339020        -9.2252
  47   2.0000      -0.246733        -6.7139
  48   0.0000       0.098051         2.6681
  49   0.0000       0.109563         2.9814
  50   0.0000       0.121138         3.2963
  51   0.0000       0.141803         3.8586
  52   0.0000       0.146666         3.9910

MULLIKEN ATOMIC CHARGES
-----------------------
   0 C :   -0.162712
   1 N :   -0.395201
   2 C :   -0.216975
   3 C :   -0.298116
   4 H :    0.182565
   5 H :    0.155414
   6 S :    0.890581
   7 C :    0.455961
   8 N :   -0.559053
   9 C :   -0.594201
  10 H :    0.141405
  11 H :    0.080578
  12 H :    0.199640
  13 H :    0.224642
  14 H :    0.254659
  15 F :   -0.092562
  16 O :   -0.415996
  17 O :   -0.428567
  18 H :    0.140729
  19 H :    0.117988
  20 H :    0.198445
  21 H :    0.120777
Sum of atomic charges:   -0.0000000

LOEWDIN ATOMIC CHARGES
----------------------
   0 C :   -0.266117
   1 N :    0.104046
   2 C :   -0.282094
   3 C :   -0.367098
   4 H :    0.147447
   5 H :    0.138912
   6 S :    0.548165
   7 C :   -0.478931
   8 N :   -0.037732
   9 C :   -0.334595
  10 H :    0.077844
  11 H :    0.095005
  12 H :    0.175166
  13 H :    0.155694
  14 H :    0.173232
  15 F :    0.106124
  16 O :   -0.261997
  17 O :   -0.269810
  18 H :    0.150185
  19 H :    0.143203
  20 H :    0.150942
  21 H :    0.132408

  Mayer bond orders larger than 0.100000
B(  0-C ,  1-N ) :   0.8712 B(  0-C ,  2-C ) :   0.9796 B(  0-C , 20-H ) :   0.9691
B(  0-C , 21-H ) :   0.9799 B(  1-N ,  7-C ) :   1.1374 B(  1-N , 12-H ) :   0.9289
B(  2-C ,  3-C ) :   0.9794 B(  2-C , 18-H ) :   0.9628 B(  2-C , 19-H ) :   0.9625
B(  3-C ,  4-H ) :   0.9352 B(  3-C ,  5-H ) :   0.9444 B(  3-C ,  6-S ) :   0.9273
B(  6-S , 15-F ) :   1.1554 B(  6-S , 16-O ) :   1.9294 B(  6-S , 17-O ) :   1.7915
B(  7-C ,  8-N ) :   1.0694 B(  7-C ,  9-C ) :   1.5954 B(  8-N , 13-H ) :   0.9265
B(  8-N , 14-H ) :   0.9210 B(  9-C , 10-H ) :   1.0031 B(  9-C , 11-H ) :   1.0228

Dispersion correction           -0.009823238
FINAL SINGLE POINT ENERGY      -955.137742490241

DIPOLE MOMENT
-------------
                                X             Y             Z
Electronic contribution:    -14.66612      -5.50878       0.09485
Nuclear contribution   :     15.84345       5.19593       1.66752
                        -----------------------------------------
Total Dipole Moment    :      1.17733      -0.31285       1.76237
                        -----------------------------------------
Magnitude (a.u.)       :      2.14241
Magnitude (Debye)      :      5.44558

Rotational constants in cm-1:     0.059060     0.020573     0.017713
Rotational constants in MHz :  1770.576058   616.749938   531.036486

                             ****ORCA TERMINATED NORMALLY****
TOTAL RUN TIME: 0 days 0 hours 0 minutes 57 seconds 219 msec
