                         Program Version 5.0.0 -  RELEASE  -
|  1> !PBE0 D3BJ RIJCOSX def2-TZVPD def2/J TightSCF
|  2> *xyz -1 1
|  3> C         -0.77894        0.17197        1.80496
|  4> C         -0.60249       -0.63071        0.49224
|  5> H          0.31389       -1.24035        0.60350
|  6> H         -0.36383        0.11332       -0.30117
|  7> O         -1.71206       -1.37684        0.20253
|  8> H         -1.65864        0.77733        1.73736
|  9> H          0.07466        0.79896        1.95712
| 10> H         -0.87474       -0.50584        2.62734
| 11> *
| 12> %MaxCore 64000
| 13>
| 14> %pal nprocs 4
| 15> end
| 16>
| 17> %scf
| 18>   MaxIter 150
| 19> end
| 20>
| 21>
| 22>                          ****END OF INPUT****

CARTESIAN COORDINATES (ANGSTROEM)
---------------------------------
  C     -0.778940    0.171970    1.804960
  C     -0.602490   -0.630710    0.492240
  H      0.313890   -1.240350    0.603500
  H     -0.363830    0.113320   -0.301170
  O     -1.712060   -1.376840    0.202530
  H     -1.658640    0.777330    1.737360
  H      0.074660    0.798960    1.957120
  H     -0.874740   -0.505840    2.627340

 Total Charge           Charge          ....   -1
 Multiplicity           Mult            ....    1
 Number of Electrons    NEL             ....   26
 Basis Dimension        Dim             ....  159

ORBITAL ENERGIES
----------------

  NO   OCC          E(Eh)            E(eV)
   0   2.0000     -18.874600      -513.6040
   1   2.0000     -10.034346      -273.0484
   2   2.0000     -10.009072      -272.3607
   3   2.0000      -0.708381       -19.2760
   4   2.0000      -0.545574       -14.8458
   5   2.0000      -0.391269       -10.6470
   6   2.0000      -0.262336        -7.1385
   7   2.0000      -0.238984        -6.5031
   8   2.0000      -0.183879        -5.0036
   9   2.0000      -0.169102        -4.6015
  10   2.0000      -0.127761        -3.4766
  11   2.0000       0.018052         0.4912
  12   2.0000       0.019055         0.5185
  13   0.0000       0.160614         4.3705
  14   0.0000       0.183508         4.9935
  15   0.0000       0.209972         5.7136
  16   0.0000       0.212757         5.7894
  17   0.0000       0.234291         6.3754

MULLIKEN ATOMIC CHARGES
-----------------------
   0 C :   -0.723599
   1 C :   -0.112311
   2 H :    0.082546
   3 H :    0.080910
   4 O :   -0.896861
   5 H :    0.152033
   6 H :    0.260290
   7 H :    0.156992
Sum of atomic charges:   -1.0000000

LOEWDIN ATOMIC CHARGES
----------------------
   0 C :   -0.173331
   1 C :   -0.617832
   2 H :    0.053388
   3 H :    0.054723
   4 O :   -0.414690
   5 H :    0.037894
   6 H :    0.023545
   7 H :    0.036304

  Mayer bond orders larger than 0.100000
B(  0-C ,  1-C ) :   0.8985 B(  0-C ,  4-O ) :   0.3703 B(  0-C ,  5-H ) :   1.0212
B(  0-C ,  6-H ) :   0.9857 B(  0-C ,  7-H ) :   1.0141 B(  1-C ,  2-H ) :   1.0726
B(  1-C ,  3-H ) :   1.0724 B(  1-C ,  4-O ) :   0.9672

Dispersion correction           -0.003049835
FINAL SINGLE POINT ENERGY      -154.306074841902

DIPOLE MOMENT
-------------
                                X             Y             Z
Electronic contribution:     -1.65008      -1.88901      -1.54196
Nuclear contribution   :      2.47835       2.80827       2.30058
                        -----------------------------------------
Total Dipole Moment    :      0.82826       0.91927       0.75863
                        -----------------------------------------
Magnitude (a.u.)       :      1.45141
Magnitude (Debye)      :      3.68919

Rotational constants in cm-1:     1.255775     0.327783     0.287473
Rotational constants in MHz : 37647.186859  9826.677683  8618.224821

                             ****ORCA TERMINATED NORMALLY****
TOTAL RUN TIME: 0 days 0 hours 0 minutes 17 seconds 18 msec
