                         Program Version 5.0.0 -  RELEASE  -
|  1> !PBE0 D3BJ RIJCOSX def2-TZVPD def2/J TightSCF xyzfile
|  2>
|  3> *xyzfile 0 1 B.xyz
|  4>
|  5> %MaxCore 64000
|  6>
|  7> %pal nprocs 4
|  8> end
|  9>
| 10> %scf
| 11>   MaxIter 150
| 12> end
| 13>
| 14>
| 15>                          ****END OF INPUT****

CARTESIAN COORDINATES (ANGSTROEM)
---------------------------------
  C     -2.120502    0.885196    1.789506
  C     -0.778939    0.171966    1.804965
  H     -2.324193    1.472649    2.686078
  H     -2.187698    1.541272    0.919482
  N     -3.176900   -0.159484    1.610700
  H      0.015695    0.910767    1.939153
  H     -0.743553   -0.506827    2.665420
  C     -0.602493   -0.630712    0.492240
  H      0.313894   -1.240346    0.603498
  H     -0.363829    0.113322   -0.301169
  O     -1.712061   -1.376836    0.202535
  H     -4.064736    0.231272    1.286754
  H     -3.344073   -0.671511    2.484928
  H     -2.716861   -0.781886    0.935880

 Total Charge           Charge          ....    0
 Multiplicity           Mult            ....    1
 Number of Electrons    NEL             ....   42
 Basis Dimension        Dim             ....  269

ORBITAL ENERGIES
----------------

  NO   OCC          E(Eh)            E(eV)
   0   2.0000     -19.079135      -519.1697
   1   2.0000     -14.464606      -393.6019
   2   2.0000     -10.284826      -279.8644
   3   2.0000     -10.217474      -278.0316
   4   2.0000     -10.215250      -277.9711
   5   2.0000      -1.018795       -27.7228
   6   2.0000      -0.922648       -25.1065
   7   2.0000      -0.794381       -21.6162
   8   2.0000      -0.675431       -18.3794
   9   2.0000      -0.609810       -16.5938
  10   2.0000      -0.587875       -15.9969
  11   2.0000      -0.561935       -15.2910
  12   2.0000      -0.500362       -13.6155
  13   2.0000      -0.450497       -12.2587
  14   2.0000      -0.417735       -11.3672
  15   2.0000      -0.415002       -11.2928
  16   2.0000      -0.372217       -10.1285
  17   2.0000      -0.352489        -9.5917
  18   2.0000      -0.331803        -9.0288
  19   2.0000      -0.197483        -5.3738
  20   2.0000      -0.189080        -5.1451
  21   0.0000      -0.016672        -0.4537
  22   0.0000       0.020440         0.5562
  23   0.0000       0.021628         0.5885
  24   0.0000       0.043646         1.1877
  25   0.0000       0.065829         1.7913

MULLIKEN ATOMIC CHARGES
-----------------------
   0 C :   -0.366817
   1 C :   -0.147423
   2 H :    0.138041
   3 H :    0.182242
   4 N :   -0.085729
   5 H :    0.122016
   6 H :    0.174998
   7 C :   -0.170338
   8 H :    0.121150
   9 H :    0.123121
  10 O :   -0.816826
  11 H :    0.282859
  12 H :    0.295770
  13 H :    0.146934
Sum of atomic charges:    0.0000000

LOEWDIN ATOMIC CHARGES
----------------------
   0 C :   -0.178719
   1 C :   -0.192297
   2 H :    0.114271
   3 H :    0.128053
   4 N :    0.130432
   5 H :    0.109768
   6 H :    0.110498
   7 C :   -0.423513
   8 H :    0.097992
   9 H :    0.099236
  10 O :   -0.281030
  11 H :    0.154259
  12 H :    0.159206
  13 H :   -0.028154

  Mayer bond orders larger than 0.100000
B(  0-C ,  1-C ) :   0.9165 B(  0-C ,  2-H ) :   1.0191 B(  0-C ,  3-H ) :   0.9222
B(  0-C ,  4-N ) :   1.0316 B(  0-C ,  7-C ) :   0.1369 B(  1-C ,  5-H ) :   1.0100
B(  1-C ,  6-H ) :   0.9254 B(  1-C ,  7-C ) :   1.0709 B(  1-C , 10-O ) :   0.1575
B(  4-N , 10-O ) :  -0.1042 B(  4-N , 11-H ) :   0.8955 B(  4-N , 12-H ) :   0.8771
B(  4-N , 13-H ) :   0.7046 B(  7-C ,  8-H ) :   1.0366 B(  7-C ,  9-H ) :   1.0400
B(  7-C , 10-O ) :   0.8576 B( 10-O , 13-H ) :   0.4521

Dispersion correction           -0.008648713
FINAL SINGLE POINT ENERGY      -249.472735589018

DIPOLE MOMENT
-------------
                                X             Y             Z
Electronic contribution:     -1.50228      -1.47469      -0.81698
Nuclear contribution   :      0.08650       3.01678       2.47433
                        -----------------------------------------
Total Dipole Moment    :     -1.41577       1.54209       1.65735
                        -----------------------------------------
Magnitude (a.u.)       :      2.67007
Magnitude (Debye)      :      6.78677

Rotational constants in cm-1:     0.238796     0.156489     0.106146
Rotational constants in MHz :  7158.916762  4691.413084  3182.185740

                             ****ORCA TERMINATED NORMALLY****
TOTAL RUN TIME: 0 days 0 hours 0 minutes 40 seconds 503 msec
