                         Program Version 5.0.0 -  RELEASE  -
|  1> !PBE0 D3BJ RIJCOSX def2-TZVPD def2/J TightSCF
|  2> *xyz 0 1
|  3> C         -0.77894        0.17197        1.80496
|  4> C         -0.60249       -0.63071        0.49224
|  5> H          0.31389       -1.24035        0.60350
|  6> H         -0.36383        0.11332       -0.30117
|  7> F         -1.71206       -1.37684        0.20253
|  8> H         -1.65864        0.77733        1.73736
|  9> H          0.07466        0.79896        1.95712
| 10> H         -0.87474       -0.50584        2.62734
| 11> *
| 12> %MaxCore 64000
| 13>
| 14> %pal nprocs 4
| 15> end
| 16>
| 17> %scf
| 18>   MaxIter 150
| 19> end
| 20>
| 21>
| 22>                          ****END OF INPUT****

CARTESIAN COORDINATES (ANGSTROEM)
---------------------------------
  C     -0.778940    0.171970    1.804960
  C     -0.602490   -0.630710    0.492240
  H      0.313890   -1.240350    0.603500
  H     -0.363830    0.113320   -0.301170
  F     -1.712060   -1.376840    0.202530
  H     -1.658640    0.777330    1.737360
  H      0.074660    0.798960    1.957120
  H     -0.874740   -0.505840    2.627340

 Total Charge           Charge          ....    0
 Multiplicity           Mult            ....    1
 Number of Electrons    NEL             ....   26
 Basis Dimension        Dim             ....  159

ORBITAL ENERGIES
----------------

  NO   OCC          E(Eh)            E(eV)
   0   2.0000     -24.760004      -673.7540
   1   2.0000     -10.299953      -280.2760
   2   2.0000     -10.214181      -277.9420
   3   2.0000      -1.232598       -33.5407
   4   2.0000      -0.785494       -21.3744
   5   2.0000      -0.652136       -17.7455
   6   2.0000      -0.525524       -14.3002
   7   2.0000      -0.511341       -13.9143
   8   2.0000      -0.474465       -12.9108
   9   2.0000      -0.419343       -11.4109
  10   2.0000      -0.413548       -11.2532
  11   2.0000      -0.347896        -9.4667
  12   2.0000      -0.344569        -9.3762
  13   0.0000       0.016881         0.4594
  14   0.0000       0.043382         1.1805
  15   0.0000       0.060466         1.6454
  16   0.0000       0.064477         1.7545
  17   0.0000       0.091469         2.4890

MULLIKEN ATOMIC CHARGES
-----------------------
   0 C :   -0.631547
   1 C :    0.037508
   2 H :    0.131408
   3 H :    0.129361
   4 F :   -0.257577
   5 H :    0.181650
   6 H :    0.230106
   7 H :    0.179091
Sum of atomic charges:   -0.0000000

LOEWDIN ATOMIC CHARGES
----------------------
   0 C :   -0.083872
   1 C :   -0.286396
   2 H :    0.110196
   3 H :    0.112668
   4 F :   -0.045022
   5 H :    0.064085
   6 H :    0.065460
   7 H :    0.062881

  Mayer bond orders larger than 0.100000
B(  0-C ,  1-C ) :   0.9350 B(  0-C ,  5-H ) :   0.9781 B(  0-C ,  6-H ) :   0.9521
B(  0-C ,  7-H ) :   0.9763 B(  1-C ,  2-H ) :   0.9913 B(  1-C ,  3-H ) :   0.9922
B(  1-C ,  4-F ) :   0.8567

Dispersion correction           -0.002810418
FINAL SINGLE POINT ENERGY      -178.938616471630

DIPOLE MOMENT
-------------
                                X             Y             Z
Electronic contribution:     -2.73918      -3.29465      -2.82693
Nuclear contribution   :      3.27800       3.70743       3.04146
                        -----------------------------------------
Total Dipole Moment    :      0.53882       0.41278       0.21453
                        -----------------------------------------
Magnitude (a.u.)       :      0.71186
Magnitude (Debye)      :      1.80940

Rotational constants in cm-1:     1.234437     0.305084     0.268865
Rotational constants in MHz : 37007.496448  9146.194083  8060.380630

                             ****ORCA TERMINATED NORMALLY****
TOTAL RUN TIME: 0 days 0 hours 0 minutes 13 seconds 919 msec
