                         Program Version 5.0.0 -  RELEASE  -
|  1> !PBE0 D3BJ RIJCOSX def2-TZVPD def2/J TightSCF
|  2> *xyz 0 1
|  3> C         -2.12050        0.88520        1.78951
|  4> C         -0.77894        0.17197        1.80496
|  5> H         -2.32419        1.47265        2.68608
|  6> H         -2.18770        1.54127        0.91948
|  7> C         -3.17690       -0.15948        1.61070
|  8> H         -4.06474        0.23127        1.28675
|  9> H         -3.34407       -0.67151        2.48493
| 10> H         -2.71686       -0.78189        0.93588
| 11> H         -0.65708       -0.37837        0.89547
| 12> H         -0.74207       -0.50050        2.63642
| 13> H          0.00707        0.89251        1.89389
| 14> *
| 15> %MaxCore 64000
| 16>
| 17> %pal nprocs 4
| 18> end
| 19>
| 20> %scf
| 21>   MaxIter 150
| 22> end
| 23>
| 24>
| 25>                          ****END OF INPUT****

CARTESIAN COORDINATES (ANGSTROEM)
---------------------------------
  C     -2.120500    0.885200    1.789510
  C     -0.778940    0.171970    1.804960
  H     -2.324190    1.472650    2.686080
  H     -2.187700    1.541270    0.919480
  C     -3.176900   -0.159480    1.610700
  H     -4.064740    0.231270    1.286750
  H     -3.344070   -0.671510    2.484930
  H     -2.716860   -0.781890    0.935880
  H     -0.657080   -0.378370    0.895470
  H     -0.742070   -0.500500    2.636420
  H      0.007070    0.892510    1.893890

 Total Charge           Charge          ....    0
 Multiplicity           Mult            ....    1
 Number of Electrons    NEL             ....   26
 Basis Dimension        Dim             ....  183

ORBITAL ENERGIES
----------------

  NO   OCC          E(Eh)            E(eV)
   0   2.0000     -10.206788      -277.7408
   1   2.0000     -10.197023      -277.4751
   2   2.0000     -10.176530      -276.9175
   3   2.0000      -0.819271       -22.2935
   4   2.0000      -0.706753       -19.2317
   5   2.0000      -0.603542       -16.4232
   6   2.0000      -0.485417       -13.2089
   7   2.0000      -0.466727       -12.7003
   8   2.0000      -0.412190       -11.2163
   9   2.0000      -0.396730       -10.7956
  10   2.0000      -0.351209        -9.5569
  11   2.0000      -0.342583        -9.3222
  12   2.0000      -0.338434        -9.2093
  13   0.0000       0.021086         0.5738
  14   0.0000       0.044425         1.2089
  15   0.0000       0.047241         1.2855
  16   0.0000       0.067564         1.8385
  17   0.0000       0.088511         2.4085

MULLIKEN ATOMIC CHARGES
-----------------------
   0 C :    0.195913
   1 C :   -0.856684
   2 H :    0.136554
   3 H :    0.120210
   4 C :   -0.913223
   5 H :    0.201025
   6 H :    0.252795
   7 H :    0.221776
   8 H :    0.247001
   9 H :    0.224133
  10 H :    0.170500
Sum of atomic charges:   -0.0000000

LOEWDIN ATOMIC CHARGES
----------------------
   0 C :   -0.315825
   1 C :   -0.124729
   2 H :    0.104048
   3 H :    0.104247
   4 C :   -0.124857
   5 H :    0.051027
   6 H :    0.057015
   7 H :    0.048632
   8 H :    0.067404
   9 H :    0.071020
  10 H :    0.062018

  Mayer bond orders larger than 0.100000
B(  0-C ,  1-C ) :   0.7488 B(  0-C ,  2-H ) :   0.9507 B(  0-C ,  3-H ) :   0.9740
B(  0-C ,  4-C ) :   0.7735 B(  1-C ,  4-C ) :   0.2162 B(  1-C ,  8-H ) :   0.9828
B(  1-C ,  9-H ) :   0.9917 B(  1-C , 10-H ) :   1.0270 B(  4-C ,  5-H ) :   0.9902
B(  4-C ,  6-H ) :   0.9709 B(  4-C ,  7-H ) :   1.0014

Dispersion correction           -0.005091972
FINAL SINGLE POINT ENERGY      -119.015680802757

DIPOLE MOMENT
-------------
                                X             Y             Z
Electronic contribution:     -0.14382       0.47182       0.11266
Nuclear contribution   :      0.13334      -0.45108      -0.10852
                        -----------------------------------------
Total Dipole Moment    :     -0.01048       0.02073       0.00414
                        -----------------------------------------
Magnitude (a.u.)       :      0.02360
Magnitude (Debye)      :      0.05998

Rotational constants in cm-1:     0.972269     0.310387     0.269029
Rotational constants in MHz : 29147.878530  9305.178981  8065.286472

                             ****ORCA TERMINATED NORMALLY****
TOTAL RUN TIME: 0 days 0 hours 0 minutes 18 seconds 400 msec
