                         Program Version 5.0.0 -  RELEASE  -
|  1> !PBE0 D3BJ RIJCOSX def2-TZVPD def2/J TightSCF xyzfile
|  2>
|  3> *xyzfile 0 1 D.xyz
|  4>
|  5> %MaxCore 64000
|  6>
|  7> %pal nprocs 4
|  8> end
|  9>
| 10> %scf
| 11>   MaxIter 150
| 12> end
| 13>
| 14>
| 15>                          ****END OF INPUT****

CARTESIAN COORDINATES (ANGSTROEM)
---------------------------------
  C     -2.120502    0.885196    1.789506
  C     -0.778939    0.171966    1.804965
  H     -2.324193    1.472649    2.686078
  H     -2.187698    1.541272    0.919482
  C     -3.176900   -0.159484    1.610700
  H      0.015695    0.910767    1.939153
  H     -0.743553   -0.506827    2.665420
  C     -0.602493   -0.630712    0.492240
  H      0.313894   -1.240346    0.603498
  H     -0.363829    0.113322   -0.301169
  F     -1.712061   -1.376836    0.202535
  H     -4.064736    0.231272    1.286754
  H     -3.344073   -0.671511    2.484928
  H     -2.716861   -0.781886    0.935880

 Total Charge           Charge          ....    0
 Multiplicity           Mult            ....    1
 Number of Electrons    NEL             ....   42
 Basis Dimension        Dim             ....  269

ORBITAL ENERGIES
----------------

  NO   OCC          E(Eh)            E(eV)
   0   2.0000     -24.778372      -674.2538
   1   2.0000     -10.307431      -280.4795
   2   2.0000     -10.225572      -278.2520
   3   2.0000     -10.205238      -277.6987
   4   2.0000     -10.141973      -275.9771
   5   2.0000      -1.265231       -34.4287
   6   2.0000      -0.830464       -22.5981
   7   2.0000      -0.757187       -20.6041
   8   2.0000      -0.657752       -17.8984
   9   2.0000      -0.610517       -16.6130
  10   2.0000      -0.546626       -14.8745
  11   2.0000      -0.542845       -14.7716
  12   2.0000      -0.505046       -13.7430
  13   2.0000      -0.453802       -12.3486
  14   2.0000      -0.427610       -11.6359
  15   2.0000      -0.418034       -11.3753
  16   2.0000      -0.391026       -10.6404
  17   2.0000      -0.358205        -9.7472
  18   2.0000      -0.339560        -9.2399
  19   2.0000      -0.334229        -9.0948
  20   2.0000      -0.287441        -7.8217
  21   0.0000       0.015108         0.4111
  22   0.0000       0.038879         1.0579
  23   0.0000       0.039124         1.0646
  24   0.0000       0.042562         1.1582
  25   0.0000       0.070677         1.9232

MULLIKEN ATOMIC CHARGES
-----------------------
   0 C :   -0.027794
   1 C :   -0.214999
   2 H :    0.060428
   3 H :    0.148299
   4 C :   -0.920812
   5 H :    0.106582
   6 H :    0.182567
   7 C :   -0.136050
   8 H :    0.150543
   9 H :    0.166768
  10 F :   -0.251642
  11 H :    0.203406
  12 H :    0.252015
  13 H :    0.280689
Sum of atomic charges:   -0.0000000

LOEWDIN ATOMIC CHARGES
----------------------
   0 C :   -0.258116
   1 C :   -0.189376
   2 H :    0.105807
   3 H :    0.111797
   4 C :   -0.105514
   5 H :    0.112536
   6 H :    0.116182
   7 C :   -0.199227
   8 H :    0.119662
   9 H :    0.127970
  10 F :   -0.039288
  11 H :    0.056563
  12 H :    0.062406
  13 H :   -0.021402

  Mayer bond orders larger than 0.100000
B(  0-C ,  1-C ) :   0.8630 B(  0-C ,  2-H ) :   1.0114 B(  0-C ,  3-H ) :   0.9504
B(  0-C ,  4-C ) :   0.8457 B(  0-C ,  7-C ) :   0.1288 B(  1-C ,  4-C ) :   0.2109
B(  1-C ,  5-H ) :   1.0014 B(  1-C ,  6-H ) :   0.9545 B(  1-C ,  7-C ) :   1.0370
B(  4-C , 11-H ) :   0.9555 B(  4-C , 12-H ) :   0.9328 B(  4-C , 13-H ) :   1.1279
B(  7-C ,  8-H ) :   0.9912 B(  7-C ,  9-H ) :   0.9960 B(  7-C , 10-F ) :   0.8662
B( 10-F , 13-H ) :  -0.1189 B( 12-H , 13-H ) :   0.1122

Dispersion correction           -0.008270683
FINAL SINGLE POINT ENERGY      -257.440411114568

DIPOLE MOMENT
-------------
                                X             Y             Z
Electronic contribution:      0.88209      -4.20483      -3.73854
Nuclear contribution   :     -0.20666       4.43855       3.76066
                        -----------------------------------------
Total Dipole Moment    :      0.67542       0.23372       0.02212
                        -----------------------------------------
Magnitude (a.u.)       :      0.71506
Magnitude (Debye)      :      1.81753

Rotational constants in cm-1:     0.236353     0.155239     0.105045
Rotational constants in MHz :  7085.692869  4653.957069  3149.180346

                             ****ORCA TERMINATED NORMALLY****
TOTAL RUN TIME: 0 days 0 hours 0 minutes 41 seconds 144 msec
