                         Program Version 5.0.0 -  RELEASE  -
|  1> !LC-PBE RIJCOSX def2-SVPD def2/J TightSCF
|  2> *xyz -1 1
|  3> C         -2.45380        0.05510        6.94145
|  4> C         -2.07842        1.48042        6.56410
|  5> O         -0.90125        1.85816        6.82810
|  6> O         -2.93658        2.17731        5.96415
|  7> H         -3.47026       -0.13135        6.66407
|  8> H         -2.34265       -0.07527        7.99765
|  9> H         -1.81248       -0.63046        6.42801
| 10> *
| 11> %MaxCore 64000
| 12>
| 13> %pal nprocs 4
| 14> end
| 15>
| 16> %scf
| 17>   MaxIter 150
| 18> end
| 19>
| 20>
| 21>                          ****END OF INPUT****

CARTESIAN COORDINATES (ANGSTROEM)
---------------------------------
  C     -2.453800    0.055100    6.941450
  C     -2.078420    1.480420    6.564100
  O     -0.901250    1.858160    6.828100
  O     -2.936580    2.177310    5.964150
  H     -3.470260   -0.131350    6.664070
  H     -2.342650   -0.075270    7.997650
  H     -1.812480   -0.630460    6.428010

 Total Charge           Charge          ....   -1
 Multiplicity           Mult            ....    1
 Number of Electrons    NEL             ....   32
 Basis Dimension        Dim             ....  110

ORBITAL ENERGIES
----------------

  NO   OCC          E(Eh)            E(eV)
   0   2.0000     -18.725309      -509.5416
   1   2.0000     -18.722495      -509.4650
   2   2.0000     -10.018776      -272.6248
   3   2.0000      -9.940856      -270.5044
   4   2.0000      -0.975507       -26.5449
   5   2.0000      -0.871345       -23.7105
   6   2.0000      -0.713633       -19.4190
   7   2.0000      -0.452398       -12.3104
   8   2.0000      -0.407682       -11.0936
   9   2.0000      -0.389769       -10.6062
  10   2.0000      -0.372067       -10.1245
  11   2.0000      -0.323195        -8.7946
  12   2.0000      -0.306973        -8.3532
  13   2.0000      -0.175336        -4.7711
  14   2.0000      -0.174723        -4.7545
  15   2.0000      -0.159739        -4.3467
  16   0.0000       0.236925         6.4471
  17   0.0000       0.270328         7.3560
  18   0.0000       0.296623         8.0715
  19   0.0000       0.307043         8.3551
  20   0.0000       0.332678         9.0526

MULLIKEN ATOMIC CHARGES
-----------------------
   0 C :    0.247205
   1 C :   -0.038633
   2 O :   -0.633253
   3 O :   -0.603927
   4 H :    0.001374
   5 H :    0.014446
   6 H :    0.012789
Sum of atomic charges:   -1.0000000

LOEWDIN ATOMIC CHARGES
----------------------
   0 C :    0.107217
   1 C :   -0.355799
   2 O :   -0.345942
   3 O :   -0.337317
   4 H :   -0.027965
   5 H :   -0.020968
   6 H :   -0.019227

  Mayer bond orders larger than 0.100000
B(  0-C ,  1-C ) :   1.2018 B(  0-C ,  4-H ) :   0.8921 B(  0-C ,  5-H ) :   0.8446
B(  0-C ,  6-H ) :   0.8528 B(  1-C ,  2-O ) :   1.5660 B(  1-C ,  3-O ) :   1.5735
B(  1-C ,  4-H ) :   0.2051 B(  1-C ,  5-H ) :   0.1346 B(  1-C ,  6-H ) :   0.1281

FINAL SINGLE POINT ENERGY      -227.725818799286

DIPOLE MOMENT
-------------
                                X             Y             Z
Electronic contribution:      0.84121       3.24916      -0.87788
Nuclear contribution   :     -1.26064      -4.68337       1.27880
                        -----------------------------------------
Total Dipole Moment    :     -0.41943      -1.43422       0.40092
                        -----------------------------------------
Magnitude (a.u.)       :      1.54714
Magnitude (Debye)      :      3.93251

Rotational constants in cm-1:     0.391994     0.333933     0.186475
Rotational constants in MHz : 11751.676689 10011.065304  5590.392476

                             ****ORCA TERMINATED NORMALLY****
TOTAL RUN TIME: 0 days 0 hours 0 minutes 7 seconds 479 msec
