                         Program Version 5.0.0 -  RELEASE  -
|  1> !LC-PBE RIJCOSX def2-SVPD def2/J TightSCF
|  2> *xyz 1 1
|  3> C         -0.69912        3.48945        3.75516
|  4> N         -1.08067        3.79296        5.15686
|  5> H         -0.87449        4.76274        5.42734
|  6> H         -0.68079        3.13476        5.83900
|  7> H         -2.05755        3.53169        5.34620
|  8> H         -1.14600        4.20803        3.10030
|  9> H         -1.04188        2.50941        3.49644
| 10> H          0.36562        3.53208        3.65813
| 11> *
| 12> %MaxCore 64000
| 13>
| 14> %pal nprocs 4
| 15> end
| 16>
| 17> %scf
| 18>   MaxIter 150
| 19> end
| 20>
| 21>
| 22>                          ****END OF INPUT****

CARTESIAN COORDINATES (ANGSTROEM)
---------------------------------
  C     -0.699120    3.489450    3.755160
  N     -1.080670    3.792960    5.156860
  H     -0.874490    4.762740    5.427340
  H     -0.680790    3.134760    5.839000
  H     -2.057550    3.531690    5.346200
  H     -1.146000    4.208030    3.100300
  H     -1.041880    2.509410    3.496440
  H      0.365620    3.532080    3.658130

 Total Charge           Charge          ....    1
 Multiplicity           Mult            ....    1
 Number of Electrons    NEL             ....   18
 Basis Dimension        Dim             ....   88

ORBITAL ENERGIES
----------------

  NO   OCC          E(Eh)            E(eV)
   0   2.0000     -14.579514      -396.7288
   1   2.0000     -10.384151      -282.5671
   2   2.0000      -1.393556       -37.9206
   3   2.0000      -1.104997       -30.0685
   4   2.0000      -0.973875       -26.5005
   5   2.0000      -0.936066       -25.4717
   6   2.0000      -0.860340       -23.4110
   7   2.0000      -0.764861       -20.8129
   8   2.0000      -0.758043       -20.6274
   9   0.0000      -0.119802        -3.2600
  10   0.0000      -0.055068        -1.4985
  11   0.0000      -0.048115        -1.3093
  12   0.0000      -0.047130        -1.2825
  13   0.0000      -0.001021        -0.0278

MULLIKEN ATOMIC CHARGES
-----------------------
   0 C :    0.621123
   1 N :   -0.875988
   2 H :    0.396909
   3 H :    0.376491
   4 H :    0.390029
   5 H :    0.028673
   6 H :    0.027242
   7 H :    0.035522
Sum of atomic charges:    1.0000000

LOEWDIN ATOMIC CHARGES
----------------------
   0 C :    0.251437
   1 N :    0.287788
   2 H :    0.122269
   3 H :    0.116799
   4 H :    0.116343
   5 H :    0.035276
   6 H :    0.035356
   7 H :    0.034731

  Mayer bond orders larger than 0.100000
B(  0-C ,  1-N ) :   0.7973 B(  0-C ,  5-H ) :   0.9252 B(  0-C ,  6-H ) :   0.9218
B(  0-C ,  7-H ) :   0.9278 B(  1-N ,  2-H ) :   0.7655 B(  1-N ,  3-H ) :   0.8088
B(  1-N ,  4-H ) :   0.7865

FINAL SINGLE POINT ENERGY       -95.833184471414

DIPOLE MOMENT
-------------
                                X             Y             Z
Electronic contribution:     -0.25561       0.28221       1.01122
Nuclear contribution   :     -0.00699      -0.18064      -0.14199
                        -----------------------------------------
Total Dipole Moment    :     -0.26260       0.10156       0.86924
                        -----------------------------------------
Magnitude (a.u.)       :      0.91370
Magnitude (Debye)      :      2.32244

Rotational constants in cm-1:     2.906310     0.688008     0.676648
Rotational constants in MHz : 87128.982229 20625.947414 20285.402367

                             ****ORCA TERMINATED NORMALLY****
TOTAL RUN TIME: 0 days 0 hours 0 minutes 4 seconds 426 msec
