                         Program Version 5.0.0 -  RELEASE  -
|  1> !LC-PBE RIJCOSX def2-SVPD def2/J TightSCF
|  2> *xyz 0 1
|  3> C         -2.45380        0.05510        6.94145
|  4> C         -2.07842        1.48042        6.56410
|  5> F         -0.90125        1.85816        6.82810
|  6> O         -2.93658        2.17731        5.96415
|  7> H         -3.47026       -0.13135        6.66407
|  8> H         -2.34265       -0.07527        7.99765
|  9> H         -1.81248       -0.63046        6.42801
| 10> *
| 11> %MaxCore 64000
| 12>
| 13> %pal nprocs 4
| 14> end
| 15>
| 16> %scf
| 17>   MaxIter 150
| 18> end
| 19>
| 20>
| 21>                          ****END OF INPUT****

CARTESIAN COORDINATES (ANGSTROEM)
---------------------------------
  C     -2.453800    0.055100    6.941450
  C     -2.078420    1.480420    6.564100
  F     -0.901250    1.858160    6.828100
  O     -2.936580    2.177310    5.964150
  H     -3.470260   -0.131350    6.664070
  H     -2.342650   -0.075270    7.997650
  H     -1.812480   -0.630460    6.428010

 Total Charge           Charge          ....    0
 Multiplicity           Mult            ....    1
 Number of Electrons    NEL             ....   32
 Basis Dimension        Dim             ....  110

ORBITAL ENERGIES
----------------

  NO   OCC          E(Eh)            E(eV)
   0   2.0000     -24.582392      -668.9209
   1   2.0000     -19.007276      -517.2143
   2   2.0000     -10.325952      -280.9834
   3   2.0000     -10.157686      -276.4047
   4   2.0000      -1.465394       -39.8754
   5   2.0000      -1.195267       -32.5249
   6   2.0000      -0.947195       -25.7745
   7   2.0000      -0.815894       -22.2016
   8   2.0000      -0.710123       -19.3234
   9   2.0000      -0.702937       -19.1279
  10   2.0000      -0.655770       -17.8444
  11   2.0000      -0.589326       -16.0364
  12   2.0000      -0.577438       -15.7129
  13   2.0000      -0.549306       -14.9474
  14   2.0000      -0.498345       -13.5607
  15   2.0000      -0.437872       -11.9151
  16   0.0000       0.064724         1.7612
  17   0.0000       0.079864         2.1732
  18   0.0000       0.118463         3.2236
  19   0.0000       0.153099         4.1660
  20   0.0000       0.160139         4.3576

MULLIKEN ATOMIC CHARGES
-----------------------
   0 C :    0.146290
   1 C :    0.334093
   2 F :   -0.322933
   3 O :   -0.403902
   4 H :    0.045724
   5 H :    0.099536
   6 H :    0.101191
Sum of atomic charges:   -0.0000000

LOEWDIN ATOMIC CHARGES
----------------------
   0 C :    0.179030
   1 C :   -0.048904
   2 F :   -0.031592
   3 O :   -0.136495
   4 H :    0.012652
   5 H :    0.011663
   6 H :    0.013645

  Mayer bond orders larger than 0.100000
B(  0-C ,  1-C ) :   1.2377 B(  0-C ,  4-H ) :   0.9174 B(  0-C ,  5-H ) :   0.8316
B(  0-C ,  6-H ) :   0.8358 B(  1-C ,  2-F ) :   0.8286 B(  1-C ,  3-O ) :   1.9175
B(  1-C ,  4-H ) :   0.1648

FINAL SINGLE POINT ENERGY      -252.233776711637

DIPOLE MOMENT
-------------
                                X             Y             Z
Electronic contribution:      2.83159       4.08055      -0.46947
Nuclear contribution   :     -2.49112      -5.16552       1.01592
                        -----------------------------------------
Total Dipole Moment    :      0.34047      -1.08497       0.54645
                        -----------------------------------------
Magnitude (a.u.)       :      1.26162
Magnitude (Debye)      :      3.20677

Rotational constants in cm-1:     0.367635     0.321184     0.176974
Rotational constants in MHz : 11021.414238  9628.842971  5305.560130

                             ****ORCA TERMINATED NORMALLY****
TOTAL RUN TIME: 0 days 0 hours 0 minutes 7 seconds 361 msec
