                         Program Version 5.0.0 -  RELEASE  -
|  1> !LC-PBE RIJCOSX def2-SVPD def2/J TightSCF
|  2> *xyz 0 1
|  3> C         -0.69912        3.48945        3.75516
|  4> C         -1.08067        3.79296        5.15686
|  5> H         -0.87449        4.76274        5.42734
|  6> H         -0.68079        3.13476        5.83900
|  7> H         -2.05755        3.53169        5.34620
|  8> H         -1.14600        4.20803        3.10030
|  9> H         -1.04188        2.50941        3.49644
| 10> H          0.36562        3.53208        3.65813
| 11> *
| 12> %MaxCore 64000
| 13>
| 14> %pal nprocs 4
| 15> end
| 16>
| 17> %scf
| 18>   MaxIter 150
| 19> end
| 20>
| 21>
| 22>                          ****END OF INPUT****

CARTESIAN COORDINATES (ANGSTROEM)
---------------------------------
  C     -0.699120    3.489450    3.755160
  C     -1.080670    3.792960    5.156860
  H     -0.874490    4.762740    5.427340
  H     -0.680790    3.134760    5.839000
  H     -2.057550    3.531690    5.346200
  H     -1.146000    4.208030    3.100300
  H     -1.041880    2.509410    3.496440
  H      0.365620    3.532080    3.658130

 Total Charge           Charge          ....    0
 Multiplicity           Mult            ....    1
 Number of Electrons    NEL             ....   18
 Basis Dimension        Dim             ....   88

ORBITAL ENERGIES
----------------

  NO   OCC          E(Eh)            E(eV)
   0   2.0000     -10.103411      -274.9278
   1   2.0000     -10.089562      -274.5509
   2   2.0000      -0.940509       -25.5926
   3   2.0000      -0.782597       -21.2956
   4   2.0000      -0.602627       -16.3983
   5   2.0000      -0.580910       -15.8074
   6   2.0000      -0.509905       -13.8752
   7   2.0000      -0.483873       -13.1668
   8   2.0000      -0.460598       -12.5335
   9   0.0000       0.096420         2.6237
  10   0.0000       0.124891         3.3984
  11   0.0000       0.177774         4.8375
  12   0.0000       0.183592         4.9958
  13   0.0000       0.201134         5.4731

MULLIKEN ATOMIC CHARGES
-----------------------
   0 C :    0.056905
   1 C :    0.290372
   2 H :   -0.122601
   3 H :   -0.127597
   4 H :   -0.121661
   5 H :    0.002493
   6 H :    0.017472
   7 H :    0.004617
Sum of atomic charges:    0.0000000

LOEWDIN ATOMIC CHARGES
----------------------
   0 C :    0.046756
   1 C :    0.042168
   2 H :   -0.019301
   3 H :   -0.026675
   4 H :   -0.026684
   5 H :   -0.005587
   6 H :   -0.004339
   7 H :   -0.006339

  Mayer bond orders larger than 0.100000
B(  0-C ,  1-C ) :   1.4088 B(  0-C ,  2-H ) :   0.1243 B(  0-C ,  3-H ) :   0.1075
B(  0-C ,  4-H ) :   0.1115 B(  0-C ,  5-H ) :   0.8988 B(  0-C ,  6-H ) :   0.9000
B(  0-C ,  7-H ) :   0.9002 B(  1-C ,  2-H ) :   0.8779 B(  1-C ,  3-H ) :   0.8176
B(  1-C ,  4-H ) :   0.8175 B(  1-C ,  5-H ) :   0.1158 B(  1-C ,  6-H ) :   0.1178
B(  1-C ,  7-H ) :   0.1126 B(  3-H ,  4-H ) :   0.2346

FINAL SINGLE POINT ENERGY       -79.463213173296

DIPOLE MOMENT
-------------
                                X             Y             Z
Electronic contribution:      0.05070       0.09731      -0.05937
Nuclear contribution   :     -0.07174      -0.12630       0.09844
                        -----------------------------------------
Total Dipole Moment    :     -0.02104      -0.02900       0.03908
                        -----------------------------------------
Magnitude (a.u.)       :      0.05301
Magnitude (Debye)      :      0.13474

Rotational constants in cm-1:     2.906543     0.717882     0.705537
Rotational constants in MHz : 87135.978289 21521.550473 21151.459355

                             ****ORCA TERMINATED NORMALLY****
TOTAL RUN TIME: 0 days 0 hours 0 minutes 4 seconds 554 msec
