                         Program Version 5.0.0 -  RELEASE  -
|  1> !LC-PBE RIJCOSX def2-SVPD def2/J TightSCF
|  2> *xyz 0 1
|  3> C         -2.45380        0.05510        6.94145
|  4> C         -2.07842        1.48042        6.56410
|  5> O         -0.90125        1.85816        6.82810
|  6> F         -2.93658        2.17731        5.96415
|  7> H         -3.47026       -0.13135        6.66407
|  8> H         -2.34265       -0.07527        7.99765
|  9> H         -1.81248       -0.63046        6.42801
| 10> *
| 11> %MaxCore 64000
| 12>
| 13> %pal nprocs 4
| 14> end
| 15>
| 16> %scf
| 17>   MaxIter 150
| 18> end
| 19>
| 20>
| 21>                          ****END OF INPUT****

CARTESIAN COORDINATES (ANGSTROEM)
---------------------------------
  C     -2.453800    0.055100    6.941450
  C     -2.078420    1.480420    6.564100
  O     -0.901250    1.858160    6.828100
  F     -2.936580    2.177310    5.964150
  H     -3.470260   -0.131350    6.664070
  H     -2.342650   -0.075270    7.997650
  H     -1.812480   -0.630460    6.428010

 Total Charge           Charge          ....    0
 Multiplicity           Mult            ....    1
 Number of Electrons    NEL             ....   32
 Basis Dimension        Dim             ....  110

ORBITAL ENERGIES
----------------

  NO   OCC          E(Eh)            E(eV)
   0   2.0000     -24.585238      -668.9983
   1   2.0000     -19.005393      -517.1630
   2   2.0000     -10.326662      -281.0028
   3   2.0000     -10.157935      -276.4115
   4   2.0000      -1.470495       -40.0142
   5   2.0000      -1.191128       -32.4122
   6   2.0000      -0.947036       -25.7702
   7   2.0000      -0.818978       -22.2855
   8   2.0000      -0.712275       -19.3820
   9   2.0000      -0.705705       -19.2032
  10   2.0000      -0.656169       -17.8553
  11   2.0000      -0.590797       -16.0764
  12   2.0000      -0.576583       -15.6896
  13   2.0000      -0.548471       -14.9247
  14   2.0000      -0.492758       -13.4086
  15   2.0000      -0.437247       -11.8981
  16   0.0000       0.060597         1.6489
  17   0.0000       0.079551         2.1647
  18   0.0000       0.118525         3.2252
  19   0.0000       0.155708         4.2370
  20   0.0000       0.158223         4.3055

MULLIKEN ATOMIC CHARGES
-----------------------
   0 C :    0.131092
   1 C :    0.324181
   2 O :   -0.431221
   3 F :   -0.295640
   4 H :    0.060759
   5 H :    0.103987
   6 H :    0.106842
Sum of atomic charges:    0.0000000

LOEWDIN ATOMIC CHARGES
----------------------
   0 C :    0.179141
   1 C :   -0.047258
   2 O :   -0.142375
   3 F :   -0.027165
   4 H :    0.000823
   5 H :    0.017932
   6 H :    0.018901

  Mayer bond orders larger than 0.100000
B(  0-C ,  1-C ) :   1.2575 B(  0-C ,  4-H ) :   0.9018 B(  0-C ,  5-H ) :   0.8332
B(  0-C ,  6-H ) :   0.8394 B(  1-C ,  2-O ) :   1.8844 B(  1-C ,  3-F ) :   0.8709
B(  1-C ,  4-H ) :   0.1206 B(  1-C ,  5-H ) :   0.1145 B(  1-C ,  6-H ) :   0.1065

FINAL SINGLE POINT ENERGY      -252.230831597467

DIPOLE MOMENT
-------------
                                X             Y             Z
Electronic contribution:     -0.51432       4.60577      -1.88949
Nuclear contribution   :     -0.38801      -5.49530       1.90863
                        -----------------------------------------
Total Dipole Moment    :     -0.90233      -0.88953       0.01914
                        -----------------------------------------
Magnitude (a.u.)       :      1.26721
Magnitude (Debye)      :      3.22099

Rotational constants in cm-1:     0.368583     0.320435     0.176966
Rotational constants in MHz : 11049.843408  9606.394840  5305.299921

                             ****ORCA TERMINATED NORMALLY****
TOTAL RUN TIME: 0 days 0 hours 0 minutes 7 seconds 517 msec
