                         Program Version 5.0.0 -  RELEASE  -
|  1> !B3LYP D3BJ RIJCOSX def2-SVP def2/J TightSCF
|  2> *xyz -1 1
|  3> C         -5.57236       -5.80780       -0.81644
|  4> S         -6.90318       -4.61903       -0.52846
|  5> O         -8.11485       -5.25093       -0.95701
|  6> O         -6.53271       -3.42684       -1.31485
|  7> O         -6.86563       -4.29496        0.91412
|  8> C         -4.45780       -5.94187        0.22919
|  9> H         -5.17735       -5.54257       -1.79771
| 10> H         -6.07420       -6.76889       -0.92127
| 11> H         -3.75515       -6.68239       -0.09144
| 12> H         -4.88182       -6.23486        1.16689
| 13> H         -3.95908       -5.00189        0.34143
| 14> *
| 15> %MaxCore 64000
| 16>
| 17> %pal nprocs 4
| 18> end
| 19>
| 20> %scf
| 21>   MaxIter 150
| 22> end
| 23>
| 24>                          ****END OF INPUT****

CARTESIAN COORDINATES (ANGSTROEM)
---------------------------------
  C     -5.572360   -5.807800   -0.816440
  S     -6.903180   -4.619030   -0.528460
  O     -8.114850   -5.250930   -0.957010
  O     -6.532710   -3.426840   -1.314850
  O     -6.865630   -4.294960    0.914120
  C     -4.457800   -5.941870    0.229190
  H     -5.177350   -5.542570   -1.797710
  H     -6.074200   -6.768890   -0.921270
  H     -3.755150   -6.682390   -0.091440
  H     -4.881820   -6.234860    1.166890
  H     -3.959080   -5.001890    0.341430

 Total Charge           Charge          ....   -1
 Multiplicity           Mult            ....    1
 Number of Electrons    NEL             ....   58
 Basis Dimension        Dim             ....  113

ORBITAL ENERGIES
----------------

  NO   OCC          E(Eh)            E(eV)
   0   2.0000     -88.837619     -2417.3945
   1   2.0000     -18.882723      -513.8250
   2   2.0000     -18.868375      -513.4346
   3   2.0000     -18.865561      -513.3580
   4   2.0000     -10.037131      -273.1242
   5   2.0000     -10.027990      -272.8755
   6   2.0000      -7.898279      -214.9231
   7   2.0000      -5.866593      -159.6381
   8   2.0000      -5.866544      -159.6368
   9   2.0000      -5.866298      -159.6301
  10   2.0000      -0.894753       -24.3475
  11   2.0000      -0.753756       -20.5108
  12   2.0000      -0.728829       -19.8325
  13   2.0000      -0.613928       -16.7058
  14   2.0000      -0.492449       -13.4002
  15   2.0000      -0.357582        -9.7303
  16   2.0000      -0.307256        -8.3609
  17   2.0000      -0.291205        -7.9241
  18   2.0000      -0.258564        -7.0359
  19   2.0000      -0.236532        -6.4364
  20   2.0000      -0.231322        -6.2946
  21   2.0000      -0.209917        -5.7121
  22   2.0000      -0.205200        -5.5838
  23   2.0000      -0.114016        -3.1025
  24   2.0000      -0.112848        -3.0707
  25   2.0000      -0.084358        -2.2955
  26   2.0000      -0.073193        -1.9917
  27   2.0000      -0.064873        -1.7653
  28   2.0000      -0.028231        -0.7682
  29   0.0000       0.199543         5.4299
  30   0.0000       0.254982         6.9384
  31   0.0000       0.260084         7.0772
  32   0.0000       0.264988         7.2107
  33   0.0000       0.286350         7.7920

MULLIKEN ATOMIC CHARGES
-----------------------
   0 C :   -0.078792
   1 S :    0.881434
   2 O :   -0.564219
   3 O :   -0.614658
   4 O :   -0.607846
   5 C :    0.070392
   6 H :   -0.011041
   7 H :   -0.018912
   8 H :   -0.046814
   9 H :   -0.005089
  10 H :   -0.004454
Sum of atomic charges:   -1.0000000

LOEWDIN ATOMIC CHARGES
----------------------
   0 C :   -0.185080
   1 S :    1.107498
   2 O :   -0.598689
   3 O :   -0.648559
   4 O :   -0.645373
   5 C :   -0.060897
   6 H :    0.004734
   7 H :    0.001187
   8 H :   -0.001766
   9 H :    0.013003
  10 H :    0.013942

  Mayer bond orders larger than 0.100000
B(  0-C ,  1-S ) :   0.8738 B(  0-C ,  5-C ) :   1.0842 B(  0-C ,  6-H ) :   0.9395
B(  0-C ,  7-H ) :   0.9394 B(  1-S ,  2-O ) :   1.6460 B(  1-S ,  3-O ) :   1.5932
B(  1-S ,  4-O ) :   1.6019 B(  5-C ,  8-H ) :   0.9534 B(  5-C ,  9-H ) :   0.9641
B(  5-C , 10-H ) :   0.9667

Dispersion correction           -0.016451882
FINAL SINGLE POINT ENERGY      -702.521216621438

DIPOLE MOMENT
-------------
                                X             Y             Z
Electronic contribution:     -6.81186       4.42078      -0.90790
Nuclear contribution   :      8.13140      -5.68016       0.80206
                        -----------------------------------------
Total Dipole Moment    :      1.31954      -1.25938      -0.10584
                        -----------------------------------------
Magnitude (a.u.)       :      1.82714
Magnitude (Debye)      :      4.64422

Rotational constants in cm-1:     0.162101     0.080498     0.079099
Rotational constants in MHz :  4859.669771  2413.267251  2371.338602

                             ****ORCA TERMINATED NORMALLY****
TOTAL RUN TIME: 0 days 0 hours 0 minutes 12 seconds 978 msec
