                         Program Version 5.0.0 -  RELEASE  -
|  1> !B3LYP D3BJ RIJCOSX def2-SVP def2/J TightSCF
|  2> *xyz 1 1
|  3> C         -4.38262       -1.67089        1.21620
|  4> N         -5.76354       -1.91517        0.70501
|  5> C         -3.28173       -2.19127        0.29436
|  6> H         -5.84081       -2.11520       -0.30065
|  7> H         -6.40882       -1.14866        0.93612
|  8> H         -6.17478       -2.79061        1.05143
|  9> H         -4.32862       -2.13922        2.19810
| 10> H         -4.26158       -0.59740        1.35725
| 11> H         -3.36057       -1.71407       -0.66008
| 12> H         -3.38775       -3.24919        0.17403
| 13> H         -2.32559       -1.97514        0.72329
| 14> *
| 15> %MaxCore 64000
| 16>
| 17> %pal nprocs 4
| 18> end
| 19>
| 20> %scf
| 21>   MaxIter 150
| 22> end
| 23>
| 24>                          ****END OF INPUT****

CARTESIAN COORDINATES (ANGSTROEM)
---------------------------------
  C     -4.382620   -1.670890    1.216200
  N     -5.763540   -1.915170    0.705010
  C     -3.281730   -2.191270    0.294360
  H     -5.840810   -2.115200   -0.300650
  H     -6.408820   -1.148660    0.936120
  H     -6.174780   -2.790610    1.051430
  H     -4.328620   -2.139220    2.198100
  H     -4.261580   -0.597400    1.357250
  H     -3.360570   -1.714070   -0.660080
  H     -3.387750   -3.249190    0.174030
  H     -2.325590   -1.975140    0.723290

 Total Charge           Charge          ....    1
 Multiplicity           Mult            ....    1
 Number of Electrons    NEL             ....   26
 Basis Dimension        Dim             ....   82

ORBITAL ENERGIES
----------------

  NO   OCC          E(Eh)            E(eV)
   0   2.0000     -14.668120      -399.1399
   1   2.0000     -10.437483      -284.0184
   2   2.0000     -10.358964      -281.8817
   3   2.0000      -1.208538       -32.8860
   4   2.0000      -0.960102       -26.1257
   5   2.0000      -0.845741       -23.0138
   6   2.0000      -0.798646       -21.7323
   7   2.0000      -0.777722       -21.1629
   8   2.0000      -0.702939       -19.1279
   9   2.0000      -0.639755       -17.4086
  10   2.0000      -0.582944       -15.8627
  11   2.0000      -0.566167       -15.4062
  12   2.0000      -0.548119       -14.9151
  13   0.0000      -0.186252        -5.0682
  14   0.0000      -0.131929        -3.5900
  15   0.0000      -0.126785        -3.4500
  16   0.0000      -0.091708        -2.4955
  17   0.0000      -0.048500        -1.3198

MULLIKEN ATOMIC CHARGES
-----------------------
   0 C :   -0.010713
   1 N :    0.026886
   2 C :   -0.001373
   3 H :    0.195312
   4 H :    0.215059
   5 H :    0.202544
   6 H :    0.090567
   7 H :    0.091177
   8 H :    0.054209
   9 H :    0.050465
  10 H :    0.085867
Sum of atomic charges:    1.0000000

LOEWDIN ATOMIC CHARGES
----------------------
   0 C :    0.056847
   1 N :    0.291327
   2 C :   -0.031023
   3 H :    0.142577
   4 H :    0.149193
   5 H :    0.146541
   6 H :    0.053253
   7 H :    0.053634
   8 H :    0.038269
   9 H :    0.036992
  10 H :    0.062389

  Mayer bond orders larger than 0.100000
B(  0-C ,  1-N ) :   0.9134 B(  0-C ,  2-C ) :   1.1114 B(  0-C ,  6-H ) :   0.9534
B(  0-C ,  7-H ) :   0.9553 B(  1-N ,  3-H ) :   0.9356 B(  1-N ,  4-H ) :   0.9352
B(  1-N ,  5-H ) :   0.9379 B(  2-C ,  8-H ) :   0.9661 B(  2-C ,  9-H ) :   0.9706
B(  2-C , 10-H ) :   0.9558

Dispersion correction           -0.009932320
FINAL SINGLE POINT ENERGY      -135.345893251734

DIPOLE MOMENT
-------------
                                X             Y             Z
Electronic contribution:     -1.86028       0.23828       0.30053
Nuclear contribution   :      0.19437      -0.25358      -0.32106
                        -----------------------------------------
Total Dipole Moment    :     -1.66591      -0.01530      -0.02053
                        -----------------------------------------
Magnitude (a.u.)       :      1.66611
Magnitude (Debye)      :      4.23491

Rotational constants in cm-1:     1.030014     0.272489     0.242697
Rotational constants in MHz : 30879.030706  8169.007780  7275.865152

                             ****ORCA TERMINATED NORMALLY****
TOTAL RUN TIME: 0 days 0 hours 0 minutes 9 seconds 229 msec
