                         Program Version 5.0.0 -  RELEASE  -
|  1> !B3LYP D3BJ RIJCOSX def2-TZVP def2/J TightSCF xyzfile
|  2>
|  3> *xyzfile 0 1 B.xyz
|  4>
|  5> %MaxCore 64000
|  6>
|  7> %pal nprocs 18
|  8> end
|  9>
| 10> %scf
| 11>   MaxIter 150
| 12> end
| 13>
| 14>
| 15>                          ****END OF INPUT****

CARTESIAN COORDINATES (ANGSTROEM)
---------------------------------
  C     -4.382623   -1.670889    1.216201
  N     -5.763539   -1.915170    0.705012
  C     -3.281728   -2.191272    0.294361
  C     -5.572364   -5.807798   -0.816445
  S     -6.903179   -4.619033   -0.528458
  H     -5.840812   -2.115205   -0.300646
  H     -6.408823   -1.148656    0.936124
  H     -6.174781   -2.790606    1.051433
  O     -8.114853   -5.250932   -0.957007
  O     -6.532715   -3.426838   -1.314848
  H     -4.328618   -2.139223    2.198103
  H     -4.261583   -0.597399    1.357248
  O     -6.865632   -4.294957    0.914118
  C     -3.474641   -3.605898   -0.259608
  H     -2.354548   -2.127602    0.871433
  H     -3.166611   -1.499693   -0.545037
  C     -3.827078   -4.661097    0.786174
  H     -2.560559   -3.889391   -0.788050
  H     -4.255932   -3.570040   -1.019300
  C     -4.457800   -5.941875    0.229195
  H     -5.177347   -5.542575   -1.797714
  H     -6.074202   -6.768894   -0.921272
  H     -4.530506   -4.253640    1.511979
  H     -2.933400   -4.932302    1.356825
  H     -3.681064   -6.562236   -0.229885
  H     -4.843942   -6.512728    1.075805

 Total Charge           Charge          ....    0
 Multiplicity           Mult            ....    1
 Number of Electrons    NEL             ....   98
 Basis Dimension        Dim             ....  437

ORBITAL ENERGIES
----------------

  NO   OCC          E(Eh)            E(eV)
   0   2.0000     -89.005879     -2421.9731
   1   2.0000     -19.077771      -519.1326
   2   2.0000     -19.073545      -519.0176
   3   2.0000     -19.061112      -518.6792
   4   2.0000     -14.419937      -392.3864
   5   2.0000     -10.255980      -279.0794
   6   2.0000     -10.202647      -277.6281
   7   2.0000     -10.176499      -276.9166
   8   2.0000     -10.172731      -276.8141
   9   2.0000     -10.171599      -276.7833
  10   2.0000     -10.170476      -276.7527
  11   2.0000      -8.049712      -219.0438
  12   2.0000      -6.013227      -163.6282
  13   2.0000      -6.012597      -163.6111
  14   2.0000      -6.011365      -163.5776
  15   2.0000      -1.094094       -29.7718
  16   2.0000      -1.006651       -27.3924
  17   2.0000      -0.957676       -26.0597
  18   2.0000      -0.954687       -25.9784
  19   2.0000      -0.830562       -22.6007
  20   2.0000      -0.790280       -21.5046
  21   2.0000      -0.740865       -20.1600
  22   2.0000      -0.690005       -18.7760
  23   2.0000      -0.636688       -17.3252
  24   2.0000      -0.600503       -16.3405
  25   2.0000      -0.586294       -15.9539
  26   2.0000      -0.574731       -15.6392
  27   2.0000      -0.537493       -14.6259
  28   2.0000      -0.511817       -13.9272
  29   2.0000      -0.488366       -13.2891
  30   2.0000      -0.482787       -13.1373
  31   2.0000      -0.467051       -12.7091
  32   2.0000      -0.447214       -12.1693
  33   2.0000      -0.437814       -11.9135
  34   2.0000      -0.430120       -11.7042
  35   2.0000      -0.420725       -11.4485
  36   2.0000      -0.415135       -11.2964
  37   2.0000      -0.388096       -10.5606
  38   2.0000      -0.376960       -10.2576
  39   2.0000      -0.372688       -10.1414
  40   2.0000      -0.346026        -9.4159
  41   2.0000      -0.339639        -9.2421
  42   2.0000      -0.332332        -9.0432
  43   2.0000      -0.321792        -8.7564
  44   2.0000      -0.315282        -8.5793
  45   2.0000      -0.279851        -7.6151
  46   2.0000      -0.274439        -7.4679
  47   2.0000      -0.267077        -7.2675
  48   2.0000      -0.242949        -6.6110
  49   0.0000      -0.014383        -0.3914
  50   0.0000       0.025653         0.6980
  51   0.0000       0.037034         1.0077
  52   0.0000       0.039723         1.0809
  53   0.0000       0.055374         1.5068

MULLIKEN ATOMIC CHARGES
-----------------------
   0 C :   -0.193943
   1 N :   -0.257497
   2 C :   -0.161677
   3 C :   -0.290015
   4 S :    0.906749
   5 H :    0.294124
   6 H :    0.261961
   7 H :    0.292008
   8 O :   -0.485289
   9 O :   -0.602243
  10 H :    0.156935
  11 H :    0.136545
  12 O :   -0.591652
  13 C :   -0.257657
  14 H :    0.104093
  15 H :    0.116128
  16 C :   -0.206937
  17 H :    0.095091
  18 H :    0.157254
  19 C :   -0.123723
  20 H :    0.124098
  21 H :    0.136574
  22 H :    0.110846
  23 H :    0.086291
  24 H :    0.090531
  25 H :    0.101405
Sum of atomic charges:   -0.0000000

LOEWDIN ATOMIC CHARGES
----------------------
   0 C :   -0.271068
   1 N :    0.139663
   2 C :   -0.264353
   3 C :   -0.379111
   4 S :    0.468146
   5 H :    0.183380
   6 H :    0.194609
   7 H :    0.163448
   8 O :   -0.303954
   9 O :   -0.390427
  10 H :    0.138126
  11 H :    0.134336
  12 O :   -0.372284
  13 C :   -0.267661
  14 H :    0.145208
  15 H :    0.140251
  16 C :   -0.271738
  17 H :    0.137715
  18 H :    0.142281
  19 C :   -0.277067
  20 H :    0.131173
  21 H :    0.137072
  22 H :    0.131602
  23 H :    0.132596
  24 H :    0.137031
  25 H :    0.141025

  Mayer bond orders larger than 0.100000
B(  0-C ,  1-N ) :   0.8806 B(  0-C ,  2-C ) :   0.9596 B(  0-C , 10-H ) :   0.9765
B(  0-C , 11-H ) :   0.9717 B(  1-N ,  5-H ) :   0.8229 B(  1-N ,  6-H ) :   0.9075
B(  1-N ,  7-H ) :   0.7867 B(  2-C , 13-C ) :   0.9639 B(  2-C , 14-H ) :   0.9659
B(  2-C , 15-H ) :   0.9706 B(  3-C ,  4-S ) :   0.8950 B(  3-C , 19-C ) :   0.9552
B(  3-C , 20-H ) :   0.9578 B(  3-C , 21-H ) :   0.9541 B(  4-S ,  8-O ) :   1.9331
B(  4-S ,  9-O ) :   1.5788 B(  4-S , 12-O ) :   1.5427 B(  5-H ,  9-O ) :   0.1133
B(  7-H , 12-O ) :   0.1835 B( 13-C , 16-C ) :   0.9324 B( 13-C , 17-H ) :   0.9690
B( 13-C , 18-H ) :   0.9704 B( 16-C , 19-C ) :   0.9710 B( 16-C , 22-H ) :   0.9664
B( 16-C , 23-H ) :   0.9586 B( 19-C , 24-H ) :   0.9574 B( 19-C , 25-H ) :   0.9686

Dispersion correction           -0.051495159
FINAL SINGLE POINT ENERGY      -916.212280553841

DIPOLE MOMENT
-------------
                                X             Y             Z
Electronic contribution:    -13.58449      -2.91978      -3.68115
Nuclear contribution   :     16.18863       5.15617       4.97370
                        -----------------------------------------
Total Dipole Moment    :      2.60414       2.23639       1.29255
                        -----------------------------------------
Magnitude (a.u.)       :      3.66792
Magnitude (Debye)      :      9.32312

Rotational constants in cm-1:     0.048546     0.025588     0.020102
Rotational constants in MHz :  1455.374030   767.095631   602.645620

                             ****ORCA TERMINATED NORMALLY****
TOTAL RUN TIME: 0 days 0 hours 0 minutes 47 seconds 916 msec
