                         Program Version 5.0.0 -  RELEASE  -
|  1> !B3LYP D3BJ RIJCOSX def2-SVP def2/J TightSCF
|  2> *xyz 0 1
|  3> C         -5.57236       -5.80780       -0.81644
|  4> S         -6.90318       -4.61903       -0.52846
|  5> F         -8.11485       -5.25093       -0.95701
|  6> O         -6.53271       -3.42684       -1.31485
|  7> O         -6.86563       -4.29496        0.91412
|  8> C         -4.45780       -5.94187        0.22919
|  9> H         -5.17735       -5.54257       -1.79771
| 10> H         -6.07420       -6.76889       -0.92127
| 11> H         -3.75515       -6.68239       -0.09144
| 12> H         -4.88182       -6.23486        1.16689
| 13> H         -3.95908       -5.00189        0.34143
| 14> *
| 15> %MaxCore 64000
| 16>
| 17> %pal nprocs 4
| 18> end
| 19>
| 20> %scf
| 21>   MaxIter 150
| 22> end
| 23>
| 24>                          ****END OF INPUT****

CARTESIAN COORDINATES (ANGSTROEM)
---------------------------------
  C     -5.572360   -5.807800   -0.816440
  S     -6.903180   -4.619030   -0.528460
  F     -8.114850   -5.250930   -0.957010
  O     -6.532710   -3.426840   -1.314850
  O     -6.865630   -4.294960    0.914120
  C     -4.457800   -5.941870    0.229190
  H     -5.177350   -5.542570   -1.797710
  H     -6.074200   -6.768890   -0.921270
  H     -3.755150   -6.682390   -0.091440
  H     -4.881820   -6.234860    1.166890
  H     -3.959080   -5.001890    0.341430

 Total Charge           Charge          ....    0
 Multiplicity           Mult            ....    1
 Number of Electrons    NEL             ....   58
 Basis Dimension        Dim             ....  113

ORBITAL ENERGIES
----------------

  NO   OCC          E(Eh)            E(eV)
   0   2.0000     -89.112254     -2424.8677
   1   2.0000     -24.802099      -674.8994
   2   2.0000     -19.120971      -520.3081
   3   2.0000     -19.119849      -520.2775
   4   2.0000     -10.241029      -278.6726
   5   2.0000     -10.204601      -277.6813
   6   2.0000      -8.175356      -222.4627
   7   2.0000      -6.147789      -167.2898
   8   2.0000      -6.141082      -167.1073
   9   2.0000      -6.140082      -167.0801
  10   2.0000      -1.374971       -37.4149
  11   2.0000      -1.081540       -29.4302
  12   2.0000      -0.978084       -26.6150
  13   2.0000      -0.812798       -22.1173
  14   2.0000      -0.731015       -19.8919
  15   2.0000      -0.673105       -18.3161
  16   2.0000      -0.586170       -15.9505
  17   2.0000      -0.583591       -15.8803
  18   2.0000      -0.544500       -14.8166
  19   2.0000      -0.490019       -13.3341
  20   2.0000      -0.469822       -12.7845
  21   2.0000      -0.435432       -11.8487
  22   2.0000      -0.420675       -11.4471
  23   2.0000      -0.403101       -10.9689
  24   2.0000      -0.388551       -10.5730
  25   2.0000      -0.365497        -9.9457
  26   2.0000      -0.311310        -8.4712
  27   2.0000      -0.307436        -8.3658
  28   2.0000      -0.284258        -7.7350
  29   0.0000       0.032845         0.8938
  30   0.0000       0.040493         1.1019
  31   0.0000       0.075261         2.0480
  32   0.0000       0.087042         2.3685
  33   0.0000       0.097003         2.6396

MULLIKEN ATOMIC CHARGES
-----------------------
   0 C :   -0.124192
   1 S :    0.954976
   2 F :   -0.162542
   3 O :   -0.471016
   4 O :   -0.468924
   5 C :    0.061346
   6 H :    0.067180
   7 H :    0.040522
   8 H :    0.026283
   9 H :    0.034738
  10 H :    0.041629
Sum of atomic charges:   -0.0000000

LOEWDIN ATOMIC CHARGES
----------------------
   0 C :   -0.148638
   1 S :    1.162654
   2 F :   -0.109917
   3 O :   -0.515411
   4 O :   -0.516002
   5 C :   -0.035315
   6 H :    0.038679
   7 H :    0.025115
   8 H :    0.033730
   9 H :    0.031154
  10 H :    0.033952

  Mayer bond orders larger than 0.100000
B(  0-C ,  1-S ) :   0.9032 B(  0-C ,  5-C ) :   1.0907 B(  0-C ,  6-H ) :   0.9330
B(  0-C ,  7-H ) :   0.9322 B(  1-S ,  2-F ) :   1.0317 B(  1-S ,  3-O ) :   1.7430
B(  1-S ,  4-O ) :   1.7495 B(  5-C ,  8-H ) :   0.9573 B(  5-C ,  9-H ) :   0.9667
B(  5-C , 10-H ) :   0.9714

Dispersion correction           -0.015710489
FINAL SINGLE POINT ENERGY      -727.020575204170

DIPOLE MOMENT
-------------
                                X             Y             Z
Electronic contribution:     -9.45843       3.61076      -1.85789
Nuclear contribution   :      9.80704      -5.24335       1.35017
                        -----------------------------------------
Total Dipole Moment    :      0.34861      -1.63258      -0.50772
                        -----------------------------------------
Magnitude (a.u.)       :      1.74489
Magnitude (Debye)      :      4.43516

Rotational constants in cm-1:     0.156316     0.078308     0.076228
Rotational constants in MHz :  4686.224999  2347.601204  2285.245115

                             ****ORCA TERMINATED NORMALLY****
TOTAL RUN TIME: 0 days 0 hours 0 minutes 13 seconds 996 msec
