                         Program Version 5.0.0 -  RELEASE  -
|  1> !B3LYP D3BJ RIJCOSX def2-SVP def2/J TightSCF
|  2> *xyz 0 1
|  3> C         -4.38262       -1.67089        1.21620
|  4> C         -5.76354       -1.91517        0.70501
|  5> C         -3.28173       -2.19127        0.29436
|  6> H         -5.84081       -2.11520       -0.30065
|  7> H         -6.40882       -1.14866        0.93612
|  8> H         -6.17478       -2.79061        1.05143
|  9> H         -4.32862       -2.13922        2.19810
| 10> H         -4.26158       -0.59740        1.35725
| 11> H         -3.36057       -1.71407       -0.66008
| 12> H         -3.38775       -3.24919        0.17403
| 13> H         -2.32559       -1.97514        0.72329
| 14> *
| 15> %MaxCore 64000
| 16>
| 17> %pal nprocs 4
| 18> end
| 19>
| 20> %scf
| 21>   MaxIter 150
| 22> end
| 23>
| 24>                          ****END OF INPUT****

CARTESIAN COORDINATES (ANGSTROEM)
---------------------------------
  C     -4.382620   -1.670890    1.216200
  C     -5.763540   -1.915170    0.705010
  C     -3.281730   -2.191270    0.294360
  H     -5.840810   -2.115200   -0.300650
  H     -6.408820   -1.148660    0.936120
  H     -6.174780   -2.790610    1.051430
  H     -4.328620   -2.139220    2.198100
  H     -4.261580   -0.597400    1.357250
  H     -3.360570   -1.714070   -0.660080
  H     -3.387750   -3.249190    0.174030
  H     -2.325590   -1.975140    0.723290

 Total Charge           Charge          ....    0
 Multiplicity           Mult            ....    1
 Number of Electrons    NEL             ....   26
 Basis Dimension        Dim             ....   82

ORBITAL ENERGIES
----------------

  NO   OCC          E(Eh)            E(eV)
   0   2.0000     -10.168883      -276.7094
   1   2.0000     -10.162228      -276.5283
   2   2.0000     -10.144760      -276.0530
   3   2.0000      -0.777696       -21.1622
   4   2.0000      -0.682473       -18.5710
   5   2.0000      -0.581745       -15.8301
   6   2.0000      -0.458774       -12.4839
   7   2.0000      -0.438063       -11.9203
   8   2.0000      -0.407288       -11.0829
   9   2.0000      -0.382643       -10.4122
  10   2.0000      -0.338948        -9.2232
  11   2.0000      -0.331889        -9.0311
  12   2.0000      -0.319442        -8.6925
  13   0.0000       0.064597         1.7578
  14   0.0000       0.111559         3.0357
  15   0.0000       0.112326         3.0565
  16   0.0000       0.115214         3.1351
  17   0.0000       0.148876         4.0511

MULLIKEN ATOMIC CHARGES
-----------------------
   0 C :   -0.046093
   1 C :    0.095980
   2 C :    0.034942
   3 H :   -0.033077
   4 H :   -0.016894
   5 H :   -0.027570
   6 H :   -0.003270
   7 H :   -0.005157
   8 H :    0.002381
   9 H :   -0.000181
  10 H :   -0.001059
Sum of atomic charges:   -0.0000000

LOEWDIN ATOMIC CHARGES
----------------------
   0 C :   -0.034409
   1 C :   -0.046740
   2 C :   -0.044162
   3 H :    0.011859
   4 H :    0.014510
   5 H :    0.014280
   6 H :    0.017869
   7 H :    0.016356
   8 H :    0.016923
   9 H :    0.015946
  10 H :    0.017569

  Mayer bond orders larger than 0.100000
B(  0-C ,  1-C ) :   1.1078 B(  0-C ,  2-C ) :   1.1139 B(  0-C ,  6-H ) :   0.9550
B(  0-C ,  7-H ) :   0.9583 B(  1-C ,  3-H ) :   0.9616 B(  1-C ,  4-H ) :   0.9638
B(  1-C ,  5-H ) :   0.9579 B(  2-C ,  8-H ) :   0.9709 B(  2-C ,  9-H ) :   0.9745
B(  2-C , 10-H ) :   0.9675

Dispersion correction           -0.010011161
FINAL SINGLE POINT ENERGY      -118.950618641103

DIPOLE MOMENT
-------------
                                X             Y             Z
Electronic contribution:      0.18518       0.23505       0.33197
Nuclear contribution   :     -0.21528      -0.24783      -0.32864
                        -----------------------------------------
Total Dipole Moment    :     -0.03010      -0.01278       0.00333
                        -----------------------------------------
Magnitude (a.u.)       :      0.03287
Magnitude (Debye)      :      0.08354

Rotational constants in cm-1:     1.037566     0.286459     0.254172
Rotational constants in MHz : 31105.431429  8587.814531  7619.871198

                             ****ORCA TERMINATED NORMALLY****
TOTAL RUN TIME: 0 days 0 hours 0 minutes 9 seconds 145 msec
