                         Program Version 5.0.0 -  RELEASE  -
|  1> !B3LYP D3BJ RIJCOSX def2-SVP def2/J TightSCF
|  2> *xyz 0 1
|  3> C         -5.57236       -5.80780       -0.81644
|  4> S         -6.90318       -4.61903       -0.52846
|  5> O         -8.11485       -5.25093       -0.95701
|  6> F         -6.53271       -3.42684       -1.31485
|  7> O         -6.86563       -4.29496        0.91412
|  8> C         -4.45780       -5.94187        0.22919
|  9> H         -5.17735       -5.54257       -1.79771
| 10> H         -6.07420       -6.76889       -0.92127
| 11> H         -3.75515       -6.68239       -0.09144
| 12> H         -4.88182       -6.23486        1.16689
| 13> H         -3.95908       -5.00189        0.34143
| 14> *
| 15> %MaxCore 64000
| 16>
| 17> %pal nprocs 4
| 18> end
| 19>
| 20> %scf
| 21>   MaxIter 150
| 22> end
| 23>
| 24>                          ****END OF INPUT****

CARTESIAN COORDINATES (ANGSTROEM)
---------------------------------
  C     -5.572360   -5.807800   -0.816440
  S     -6.903180   -4.619030   -0.528460
  O     -8.114850   -5.250930   -0.957010
  F     -6.532710   -3.426840   -1.314850
  O     -6.865630   -4.294960    0.914120
  C     -4.457800   -5.941870    0.229190
  H     -5.177350   -5.542570   -1.797710
  H     -6.074200   -6.768890   -0.921270
  H     -3.755150   -6.682390   -0.091440
  H     -4.881820   -6.234860    1.166890
  H     -3.959080   -5.001890    0.341430

 Total Charge           Charge          ....    0
 Multiplicity           Mult            ....    1
 Number of Electrons    NEL             ....   58
 Basis Dimension        Dim             ....  113

ORBITAL ENERGIES
----------------

  NO   OCC          E(Eh)            E(eV)
   0   2.0000     -89.111120     -2424.8369
   1   2.0000     -24.779614      -674.2876
   2   2.0000     -19.136240      -520.7236
   3   2.0000     -19.121475      -520.3218
   4   2.0000     -10.240427      -278.6562
   5   2.0000     -10.204313      -277.6735
   6   2.0000      -8.174055      -222.4273
   7   2.0000      -6.146278      -167.2487
   8   2.0000      -6.140056      -167.0794
   9   2.0000      -6.139002      -167.0507
  10   2.0000      -1.336968       -36.3807
  11   2.0000      -1.099584       -29.9212
  12   2.0000      -0.995255       -27.0823
  13   2.0000      -0.812657       -22.1135
  14   2.0000      -0.717275       -19.5181
  15   2.0000      -0.664502       -18.0820
  16   2.0000      -0.571630       -15.5548
  17   2.0000      -0.556731       -15.1494
  18   2.0000      -0.539283       -14.6746
  19   2.0000      -0.487875       -13.2758
  20   2.0000      -0.472716       -12.8633
  21   2.0000      -0.444828       -12.1044
  22   2.0000      -0.425049       -11.5662
  23   2.0000      -0.400942       -10.9102
  24   2.0000      -0.394919       -10.7463
  25   2.0000      -0.373180       -10.1547
  26   2.0000      -0.325887        -8.8678
  27   2.0000      -0.312709        -8.5092
  28   2.0000      -0.298116        -8.1121
  29   0.0000       0.034032         0.9261
  30   0.0000       0.041459         1.1282
  31   0.0000       0.075475         2.0538
  32   0.0000       0.087025         2.3681
  33   0.0000       0.100697         2.7401

MULLIKEN ATOMIC CHARGES
-----------------------
   0 C :   -0.131627
   1 S :    0.964454
   2 O :   -0.427257
   3 F :   -0.207296
   4 O :   -0.473524
   5 C :    0.058563
   6 H :    0.049217
   7 H :    0.074267
   8 H :    0.024682
   9 H :    0.043077
  10 H :    0.025445
Sum of atomic charges:   -0.0000000

LOEWDIN ATOMIC CHARGES
----------------------
   0 C :   -0.150223
   1 S :    1.169687
   2 O :   -0.471275
   3 F :   -0.154920
   4 O :   -0.519110
   5 C :   -0.041563
   6 H :    0.028731
   7 H :    0.044856
   8 H :    0.032769
   9 H :    0.033567
  10 H :    0.027481

  Mayer bond orders larger than 0.100000
B(  0-C ,  1-S ) :   0.9021 B(  0-C ,  5-C ) :   1.0793 B(  0-C ,  6-H ) :   0.9328
B(  0-C ,  7-H ) :   0.9386 B(  1-S ,  2-O ) :   1.7976 B(  1-S ,  3-F ) :   0.9809
B(  1-S ,  4-O ) :   1.7552 B(  5-C ,  8-H ) :   0.9565 B(  5-C ,  9-H ) :   0.9684
B(  5-C , 10-H ) :   0.9712

Dispersion correction           -0.015687011
FINAL SINGLE POINT ENERGY      -727.040724876322

DIPOLE MOMENT
-------------
                                X             Y             Z
Electronic contribution:     -6.77729       6.71409      -2.48420
Nuclear contribution   :      8.15840      -7.14411       1.72305
                        -----------------------------------------
Total Dipole Moment    :      1.38111      -0.43002      -0.76114
                        -----------------------------------------
Magnitude (a.u.)       :      1.63454
Magnitude (Debye)      :      4.15467

Rotational constants in cm-1:     0.153926     0.078297     0.077402
Rotational constants in MHz :  4614.585804  2347.272644  2320.438903

                             ****ORCA TERMINATED NORMALLY****
TOTAL RUN TIME: 0 days 0 hours 0 minutes 13 seconds 40 msec
