                         Program Version 5.0.0 -  RELEASE  -
|  1> !B3LYP D3BJ RIJCOSX def2-SVP def2/J TightSCF
|  2> *xyz 0 1
|  3> C         -5.57236       -5.80780       -0.81644
|  4> S         -6.90318       -4.61903       -0.52846
|  5> O         -8.11485       -5.25093       -0.95701
|  6> O         -6.53271       -3.42684       -1.31485
|  7> F         -6.86563       -4.29496        0.91412
|  8> C         -4.45780       -5.94187        0.22919
|  9> H         -5.17735       -5.54257       -1.79771
| 10> H         -6.07420       -6.76889       -0.92127
| 11> H         -3.75515       -6.68239       -0.09144
| 12> H         -4.88182       -6.23486        1.16689
| 13> H         -3.95908       -5.00189        0.34143
| 14> *
| 15> %MaxCore 64000
| 16>
| 17> %pal nprocs 4
| 18> end
| 19>
| 20> %scf
| 21>   MaxIter 150
| 22> end
| 23>
| 24>                          ****END OF INPUT****

CARTESIAN COORDINATES (ANGSTROEM)
---------------------------------
  C     -5.572360   -5.807800   -0.816440
  S     -6.903180   -4.619030   -0.528460
  O     -8.114850   -5.250930   -0.957010
  O     -6.532710   -3.426840   -1.314850
  F     -6.865630   -4.294960    0.914120
  C     -4.457800   -5.941870    0.229190
  H     -5.177350   -5.542570   -1.797710
  H     -6.074200   -6.768890   -0.921270
  H     -3.755150   -6.682390   -0.091440
  H     -4.881820   -6.234860    1.166890
  H     -3.959080   -5.001890    0.341430

 Total Charge           Charge          ....    0
 Multiplicity           Mult            ....    1
 Number of Electrons    NEL             ....   58
 Basis Dimension        Dim             ....  113

ORBITAL ENERGIES
----------------

  NO   OCC          E(Eh)            E(eV)
   0   2.0000     -89.110139     -2424.8102
   1   2.0000     -24.779288      -674.2787
   2   2.0000     -19.135714      -520.7092
   3   2.0000     -19.119151      -520.2586
   4   2.0000     -10.239564      -278.6327
   5   2.0000     -10.211705      -277.8746
   6   2.0000      -8.173140      -222.4025
   7   2.0000      -6.145443      -167.2260
   8   2.0000      -6.139158      -167.0550
   9   2.0000      -6.137994      -167.0233
  10   2.0000      -1.334615       -36.3167
  11   2.0000      -1.099711       -29.9247
  12   2.0000      -0.995104       -27.0782
  13   2.0000      -0.815654       -22.1951
  14   2.0000      -0.714597       -19.4452
  15   2.0000      -0.669161       -18.2088
  16   2.0000      -0.577323       -15.7098
  17   2.0000      -0.556229       -15.1358
  18   2.0000      -0.530613       -14.4387
  19   2.0000      -0.493401       -13.4261
  20   2.0000      -0.467110       -12.7107
  21   2.0000      -0.446233       -12.1426
  22   2.0000      -0.432487       -11.7686
  23   2.0000      -0.409880       -11.1534
  24   2.0000      -0.395264       -10.7557
  25   2.0000      -0.374334       -10.1861
  26   2.0000      -0.326089        -8.8733
  27   2.0000      -0.310275        -8.4430
  28   2.0000      -0.296838        -8.0774
  29   0.0000       0.020364         0.5541
  30   0.0000       0.060162         1.6371
  31   0.0000       0.081828         2.2267
  32   0.0000       0.085349         2.3225
  33   0.0000       0.098144         2.6706

MULLIKEN ATOMIC CHARGES
-----------------------
   0 C :   -0.118891
   1 S :    0.964031
   2 O :   -0.426729
   3 O :   -0.476878
   4 F :   -0.208187
   5 C :    0.028129
   6 H :    0.080618
   7 H :    0.061975
   8 H :    0.033912
   9 H :    0.026703
  10 H :    0.035318
Sum of atomic charges:    0.0000000

LOEWDIN ATOMIC CHARGES
----------------------
   0 C :   -0.145472
   1 S :    1.170310
   2 O :   -0.471206
   3 O :   -0.520966
   4 F :   -0.156373
   5 C :   -0.049747
   6 H :    0.047458
   7 H :    0.036071
   8 H :    0.036230
   9 H :    0.025264
  10 H :    0.028430

  Mayer bond orders larger than 0.100000
B(  0-C ,  1-S ) :   0.9136 B(  0-C ,  5-C ) :   1.0730 B(  0-C ,  6-H ) :   0.9356
B(  0-C ,  7-H ) :   0.9375 B(  1-S ,  2-O ) :   1.7962 B(  1-S ,  3-O ) :   1.7483
B(  1-S ,  4-F ) :   0.9813 B(  5-C ,  8-H ) :   0.9596 B(  5-C ,  9-H ) :   0.9725
B(  5-C , 10-H ) :   0.9717

Dispersion correction           -0.015613804
FINAL SINGLE POINT ENERGY      -727.040331107942

DIPOLE MOMENT
-------------
                                X             Y             Z
Electronic contribution:     -7.31344       5.21315       1.30410
Nuclear contribution   :      8.50531      -6.23950      -0.59960
                        -----------------------------------------
Total Dipole Moment    :      1.19187      -1.02634       0.70450
                        -----------------------------------------
Magnitude (a.u.)       :      1.72345
Magnitude (Debye)      :      4.38065

Rotational constants in cm-1:     0.152799     0.080212     0.076962
Rotational constants in MHz :  4580.804531  2404.707790  2307.252710

                             ****ORCA TERMINATED NORMALLY****
TOTAL RUN TIME: 0 days 0 hours 0 minutes 13 seconds 313 msec
