                         Program Version 5.0.0 -  RELEASE  -
|  1> !B3LYP D3BJ RIJCOSX def2-TZVP def2/J TightSCF xyzfile
|  2>
|  3> *xyzfile 0 1 D1.xyz
|  4>
|  5> %MaxCore 64000
|  6>
|  7> %pal nprocs 18
|  8> end
|  9>
| 10> %scf
| 11>   MaxIter 150
| 12> end
| 13>
| 14>
| 15>                          ****END OF INPUT****

CARTESIAN COORDINATES (ANGSTROEM)
---------------------------------
  C     -4.382623   -1.670889    1.216201
  C     -5.763539   -1.915170    0.705012
  C     -3.281728   -2.191272    0.294361
  C     -5.572364   -5.807798   -0.816445
  S     -6.903179   -4.619033   -0.528458
  H     -5.840812   -2.115205   -0.300646
  H     -6.408823   -1.148656    0.936124
  H     -6.174781   -2.790606    1.051433
  F     -8.114853   -5.250932   -0.957007
  O     -6.532715   -3.426838   -1.314848
  H     -4.328618   -2.139223    2.198103
  H     -4.261583   -0.597399    1.357248
  O     -6.865632   -4.294957    0.914118
  C     -3.474641   -3.605898   -0.259608
  H     -2.354548   -2.127602    0.871433
  H     -3.166611   -1.499693   -0.545037
  C     -3.827078   -4.661097    0.786174
  H     -2.560559   -3.889391   -0.788050
  H     -4.255932   -3.570040   -1.019300
  C     -4.457800   -5.941875    0.229195
  H     -5.177347   -5.542575   -1.797714
  H     -6.074202   -6.768894   -0.921272
  H     -4.530506   -4.253640    1.511979
  H     -2.933400   -4.932302    1.356825
  H     -3.681064   -6.562236   -0.229885
  H     -4.843942   -6.512728    1.075805

 Total Charge           Charge          ....    0
 Multiplicity           Mult            ....    1
 Number of Electrons    NEL             ....   98
 Basis Dimension        Dim             ....  437

ORBITAL ENERGIES
----------------

  NO   OCC          E(Eh)            E(eV)
   0   2.0000     -89.106459     -2424.7100
   1   2.0000     -24.811955      -675.1676
   2   2.0000     -19.135544      -520.7046
   3   2.0000     -19.134296      -520.6707
   4   2.0000     -10.233040      -278.4552
   5   2.0000     -10.196110      -277.4503
   6   2.0000     -10.163350      -276.5588
   7   2.0000     -10.152619      -276.2668
   8   2.0000     -10.144463      -276.0449
   9   2.0000     -10.130117      -275.6545
  10   2.0000     -10.072449      -274.0853
  11   2.0000      -8.150341      -221.7821
  12   2.0000      -6.116994      -166.4519
  13   2.0000      -6.110813      -166.2837
  14   2.0000      -6.110437      -166.2734
  15   2.0000      -1.398244       -38.0481
  16   2.0000      -1.105876       -30.0924
  17   2.0000      -1.009671       -27.4745
  18   2.0000      -0.834097       -22.6969
  19   2.0000      -0.793752       -21.5991
  20   2.0000      -0.754090       -20.5198
  21   2.0000      -0.727719       -19.8023
  22   2.0000      -0.691284       -18.8108
  23   2.0000      -0.644661       -17.5421
  24   2.0000      -0.611588       -16.6422
  25   2.0000      -0.600425       -16.3384
  26   2.0000      -0.586219       -15.9518
  27   2.0000      -0.554659       -15.0930
  28   2.0000      -0.539485       -14.6801
  29   2.0000      -0.494104       -13.4453
  30   2.0000      -0.493172       -13.4199
  31   2.0000      -0.468926       -12.7601
  32   2.0000      -0.466056       -12.6820
  33   2.0000      -0.439999       -11.9730
  34   2.0000      -0.432521       -11.7695
  35   2.0000      -0.414231       -11.2718
  36   2.0000      -0.409987       -11.1563
  37   2.0000      -0.386521       -10.5178
  38   2.0000      -0.378412       -10.2971
  39   2.0000      -0.374988       -10.2039
  40   2.0000      -0.345359        -9.3977
  41   2.0000      -0.340876        -9.2757
  42   2.0000      -0.335986        -9.1426
  43   2.0000      -0.332176        -9.0390
  44   2.0000      -0.323993        -8.8163
  45   2.0000      -0.310725        -8.4553
  46   2.0000      -0.294319        -8.0088
  47   2.0000      -0.288109        -7.8399
  48   2.0000      -0.266557        -7.2534
  49   0.0000       0.013252         0.3606
  50   0.0000       0.014485         0.3942
  51   0.0000       0.046347         1.2612
  52   0.0000       0.051238         1.3942
  53   0.0000       0.055588         1.5126

MULLIKEN ATOMIC CHARGES
-----------------------
   0 C :   -0.142958
   1 C :   -0.405609
   2 C :   -0.166947
   3 C :   -0.300718
   4 S :    0.908866
   5 H :    0.138634
   6 H :    0.086810
   7 H :    0.149698
   8 F :   -0.098191
   9 O :   -0.443639
  10 H :    0.077147
  11 H :    0.075279
  12 O :   -0.443846
  13 C :   -0.169730
  14 H :    0.072321
  15 H :    0.084126
  16 C :   -0.226427
  17 H :    0.076931
  18 H :    0.118121
  19 C :   -0.131608
  20 H :    0.159322
  21 H :    0.140364
  22 H :    0.140447
  23 H :    0.088661
  24 H :    0.105363
  25 H :    0.107580
Sum of atomic charges:   -0.0000000

LOEWDIN ATOMIC CHARGES
----------------------
   0 C :   -0.300967
   1 C :   -0.329304
   2 C :   -0.263780
   3 C :   -0.367214
   4 S :    0.564487
   5 H :    0.105623
   6 H :    0.099546
   7 H :    0.095850
   8 F :    0.108991
   9 O :   -0.277536
  10 H :    0.126819
  11 H :    0.129706
  12 O :   -0.270645
  13 C :   -0.266466
  14 H :    0.129475
  15 H :    0.133797
  16 C :   -0.261857
  17 H :    0.129789
  18 H :    0.136083
  19 C :   -0.268178
  20 H :    0.143999
  21 H :    0.134871
  22 H :    0.144549
  23 H :    0.135250
  24 H :    0.145078
  25 H :    0.142034

  Mayer bond orders larger than 0.100000
B(  0-C ,  1-C ) :   0.9155 B(  0-C ,  2-C ) :   0.9791 B(  0-C , 10-H ) :   0.9792
B(  0-C , 11-H ) :   0.9691 B(  1-C ,  5-H ) :   0.9846 B(  1-C ,  6-H ) :   0.9770
B(  1-C ,  7-H ) :   0.9729 B(  2-C , 13-C ) :   0.9790 B(  2-C , 14-H ) :   0.9750
B(  2-C , 15-H ) :   0.9668 B(  3-C ,  4-S ) :   0.9109 B(  3-C , 19-C ) :   0.9524
B(  3-C , 20-H ) :   0.9413 B(  3-C , 21-H ) :   0.9438 B(  4-S ,  8-F ) :   1.1453
B(  4-S ,  9-O ) :   1.8383 B(  4-S , 12-O ) :   1.8208 B( 13-C , 16-C ) :   0.9466
B( 13-C , 17-H ) :   0.9671 B( 13-C , 18-H ) :   0.9667 B( 16-C , 19-C ) :   0.9687
B( 16-C , 22-H ) :   0.9746 B( 16-C , 23-H ) :   0.9626 B( 19-C , 24-H ) :   0.9510
B( 19-C , 25-H ) :   0.9720

Dispersion correction           -0.050893907
FINAL SINGLE POINT ENERGY      -924.093837867621

DIPOLE MOMENT
-------------
                                X             Y             Z
Electronic contribution:    -18.98949      -8.66277      -6.73289
Nuclear contribution   :     19.08524       6.89775       6.14221
                        -----------------------------------------
Total Dipole Moment    :      0.09574      -1.76502      -0.59068
                        -----------------------------------------
Magnitude (a.u.)       :      1.86369
Magnitude (Debye)      :      4.73713

Rotational constants in cm-1:     0.049343     0.024787     0.019726
Rotational constants in MHz :  1479.262779   743.087234   591.370705

                             ****ORCA TERMINATED NORMALLY****
TOTAL RUN TIME: 0 days 0 hours 0 minutes 46 seconds 260 msec
