                         Program Version 5.0.0 -  RELEASE  -
|  1> !B3LYP D3BJ RIJCOSX def2-TZVP def2/J TightSCF xyzfile
|  2>
|  3> *xyzfile 0 1 D2.xyz
|  4>
|  5> %MaxCore 64000
|  6>
|  7> %pal nprocs 18
|  8> end
|  9>
| 10> %scf
| 11>   MaxIter 150
| 12> end
| 13>
| 14>
| 15>                          ****END OF INPUT****

CARTESIAN COORDINATES (ANGSTROEM)
---------------------------------
  C     -4.382623   -1.670889    1.216201
  C     -5.763539   -1.915170    0.705012
  C     -3.281728   -2.191272    0.294361
  C     -5.572364   -5.807798   -0.816445
  S     -6.903179   -4.619033   -0.528458
  H     -5.840812   -2.115205   -0.300646
  H     -6.408823   -1.148656    0.936124
  H     -6.174781   -2.790606    1.051433
  O     -8.114853   -5.250932   -0.957007
  F     -6.532715   -3.426838   -1.314848
  H     -4.328618   -2.139223    2.198103
  H     -4.261583   -0.597399    1.357248
  O     -6.865632   -4.294957    0.914118
  C     -3.474641   -3.605898   -0.259608
  H     -2.354548   -2.127602    0.871433
  H     -3.166611   -1.499693   -0.545037
  C     -3.827078   -4.661097    0.786174
  H     -2.560559   -3.889391   -0.788050
  H     -4.255932   -3.570040   -1.019300
  C     -4.457800   -5.941875    0.229195
  H     -5.177347   -5.542575   -1.797714
  H     -6.074202   -6.768894   -0.921272
  H     -4.530506   -4.253640    1.511979
  H     -2.933400   -4.932302    1.356825
  H     -3.681064   -6.562236   -0.229885
  H     -4.843942   -6.512728    1.075805

 Total Charge           Charge          ....    0
 Multiplicity           Mult            ....    1
 Number of Electrons    NEL             ....   98
 Basis Dimension        Dim             ....  437

ORBITAL ENERGIES
----------------

  NO   OCC          E(Eh)            E(eV)
   0   2.0000     -89.101736     -2424.5815
   1   2.0000     -24.788980      -674.5424
   2   2.0000     -19.144916      -520.9596
   3   2.0000     -19.131407      -520.5920
   4   2.0000     -10.231493      -278.4131
   5   2.0000     -10.195929      -277.4453
   6   2.0000     -10.170561      -276.7550
   7   2.0000     -10.168955      -276.7113
   8   2.0000     -10.158349      -276.4227
   9   2.0000     -10.145247      -276.0662
  10   2.0000     -10.095046      -274.7002
  11   2.0000      -8.145720      -221.6563
  12   2.0000      -6.112505      -166.3297
  13   2.0000      -6.106260      -166.1598
  14   2.0000      -6.105666      -166.1436
  15   2.0000      -1.364925       -37.1415
  16   2.0000      -1.115686       -30.3594
  17   2.0000      -1.021568       -27.7983
  18   2.0000      -0.836767       -22.7696
  19   2.0000      -0.802802       -21.8454
  20   2.0000      -0.755527       -20.5589
  21   2.0000      -0.730022       -19.8649
  22   2.0000      -0.693787       -18.8789
  23   2.0000      -0.655728       -17.8433
  24   2.0000      -0.616215       -16.7681
  25   2.0000      -0.582531       -15.8515
  26   2.0000      -0.571432       -15.5495
  27   2.0000      -0.555262       -15.1095
  28   2.0000      -0.553764       -15.0687
  29   2.0000      -0.497573       -13.5397
  30   2.0000      -0.489126       -13.3098
  31   2.0000      -0.470147       -12.7933
  32   2.0000      -0.463374       -12.6090
  33   2.0000      -0.455401       -12.3921
  34   2.0000      -0.437570       -11.9069
  35   2.0000      -0.424228       -11.5438
  36   2.0000      -0.404823       -11.0158
  37   2.0000      -0.396056       -10.7772
  38   2.0000      -0.391233       -10.6460
  39   2.0000      -0.387000       -10.5308
  40   2.0000      -0.359595        -9.7851
  41   2.0000      -0.354586        -9.6488
  42   2.0000      -0.352893        -9.6027
  43   2.0000      -0.336622        -9.1600
  44   2.0000      -0.328793        -8.9469
  45   2.0000      -0.321428        -8.7465
  46   2.0000      -0.312068        -8.4918
  47   2.0000      -0.311041        -8.4638
  48   2.0000      -0.276999        -7.5375
  49   0.0000       0.015357         0.4179
  50   0.0000       0.018209         0.4955
  51   0.0000       0.038375         1.0442
  52   0.0000       0.045133         1.2281
  53   0.0000       0.054948         1.4952

MULLIKEN ATOMIC CHARGES
-----------------------
   0 C :   -0.145388
   1 C :   -0.423845
   2 C :   -0.170586
   3 C :   -0.315404
   4 S :    0.924775
   5 H :    0.089751
   6 H :    0.101243
   7 H :    0.181494
   8 O :   -0.412615
   9 F :   -0.128934
  10 H :    0.087771
  11 H :    0.082092
  12 O :   -0.450782
  13 C :   -0.167914
  14 H :    0.080904
  15 H :    0.088277
  16 C :   -0.239662
  17 H :    0.089112
  18 H :    0.079770
  19 C :   -0.118141
  20 H :    0.146864
  21 H :    0.166655
  22 H :    0.145742
  23 H :    0.092716
  24 H :    0.102036
  25 H :    0.114072
Sum of atomic charges:   -0.0000000

LOEWDIN ATOMIC CHARGES
----------------------
   0 C :   -0.297508
   1 C :   -0.331768
   2 C :   -0.263422
   3 C :   -0.363774
   4 S :    0.573228
   5 H :    0.094914
   6 H :    0.103401
   7 H :    0.096529
   8 O :   -0.249923
   9 F :    0.068527
  10 H :    0.130451
  11 H :    0.131653
  12 O :   -0.270469
  13 C :   -0.266772
  14 H :    0.132718
  15 H :    0.133824
  16 C :   -0.263615
  17 H :    0.133371
  18 H :    0.125462
  19 C :   -0.270560
  20 H :    0.136090
  21 H :    0.148909
  22 H :    0.144813
  23 H :    0.136447
  24 H :    0.143400
  25 H :    0.144077

  Mayer bond orders larger than 0.100000
B(  0-C ,  1-C ) :   0.9131 B(  0-C ,  2-C ) :   0.9725 B(  0-C , 10-H ) :   0.9813
B(  0-C , 11-H ) :   0.9702 B(  1-C ,  5-H ) :   0.9928 B(  1-C ,  6-H ) :   0.9752
B(  1-C ,  7-H ) :   0.9648 B(  2-C , 13-C ) :   0.9740 B(  2-C , 14-H ) :   0.9745
B(  2-C , 15-H ) :   0.9692 B(  3-C ,  4-S ) :   0.9111 B(  3-C , 19-C ) :   0.9405
B(  3-C , 20-H ) :   0.9468 B(  3-C , 21-H ) :   0.9462 B(  4-S ,  8-O ) :   1.9737
B(  4-S ,  9-F ) :   1.0799 B(  4-S , 12-O ) :   1.7937 B( 13-C , 16-C ) :   0.9486
B( 13-C , 17-H ) :   0.9692 B( 13-C , 18-H ) :   0.9757 B( 16-C , 19-C ) :   0.9614
B( 16-C , 22-H ) :   0.9754 B( 16-C , 23-H ) :   0.9608 B( 19-C , 24-H ) :   0.9494
B( 19-C , 25-H ) :   0.9692

Dispersion correction           -0.050390772
FINAL SINGLE POINT ENERGY      -924.111224083888

DIPOLE MOMENT
-------------
                                X             Y             Z
Electronic contribution:    -16.00720      -5.37000      -7.21908
Nuclear contribution   :     17.25367       4.78608       6.55647
                        -----------------------------------------
Total Dipole Moment    :      1.24647      -0.58392      -0.66262
                        -----------------------------------------
Magnitude (a.u.)       :      1.52765
Magnitude (Debye)      :      3.88297

Rotational constants in cm-1:     0.048508     0.025517     0.020225
Rotational constants in MHz :  1454.219007   764.979652   606.316599

                             ****ORCA TERMINATED NORMALLY****
TOTAL RUN TIME: 0 days 0 hours 0 minutes 50 seconds 625 msec
