                         Program Version 5.0.0 -  RELEASE  -
|  1> !LC-BLYP RIJCOSX def2-SVPD def2/J TightSCF
|  2> *xyz -1 1
|  3> C          0.69721        3.22791       -0.52513
|  4> O          1.48929        2.37470        0.19919
|  5> H          0.26505        2.70007       -1.34946
|  6> H          1.28994        4.03943       -0.89255
|  7> H         -0.08148        3.61005        0.10138
|  8> *
|  9>
| 10> %MaxCore 64000
| 11> %pal nprocs 8
| 12> end
| 13>
| 14> %scf
| 15>   MaxIter 150
| 16> end
| 17>
| 18>
| 19>                          ****END OF INPUT****

CARTESIAN COORDINATES (ANGSTROEM)
---------------------------------
  C      0.697210    3.227910   -0.525130
  O      1.489290    2.374700    0.199190
  H      0.265050    2.700070   -1.349460
  H      1.289940    4.039430   -0.892550
  H     -0.081480    3.610050    0.101380

 Total Charge           Charge          ....   -1
 Multiplicity           Mult            ....    1
 Number of Electrons    NEL             ....   18
 Basis Dimension        Dim             ....   67

ORBITAL ENERGIES
----------------

  NO   OCC          E(Eh)            E(eV)
   0   2.0000     -18.602624      -506.2031
   1   2.0000      -9.872637      -268.6481
   2   2.0000      -0.745484       -20.2856
   3   2.0000      -0.497195       -13.5294
   4   2.0000      -0.302229        -8.2241
   5   2.0000      -0.302228        -8.2240
   6   2.0000      -0.199282        -5.4227
   7   2.0000      -0.047057        -1.2805
   8   2.0000      -0.047053        -1.2804
   9   0.0000       0.247549         6.7362
  10   0.0000       0.324341         8.8258
  11   0.0000       0.324343         8.8258
  12   0.0000       0.333038         9.0624
  13   0.0000       0.367976        10.0131

MULLIKEN ATOMIC CHARGES
-----------------------
   0 C :    0.920973
   1 O :   -0.968465
   2 H :   -0.317563
   3 H :   -0.317500
   4 H :   -0.317445
Sum of atomic charges:   -1.0000000

LOEWDIN ATOMIC CHARGES
----------------------
   0 C :   -0.138130
   1 O :   -0.644993
   2 H :   -0.072296
   3 H :   -0.072294
   4 H :   -0.072288

  Mayer bond orders larger than 0.100000
B(  0-C ,  1-O ) :   1.2753 B(  0-C ,  2-H ) :   0.8737 B(  0-C ,  3-H ) :   0.8736
B(  0-C ,  4-H ) :   0.8737

FINAL SINGLE POINT ENERGY      -114.757920008497

DIPOLE MOMENT
-------------
                                X             Y             Z
Electronic contribution:      1.01317      -1.09137       0.92643
Nuclear contribution   :     -1.66672       1.79535      -1.52413
                        -----------------------------------------
Total Dipole Moment    :     -0.65355       0.70398      -0.59770
                        -----------------------------------------
Magnitude (a.u.)       :      1.13135
Magnitude (Debye)      :      2.87566

Rotational constants in cm-1:     5.477728     0.937442     0.937441
Rotational constants in MHz : 164218.159175 28103.818547 28103.787504

                             ****ORCA TERMINATED NORMALLY****
TOTAL RUN TIME: 0 days 0 hours 0 minutes 3 seconds 208 msec
