                         Program Version 5.0.0 -  RELEASE  -
|  1> !LC-BLYP RIJCOSX def2-SVPD def2/J TightSCF
|  2> *xyz 1 1
|  3> C          3.95643        0.50147       -0.37910
|  4> N          3.80389        1.96157       -0.15675
|  5> H          4.20643        2.24441        0.74536
|  6> H          2.80827        2.21132       -0.09610
|  7> H          4.28076        2.50155       -0.89104
|  8> H          3.52890        0.23799       -1.32393
|  9> H          3.45469       -0.03240        0.40073
| 10> H          4.99562        0.24661       -0.37434
| 11> *
| 12>
| 13> %MaxCore 64000
| 14> %pal nprocs 8
| 15> end
| 16>
| 17> %scf
| 18>   MaxIter 150
| 19> end
| 20>
| 21>
| 22>                          ****END OF INPUT****

CARTESIAN COORDINATES (ANGSTROEM)
---------------------------------
  C      3.956430    0.501470   -0.379100
  N      3.803890    1.961570   -0.156750
  H      4.206430    2.244410    0.745360
  H      2.808270    2.211320   -0.096100
  H      4.280760    2.501550   -0.891040
  H      3.528900    0.237990   -1.323930
  H      3.454690   -0.032400    0.400730
  H      4.995620    0.246610   -0.374340

 Total Charge           Charge          ....    1
 Multiplicity           Mult            ....    1
 Number of Electrons    NEL             ....   18
 Basis Dimension        Dim             ....   88

ORBITAL ENERGIES
----------------

  NO   OCC          E(Eh)            E(eV)
   0   2.0000     -14.535996      -395.5446
   1   2.0000     -10.342734      -281.4401
   2   2.0000      -1.319897       -35.9162
   3   2.0000      -1.042300       -28.3624
   4   2.0000      -0.920216       -25.0403
   5   2.0000      -0.909055       -24.7366
   6   2.0000      -0.818373       -22.2691
   7   2.0000      -0.727836       -19.8054
   8   2.0000      -0.726033       -19.7564
   9   0.0000      -0.142810        -3.8861
  10   0.0000      -0.074049        -2.0150
  11   0.0000      -0.069189        -1.8827
  12   0.0000      -0.069003        -1.8777
  13   0.0000      -0.024407        -0.6641

MULLIKEN ATOMIC CHARGES
-----------------------
   0 C :    1.145373
   1 N :   -0.725534
   2 H :    0.333850
   3 H :    0.341885
   4 H :    0.339363
   5 H :   -0.144431
   6 H :   -0.144052
   7 H :   -0.146454
Sum of atomic charges:    1.0000000

LOEWDIN ATOMIC CHARGES
----------------------
   0 C :    0.262631
   1 N :    0.310813
   2 H :    0.110961
   3 H :    0.112796
   4 H :    0.114750
   5 H :    0.029407
   6 H :    0.029485
   7 H :    0.029157

  Mayer bond orders larger than 0.100000
B(  0-C ,  1-N ) :   0.8509 B(  0-C ,  5-H ) :   0.8493 B(  0-C ,  6-H ) :   0.8475
B(  0-C ,  7-H ) :   0.8513 B(  1-N ,  2-H ) :   0.8181 B(  1-N ,  3-H ) :   0.8034
B(  1-N ,  4-H ) :   0.8044 B(  1-N ,  5-H ) :   0.1038 B(  1-N ,  6-H ) :   0.1042
B(  1-N ,  7-H ) :   0.1016

FINAL SINGLE POINT ENERGY       -95.871229958434

DIPOLE MOMENT
-------------
                                X             Y             Z
Electronic contribution:     -0.11121       1.08344       0.14297
Nuclear contribution   :      0.02154      -0.23654       0.01355
                        -----------------------------------------
Total Dipole Moment    :     -0.08966       0.84690       0.15652
                        -----------------------------------------
Magnitude (a.u.)       :      0.86590
Magnitude (Debye)      :      2.20093

Rotational constants in cm-1:     2.873586     0.687737     0.684128
Rotational constants in MHz : 86147.950763 20617.847271 20509.632222

                             ****ORCA TERMINATED NORMALLY****
TOTAL RUN TIME: 0 days 0 hours 0 minutes 3 seconds 669 msec
