                         Program Version 5.0.0 -  RELEASE  -
|  1> !LC-BLYP RIJCOSX def2-SVPD def2/J TightSCF
|  2> *xyz 0 1
|  3> C          0.69721        3.22791       -0.52513
|  4> F          1.48929        2.37470        0.19919
|  5> H          0.26505        2.70007       -1.34946
|  6> H          1.28994        4.03943       -0.89255
|  7> H         -0.08148        3.61005        0.10138
|  8> *
|  9>
| 10> %MaxCore 64000
| 11> %pal nprocs 8
| 12> end
| 13>
| 14> %scf
| 15>   MaxIter 150
| 16> end
| 17>
| 18>
| 19>                          ****END OF INPUT****

CARTESIAN COORDINATES (ANGSTROEM)
---------------------------------
  C      0.697210    3.227910   -0.525130
  F      1.489290    2.374700    0.199190
  H      0.265050    2.700070   -1.349460
  H      1.289940    4.039430   -0.892550
  H     -0.081480    3.610050    0.101380

 Total Charge           Charge          ....    0
 Multiplicity           Mult            ....    1
 Number of Electrons    NEL             ....   18
 Basis Dimension        Dim             ....   67

ORBITAL ENERGIES
----------------

  NO   OCC          E(Eh)            E(eV)
   0   2.0000     -24.460223      -665.5965
   1   2.0000     -10.156895      -276.3832
   2   2.0000      -1.263325       -34.3768
   3   2.0000      -0.809488       -22.0273
   4   2.0000      -0.602244       -16.3879
   5   2.0000      -0.597169       -16.2498
   6   2.0000      -0.597167       -16.2497
   7   2.0000      -0.451038       -12.2734
   8   2.0000      -0.451035       -12.2733
   9   0.0000       0.075232         2.0472
  10   0.0000       0.124215         3.3801
  11   0.0000       0.157048         4.2735
  12   0.0000       0.157049         4.2735
  13   0.0000       0.195803         5.3281

MULLIKEN ATOMIC CHARGES
-----------------------
   0 C :    1.024710
   1 F :   -0.431065
   2 H :   -0.197915
   3 H :   -0.197871
   4 H :   -0.197859
Sum of atomic charges:   -0.0000000

LOEWDIN ATOMIC CHARGES
----------------------
   0 C :    0.238239
   1 F :   -0.234606
   2 H :   -0.001213
   3 H :   -0.001212
   4 H :   -0.001209

  Mayer bond orders larger than 0.100000
B(  0-C ,  1-F ) :   0.9326 B(  0-C ,  2-H ) :   0.9023 B(  0-C ,  3-H ) :   0.9023
B(  0-C ,  4-H ) :   0.9023

FINAL SINGLE POINT ENERGY      -139.368245256949

DIPOLE MOMENT
-------------
                                X             Y             Z
Electronic contribution:      1.67908      -1.80867       1.53539
Nuclear contribution   :     -2.11402       2.27717      -1.93317
                        -----------------------------------------
Total Dipole Moment    :     -0.43494       0.46850      -0.39778
                        -----------------------------------------
Magnitude (a.u.)       :      0.75293
Magnitude (Debye)      :      1.91378

Rotational constants in cm-1:     5.477728     0.872600     0.872599
Rotational constants in MHz : 164218.159175 26159.886777 26159.859881

                             ****ORCA TERMINATED NORMALLY****
TOTAL RUN TIME: 0 days 0 hours 0 minutes 2 seconds 847 msec
