                         Program Version 5.0.0 -  RELEASE  -
|  1> !LC-BLYP RIJCOSX def2-SVPD def2/J TightSCF
|  2> *xyz 0 1
|  3> C          3.95643        0.50147       -0.37910
|  4> C          3.80389        1.96157       -0.15675
|  5> H          4.20643        2.24441        0.74536
|  6> H          2.80827        2.21132       -0.09610
|  7> H          4.28076        2.50155       -0.89104
|  8> H          3.52890        0.23799       -1.32393
|  9> H          3.45469       -0.03240        0.40073
| 10> H          4.99562        0.24661       -0.37434
| 11> *
| 12>
| 13> %MaxCore 64000
| 14> %pal nprocs 8
| 15> end
| 16>
| 17> %scf
| 18>   MaxIter 150
| 19> end
| 20>
| 21>
| 22>                          ****END OF INPUT****

CARTESIAN COORDINATES (ANGSTROEM)
---------------------------------
  C      3.956430    0.501470   -0.379100
  C      3.803890    1.961570   -0.156750
  H      4.206430    2.244410    0.745360
  H      2.808270    2.211320   -0.096100
  H      4.280760    2.501550   -0.891040
  H      3.528900    0.237990   -1.323930
  H      3.454690   -0.032400    0.400730
  H      4.995620    0.246610   -0.374340

 Total Charge           Charge          ....    0
 Multiplicity           Mult            ....    1
 Number of Electrons    NEL             ....   18
 Basis Dimension        Dim             ....   88

ORBITAL ENERGIES
----------------

  NO   OCC          E(Eh)            E(eV)
   0   2.0000     -10.062567      -273.8164
   1   2.0000     -10.050132      -273.4780
   2   2.0000      -0.873301       -23.7637
   3   2.0000      -0.723716       -19.6933
   4   2.0000      -0.557648       -15.1744
   5   2.0000      -0.551082       -14.9957
   6   2.0000      -0.471338       -12.8258
   7   2.0000      -0.446397       -12.1471
   8   2.0000      -0.439968       -11.9721
   9   0.0000       0.079418         2.1611
  10   0.0000       0.109699         2.9851
  11   0.0000       0.160893         4.3781
  12   0.0000       0.162774         4.4293
  13   0.0000       0.181865         4.9488

MULLIKEN ATOMIC CHARGES
-----------------------
   0 C :    0.481435
   1 C :    0.780405
   2 H :   -0.269331
   3 H :   -0.266954
   4 H :   -0.272851
   5 H :   -0.153580
   6 H :   -0.147256
   7 H :   -0.151867
Sum of atomic charges:    0.0000000

LOEWDIN ATOMIC CHARGES
----------------------
   0 C :    0.064165
   1 C :    0.065755
   2 H :   -0.032438
   3 H :   -0.030222
   4 H :   -0.028430
   5 H :   -0.013066
   6 H :   -0.012568
   7 H :   -0.013196

  Mayer bond orders larger than 0.100000
B(  0-C ,  1-C ) :   1.4211 B(  0-C ,  2-H ) :   0.1925 B(  0-C ,  3-H ) :   0.2001
B(  0-C ,  4-H ) :   0.1957 B(  0-C ,  5-H ) :   0.8081 B(  0-C ,  6-H ) :   0.8094
B(  0-C ,  7-H ) :   0.8131 B(  1-C ,  2-H ) :   0.6863 B(  1-C ,  3-H ) :   0.6944
B(  1-C ,  4-H ) :   0.7054 B(  1-C ,  5-H ) :   0.1776 B(  1-C ,  6-H ) :   0.1826
B(  1-C ,  7-H ) :   0.1786 B(  2-H ,  3-H ) :   0.1181

FINAL SINGLE POINT ENERGY       -79.486936434995

DIPOLE MOMENT
-------------
                                X             Y             Z
Electronic contribution:      0.00238       0.00860      -0.03577
Nuclear contribution   :     -0.00471       0.01526       0.05114
                        -----------------------------------------
Total Dipole Moment    :     -0.00233       0.02386       0.01536
                        -----------------------------------------
Magnitude (a.u.)       :      0.02847
Magnitude (Debye)      :      0.07237

Rotational constants in cm-1:     2.873610     0.717865     0.713933
Rotational constants in MHz : 86148.646881 21521.066032 21403.176468

                             ****ORCA TERMINATED NORMALLY****
TOTAL RUN TIME: 0 days 0 hours 0 minutes 3 seconds 798 msec
