                         Program Version 5.0.0 -  RELEASE  -
|  1> !LC-BLYP RIJCOSX def2-SVPD def2/J TightSCF
|  2> *xyz -1 1
|  3> C          0.84888        2.66797       -4.30235
|  4> C          2.09343        1.86104       -4.65684
|  5> H          2.44481        2.04157       -5.67499
|  6> H          2.90175        2.13786       -3.98034
|  7> S          1.87964        0.07859       -4.46297
|  8> O          3.20757       -0.46611       -4.42026
|  9> O          1.07506       -0.05616       -3.26876
| 10> O          1.13166       -0.31996       -5.67903
| 11> H          0.05064        2.40112       -4.96303
| 12> H          1.06043        3.71210       -4.40203
| 13> H          0.56237        2.45684       -3.29327
| 14> *
| 15>
| 16> %MaxCore 64000
| 17>
| 18> %pal nprocs 4
| 19> end
| 20>
| 21> %scf
| 22>   MaxIter 150
| 23> end
| 24>
| 25>
| 26>                          ****END OF INPUT****

CARTESIAN COORDINATES (ANGSTROEM)
---------------------------------
  C      0.848880    2.667970   -4.302350
  C      2.093430    1.861040   -4.656840
  H      2.444810    2.041570   -5.674990
  H      2.901750    2.137860   -3.980340
  S      1.879640    0.078590   -4.462970
  O      3.207570   -0.466110   -4.420260
  O      1.075060   -0.056160   -3.268760
  O      1.131660   -0.319960   -5.679030
  H      0.050640    2.401120   -4.963030
  H      1.060430    3.712100   -4.402030
  H      0.562370    2.456840   -3.293270

 Total Charge           Charge          ....   -1
 Multiplicity           Mult            ....    1
 Number of Electrons    NEL             ....   58
 Basis Dimension        Dim             ....  176

ORBITAL ENERGIES
----------------

  NO   OCC          E(Eh)            E(eV)
   0   2.0000     -88.309923     -2403.0352
   1   2.0000     -18.743493      -510.0364
   2   2.0000     -18.740215      -509.9472
   3   2.0000     -18.727595      -509.6038
   4   2.0000      -9.947651      -270.6893
   5   2.0000      -9.941176      -270.5132
   6   2.0000      -7.858925      -213.8522
   7   2.0000      -5.893267      -160.3639
   8   2.0000      -5.893107      -160.3596
   9   2.0000      -5.892659      -160.3474
  10   2.0000      -1.035235       -28.1702
  11   2.0000      -0.891886       -24.2695
  12   2.0000      -0.865859       -23.5612
  13   2.0000      -0.738903       -20.1066
  14   2.0000      -0.611570       -16.6417
  15   2.0000      -0.487786       -13.2733
  16   2.0000      -0.428591       -11.6625
  17   2.0000      -0.425518       -11.5789
  18   2.0000      -0.384688       -10.4679
  19   2.0000      -0.371507       -10.1092
  20   2.0000      -0.361090        -9.8258
  21   2.0000      -0.333165        -9.0659
  22   2.0000      -0.313975        -8.5437
  23   2.0000      -0.259037        -7.0488
  24   2.0000      -0.258337        -7.0297
  25   2.0000      -0.221477        -6.0267
  26   2.0000      -0.210553        -5.7294
  27   2.0000      -0.200577        -5.4580
  28   2.0000      -0.166975        -4.5436
  29   0.0000       0.190957         5.1962
  30   0.0000       0.213106         5.7989
  31   0.0000       0.217304         5.9131
  32   0.0000       0.222920         6.0660
  33   0.0000       0.244964         6.6658

MULLIKEN ATOMIC CHARGES
-----------------------
   0 C :    0.998836
   1 C :   -0.170929
   2 H :   -0.164961
   3 H :   -0.112263
   4 S :    1.111831
   5 O :   -0.702785
   6 O :   -0.728588
   7 O :   -0.764290
   8 H :   -0.137422
   9 H :   -0.209608
  10 H :   -0.119822
Sum of atomic charges:   -1.0000000

LOEWDIN ATOMIC CHARGES
----------------------
   0 C :    0.087664
   1 C :   -0.145361
   2 H :    0.010957
   3 H :    0.003665
   4 S :    0.801860
   5 O :   -0.556069
   6 O :   -0.555665
   7 O :   -0.582918
   8 H :   -0.010902
   9 H :   -0.030272
  10 H :   -0.022959

  Mayer bond orders larger than 0.100000
B(  0-C ,  1-C ) :   1.2777 B(  0-C ,  3-H ) :   0.1161 B(  0-C ,  8-H ) :   0.7568
B(  0-C ,  9-H ) :   0.6861 B(  0-C , 10-H ) :   0.7661 B(  1-C ,  2-H ) :   0.9571
B(  1-C ,  3-H ) :   0.9593 B(  1-C ,  4-S ) :   0.9089 B(  1-C ,  8-H ) :   0.2084
B(  1-C ,  9-H ) :   0.2596 B(  1-C , 10-H ) :   0.2277 B(  4-S ,  5-O ) :   1.4163
B(  4-S ,  6-O ) :   1.3610 B(  4-S ,  7-O ) :   1.3274

FINAL SINGLE POINT ENERGY      -701.944988917371

DIPOLE MOMENT
-------------
                                X             Y             Z
Electronic contribution:      1.62296      -7.57380       0.05565
Nuclear contribution   :     -1.55288       9.51857       0.00420
                        -----------------------------------------
Total Dipole Moment    :      0.07008       1.94477       0.05985
                        -----------------------------------------
Magnitude (a.u.)       :      1.94695
Magnitude (Debye)      :      4.94876

Rotational constants in cm-1:     0.163401     0.083833     0.082462
Rotational constants in MHz :  4898.624208  2513.264548  2472.149188

                             ****ORCA TERMINATED NORMALLY****
TOTAL RUN TIME: 0 days 0 hours 0 minutes 27 seconds 854 msec
