                         Program Version 5.0.0 -  RELEASE  -
|  1> !LC-BLYP RIJCOSX def2-SVPD def2/J TightSCF
|  2> *xyz 1 1
|  3> C         -0.46129        2.23469       -4.98962
|  4> C          0.84888        2.66797       -4.30235
|  5> C         -0.42384        2.39877       -6.47432
|  6> N         -0.95947        3.49265       -7.00740
|  7> N          0.14558        1.48689       -7.20399
|  8> H          0.56537        0.69681       -6.72386
|  9> H          0.22068        1.58177       -8.20752
| 10> H         -1.40624        4.18151       -6.40326
| 11> H         -0.93421        3.68160       -7.99947
| 12> H         -1.28888        2.82674       -4.59500
| 13> H         -0.65170        1.18634       -4.75655
| 14> H          1.66208        2.08894       -4.68750
| 15> H          0.76716        2.51042       -3.24717
| 16> H          1.02677        3.70527       -4.49537
| 17> *
| 18>
| 19> %MaxCore 64000
| 20>
| 21> %pal nprocs 4
| 22> end
| 23>
| 24> %scf
| 25>   MaxIter 150
| 26> end
| 27>
| 28>
| 29>                          ****END OF INPUT****

CARTESIAN COORDINATES (ANGSTROEM)
---------------------------------
  C     -0.461290    2.234690   -4.989620
  C      0.848880    2.667970   -4.302350
  C     -0.423840    2.398770   -6.474320
  N     -0.959470    3.492650   -7.007400
  N      0.145580    1.486890   -7.203990
  H      0.565370    0.696810   -6.723860
  H      0.220680    1.581770   -8.207520
  H     -1.406240    4.181510   -6.403260
  H     -0.934210    3.681600   -7.999470
  H     -1.288880    2.826740   -4.595000
  H     -0.651700    1.186340   -4.756550
  H      1.662080    2.088940   -4.687500
  H      0.767160    2.510420   -3.247170
  H      1.026770    3.705270   -4.495370

 Total Charge           Charge          ....    1
 Multiplicity           Mult            ....    1
 Number of Electrons    NEL             ....   40
 Basis Dimension        Dim             ....  172

ORBITAL ENERGIES
----------------

  NO   OCC          E(Eh)            E(eV)
   0   2.0000     -14.437803      -392.8726
   1   2.0000     -14.433577      -392.7576
   2   2.0000     -10.411456      -283.3101
   3   2.0000     -10.284249      -279.8486
   4   2.0000     -10.241234      -278.6781
   5   2.0000      -1.300113       -35.3779
   6   2.0000      -1.203316       -32.7439
   7   2.0000      -1.073763       -29.2186
   8   2.0000      -0.964072       -26.2337
   9   2.0000      -0.922393       -25.0996
  10   2.0000      -0.885056       -24.0836
  11   2.0000      -0.855036       -23.2667
  12   2.0000      -0.803558       -21.8659
  13   2.0000      -0.760728       -20.7005
  14   2.0000      -0.728356       -19.8196
  15   2.0000      -0.720686       -19.6109
  16   2.0000      -0.645761       -17.5720
  17   2.0000      -0.635192       -17.2845
  18   2.0000      -0.627350       -17.0711
  19   2.0000      -0.593003       -16.1364
  20   0.0000      -0.131441        -3.5767
  21   0.0000      -0.100780        -2.7424
  22   0.0000      -0.057917        -1.5760
  23   0.0000      -0.055839        -1.5195
  24   0.0000      -0.030394        -0.8271

MULLIKEN ATOMIC CHARGES
-----------------------
   0 C :   -0.153689
   1 C :    0.865090
   2 C :    0.378450
   3 N :    0.211546
   4 N :    0.353349
   5 H :    0.050938
   6 H :   -0.192978
   7 H :    0.030843
   8 H :   -0.170336
   9 H :   -0.067917
  10 H :   -0.048391
  11 H :   -0.098519
  12 H :   -0.053478
  13 H :   -0.104908
Sum of atomic charges:    1.0000000

LOEWDIN ATOMIC CHARGES
----------------------
   0 C :   -0.003090
   1 C :    0.162505
   2 C :   -0.069449
   3 N :    0.292402
   4 N :    0.296855
   5 H :    0.060660
   6 H :    0.055343
   7 H :    0.055883
   8 H :    0.045707
   9 H :    0.044254
  10 H :    0.049733
  11 H :   -0.004235
  12 H :    0.012091
  13 H :    0.001342

  Mayer bond orders larger than 0.100000
B(  0-C ,  1-C ) :   1.2704 B(  0-C ,  2-C ) :   1.1762 B(  0-C ,  3-N ) :   0.1163
B(  0-C ,  4-N ) :   0.1073 B(  0-C ,  9-H ) :   0.8498 B(  0-C , 10-H ) :   0.8574
B(  0-C , 11-H ) :   0.2132 B(  0-C , 12-H ) :   0.1833 B(  0-C , 13-H ) :   0.1878
B(  1-C , 11-H ) :   0.7437 B(  1-C , 12-H ) :   0.7957 B(  1-C , 13-H ) :   0.7900
B(  2-C ,  3-N ) :   1.1518 B(  2-C ,  4-N ) :   1.3177 B(  2-C ,  6-H ) :  -0.1549
B(  2-C ,  8-H ) :  -0.1991 B(  2-C ,  9-H ) :   0.1613 B(  2-C , 10-H ) :   0.1173
B(  3-N ,  4-N ) :   0.1511 B(  3-N ,  7-H ) :   1.0896 B(  3-N ,  8-H ) :   1.3080
B(  4-N ,  5-H ) :   1.0610 B(  4-N ,  6-H ) :   1.2807 B(  5-H ,  6-H ) :  -0.1754
B(  7-H ,  8-H ) :  -0.1877 B( 11-H , 13-H ) :   0.1051

FINAL SINGLE POINT ENERGY      -228.266689148983

DIPOLE MOMENT
-------------
                                X             Y             Z
Electronic contribution:     -1.56267      -0.27075      -3.89127
Nuclear contribution   :      1.33202       0.27544       2.83701
                        -----------------------------------------
Total Dipole Moment    :     -0.23064       0.00469      -1.05426
                        -----------------------------------------
Magnitude (a.u.)       :      1.07921
Magnitude (Debye)      :      2.74312

Rotational constants in cm-1:     0.258570     0.126296     0.098869
Rotational constants in MHz :  7751.748523  3786.267300  2964.011691

                             ****ORCA TERMINATED NORMALLY****
TOTAL RUN TIME: 0 days 0 hours 0 minutes 23 seconds 256 msec
