                         Program Version 5.0.0 -  RELEASE  -
|  1> !LC-BLYP RIJCOSX def2-SVPD def2/J TightSCF
|  2> *xyz 0 1
|  3> C          0.84888        2.66797       -4.30235
|  4> C          2.09343        1.86104       -4.65684
|  5> H          2.44481        2.04157       -5.67499
|  6> H          2.90175        2.13786       -3.98034
|  7> S          1.87964        0.07859       -4.46297
|  8> F          3.20757       -0.46611       -4.42026
|  9> O          1.07506       -0.05616       -3.26876
| 10> O          1.13166       -0.31996       -5.67903
| 11> H          0.05064        2.40112       -4.96303
| 12> H          1.06043        3.71210       -4.40203
| 13> H          0.56237        2.45684       -3.29327
| 14> *
| 15>
| 16> %MaxCore 64000
| 17>
| 18> %pal nprocs 4
| 19> end
| 20>
| 21> %scf
| 22>   MaxIter 150
| 23> end
| 24>
| 25>
| 26>                          ****END OF INPUT****

CARTESIAN COORDINATES (ANGSTROEM)
---------------------------------
  C      0.848880    2.667970   -4.302350
  C      2.093430    1.861040   -4.656840
  H      2.444810    2.041570   -5.674990
  H      2.901750    2.137860   -3.980340
  S      1.879640    0.078590   -4.462970
  F      3.207570   -0.466110   -4.420260
  O      1.075060   -0.056160   -3.268760
  O      1.131660   -0.319960   -5.679030
  H      0.050640    2.401120   -4.963030
  H      1.060430    3.712100   -4.402030
  H      0.562370    2.456840   -3.293270

 Total Charge           Charge          ....    0
 Multiplicity           Mult            ....    1
 Number of Electrons    NEL             ....   58
 Basis Dimension        Dim             ....  176

ORBITAL ENERGIES
----------------

  NO   OCC          E(Eh)            E(eV)
   0   2.0000     -88.568139     -2410.0616
   1   2.0000     -24.600790      -669.4215
   2   2.0000     -18.973455      -516.2939
   3   2.0000     -18.960747      -515.9482
   4   2.0000     -10.149779      -276.1895
   5   2.0000     -10.104093      -274.9463
   6   2.0000      -8.118086      -220.9044
   7   2.0000      -6.156914      -167.5382
   8   2.0000      -6.150022      -167.3506
   9   2.0000      -6.148528      -167.3099
  10   2.0000      -1.468710       -39.9656
  11   2.0000      -1.207520       -32.8583
  12   2.0000      -1.099914       -29.9302
  13   2.0000      -0.930208       -25.3123
  14   2.0000      -0.846603       -23.0372
  15   2.0000      -0.785305       -21.3692
  16   2.0000      -0.700602       -19.0644
  17   2.0000      -0.699976       -19.0473
  18   2.0000      -0.663447       -18.0533
  19   2.0000      -0.603193       -16.4137
  20   2.0000      -0.593626       -16.1534
  21   2.0000      -0.548488       -14.9251
  22   2.0000      -0.536515       -14.5993
  23   2.0000      -0.511456       -13.9174
  24   2.0000      -0.492669       -13.4062
  25   2.0000      -0.487145       -13.2559
  26   2.0000      -0.438001       -11.9186
  27   2.0000      -0.422454       -11.4955
  28   2.0000      -0.408698       -11.1212
  29   0.0000       0.044557         1.2125
  30   0.0000       0.071656         1.9499
  31   0.0000       0.079070         2.1516
  32   0.0000       0.081369         2.2142
  33   0.0000       0.108867         2.9624

MULLIKEN ATOMIC CHARGES
-----------------------
   0 C :    1.008633
   1 C :   -0.206831
   2 H :   -0.112146
   3 H :   -0.063166
   4 S :    1.297820
   5 F :   -0.343554
   6 O :   -0.578924
   7 O :   -0.611721
   8 H :   -0.119083
   9 H :   -0.173911
  10 H :   -0.097118
Sum of atomic charges:    0.0000000

LOEWDIN ATOMIC CHARGES
----------------------
   0 C :    0.131049
   1 C :   -0.108454
   2 H :    0.030703
   3 H :    0.021299
   4 S :    1.069318
   5 F :   -0.234297
   6 O :   -0.445744
   7 O :   -0.466238
   8 H :    0.006638
   9 H :    0.000761
  10 H :   -0.005034

  Mayer bond orders larger than 0.100000
B(  0-C ,  1-C ) :   1.3350 B(  0-C ,  3-H ) :   0.1163 B(  0-C ,  8-H ) :   0.7569
B(  0-C ,  9-H ) :   0.6967 B(  0-C , 10-H ) :   0.7604 B(  1-C ,  2-H ) :   0.9577
B(  1-C ,  3-H ) :   0.9369 B(  1-C ,  4-S ) :   0.9478 B(  1-C ,  8-H ) :   0.2032
B(  1-C ,  9-H ) :   0.2510 B(  1-C , 10-H ) :   0.2232 B(  4-S ,  5-F ) :   0.7828
B(  4-S ,  6-O ) :   1.5702 B(  4-S ,  7-O ) :   1.5301

FINAL SINGLE POINT ENERGY      -726.410692129500

DIPOLE MOMENT
-------------
                                X             Y             Z
Electronic contribution:      4.18728      -9.24914       0.10255
Nuclear contribution   :     -3.08754      10.54185      -0.04092
                        -----------------------------------------
Total Dipole Moment    :      1.09974       1.29272       0.06163
                        -----------------------------------------
Magnitude (a.u.)       :      1.69834
Magnitude (Debye)      :      4.31683

Rotational constants in cm-1:     0.158925     0.081210     0.079022
Rotational constants in MHz :  4764.450166  2434.603461  2369.014434

                             ****ORCA TERMINATED NORMALLY****
TOTAL RUN TIME: 0 days 0 hours 0 minutes 25 seconds 8 msec
