                         Program Version 5.0.0 -  RELEASE  -
|  1> !LC-BLYP RIJCOSX def2-SVPD def2/J TightSCF
|  2> *xyz 0 1
|  3> C         -0.46129        2.23469       -4.98962
|  4> C          0.84888        2.66797       -4.30235
|  5> C         -0.42384        2.39877       -6.47432
|  6> C         -0.95947        3.49265       -7.00740
|  7> N          0.14558        1.48689       -7.20399
|  8> H          0.56537        0.69681       -6.72386
|  9> H          0.22068        1.58177       -8.20752
| 10> H         -1.40624        4.18151       -6.40326
| 11> H         -0.93421        3.68160       -7.99947
| 12> H         -1.28888        2.82674       -4.59500
| 13> H         -0.65170        1.18634       -4.75655
| 14> H          1.66208        2.08894       -4.68750
| 15> H          0.76716        2.51042       -3.24717
| 16> H          1.02677        3.70527       -4.49537
| 17> *
| 18>
| 19> %MaxCore 64000
| 20>
| 21> %pal nprocs 4
| 22> end
| 23>
| 24> %scf
| 25>   MaxIter 150
| 26> end
| 27>
| 28>
| 29>                          ****END OF INPUT****

CARTESIAN COORDINATES (ANGSTROEM)
---------------------------------
  C     -0.461290    2.234690   -4.989620
  C      0.848880    2.667970   -4.302350
  C     -0.423840    2.398770   -6.474320
  C     -0.959470    3.492650   -7.007400
  N      0.145580    1.486890   -7.203990
  H      0.565370    0.696810   -6.723860
  H      0.220680    1.581770   -8.207520
  H     -1.406240    4.181510   -6.403260
  H     -0.934210    3.681600   -7.999470
  H     -1.288880    2.826740   -4.595000
  H     -0.651700    1.186340   -4.756550
  H      1.662080    2.088940   -4.687500
  H      0.767160    2.510420   -3.247170
  H      1.026770    3.705270   -4.495370

 Total Charge           Charge          ....    0
 Multiplicity           Mult            ....    1
 Number of Electrons    NEL             ....   40
 Basis Dimension        Dim             ....  172

ORBITAL ENERGIES
----------------

  NO   OCC          E(Eh)            E(eV)
   0   2.0000     -14.191558      -386.1719
   1   2.0000     -10.106991      -275.0252
   2   2.0000     -10.084777      -274.4207
   3   2.0000     -10.071605      -274.0623
   4   2.0000     -10.017543      -272.5912
   5   2.0000      -1.030692       -28.0466
   6   2.0000      -0.881988       -24.0001
   7   2.0000      -0.815731       -22.1972
   8   2.0000      -0.740184       -20.1414
   9   2.0000      -0.674199       -18.3459
  10   2.0000      -0.634352       -17.2616
  11   2.0000      -0.586660       -15.9638
  12   2.0000      -0.542758       -14.7692
  13   2.0000      -0.525253       -14.2929
  14   2.0000      -0.495447       -13.4818
  15   2.0000      -0.483672       -13.1614
  16   2.0000      -0.451064       -12.2741
  17   2.0000      -0.435876       -11.8608
  18   2.0000      -0.432378       -11.7656
  19   2.0000      -0.283487        -7.7141
  20   0.0000       0.069598         1.8939
  21   0.0000       0.100303         2.7294
  22   0.0000       0.109237         2.9725
  23   0.0000       0.110360         3.0030
  24   0.0000       0.128690         3.5018

MULLIKEN ATOMIC CHARGES
-----------------------
   0 C :    0.011752
   1 C :    0.866262
   2 C :   -0.234988
   3 C :    0.602255
   4 N :    0.474688
   5 H :   -0.122364
   6 H :   -0.236371
   7 H :   -0.237278
   8 H :   -0.618019
   9 H :    0.002400
  10 H :   -0.147833
  11 H :   -0.128117
  12 H :   -0.086328
  13 H :   -0.146058
Sum of atomic charges:    0.0000000

LOEWDIN ATOMIC CHARGES
----------------------
   0 C :   -0.044263
   1 C :    0.124487
   2 C :   -0.284829
   3 C :    0.170533
   4 N :    0.182089
   5 H :    0.005965
   6 H :    0.013422
   7 H :   -0.079503
   8 H :   -0.088317
   9 H :    0.026846
  10 H :    0.022064
  11 H :   -0.020548
  12 H :   -0.016255
  13 H :   -0.011691

  Mayer bond orders larger than 0.100000
B(  0-C ,  1-C ) :   1.2397 B(  0-C ,  2-C ) :   1.1963 B(  0-C ,  3-C ) :   0.2175
B(  0-C ,  4-N ) :   0.1111 B(  0-C ,  9-H ) :   0.8006 B(  0-C , 10-H ) :   0.7910
B(  0-C , 11-H ) :   0.2339 B(  0-C , 12-H ) :   0.1976 B(  0-C , 13-H ) :   0.1996
B(  1-C ,  9-H ) :   0.1030 B(  1-C , 11-H ) :   0.7503 B(  1-C , 12-H ) :   0.7683
B(  1-C , 13-H ) :   0.8048 B(  2-C ,  3-C ) :   1.6005 B(  2-C ,  4-N ) :   1.3636
B(  2-C ,  8-H ) :   0.1654 B(  2-C ,  9-H ) :   0.2001 B(  2-C , 10-H ) :   0.1977
B(  3-C ,  4-N ) :   0.2656 B(  3-C ,  7-H ) :   0.9013 B(  3-C ,  8-H ) :   0.5942
B(  4-N ,  5-H ) :   1.0739 B(  4-N ,  6-H ) :   1.2283 B(  5-H ,  6-H ) :  -0.1471

FINAL SINGLE POINT ENERGY      -211.813734609220

DIPOLE MOMENT
-------------
                                X             Y             Z
Electronic contribution:     -0.72691      -1.16653      -2.58268
Nuclear contribution   :      1.14741       0.51394       2.60761
                        -----------------------------------------
Total Dipole Moment    :      0.42050      -0.65259       0.02492
                        -----------------------------------------
Magnitude (a.u.)       :      0.77674
Magnitude (Debye)      :      1.97431

Rotational constants in cm-1:     0.269157     0.129188     0.102123
Rotational constants in MHz :  8069.118715  3872.945231  3061.580645

                             ****ORCA TERMINATED NORMALLY****
TOTAL RUN TIME: 0 days 0 hours 0 minutes 24 seconds 321 msec
