                         Program Version 5.0.0 -  RELEASE  -
|  1> !LC-BLYP RIJCOSX def2-SVPD def2/J TightSCF
|  2> *xyz 0 1
|  3> C          0.84888        2.66797       -4.30235
|  4> C          2.09343        1.86104       -4.65684
|  5> H          2.44481        2.04157       -5.67499
|  6> H          2.90175        2.13786       -3.98034
|  7> S          1.87964        0.07859       -4.46297
|  8> O          3.20757       -0.46611       -4.42026
|  9> F          1.07506       -0.05616       -3.26876
| 10> O          1.13166       -0.31996       -5.67903
| 11> H          0.05064        2.40112       -4.96303
| 12> H          1.06043        3.71210       -4.40203
| 13> H          0.56237        2.45684       -3.29327
| 14> *
| 15>
| 16> %MaxCore 64000
| 17>
| 18> %pal nprocs 4
| 19> end
| 20>
| 21> %scf
| 22>   MaxIter 150
| 23> end
| 24>
| 25>
| 26>                          ****END OF INPUT****

CARTESIAN COORDINATES (ANGSTROEM)
---------------------------------
  C      0.848880    2.667970   -4.302350
  C      2.093430    1.861040   -4.656840
  H      2.444810    2.041570   -5.674990
  H      2.901750    2.137860   -3.980340
  S      1.879640    0.078590   -4.462970
  O      3.207570   -0.466110   -4.420260
  F      1.075060   -0.056160   -3.268760
  O      1.131660   -0.319960   -5.679030
  H      0.050640    2.401120   -4.963030
  H      1.060430    3.712100   -4.402030
  H      0.562370    2.456840   -3.293270

 Total Charge           Charge          ....    0
 Multiplicity           Mult            ....    1
 Number of Electrons    NEL             ....   58
 Basis Dimension        Dim             ....  176

ORBITAL ENERGIES
----------------

  NO   OCC          E(Eh)            E(eV)
   0   2.0000     -88.567516     -2410.0446
   1   2.0000     -24.595365      -669.2739
   2   2.0000     -18.976947      -516.3890
   3   2.0000     -18.960697      -515.9468
   4   2.0000     -10.149573      -276.1839
   5   2.0000     -10.111345      -275.1437
   6   2.0000      -8.117415      -220.8861
   7   2.0000      -6.156347      -167.5227
   8   2.0000      -6.149345      -167.3322
   9   2.0000      -6.147850      -167.2915
  10   2.0000      -1.460013       -39.7290
  11   2.0000      -1.211178       -32.9578
  12   2.0000      -1.103084       -30.0164
  13   2.0000      -0.935499       -25.4562
  14   2.0000      -0.839478       -22.8433
  15   2.0000      -0.788479       -21.4556
  16   2.0000      -0.710115       -19.3232
  17   2.0000      -0.693628       -18.8746
  18   2.0000      -0.652855       -17.7651
  19   2.0000      -0.605177       -16.4677
  20   2.0000      -0.585122       -15.9220
  21   2.0000      -0.559875       -15.2350
  22   2.0000      -0.545250       -14.8370
  23   2.0000      -0.517725       -14.0880
  24   2.0000      -0.501413       -13.6441
  25   2.0000      -0.488521       -13.2933
  26   2.0000      -0.438598       -11.9349
  27   2.0000      -0.423156       -11.5147
  28   2.0000      -0.411818       -11.2061
  29   0.0000       0.043551         1.1851
  30   0.0000       0.073646         2.0040
  31   0.0000       0.078628         2.1396
  32   0.0000       0.081860         2.2275
  33   0.0000       0.110465         3.0059

MULLIKEN ATOMIC CHARGES
-----------------------
   0 C :    1.012332
   1 C :   -0.166877
   2 H :   -0.116935
   3 H :   -0.072256
   4 S :    1.263998
   5 O :   -0.550589
   6 F :   -0.348820
   7 O :   -0.614887
   8 H :   -0.117987
   9 H :   -0.173180
  10 H :   -0.114799
Sum of atomic charges:   -0.0000000

LOEWDIN ATOMIC CHARGES
----------------------
   0 C :    0.117351
   1 C :   -0.096637
   2 H :    0.042723
   3 H :    0.025267
   4 S :    1.063912
   5 O :   -0.440499
   6 F :   -0.238750
   7 O :   -0.465626
   8 H :    0.002462
   9 H :   -0.000304
  10 H :   -0.009898

  Mayer bond orders larger than 0.100000
B(  0-C ,  1-C ) :   1.2924 B(  0-C ,  3-H ) :   0.1063 B(  0-C ,  8-H ) :   0.7666
B(  0-C ,  9-H ) :   0.6938 B(  0-C , 10-H ) :   0.7591 B(  1-C ,  2-H ) :   0.9567
B(  1-C ,  3-H ) :   0.9663 B(  1-C ,  4-S ) :   0.9729 B(  1-C ,  8-H ) :   0.2021
B(  1-C ,  9-H ) :   0.2508 B(  1-C , 10-H ) :   0.2091 B(  4-S ,  5-O ) :   1.6266
B(  4-S ,  6-F ) :   0.7557 B(  4-S ,  7-O ) :   1.5455

FINAL SINGLE POINT ENERGY      -726.415257923863

DIPOLE MOMENT
-------------
                                X             Y             Z
Electronic contribution:      0.56940      -8.52419       2.03950
Nuclear contribution   :     -0.86540      10.11467      -1.24082
                        -----------------------------------------
Total Dipole Moment    :     -0.29600       1.59049       0.79868
                        -----------------------------------------
Magnitude (a.u.)       :      1.80420
Magnitude (Debye)      :      4.58592

Rotational constants in cm-1:     0.154065     0.083345     0.080357
Rotational constants in MHz :  4618.752213  2498.631937  2409.037217

                             ****ORCA TERMINATED NORMALLY****
TOTAL RUN TIME: 0 days 0 hours 0 minutes 26 seconds 579 msec
