                         Program Version 5.0.0 -  RELEASE  -
|  1> !LC-BLYP RIJCOSX def2-SVPD def2/J TightSCF
|  2> *xyz 0 1
|  3> C         -0.46129        2.23469       -4.98962
|  4> C          0.84888        2.66797       -4.30235
|  5> C         -0.42384        2.39877       -6.47432
|  6> N         -0.95947        3.49265       -7.00740
|  7> C          0.14558        1.48689       -7.20399
|  8> H          0.56537        0.69681       -6.72386
|  9> H          0.22068        1.58177       -8.20752
| 10> H         -1.40624        4.18151       -6.40326
| 11> H         -0.93421        3.68160       -7.99947
| 12> H         -1.28888        2.82674       -4.59500
| 13> H         -0.65170        1.18634       -4.75655
| 14> H          1.66208        2.08894       -4.68750
| 15> H          0.76716        2.51042       -3.24717
| 16> H          1.02677        3.70527       -4.49537
| 17> *
| 18>
| 19> %MaxCore 64000
| 20>
| 21> %pal nprocs 4
| 22> end
| 23>
| 24> %scf
| 25>   MaxIter 150
| 26> end
| 27>
| 28>
| 29>                          ****END OF INPUT****

CARTESIAN COORDINATES (ANGSTROEM)
---------------------------------
  C     -0.461290    2.234690   -4.989620
  C      0.848880    2.667970   -4.302350
  C     -0.423840    2.398770   -6.474320
  N     -0.959470    3.492650   -7.007400
  C      0.145580    1.486890   -7.203990
  H      0.565370    0.696810   -6.723860
  H      0.220680    1.581770   -8.207520
  H     -1.406240    4.181510   -6.403260
  H     -0.934210    3.681600   -7.999470
  H     -1.288880    2.826740   -4.595000
  H     -0.651700    1.186340   -4.756550
  H      1.662080    2.088940   -4.687500
  H      0.767160    2.510420   -3.247170
  H      1.026770    3.705270   -4.495370

 Total Charge           Charge          ....    0
 Multiplicity           Mult            ....    1
 Number of Electrons    NEL             ....   40
 Basis Dimension        Dim             ....  172

ORBITAL ENERGIES
----------------

  NO   OCC          E(Eh)            E(eV)
   0   2.0000     -14.188253      -386.0820
   1   2.0000     -10.104774      -274.9649
   2   2.0000     -10.084461      -274.4121
   3   2.0000     -10.070146      -274.0226
   4   2.0000     -10.016974      -272.5757
   5   2.0000      -1.018825       -27.7236
   6   2.0000      -0.883278       -24.0352
   7   2.0000      -0.819126       -22.2896
   8   2.0000      -0.741140       -20.1674
   9   2.0000      -0.668736       -18.1972
  10   2.0000      -0.624859       -17.0033
  11   2.0000      -0.588793       -16.0219
  12   2.0000      -0.544862       -14.8265
  13   2.0000      -0.519444       -14.1348
  14   2.0000      -0.495728       -13.4895
  15   2.0000      -0.485122       -13.2009
  16   2.0000      -0.448189       -12.1959
  17   2.0000      -0.436279       -11.8717
  18   2.0000      -0.431579       -11.7438
  19   2.0000      -0.288108        -7.8398
  20   0.0000       0.071048         1.9333
  21   0.0000       0.100024         2.7218
  22   0.0000       0.107736         2.9316
  23   0.0000       0.112682         3.0662
  24   0.0000       0.129382         3.5207

MULLIKEN ATOMIC CHARGES
-----------------------
   0 C :    0.014705
   1 C :    0.832604
   2 C :   -0.078762
   3 N :    0.319363
   4 C :    0.575270
   5 H :   -0.223838
   6 H :   -0.570140
   7 H :   -0.116669
   8 H :   -0.217999
   9 H :   -0.175468
  10 H :    0.001154
  11 H :   -0.139344
  12 H :   -0.082024
  13 H :   -0.138853
Sum of atomic charges:   -0.0000000

LOEWDIN ATOMIC CHARGES
----------------------
   0 C :   -0.044332
   1 C :    0.125224
   2 C :   -0.278092
   3 N :    0.180788
   4 C :    0.163763
   5 H :   -0.070610
   6 H :   -0.077971
   7 H :   -0.001063
   8 H :    0.002673
   9 H :    0.017291
  10 H :    0.029420
  11 H :   -0.015733
  12 H :   -0.016717
  13 H :   -0.014640

  Mayer bond orders larger than 0.100000
B(  0-C ,  1-C ) :   1.2573 B(  0-C ,  2-C ) :   1.1311 B(  0-C ,  3-N ) :   0.1307
B(  0-C ,  4-C ) :   0.2210 B(  0-C ,  9-H ) :   0.7896 B(  0-C , 10-H ) :   0.8038
B(  0-C , 11-H ) :   0.2134 B(  0-C , 12-H ) :   0.1839 B(  0-C , 13-H ) :   0.2096
B(  1-C ,  9-H ) :   0.1161 B(  1-C , 11-H ) :   0.7893 B(  1-C , 12-H ) :   0.7708
B(  1-C , 13-H ) :   0.7867 B(  2-C ,  3-N ) :   1.2221 B(  2-C ,  4-C ) :   1.7222
B(  2-C ,  5-H ) :   0.1298 B(  2-C ,  6-H ) :   0.2222 B(  2-C ,  8-H ) :  -0.1248
B(  2-C ,  9-H ) :   0.1872 B(  2-C , 10-H ) :   0.1516 B(  3-N ,  4-C ) :   0.2722
B(  3-N ,  7-H ) :   1.0954 B(  3-N ,  8-H ) :   1.2728 B(  4-C ,  5-H ) :   0.7558
B(  4-C ,  6-H ) :   0.5970 B(  7-H ,  8-H ) :  -0.1743

FINAL SINGLE POINT ENERGY      -211.814030168938

DIPOLE MOMENT
-------------
                                X             Y             Z
Electronic contribution:     -1.69850       0.56931      -2.41281
Nuclear contribution   :      1.40335       0.04939       2.56207
                        -----------------------------------------
Total Dipole Moment    :     -0.29515       0.61869       0.14927
                        -----------------------------------------
Magnitude (a.u.)       :      0.70155
Magnitude (Debye)      :      1.78321

Rotational constants in cm-1:     0.271383     0.128194     0.101873
Rotational constants in MHz :  8135.853259  3843.152748  3054.074278

                             ****ORCA TERMINATED NORMALLY****
TOTAL RUN TIME: 0 days 0 hours 0 minutes 24 seconds 647 msec
