                         Program Version 5.0.0 -  RELEASE  -
|  1> !LC-BLYP RIJCOSX def2-SVPD def2/J TightSCF
|  2> *xyz 0 1
|  3> C          0.84888        2.66797       -4.30235
|  4> C          2.09343        1.86104       -4.65684
|  5> H          2.44481        2.04157       -5.67499
|  6> H          2.90175        2.13786       -3.98034
|  7> S          1.87964        0.07859       -4.46297
|  8> O          3.20757       -0.46611       -4.42026
|  9> O          1.07506       -0.05616       -3.26876
| 10> F          1.13166       -0.31996       -5.67903
| 11> H          0.05064        2.40112       -4.96303
| 12> H          1.06043        3.71210       -4.40203
| 13> H          0.56237        2.45684       -3.29327
| 14> *
| 15>
| 16> %MaxCore 64000
| 17>
| 18> %pal nprocs 4
| 19> end
| 20>
| 21> %scf
| 22>   MaxIter 150
| 23> end
| 24>
| 25>
| 26>                          ****END OF INPUT****

CARTESIAN COORDINATES (ANGSTROEM)
---------------------------------
  C      0.848880    2.667970   -4.302350
  C      2.093430    1.861040   -4.656840
  H      2.444810    2.041570   -5.674990
  H      2.901750    2.137860   -3.980340
  S      1.879640    0.078590   -4.462970
  O      3.207570   -0.466110   -4.420260
  O      1.075060   -0.056160   -3.268760
  F      1.131660   -0.319960   -5.679030
  H      0.050640    2.401120   -4.963030
  H      1.060430    3.712100   -4.402030
  H      0.562370    2.456840   -3.293270

 Total Charge           Charge          ....    0
 Multiplicity           Mult            ....    1
 Number of Electrons    NEL             ....   58
 Basis Dimension        Dim             ....  176

ORBITAL ENERGIES
----------------

  NO   OCC          E(Eh)            E(eV)
   0   2.0000     -88.565879     -2410.0001
   1   2.0000     -24.577182      -668.7791
   2   2.0000     -18.976604      -516.3796
   3   2.0000     -18.973204      -516.2871
   4   2.0000     -10.148672      -276.1594
   5   2.0000     -10.105547      -274.9859
   6   2.0000      -8.115703      -220.8395
   7   2.0000      -6.154378      -167.4692
   8   2.0000      -6.147863      -167.2919
   9   2.0000      -6.146348      -167.2506
  10   2.0000      -1.430072       -38.9142
  11   2.0000      -1.218734       -33.1634
  12   2.0000      -1.122008       -30.5314
  13   2.0000      -0.931413       -25.3450
  14   2.0000      -0.829337       -22.5674
  15   2.0000      -0.779984       -21.2245
  16   2.0000      -0.691134       -18.8067
  17   2.0000      -0.672445       -18.2982
  18   2.0000      -0.655107       -17.8264
  19   2.0000      -0.605012       -16.4632
  20   2.0000      -0.587251       -15.9799
  21   2.0000      -0.563817       -15.3422
  22   2.0000      -0.539406       -14.6780
  23   2.0000      -0.511002       -13.9051
  24   2.0000      -0.506942       -13.7946
  25   2.0000      -0.484790       -13.1918
  26   2.0000      -0.445666       -12.1272
  27   2.0000      -0.433368       -11.7925
  28   2.0000      -0.425119       -11.5681
  29   0.0000       0.045539         1.2392
  30   0.0000       0.074955         2.0396
  31   0.0000       0.079214         2.1555
  32   0.0000       0.081278         2.2117
  33   0.0000       0.110049         2.9946

MULLIKEN ATOMIC CHARGES
-----------------------
   0 C :    1.037828
   1 C :   -0.196303
   2 H :   -0.125836
   3 H :   -0.061172
   4 S :    1.277391
   5 O :   -0.561252
   6 O :   -0.593934
   7 F :   -0.366243
   8 H :   -0.140797
   9 H :   -0.173921
  10 H :   -0.095760
Sum of atomic charges:    0.0000000

LOEWDIN ATOMIC CHARGES
----------------------
   0 C :    0.118567
   1 C :   -0.099222
   2 H :    0.029097
   3 H :    0.035428
   4 S :    1.064685
   5 O :   -0.441417
   6 O :   -0.443681
   7 F :   -0.255183
   8 H :   -0.000966
   9 H :   -0.001298
  10 H :   -0.006012

  Mayer bond orders larger than 0.100000
B(  0-C ,  1-C ) :   1.3070 B(  0-C ,  3-H ) :   0.1027 B(  0-C ,  8-H ) :   0.7433
B(  0-C ,  9-H ) :   0.6901 B(  0-C , 10-H ) :   0.7665 B(  1-C ,  2-H ) :   0.9537
B(  1-C ,  3-H ) :   0.9585 B(  1-C ,  4-S ) :   0.9684 B(  1-C ,  8-H ) :   0.2058
B(  1-C ,  9-H ) :   0.2495 B(  1-C , 10-H ) :   0.2249 B(  4-S ,  5-O ) :   1.6211
B(  4-S ,  6-O ) :   1.5781 B(  4-S ,  7-F ) :   0.7045 B(  5-O ,  6-O ) :   0.1006

FINAL SINGLE POINT ENERGY      -726.431146634284

DIPOLE MOMENT
-------------
                                X             Y             Z
Electronic contribution:      0.64888      -9.00382      -2.06037
Nuclear contribution   :     -0.92438      10.38956       1.27076
                        -----------------------------------------
Total Dipole Moment    :     -0.27550       1.38574      -0.78961
                        -----------------------------------------
Magnitude (a.u.)       :      1.61853
Magnitude (Debye)      :      4.11399

Rotational constants in cm-1:     0.154243     0.082247     0.080562
Rotational constants in MHz :  4624.087322  2465.703680  2415.175852

                             ****ORCA TERMINATED NORMALLY****
TOTAL RUN TIME: 0 days 0 hours 0 minutes 24 seconds 916 msec
