                         Program Version 5.0.0 -  RELEASE  -
|  1> !LC-BLYP RIJCOSX def2-SVPD def2/J TightSCF xyzfile
|  2>
|  3> *xyzfile 0 1 D2.xyz
|  4>
|  5> %MaxCore 64000
|  6>
|  7> %pal nprocs 4
|  8> end
|  9>
| 10> %scf
| 11>   MaxIter 150
| 12> end
| 13>
| 14>
| 15>                          ****END OF INPUT****

CARTESIAN COORDINATES (ANGSTROEM)
---------------------------------
  C     -0.461293    2.234686   -4.989619
  C      0.848883    2.667967   -4.302351
  C      2.093434    1.861037   -4.656845
  H      2.444814    2.041567   -5.674990
  H      2.901748    2.137864   -3.980338
  S      1.879644    0.078594   -4.462965
  C     -0.423841    2.398772   -6.474317
  N     -0.959467    3.492647   -7.007401
  C      0.145585    1.486891   -7.203987
  H      0.565371    0.696807   -6.723858
  H      0.220682    1.581768   -8.207520
  H     -1.406243    4.181507   -6.403261
  H     -0.934215    3.681601   -7.999468
  F      3.207574   -0.466111   -4.420259
  O      1.075064   -0.056160   -3.268758
  O      1.131661   -0.319960   -5.679031
  H      0.668432    2.559427   -3.232850
  H      1.034074    3.729426   -4.497081
  H     -1.288884    2.826737   -4.594997
  H     -0.651696    1.186343   -4.756552

 Total Charge           Charge          ....    0
 Multiplicity           Mult            ....    1
 Number of Electrons    NEL             ....   88
 Basis Dimension        Dim             ....  296

ORBITAL ENERGIES
----------------

  NO   OCC          E(Eh)            E(eV)
   0   2.0000     -88.571083     -2410.1417
   1   2.0000     -24.601054      -669.4287
   2   2.0000     -18.975221      -516.3420
   3   2.0000     -18.963252      -516.0163
   4   2.0000     -14.183063      -385.9408
   5   2.0000     -10.144612      -276.0489
   6   2.0000     -10.113091      -275.1912
   7   2.0000     -10.096441      -274.7381
   8   2.0000     -10.087162      -274.4856
   9   2.0000      -9.994509      -271.9644
  10   2.0000      -8.120176      -220.9612
  11   2.0000      -6.159002      -167.5950
  12   2.0000      -6.152429      -167.4161
  13   2.0000      -6.150504      -167.3637
  14   2.0000      -1.468769       -39.9672
  15   2.0000      -1.211452       -32.9653
  16   2.0000      -1.106756       -30.1164
  17   2.0000      -1.014411       -27.6035
  18   2.0000      -0.937263       -25.5042
  19   2.0000      -0.874518       -23.7968
  20   2.0000      -0.829565       -22.5736
  21   2.0000      -0.807439       -21.9715
  22   2.0000      -0.748788       -20.3756
  23   2.0000      -0.703963       -19.1558
  24   2.0000      -0.695956       -18.9379
  25   2.0000      -0.669841       -18.2273
  26   2.0000      -0.666769       -18.1437
  27   2.0000      -0.618988       -16.8435
  28   2.0000      -0.606442       -16.5021
  29   2.0000      -0.595132       -16.1944
  30   2.0000      -0.580376       -15.7928
  31   2.0000      -0.561988       -15.2925
  32   2.0000      -0.546678       -14.8759
  33   2.0000      -0.512146       -13.9362
  34   2.0000      -0.503480       -13.7004
  35   2.0000      -0.494233       -13.4488
  36   2.0000      -0.475774       -12.9465
  37   2.0000      -0.460683       -12.5358
  38   2.0000      -0.441116       -12.0034
  39   2.0000      -0.438557       -11.9337
  40   2.0000      -0.423428       -11.5221
  41   2.0000      -0.417006       -11.3473
  42   2.0000      -0.392136       -10.6706
  43   2.0000      -0.280018        -7.6197
  44   0.0000       0.047328         1.2879
  45   0.0000       0.067470         1.8359
  46   0.0000       0.076219         2.0740
  47   0.0000       0.080681         2.1955
  48   0.0000       0.100934         2.7466

MULLIKEN ATOMIC CHARGES
-----------------------
   0 C :    0.585943
   1 C :    0.327999
   2 C :    0.252012
   3 H :    0.128094
   4 H :   -0.257562
   5 S :    1.333830
   6 C :   -0.056818
   7 N :    0.271841
   8 C :    1.192371
   9 H :   -0.555034
  10 H :   -0.773724
  11 H :   -0.134625
  12 H :   -0.227452
  13 F :   -0.386574
  14 O :   -0.606492
  15 O :   -0.656570
  16 H :    0.072311
  17 H :   -0.295290
  18 H :   -0.253383
  19 H :    0.039124
Sum of atomic charges:   -0.0000000

LOEWDIN ATOMIC CHARGES
----------------------
   0 C :    0.019944
   1 C :   -0.017620
   2 C :   -0.049951
   3 H :    0.029328
   4 H :    0.022396
   5 S :    1.117639
   6 C :   -0.247756
   7 N :    0.175391
   8 C :    0.195218
   9 H :   -0.191062
  10 H :   -0.066253
  11 H :   -0.005527
  12 H :    0.001259
  13 F :   -0.227600
  14 O :   -0.436304
  15 O :   -0.441999
  16 H :    0.030759
  17 H :    0.041733
  18 H :    0.027578
  19 H :    0.022827

  Mayer bond orders larger than 0.100000
B(  0-C ,  1-C ) :   1.1193 B(  0-C ,  6-C ) :   1.1358 B(  0-C ,  7-N ) :   0.1415
B(  0-C ,  8-C ) :   0.2202 B(  0-C , 16-H ) :   0.1501 B(  0-C , 18-H ) :   0.6426
B(  0-C , 19-H ) :   0.7818 B(  1-C ,  2-C ) :   1.3316 B(  1-C ,  3-H ) :   0.1364
B(  1-C ,  4-H ) :   0.2337 B(  1-C , 16-H ) :   0.7299 B(  1-C , 17-H ) :   0.8230
B(  1-C , 18-H ) :   0.1877 B(  1-C , 19-H ) :   0.1768 B(  2-C ,  3-H ) :   0.8655
B(  2-C ,  4-H ) :   0.7397 B(  2-C ,  5-S ) :   0.9206 B(  2-C ,  9-H ) :   0.1265
B(  2-C , 15-O ) :   0.1407 B(  2-C , 16-H ) :   0.1428 B(  2-C , 17-H ) :   0.1275
B(  4-H ,  5-S ) :   0.1065 B(  4-H ,  9-H ) :  -0.1325 B(  5-S , 13-F ) :   0.7649
B(  5-S , 14-O ) :   1.5775 B(  5-S , 15-O ) :   1.4541 B(  6-C ,  7-N ) :   1.0990
B(  6-C ,  8-C ) :   1.8753 B(  6-C ,  9-H ) :   0.3225 B(  6-C , 10-H ) :   0.2981
B(  6-C , 12-H ) :  -0.1217 B(  6-C , 18-H ) :   0.2067 B(  6-C , 19-H ) :   0.1042
B(  7-N ,  8-C ) :   0.3373 B(  7-N , 11-H ) :   1.1442 B(  7-N , 12-H ) :   1.3184
B(  8-C ,  9-H ) :   0.4133 B(  8-C , 10-H ) :   0.4461 B(  9-H , 10-H ) :  -0.2742
B(  9-H , 15-O ) :   0.2719 B( 11-H , 12-H ) :  -0.1703

FINAL SINGLE POINT ENERGY      -897.874390765633

DIPOLE MOMENT
-------------
                                X             Y             Z
Electronic contribution:      9.27706     -12.39507       5.39601
Nuclear contribution   :     -8.42493      13.96425      -5.19491
                        -----------------------------------------
Total Dipole Moment    :      0.85213       1.56918       0.20110
                        -----------------------------------------
Magnitude (a.u.)       :      1.79691
Magnitude (Debye)      :      4.56739

Rotational constants in cm-1:     0.082815     0.024151     0.022015
Rotational constants in MHz :  2482.732265   724.035221   660.002136

                             ****ORCA TERMINATED NORMALLY****
TOTAL RUN TIME: 0 days 0 hours 1 minutes 27 seconds 714 msec
