                         Program Version 5.0.0 -  RELEASE  -
|  1> !LC-BLYP RIJCOSX def2-SVPD def2/J TightSCF xyzfile
|  2>
|  3> *xyzfile 0 1 D3.xyz
|  4>
|  5> %MaxCore 64000
|  6>
|  7> %pal nprocs 4
|  8> end
|  9>
| 10> %scf
| 11>   MaxIter 150
| 12> end
| 13>
| 14>
| 15>                          ****END OF INPUT****

CARTESIAN COORDINATES (ANGSTROEM)
---------------------------------
  C     -0.461293    2.234686   -4.989619
  C      0.848883    2.667967   -4.302351
  C      2.093434    1.861037   -4.656845
  H      2.444814    2.041567   -5.674990
  H      2.901748    2.137864   -3.980338
  S      1.879644    0.078594   -4.462965
  C     -0.423841    2.398772   -6.474317
  C     -0.959467    3.492647   -7.007401
  N      0.145585    1.486891   -7.203987
  H      0.565371    0.696807   -6.723858
  H      0.220682    1.581768   -8.207520
  H     -1.406243    4.181507   -6.403261
  H     -0.934215    3.681601   -7.999468
  O      3.207574   -0.466111   -4.420259
  F      1.075064   -0.056160   -3.268758
  O      1.131661   -0.319960   -5.679031
  H      0.668432    2.559427   -3.232850
  H      1.034074    3.729426   -4.497081
  H     -1.288884    2.826737   -4.594997
  H     -0.651696    1.186343   -4.756552

 Total Charge           Charge          ....    0
 Multiplicity           Mult            ....    1
 Number of Electrons    NEL             ....   88
 Basis Dimension        Dim             ....  296

ORBITAL ENERGIES
----------------

  NO   OCC          E(Eh)            E(eV)
   0   2.0000     -88.587671     -2410.5931
   1   2.0000     -24.610682      -669.6907
   2   2.0000     -18.993014      -516.8262
   3   2.0000     -18.984561      -516.5962
   4   2.0000     -14.165291      -385.4572
   5   2.0000     -10.155091      -276.3341
   6   2.0000     -10.121808      -275.4284
   7   2.0000     -10.106452      -275.0105
   8   2.0000     -10.098262      -274.7877
   9   2.0000     -10.015609      -272.5386
  10   2.0000      -8.136659      -221.4097
  11   2.0000      -6.175587      -168.0463
  12   2.0000      -6.168945      -167.8655
  13   2.0000      -6.166899      -167.8099
  14   2.0000      -1.475087       -40.1392
  15   2.0000      -1.230866       -33.4936
  16   2.0000      -1.129393       -30.7323
  17   2.0000      -1.019925       -27.7536
  18   2.0000      -0.950676       -25.8692
  19   2.0000      -0.876018       -23.8377
  20   2.0000      -0.843883       -22.9632
  21   2.0000      -0.804686       -21.8966
  22   2.0000      -0.758700       -20.6453
  23   2.0000      -0.717688       -19.5293
  24   2.0000      -0.713914       -19.4266
  25   2.0000      -0.681943       -18.5566
  26   2.0000      -0.668059       -18.1788
  27   2.0000      -0.627412       -17.0728
  28   2.0000      -0.611353       -16.6358
  29   2.0000      -0.602342       -16.3905
  30   2.0000      -0.583695       -15.8831
  31   2.0000      -0.566462       -15.4142
  32   2.0000      -0.559178       -15.2160
  33   2.0000      -0.528546       -14.3825
  34   2.0000      -0.511265       -13.9122
  35   2.0000      -0.504814       -13.7367
  36   2.0000      -0.485931       -13.2229
  37   2.0000      -0.480935       -13.0869
  38   2.0000      -0.450724       -12.2648
  39   2.0000      -0.448062       -12.1924
  40   2.0000      -0.441354       -12.0099
  41   2.0000      -0.432387       -11.7659
  42   2.0000      -0.421797       -11.4777
  43   2.0000      -0.277666        -7.5557
  44   0.0000       0.039197         1.0666
  45   0.0000       0.066526         1.8103
  46   0.0000       0.070484         1.9180
  47   0.0000       0.078547         2.1374
  48   0.0000       0.097049         2.6408

MULLIKEN ATOMIC CHARGES
-----------------------
   0 C :    0.724090
   1 C :    0.329591
   2 C :    0.311847
   3 H :    0.052480
   4 H :   -0.234536
   5 S :    1.281300
   6 C :   -0.246967
   7 C :    0.462983
   8 N :    0.947521
   9 H :   -0.578650
  10 H :   -0.242803
  11 H :   -0.220509
  12 H :   -0.538895
  13 O :   -0.536709
  14 F :   -0.370813
  15 O :   -0.671865
  16 H :    0.057091
  17 H :   -0.296070
  18 H :   -0.050810
  19 H :   -0.178275
Sum of atomic charges:   -0.0000000

LOEWDIN ATOMIC CHARGES
----------------------
   0 C :    0.012079
   1 C :   -0.028322
   2 C :   -0.038092
   3 H :    0.042811
   4 H :    0.028155
   5 S :    1.115171
   6 C :   -0.257409
   7 C :    0.165998
   8 N :    0.213481
   9 H :   -0.144470
  10 H :    0.020439
  11 H :   -0.084292
  12 H :   -0.087229
  13 O :   -0.420581
  14 F :   -0.223877
  15 O :   -0.433293
  16 H :    0.026834
  17 H :    0.043775
  18 H :    0.036564
  19 H :    0.012259

  Mayer bond orders larger than 0.100000
B(  0-C ,  1-C ) :   1.1022 B(  0-C ,  6-C ) :   1.1442 B(  0-C ,  8-N ) :   0.1289
B(  0-C , 16-H ) :   0.1575 B(  0-C , 18-H ) :   0.6703 B(  0-C , 19-H ) :   0.5807
B(  1-C ,  2-C ) :   1.2995 B(  1-C ,  3-H ) :   0.1432 B(  1-C ,  4-H ) :   0.2240
B(  1-C , 16-H ) :   0.7497 B(  1-C , 17-H ) :   0.8358 B(  1-C , 18-H ) :   0.1643
B(  1-C , 19-H ) :   0.1883 B(  2-C ,  3-H ) :   0.8646 B(  2-C ,  4-H ) :   0.7759
B(  2-C ,  5-S ) :   0.9440 B(  2-C , 16-H ) :   0.1445 B(  2-C , 17-H ) :   0.1236
B(  4-H ,  5-S ) :   0.1039 B(  5-S , 13-O ) :   1.6726 B(  5-S , 14-F ) :   0.7439
B(  5-S , 15-O ) :   1.4518 B(  6-C ,  7-C ) :   1.5070 B(  6-C ,  8-N ) :   1.2208
B(  6-C ,  9-H ) :   0.1163 B(  6-C , 10-H ) :  -0.1049 B(  6-C , 12-H ) :   0.1616
B(  6-C , 18-H ) :   0.2240 B(  6-C , 19-H ) :   0.2496 B(  7-C ,  8-N ) :   0.1646
B(  7-C , 11-H ) :   0.9179 B(  7-C , 12-H ) :   0.5455 B(  8-N ,  9-H ) :   0.8652
B(  8-N , 10-H ) :   1.1677 B(  9-H , 10-H ) :  -0.2166 B(  9-H , 15-O ) :   0.2383
B( 16-H , 17-H ) :  -0.1184

FINAL SINGLE POINT ENERGY      -897.898663276079

DIPOLE MOMENT
-------------
                                X             Y             Z
Electronic contribution:      6.45750     -13.08144       7.38651
Nuclear contribution   :     -6.19944      13.70770      -6.43483
                        -----------------------------------------
Total Dipole Moment    :      0.25806       0.62626       0.95168
                        -----------------------------------------
Magnitude (a.u.)       :      1.16811
Magnitude (Debye)      :      2.96910

Rotational constants in cm-1:     0.079903     0.025241     0.022805
Rotational constants in MHz :  2395.439281   756.708181   683.680583

                             ****ORCA TERMINATED NORMALLY****
TOTAL RUN TIME: 0 days 0 hours 1 minutes 20 seconds 165 msec
