                         Program Version 5.0.0 -  RELEASE  -
|  1> !LC-BLYP RIJCOSX def2-SVPD def2/J TightSCF xyzfile
|  2>
|  3> *xyzfile 0 1 D4.xyz
|  4>
|  5> %MaxCore 64000
|  6>
|  7> %pal nprocs 4
|  8> end
|  9>
| 10> %scf
| 11>   MaxIter 150
| 12> end
| 13>
| 14>
| 15>                          ****END OF INPUT****

CARTESIAN COORDINATES (ANGSTROEM)
---------------------------------
  C     -0.461293    2.234686   -4.989619
  C      0.848883    2.667967   -4.302351
  C      2.093434    1.861037   -4.656845
  H      2.444814    2.041567   -5.674990
  H      2.901748    2.137864   -3.980338
  S      1.879644    0.078594   -4.462965
  C     -0.423841    2.398772   -6.474317
  N     -0.959467    3.492647   -7.007401
  C      0.145585    1.486891   -7.203987
  H      0.565371    0.696807   -6.723858
  H      0.220682    1.581768   -8.207520
  H     -1.406243    4.181507   -6.403261
  H     -0.934215    3.681601   -7.999468
  O      3.207574   -0.466111   -4.420259
  F      1.075064   -0.056160   -3.268758
  O      1.131661   -0.319960   -5.679031
  H      0.668432    2.559427   -3.232850
  H      1.034074    3.729426   -4.497081
  H     -1.288884    2.826737   -4.594997
  H     -0.651696    1.186343   -4.756552

 Total Charge           Charge          ....    0
 Multiplicity           Mult            ....    1
 Number of Electrons    NEL             ....   88
 Basis Dimension        Dim             ....  296

ORBITAL ENERGIES
----------------

  NO   OCC          E(Eh)            E(eV)
   0   2.0000     -88.570086     -2410.1146
   1   2.0000     -24.596633      -669.3084
   2   2.0000     -18.977139      -516.3942
   3   2.0000     -18.961820      -515.9774
   4   2.0000     -14.186990      -386.0476
   5   2.0000     -10.144181      -276.0372
   6   2.0000     -10.119326      -275.3609
   7   2.0000     -10.101420      -274.8736
   8   2.0000     -10.098143      -274.7844
   9   2.0000      -9.998353      -272.0690
  10   2.0000      -8.119086      -220.9316
  11   2.0000      -6.158141      -167.5715
  12   2.0000      -6.151236      -167.3836
  13   2.0000      -6.149352      -167.3324
  14   2.0000      -1.460971       -39.7550
  15   2.0000      -1.213303       -33.0156
  16   2.0000      -1.109393       -30.1881
  17   2.0000      -1.019012       -27.7287
  18   2.0000      -0.943971       -25.6868
  19   2.0000      -0.873683       -23.7741
  20   2.0000      -0.828893       -22.5553
  21   2.0000      -0.811813       -22.0906
  22   2.0000      -0.750582       -20.4244
  23   2.0000      -0.709087       -19.2952
  24   2.0000      -0.698424       -19.0051
  25   2.0000      -0.673247       -18.3200
  26   2.0000      -0.660337       -17.9687
  27   2.0000      -0.621962       -16.9245
  28   2.0000      -0.606093       -16.4926
  29   2.0000      -0.588427       -16.0119
  30   2.0000      -0.587195       -15.9784
  31   2.0000      -0.566865       -15.4252
  32   2.0000      -0.550057       -14.9678
  33   2.0000      -0.518463       -14.1081
  34   2.0000      -0.508039       -13.8245
  35   2.0000      -0.500097       -13.6083
  36   2.0000      -0.481355       -13.0983
  37   2.0000      -0.475480       -12.9385
  38   2.0000      -0.444946       -12.1076
  39   2.0000      -0.437170       -11.8960
  40   2.0000      -0.427485       -11.6325
  41   2.0000      -0.423270       -11.5178
  42   2.0000      -0.389448       -10.5974
  43   2.0000      -0.284020        -7.7286
  44   0.0000       0.046096         1.2543
  45   0.0000       0.068979         1.8770
  46   0.0000       0.074460         2.0262
  47   0.0000       0.080379         2.1872
  48   0.0000       0.097148         2.6435

MULLIKEN ATOMIC CHARGES
-----------------------
   0 C :    0.626062
   1 C :    0.359882
   2 C :    0.279019
   3 H :    0.109112
   4 H :   -0.277211
   5 S :    1.257750
   6 C :   -0.075032
   7 N :    0.268949
   8 C :    1.176844
   9 H :   -0.527958
  10 H :   -0.771035
  11 H :   -0.135525
  12 H :   -0.224637
  13 O :   -0.546364
  14 F :   -0.379618
  15 O :   -0.641094
  16 H :    0.044723
  17 H :   -0.302999
  18 H :   -0.261701
  19 H :    0.020834
Sum of atomic charges:    0.0000000

LOEWDIN ATOMIC CHARGES
----------------------
   0 C :    0.012531
   1 C :   -0.031820
   2 C :   -0.038033
   3 H :    0.041239
   4 H :    0.026219
   5 S :    1.109182
   6 C :   -0.247700
   7 N :    0.175579
   8 C :    0.198926
   9 H :   -0.189442
  10 H :   -0.063920
  11 H :   -0.005523
  12 H :    0.002448
  13 O :   -0.429284
  14 F :   -0.231020
  15 O :   -0.440192
  16 H :    0.025961
  17 H :    0.040334
  18 H :    0.026908
  19 H :    0.017606

  Mayer bond orders larger than 0.100000
B(  0-C ,  1-C ) :   1.1115 B(  0-C ,  6-C ) :   1.1352 B(  0-C ,  7-N ) :   0.1428
B(  0-C ,  8-C ) :   0.2266 B(  0-C , 16-H ) :   0.1457 B(  0-C , 18-H ) :   0.6440
B(  0-C , 19-H ) :   0.7621 B(  1-C ,  2-C ) :   1.2983 B(  1-C ,  3-H ) :   0.1385
B(  1-C ,  4-H ) :   0.2129 B(  1-C , 16-H ) :   0.7254 B(  1-C , 17-H ) :   0.8173
B(  1-C , 18-H ) :   0.1919 B(  1-C , 19-H ) :   0.1676 B(  2-C ,  3-H ) :   0.8576
B(  2-C ,  4-H ) :   0.7955 B(  2-C ,  5-S ) :   0.9528 B(  2-C ,  9-H ) :   0.1247
B(  2-C , 15-O ) :   0.1171 B(  2-C , 16-H ) :   0.1396 B(  2-C , 17-H ) :   0.1164
B(  4-H ,  5-S ) :   0.1099 B(  4-H ,  9-H ) :  -0.1404 B(  5-S , 13-O ) :   1.6531
B(  5-S , 14-F ) :   0.7364 B(  5-S , 15-O ) :   1.4871 B(  6-C ,  7-N ) :   1.0924
B(  6-C ,  8-C ) :   1.8642 B(  6-C ,  9-H ) :   0.3437 B(  6-C , 10-H ) :   0.3029
B(  6-C , 12-H ) :  -0.1220 B(  6-C , 18-H ) :   0.2057 B(  6-C , 19-H ) :   0.1223
B(  7-N ,  8-C ) :   0.3377 B(  7-N , 11-H ) :   1.1475 B(  7-N , 12-H ) :   1.3165
B(  8-C ,  9-H ) :   0.4332 B(  8-C , 10-H ) :   0.4299 B(  9-H , 10-H ) :  -0.2733
B(  9-H , 15-O ) :   0.2263 B( 11-H , 12-H ) :  -0.1709 B( 16-H , 17-H ) :  -0.1085

FINAL SINGLE POINT ENERGY      -897.877673209246

DIPOLE MOMENT
-------------
                                X             Y             Z
Electronic contribution:      5.55296     -11.63190       7.32783
Nuclear contribution   :     -6.09390      13.51614      -6.45360
                        -----------------------------------------
Total Dipole Moment    :     -0.54093       1.88424       0.87423
                        -----------------------------------------
Magnitude (a.u.)       :      2.14645
Magnitude (Debye)      :      5.45584

Rotational constants in cm-1:     0.081469     0.024519     0.022336
Rotational constants in MHz :  2442.393231   735.066768   669.628729

                             ****ORCA TERMINATED NORMALLY****
TOTAL RUN TIME: 0 days 0 hours 1 minutes 21 seconds 920 msec
