                         Program Version 5.0.0 -  RELEASE  -
|  1> !B3LYP D3BJ RIJCOSX def2-SVPD def2/J TightSCF
|  2> *xyz -1 1
|  3> C          0.61188        1.65763       -4.50029
|  4> C          1.69499        1.54179       -5.57045
|  5> H          2.69733        1.73466       -5.18400
|  6> H          1.50666        2.27224       -6.35808
|  7> S          1.78029       -0.03313       -6.42874
|  8> O          2.56929        0.21366       -7.60736
|  9> O          0.41688       -0.46297       -6.61859
| 10> C          0.68036        0.65542       -3.34804
| 11> H         -0.35687        1.54923       -4.99113
| 12> H          0.65023        2.67544       -4.09600
| 13> O          2.50513       -0.93326       -5.48257
| 14> H          0.64318       -0.34009       -3.73853
| 15> H         -0.14865        0.81153       -2.68980
| 16> H          1.59447        0.79330       -2.80925
| 17> *
| 18> %MaxCore 64000
| 19>
| 20> %pal nprocs 8
| 21> end
| 22>
| 23> %scf
| 24>   MaxIter 150
| 25> end
| 26>
| 27>
| 28>                          ****END OF INPUT****

CARTESIAN COORDINATES (ANGSTROEM)
---------------------------------
  C      0.611880    1.657630   -4.500290
  C      1.694990    1.541790   -5.570450
  H      2.697330    1.734660   -5.184000
  H      1.506660    2.272240   -6.358080
  S      1.780290   -0.033130   -6.428740
  O      2.569290    0.213660   -7.607360
  O      0.416880   -0.462970   -6.618590
  C      0.680360    0.655420   -3.348040
  H     -0.356870    1.549230   -4.991130
  H      0.650230    2.675440   -4.096000
  O      2.505130   -0.933260   -5.482570
  H      0.643180   -0.340090   -3.738530
  H     -0.148650    0.811530   -2.689800
  H      1.594470    0.793300   -2.809250

 Total Charge           Charge          ....   -1
 Multiplicity           Mult            ....    1
 Number of Electrons    NEL             ....   66
 Basis Dimension        Dim             ....  212

ORBITAL ENERGIES
----------------

  NO   OCC          E(Eh)            E(eV)
   0   2.0000     -88.882671     -2418.6204
   1   2.0000     -18.924772      -514.9692
   2   2.0000     -18.923068      -514.9229
   3   2.0000     -18.904906      -514.4286
   4   2.0000     -10.054135      -273.5869
   5   2.0000     -10.046717      -273.3851
   6   2.0000     -10.035754      -273.0868
   7   2.0000      -7.936428      -215.9612
   8   2.0000      -5.905452      -160.6955
   9   2.0000      -5.905204      -160.6888
  10   2.0000      -5.904644      -160.6735
  11   2.0000      -0.933810       -25.4103
  12   2.0000      -0.798873       -21.7384
  13   2.0000      -0.764582       -20.8053
  14   2.0000      -0.650867       -17.7110
  15   2.0000      -0.563181       -15.3249
  16   2.0000      -0.467865       -12.7313
  17   2.0000      -0.380910       -10.3651
  18   2.0000      -0.332521        -9.0484
  19   2.0000      -0.319429        -8.6921
  20   2.0000      -0.296401        -8.0655
  21   2.0000      -0.282530        -7.6880
  22   2.0000      -0.264078        -7.1859
  23   2.0000      -0.254174        -6.9164
  24   2.0000      -0.225439        -6.1345
  25   2.0000      -0.218660        -5.9500
  26   2.0000      -0.204449        -5.5634
  27   2.0000      -0.154511        -4.2045
  28   2.0000      -0.153665        -4.1814
  29   2.0000      -0.121852        -3.3158
  30   2.0000      -0.113231        -3.0812
  31   2.0000      -0.097260        -2.6466
  32   2.0000      -0.066861        -1.8194
  33   0.0000       0.134693         3.6652
  34   0.0000       0.159792         4.3482
  35   0.0000       0.167817         4.5665
  36   0.0000       0.175944         4.7877
  37   0.0000       0.195719         5.3258

MULLIKEN ATOMIC CHARGES
-----------------------
   0 C :   -0.101227
   1 C :    0.197739
   2 H :   -0.100051
   3 H :   -0.105135
   4 S :    1.321310
   5 O :   -0.816655
   6 O :   -0.800349
   7 C :    1.020233
   8 H :   -0.076807
   9 H :   -0.249601
  10 O :   -0.839101
  11 H :   -0.155216
  12 H :   -0.178091
  13 H :   -0.117049
Sum of atomic charges:   -1.0000000

LOEWDIN ATOMIC CHARGES
----------------------
   0 C :   -0.090021
   1 C :   -0.089463
   2 H :    0.005429
   3 H :   -0.003078
   4 S :    0.860200
   5 O :   -0.571728
   6 O :   -0.566410
   7 C :    0.129155
   8 H :    0.010236
   9 H :    0.002629
  10 O :   -0.598326
  11 H :   -0.029948
  12 H :   -0.036110
  13 H :   -0.022566

  Mayer bond orders larger than 0.100000
B(  0-C ,  1-C ) :   1.2433 B(  0-C ,  2-H ) :   0.1487 B(  0-C ,  3-H ) :   0.1635
B(  0-C ,  7-C ) :   1.2614 B(  0-C ,  8-H ) :   0.8533 B(  0-C ,  9-H ) :   0.8217
B(  0-C , 11-H ) :   0.2540 B(  0-C , 12-H ) :   0.2492 B(  0-C , 13-H ) :   0.2547
B(  1-C ,  2-H ) :   0.8920 B(  1-C ,  3-H ) :   0.8744 B(  1-C ,  4-S ) :   0.9155
B(  1-C ,  8-H ) :   0.1559 B(  1-C ,  9-H ) :   0.1719 B(  4-S ,  5-O ) :   1.3465
B(  4-S ,  6-O ) :   1.2746 B(  4-S , 10-O ) :   1.2321 B(  7-C , 11-H ) :   0.7608
B(  7-C , 12-H ) :   0.6804 B(  7-C , 13-H ) :   0.6974 B( 11-H , 13-H ) :   0.1058

Dispersion correction           -0.022803006
FINAL SINGLE POINT ENERGY      -741.851287054284

DIPOLE MOMENT
-------------
                                X             Y             Z
Electronic contribution:      3.17019      -5.24339      -8.59344
Nuclear contribution   :     -3.81113       6.97418       9.97106
                        -----------------------------------------
Total Dipole Moment    :     -0.64095       1.73079       1.37761
                        -----------------------------------------
Magnitude (a.u.)       :      2.30310
Magnitude (Debye)      :      5.85402

Rotational constants in cm-1:     0.136135     0.055477     0.052562
Rotational constants in MHz :  4081.221574  1663.170947  1575.772362

                             ****ORCA TERMINATED NORMALLY****
TOTAL RUN TIME: 0 days 0 hours 0 minutes 14 seconds 219 msec
