                         Program Version 5.0.0 -  RELEASE  -
|  1> !B3LYP D3BJ RIJCOSX def2-SVPD def2/J TightSCF
|  2> *xyz 1 1
|  3> C          1.96337       -1.74915       -1.89689
|  4> N          2.73849       -2.01517       -3.09711
|  5> C          4.04974       -2.15472       -3.15204
|  6> N          4.65821       -1.98629       -4.31866
|  7> N          4.76423       -2.45444       -2.05049
|  8> H          4.28736       -2.77626       -1.21750
|  9> H          5.75082       -2.65835       -2.12599
| 10> H          2.34518       -1.69027       -3.97145
| 11> H          4.10900       -1.59268       -5.07176
| 12> H          5.64910       -2.15646       -4.42724
| 13> C          2.08852       -0.30091       -1.41520
| 14> H          2.23127       -2.45162       -1.10264
| 15> H          0.93025       -1.97780       -2.15544
| 16> C          1.96899        0.73358       -2.53565
| 17> H          3.05136       -0.16860       -0.91187
| 18> H          1.31650       -0.13623       -0.65725
| 19> H          2.73046        0.55745       -3.26643
| 20> H          2.08619        1.71595       -2.12808
| 21> H          1.00672        0.65098       -2.99620
| 22> *
| 23> %MaxCore 64000
| 24>
| 25> %pal nprocs 8
| 26> end
| 27>
| 28> %scf
| 29>   MaxIter 150
| 30> end
| 31>
| 32>
| 33>                          ****END OF INPUT****

CARTESIAN COORDINATES (ANGSTROEM)
---------------------------------
  C      1.963370   -1.749150   -1.896890
  N      2.738490   -2.015170   -3.097110
  C      4.049740   -2.154720   -3.152040
  N      4.658210   -1.986290   -4.318660
  N      4.764230   -2.454440   -2.050490
  H      4.287360   -2.776260   -1.217500
  H      5.750820   -2.658350   -2.125990
  H      2.345180   -1.690270   -3.971450
  H      4.109000   -1.592680   -5.071760
  H      5.649100   -2.156460   -4.427240
  C      2.088520   -0.300910   -1.415200
  H      2.231270   -2.451620   -1.102640
  H      0.930250   -1.977800   -2.155440
  C      1.968990    0.733580   -2.535650
  H      3.051360   -0.168600   -0.911870
  H      1.316500   -0.136230   -0.657250
  H      2.730460    0.557450   -3.266430
  H      2.086190    1.715950   -2.128080
  H      1.006720    0.650980   -2.996200

 Total Charge           Charge          ....    1
 Multiplicity           Mult            ....    1
 Number of Electrons    NEL             ....   56
 Basis Dimension        Dim             ....  236

ORBITAL ENERGIES
----------------

  NO   OCC          E(Eh)            E(eV)
   0   2.0000     -14.554068      -396.0363
   1   2.0000     -14.551359      -395.9626
   2   2.0000     -14.549986      -395.9252
   3   2.0000     -10.515796      -286.1494
   4   2.0000     -10.385825      -282.6127
   5   2.0000     -10.325656      -280.9754
   6   2.0000     -10.303575      -280.3745
   7   2.0000      -1.207162       -32.8485
   8   2.0000      -1.096227       -29.8299
   9   2.0000      -1.083647       -29.4875
  10   2.0000      -0.933397       -25.3990
  11   2.0000      -0.860443       -23.4139
  12   2.0000      -0.822694       -22.3866
  13   2.0000      -0.783578       -21.3222
  14   2.0000      -0.767628       -20.8882
  15   2.0000      -0.724834       -19.7237
  16   2.0000      -0.694248       -18.8915
  17   2.0000      -0.686627       -18.6841
  18   2.0000      -0.657031       -17.8787
  19   2.0000      -0.625781       -17.0284
  20   2.0000      -0.601114       -16.3571
  21   2.0000      -0.584978       -15.9181
  22   2.0000      -0.549732       -14.9590
  23   2.0000      -0.508136       -13.8271
  24   2.0000      -0.496258       -13.5039
  25   2.0000      -0.484346       -13.1797
  26   2.0000      -0.474079       -12.9003
  27   2.0000      -0.447375       -12.1737
  28   0.0000      -0.171177        -4.6580
  29   0.0000      -0.157397        -4.2830
  30   0.0000      -0.126509        -3.4425
  31   0.0000      -0.113302        -3.0831
  32   0.0000      -0.090380        -2.4594

MULLIKEN ATOMIC CHARGES
-----------------------
   0 C :    0.957902
   1 N :   -0.366341
   2 C :    1.266815
   3 N :    0.023269
   4 N :    0.126632
   5 H :   -0.068586
   6 H :   -0.199394
   7 H :   -0.150216
   8 H :   -0.026349
   9 H :   -0.142590
  10 C :   -0.140190
  11 H :   -0.197344
  12 H :   -0.348492
  13 C :    1.022880
  14 H :   -0.094186
  15 H :   -0.177844
  16 H :   -0.256142
  17 H :   -0.166359
  18 H :   -0.063464
Sum of atomic charges:    1.0000000

LOEWDIN ATOMIC CHARGES
----------------------
   0 C :    0.080400
   1 N :    0.048513
   2 C :   -0.041131
   3 N :    0.272503
   4 N :    0.287434
   5 H :    0.019686
   6 H :    0.034105
   7 H :    0.049634
   8 H :    0.035820
   9 H :    0.041037
  10 C :   -0.038989
  11 H :    0.024029
  12 H :    0.039923
  13 C :    0.144348
  14 H :    0.018054
  15 H :    0.034475
  16 H :   -0.037339
  17 H :   -0.003790
  18 H :   -0.008713

  Mayer bond orders larger than 0.100000
B(  0-C ,  1-N ) :   0.9727 B(  0-C ,  2-C ) :  -0.1019 B(  0-C ,  7-H ) :  -0.1441
B(  0-C , 10-C ) :   1.0784 B(  0-C , 11-H ) :   0.8488 B(  0-C , 12-H ) :   0.6436
B(  0-C , 15-H ) :   0.1268 B(  1-N ,  2-C ) :   1.0818 B(  1-N ,  3-N ) :   0.3083
B(  1-N ,  4-N ) :   0.2026 B(  1-N ,  7-H ) :   1.1987 B(  1-N , 11-H ) :   0.1358
B(  1-N , 12-H ) :   0.2951 B(  2-C ,  3-N ) :   0.8064 B(  2-C ,  4-N ) :   0.9809
B(  2-C ,  5-H ) :  -0.1277 B(  2-C ,  6-H ) :  -0.1729 B(  2-C ,  7-H ) :  -0.2118
B(  2-C ,  8-H ) :  -0.1515 B(  2-C ,  9-H ) :  -0.1756 B(  3-N ,  4-N ) :   0.1597
B(  3-N ,  8-H ) :   1.1484 B(  3-N ,  9-H ) :   1.3056 B(  4-N ,  5-H ) :   1.0932
B(  4-N ,  6-H ) :   1.2991 B(  5-H ,  6-H ) :  -0.2201 B(  8-H ,  9-H ) :  -0.1870
B( 10-C , 11-H ) :   0.1053 B( 10-C , 12-H ) :   0.1453 B( 10-C , 13-C ) :   1.2946
B( 10-C , 14-H ) :   0.8995 B( 10-C , 15-H ) :   0.9036 B( 10-C , 16-H ) :   0.2381
B( 10-C , 17-H ) :   0.2356 B( 10-C , 18-H ) :   0.2308 B( 11-H , 12-H ) :  -0.1288
B( 13-C , 16-H ) :   0.7584 B( 13-C , 17-H ) :   0.7369 B( 13-C , 18-H ) :   0.7058
B( 16-H , 18-H ) :   0.1152

Dispersion correction           -0.026375619
FINAL SINGLE POINT ENERGY      -323.320550368904

DIPOLE MOMENT
-------------
                                X             Y             Z
Electronic contribution:      3.88080      -4.88902      -2.31348
Nuclear contribution   :     -2.72963       4.05673       1.67650
                        -----------------------------------------
Total Dipole Moment    :      1.15117      -0.83229      -0.63698
                        -----------------------------------------
Magnitude (a.u.)       :      1.55681
Magnitude (Debye)      :      3.95709

Rotational constants in cm-1:     0.140891     0.054763     0.048590
Rotational constants in MHz :  4223.814968  1641.764475  1456.690885

                             ****ORCA TERMINATED NORMALLY****
TOTAL RUN TIME: 0 days 0 hours 0 minutes 18 seconds 107 msec
