                         Program Version 5.0.0 -  RELEASE  -
|  1> !B3LYP D3BJ RIJCOSX def2-SVPD def2/J TightSCF xyzfile
|  2>
|  3> *xyzfile 0 1 B.xyz
|  4>
|  5> %MaxCore 64000
|  6>
|  7> %pal nprocs 4
|  8> end
|  9>
| 10> %scf
| 11>   MaxIter 150
| 12> end
| 13>
| 14>
| 15>                          ****END OF INPUT****

CARTESIAN COORDINATES (ANGSTROEM)
---------------------------------
  C      1.963365   -1.749150   -1.896887
  N      2.738490   -2.015170   -3.097113
  C      0.611877    1.657634   -4.500288
  C      1.694991    1.541794   -5.570447
  H      2.697326    1.734659   -5.183996
  H      1.506656    2.272239   -6.358076
  S      1.780287   -0.033128   -6.428739
  C      4.049736   -2.154717   -3.152044
  N      4.658206   -1.986293   -4.318655
  N      4.764231   -2.454435   -2.050491
  H      4.287363   -2.776259   -1.217496
  H      5.750825   -2.658351   -2.125988
  H      2.345176   -1.690274   -3.971447
  H      4.109004   -1.592677   -5.071760
  H      5.649095   -2.156462   -4.427237
  O      2.569287    0.213657   -7.607360
  O      0.416880   -0.462969   -6.618595
  C      2.088520   -0.300912   -1.415204
  H      2.231272   -2.451616   -1.102643
  H      0.930249   -1.977801   -2.155438
  C      0.680356    0.655418   -3.348038
  H     -0.356865    1.549231   -4.991128
  H      0.650228    2.675438   -4.096000
  C      1.968993    0.733582   -2.535654
  H      3.051356   -0.168602   -0.911868
  H      1.316501   -0.136231   -0.657252
  O      2.505129   -0.933263   -5.482570
  H      2.824195    0.624726   -3.208464
  H      2.058919    1.730331   -2.093112
  H      0.542252   -0.344731   -3.766662
  H     -0.174219    0.829692   -2.685182

 Total Charge           Charge          ....    0
 Multiplicity           Mult            ....    1
 Number of Electrons    NEL             ....  120
 Basis Dimension        Dim             ....  432

ORBITAL ENERGIES
----------------

  NO   OCC          E(Eh)            E(eV)
   0   2.0000     -89.029159     -2422.6066
   1   2.0000     -19.079149      -519.1700
   2   2.0000     -19.059222      -518.6278
   3   2.0000     -19.057953      -518.5933
   4   2.0000     -14.418398      -392.3446
   5   2.0000     -14.389113      -391.5477
   6   2.0000     -14.383846      -391.4043
   7   2.0000     -10.365558      -282.0612
   8   2.0000     -10.256272      -279.0874
   9   2.0000     -10.206510      -277.7333
  10   2.0000     -10.187425      -277.2139
  11   2.0000     -10.175596      -276.8920
  12   2.0000     -10.173678      -276.8399
  13   2.0000     -10.172255      -276.8011
  14   2.0000      -8.081756      -219.9158
  15   2.0000      -6.051745      -164.6763
  16   2.0000      -6.050272      -164.6363
  17   2.0000      -6.049448      -164.6138
  18   2.0000      -1.079392       -29.3717
  19   2.0000      -1.056590       -28.7513
  20   2.0000      -0.950317       -25.8594
  21   2.0000      -0.936460       -25.4824
  22   2.0000      -0.933518       -25.4023
  23   2.0000      -0.928658       -25.2701
  24   2.0000      -0.816193       -22.2097
  25   2.0000      -0.777939       -21.1688
  26   2.0000      -0.731166       -19.8960
  27   2.0000      -0.694022       -18.8853
  28   2.0000      -0.668319       -18.1859
  29   2.0000      -0.636315       -17.3150
  30   2.0000      -0.627669       -17.0797
  31   2.0000      -0.595057       -16.1923
  32   2.0000      -0.572197       -15.5703
  33   2.0000      -0.557299       -15.1649
  34   2.0000      -0.544195       -14.8083
  35   2.0000      -0.521335       -14.1862
  36   2.0000      -0.504537       -13.7292
  37   2.0000      -0.483676       -13.1615
  38   2.0000      -0.479116       -13.0374
  39   2.0000      -0.470088       -12.7918
  40   2.0000      -0.456807       -12.4303
  41   2.0000      -0.440905       -11.9976
  42   2.0000      -0.430302       -11.7091
  43   2.0000      -0.419982       -11.4283
  44   2.0000      -0.404558       -11.0086
  45   2.0000      -0.396983       -10.8024
  46   2.0000      -0.380918       -10.3653
  47   2.0000      -0.373331       -10.1589
  48   2.0000      -0.367135        -9.9902
  49   2.0000      -0.339022        -9.2253
  50   2.0000      -0.336236        -9.1494
  51   2.0000      -0.332137        -9.0379
  52   2.0000      -0.317666        -8.6441
  53   2.0000      -0.307317        -8.3625
  54   2.0000      -0.298582        -8.1248
  55   2.0000      -0.298268        -8.1163
  56   2.0000      -0.265021        -7.2116
  57   2.0000      -0.254646        -6.9293
  58   2.0000      -0.247632        -6.7384
  59   2.0000      -0.221262        -6.0208
  60   0.0000      -0.034136        -0.9289
  61   0.0000      -0.025883        -0.7043
  62   0.0000      -0.003002        -0.0817
  63   0.0000       0.021695         0.5903
  64   0.0000       0.028315         0.7705

MULLIKEN ATOMIC CHARGES
-----------------------
   0 C :    1.171764
   1 N :    0.084206
   2 C :    0.630273
   3 C :    0.315332
   4 H :   -0.030195
   5 H :   -0.218950
   6 S :    1.404968
   7 C :    1.202757
   8 N :    0.380803
   9 N :    0.177545
  10 H :   -0.094031
  11 H :   -0.233651
  12 H :   -0.668217
  13 H :   -0.230215
  14 H :   -0.264600
  15 O :   -0.784265
  16 O :   -0.812103
  17 C :    0.608907
  18 H :   -0.549634
  19 H :   -0.194213
  20 C :    0.157201
  21 H :   -0.081177
  22 H :   -0.141045
  23 C :    0.171174
  24 H :   -0.157493
  25 H :   -0.122704
  26 O :   -0.882638
  27 H :   -0.016144
  28 H :   -0.420177
  29 H :   -0.120192
  30 H :   -0.283286
Sum of atomic charges:    0.0000000

LOEWDIN ATOMIC CHARGES
----------------------
   0 C :    0.080916
   1 N :    0.079640
   2 C :   -0.026787
   3 C :   -0.062400
   4 H :    0.004346
   5 H :    0.014185
   6 S :    0.954777
   7 C :   -0.038040
   8 N :    0.287740
   9 N :    0.258854
  10 H :    0.001941
  11 H :    0.015307
  12 H :   -0.069921
  13 H :   -0.061222
  14 H :    0.025072
  15 O :   -0.521283
  16 O :   -0.518420
  17 C :   -0.006164
  18 H :    0.007672
  19 H :    0.030083
  20 C :   -0.019550
  21 H :    0.024329
  22 H :    0.022013
  23 C :   -0.021921
  24 H :    0.011342
  25 H :    0.024026
  26 O :   -0.555326
  27 H :    0.004031
  28 H :    0.025279
  29 H :    0.002890
  30 H :    0.026592

  Mayer bond orders larger than 0.100000
B(  0-C ,  1-N ) :   0.9056 B(  0-C , 12-H ) :  -0.3444 B(  0-C , 17-C ) :   1.0484
B(  0-C , 18-H ) :   0.7865 B(  0-C , 19-H ) :   0.5828 B(  0-C , 23-C ) :   0.1233
B(  0-C , 25-H ) :   0.1295 B(  1-N ,  7-C ) :   1.1182 B(  1-N ,  8-N ) :   0.1190
B(  1-N ,  9-N ) :   0.2217 B(  1-N , 12-H ) :   1.1758 B(  1-N , 18-H ) :   0.1139
B(  1-N , 19-H ) :   0.1905 B(  2-C ,  3-C ) :   1.2153 B(  2-C ,  4-H ) :   0.1200
B(  2-C ,  5-H ) :   0.1920 B(  2-C , 20-C ) :   1.2451 B(  2-C , 21-H ) :   0.5870
B(  2-C , 22-H ) :   0.7089 B(  2-C , 29-H ) :   0.1063 B(  3-C ,  4-H ) :   0.8657
B(  3-C ,  5-H ) :   0.7895 B(  3-C ,  6-S ) :   0.9669 B(  3-C , 21-H ) :   0.1434
B(  3-C , 22-H ) :   0.1672 B(  6-S , 15-O ) :   1.3670 B(  6-S , 16-O ) :   1.2568
B(  6-S , 26-O ) :   1.1000 B(  7-C ,  8-N ) :   0.8780 B(  7-C ,  9-N ) :   0.9157
B(  7-C , 10-H ) :  -0.1279 B(  7-C , 11-H ) :  -0.1355 B(  7-C , 12-H ) :  -0.4550
B(  7-C , 13-H ) :  -0.2145 B(  7-C , 14-H ) :  -0.2313 B(  8-N ,  9-N ) :   0.1460
B(  8-N , 13-H ) :   1.1490 B(  8-N , 14-H ) :   1.3550 B(  9-N , 10-H ) :   1.1002
B(  9-N , 11-H ) :   1.2896 B( 10-H , 11-H ) :  -0.2296 B( 12-H , 19-H ) :   0.1728
B( 12-H , 24-H ) :   0.1092 B( 12-H , 26-O ) :   0.1171 B( 12-H , 27-H ) :   0.1120
B( 12-H , 28-H ) :  -0.1235 B( 13-H , 14-H ) :  -0.2260 B( 13-H , 26-O ) :   0.2411
B( 16-O , 26-O ) :   0.1304 B( 17-C , 18-H ) :   0.1537 B( 17-C , 19-H ) :   0.1071
B( 17-C , 23-C ) :   1.2291 B( 17-C , 24-H ) :   0.6939 B( 17-C , 25-H ) :   0.7803
B( 18-H , 19-H ) :  -0.1734 B( 20-C , 21-H ) :   0.3167 B( 20-C , 22-H ) :   0.1030
B( 20-C , 23-C ) :   1.1842 B( 20-C , 27-H ) :   0.1271 B( 20-C , 28-H ) :   0.1457
B( 20-C , 29-H ) :   0.9129 B( 20-C , 30-H ) :   0.7576 B( 21-H , 22-H ) :  -0.1093
B( 23-C , 24-H ) :   0.2450 B( 23-C , 25-H ) :   0.1418 B( 23-C , 27-H ) :   0.8399
B( 23-C , 28-H ) :   0.8305 B( 23-C , 30-H ) :   0.1515

Dispersion correction           -0.061795612
FINAL SINGLE POINT ENERGY     -1064.146511810142

DIPOLE MOMENT
-------------
                                X             Y             Z
Electronic contribution:      2.23403      -4.93512     -14.17473
Nuclear contribution   :      0.44641       3.59123      19.13564
                        -----------------------------------------
Total Dipole Moment    :      2.68044      -1.34388       4.96091
                        -----------------------------------------
Magnitude (a.u.)       :      5.79667
Magnitude (Debye)      :     14.73396

Rotational constants in cm-1:     0.029186     0.014646     0.011115
Rotational constants in MHz :   874.975540   439.070287   333.231642

                             ****ORCA TERMINATED NORMALLY****
TOTAL RUN TIME: 0 days 0 hours 2 minutes 37 seconds 50 msec
