                         Program Version 5.0.0 -  RELEASE  -
|  1> !B3LYP D3BJ RIJCOSX def2-SVPD def2/J TightSCF
|  2> *xyz 0 1
|  3> C          0.61188        1.65763       -4.50029
|  4> C          1.69499        1.54179       -5.57045
|  5> H          2.69733        1.73466       -5.18400
|  6> H          1.50666        2.27224       -6.35808
|  7> S          1.78029       -0.03313       -6.42874
|  8> F          2.56929        0.21366       -7.60736
|  9> O          0.41688       -0.46297       -6.61859
| 10> C          0.68036        0.65542       -3.34804
| 11> H         -0.35687        1.54923       -4.99113
| 12> H          0.65023        2.67544       -4.09600
| 13> O          2.50513       -0.93326       -5.48257
| 14> H          0.64318       -0.34009       -3.73853
| 15> H         -0.14865        0.81153       -2.68980
| 16> H          1.59447        0.79330       -2.80925
| 17> *
| 18> %MaxCore 64000
| 19>
| 20> %pal nprocs 8
| 21> end
| 22>
| 23> %scf
| 24>   MaxIter 150
| 25> end
| 26>
| 27>
| 28>                          ****END OF INPUT****

CARTESIAN COORDINATES (ANGSTROEM)
---------------------------------
  C      0.611880    1.657630   -4.500290
  C      1.694990    1.541790   -5.570450
  H      2.697330    1.734660   -5.184000
  H      1.506660    2.272240   -6.358080
  S      1.780290   -0.033130   -6.428740
  F      2.569290    0.213660   -7.607360
  O      0.416880   -0.462970   -6.618590
  C      0.680360    0.655420   -3.348040
  H     -0.356870    1.549230   -4.991130
  H      0.650230    2.675440   -4.096000
  O      2.505130   -0.933260   -5.482570
  H      0.643180   -0.340090   -3.738530
  H     -0.148650    0.811530   -2.689800
  H      1.594470    0.793300   -2.809250

 Total Charge           Charge          ....    0
 Multiplicity           Mult            ....    1
 Number of Electrons    NEL             ....   66
 Basis Dimension        Dim             ....  212

ORBITAL ENERGIES
----------------

  NO   OCC          E(Eh)            E(eV)
   0   2.0000     -89.139048     -2425.5968
   1   2.0000     -24.817627      -675.3220
   2   2.0000     -19.156005      -521.2614
   3   2.0000     -19.136149      -520.7211
   4   2.0000     -10.246012      -278.8082
   5   2.0000     -10.212496      -277.8961
   6   2.0000     -10.175279      -276.8834
   7   2.0000      -8.193751      -222.9633
   8   2.0000      -6.166685      -167.8040
   9   2.0000      -6.160412      -167.6333
  10   2.0000      -6.158932      -167.5931
  11   2.0000      -1.380302       -37.5599
  12   2.0000      -1.108016       -30.1506
  13   2.0000      -0.998708       -27.1762
  14   2.0000      -0.827095       -22.5064
  15   2.0000      -0.756494       -20.5852
  16   2.0000      -0.708902       -19.2902
  17   2.0000      -0.635760       -17.2999
  18   2.0000      -0.592606       -16.1256
  19   2.0000      -0.581895       -15.8342
  20   2.0000      -0.556492       -15.1429
  21   2.0000      -0.495267       -13.4769
  22   2.0000      -0.486133       -13.2283
  23   2.0000      -0.457972       -12.4620
  24   2.0000      -0.448605       -12.2071
  25   2.0000      -0.428847       -11.6695
  26   2.0000      -0.389855       -10.6085
  27   2.0000      -0.377968       -10.2850
  28   2.0000      -0.373000       -10.1498
  29   2.0000      -0.357901        -9.7390
  30   2.0000      -0.338533        -9.2120
  31   2.0000      -0.316953        -8.6247
  32   2.0000      -0.305138        -8.3032
  33   0.0000      -0.005688        -0.1548
  34   0.0000       0.013625         0.3707
  35   0.0000       0.033410         0.9091
  36   0.0000       0.035877         0.9763
  37   0.0000       0.046265         1.2589

MULLIKEN ATOMIC CHARGES
-----------------------
   0 C :   -0.103856
   1 C :    0.160790
   2 H :   -0.046830
   3 H :   -0.049128
   4 S :    1.510837
   5 F :   -0.438687
   6 O :   -0.658234
   7 C :    1.034110
   8 H :   -0.060060
   9 H :   -0.218447
  10 O :   -0.699042
  11 H :   -0.174267
  12 H :   -0.154323
  13 H :   -0.102863
Sum of atomic charges:    0.0000000

LOEWDIN ATOMIC CHARGES
----------------------
   0 C :   -0.060213
   1 C :   -0.055255
   2 H :    0.024375
   3 H :    0.013931
   4 S :    1.124655
   5 F :   -0.255797
   6 O :   -0.458343
   7 C :    0.150866
   8 H :    0.024211
   9 H :    0.030058
  10 O :   -0.488252
  11 H :   -0.025176
  12 H :   -0.014590
  13 H :   -0.010469

  Mayer bond orders larger than 0.100000
B(  0-C ,  1-C ) :   1.2967 B(  0-C ,  2-H ) :   0.1415 B(  0-C ,  3-H ) :   0.1738
B(  0-C ,  7-C ) :   1.2803 B(  0-C ,  8-H ) :   0.8521 B(  0-C ,  9-H ) :   0.8242
B(  0-C , 11-H ) :   0.2402 B(  0-C , 12-H ) :   0.2404 B(  0-C , 13-H ) :   0.2466
B(  1-C ,  2-H ) :   0.8957 B(  1-C ,  3-H ) :   0.8335 B(  1-C ,  4-S ) :   0.9510
B(  1-C ,  8-H ) :   0.1511 B(  1-C ,  9-H ) :   0.1648 B(  4-S ,  5-F ) :   0.6802
B(  4-S ,  6-O ) :   1.4823 B(  4-S , 10-O ) :   1.4318 B(  7-C , 11-H ) :   0.7662
B(  7-C , 12-H ) :   0.6857 B(  7-C , 13-H ) :   0.7010

Dispersion correction           -0.022041686
FINAL SINGLE POINT ENERGY      -766.333890263878

DIPOLE MOMENT
-------------
                                X             Y             Z
Electronic contribution:      5.10274      -5.39079     -11.96989
Nuclear contribution   :     -4.93724       7.05784      11.92827
                        -----------------------------------------
Total Dipole Moment    :      0.16550       1.66705      -0.04162
                        -----------------------------------------
Magnitude (a.u.)       :      1.67576
Magnitude (Debye)      :      4.25944

Rotational constants in cm-1:     0.134572     0.053398     0.050578
Rotational constants in MHz :  4034.377338  1600.833917  1516.302250

                             ****ORCA TERMINATED NORMALLY****
TOTAL RUN TIME: 0 days 0 hours 0 minutes 13 seconds 611 msec
