                         Program Version 5.0.0 -  RELEASE  -
|  1> !B3LYP D3BJ RIJCOSX def2-SVPD def2/J TightSCF
|  2> *xyz 0 1
|  3> C          1.96337       -1.74915       -1.89689
|  4> C          2.73849       -2.01517       -3.09711
|  5> C          4.04974       -2.15472       -3.15204
|  6> N          4.65821       -1.98629       -4.31866
|  7> N          4.76423       -2.45444       -2.05049
|  8> H          4.28736       -2.77626       -1.21750
|  9> H          5.75082       -2.65835       -2.12599
| 10> H          2.34518       -1.69027       -3.97145
| 11> H          4.10900       -1.59268       -5.07176
| 12> H          5.64910       -2.15646       -4.42724
| 13> C          2.08852       -0.30091       -1.41520
| 14> H          2.23127       -2.45162       -1.10264
| 15> H          0.93025       -1.97780       -2.15544
| 16> C          1.96899        0.73358       -2.53565
| 17> H          3.05136       -0.16860       -0.91187
| 18> H          1.31650       -0.13623       -0.65725
| 19> H          2.73046        0.55745       -3.26643
| 20> H          2.08619        1.71595       -2.12808
| 21> H          1.00672        0.65098       -2.99620
| 22> *
| 23> %MaxCore 64000
| 24>
| 25> %pal nprocs 8
| 26> end
| 27>
| 28> %scf
| 29>   MaxIter 150
| 30> end
| 31>
| 32>
| 33>                          ****END OF INPUT****

CARTESIAN COORDINATES (ANGSTROEM)
---------------------------------
  C      1.963370   -1.749150   -1.896890
  C      2.738490   -2.015170   -3.097110
  C      4.049740   -2.154720   -3.152040
  N      4.658210   -1.986290   -4.318660
  N      4.764230   -2.454440   -2.050490
  H      4.287360   -2.776260   -1.217500
  H      5.750820   -2.658350   -2.125990
  H      2.345180   -1.690270   -3.971450
  H      4.109000   -1.592680   -5.071760
  H      5.649100   -2.156460   -4.427240
  C      2.088520   -0.300910   -1.415200
  H      2.231270   -2.451620   -1.102640
  H      0.930250   -1.977800   -2.155440
  C      1.968990    0.733580   -2.535650
  H      3.051360   -0.168600   -0.911870
  H      1.316500   -0.136230   -0.657250
  H      2.730460    0.557450   -3.266430
  H      2.086190    1.715950   -2.128080
  H      1.006720    0.650980   -2.996200

 Total Charge           Charge          ....    0
 Multiplicity           Mult            ....    1
 Number of Electrons    NEL             ....   56
 Basis Dimension        Dim             ....  236

ORBITAL ENERGIES
----------------

  NO   OCC          E(Eh)            E(eV)
   0   2.0000     -14.332608      -390.0101
   1   2.0000     -14.330854      -389.9624
   2   2.0000     -10.225734      -278.2564
   3   2.0000     -10.158163      -276.4177
   4   2.0000     -10.155534      -276.3461
   5   2.0000     -10.149743      -276.1886
   6   2.0000     -10.102841      -274.9123
   7   2.0000      -0.951897       -25.9024
   8   2.0000      -0.863197       -23.4888
   9   2.0000      -0.778040       -21.1715
  10   2.0000      -0.712233       -19.3809
  11   2.0000      -0.653807       -17.7910
  12   2.0000      -0.594507       -16.1774
  13   2.0000      -0.565494       -15.3879
  14   2.0000      -0.543627       -14.7929
  15   2.0000      -0.503866       -13.7109
  16   2.0000      -0.475964       -12.9516
  17   2.0000      -0.444009       -12.0821
  18   2.0000      -0.434621       -11.8266
  19   2.0000      -0.407592       -11.0911
  20   2.0000      -0.385831       -10.4990
  21   2.0000      -0.373803       -10.1717
  22   2.0000      -0.356996        -9.7144
  23   2.0000      -0.330735        -8.9998
  24   2.0000      -0.313691        -8.5360
  25   2.0000      -0.308920        -8.4061
  26   2.0000      -0.266362        -7.2481
  27   2.0000      -0.160538        -4.3684
  28   0.0000       0.009826         0.2674
  29   0.0000       0.036613         0.9963
  30   0.0000       0.039901         1.0858
  31   0.0000       0.055616         1.5134
  32   0.0000       0.067982         1.8499

MULLIKEN ATOMIC CHARGES
-----------------------
   0 C :    0.466431
   1 C :   -0.270731
   2 C :    0.714082
   3 N :    0.067083
   4 N :    0.054371
   5 H :   -0.053879
   6 H :   -0.317035
   7 H :   -0.156579
   8 H :   -0.003774
   9 H :   -0.264748
  10 C :   -0.112367
  11 H :   -0.182408
  12 H :   -0.158285
  13 C :    0.992794
  14 H :   -0.119724
  15 H :   -0.161085
  16 H :   -0.246988
  17 H :   -0.160174
  18 H :   -0.086983
Sum of atomic charges:   -0.0000000

LOEWDIN ATOMIC CHARGES
----------------------
   0 C :   -0.057029
   1 C :   -0.045374
   2 C :   -0.220194
   3 N :    0.187671
   4 N :    0.207998
   5 H :   -0.009841
   6 H :   -0.015427
   7 H :   -0.052550
   8 H :    0.004302
   9 H :   -0.009913
  10 C :   -0.064710
  11 H :   -0.000685
  12 H :    0.010868
  13 C :    0.126696
  14 H :    0.009666
  15 H :    0.008525
  16 H :   -0.033940
  17 H :   -0.026457
  18 H :   -0.019608

  Mayer bond orders larger than 0.100000
B(  0-C ,  1-C ) :   1.1986 B(  0-C ,  7-H ) :   0.3599 B(  0-C , 10-C ) :   1.1325
B(  0-C , 11-H ) :   0.7788 B(  0-C , 12-H ) :   0.6580 B(  0-C , 14-H ) :   0.1166
B(  0-C , 15-H ) :   0.1663 B(  1-C ,  2-C ) :   1.7527 B(  1-C ,  3-N ) :   0.2945
B(  1-C ,  4-N ) :   0.2438 B(  1-C ,  7-H ) :   0.5865 B(  1-C , 11-H ) :   0.2680
B(  1-C , 12-H ) :   0.3214 B(  2-C ,  3-N ) :   0.8755 B(  2-C ,  4-N ) :   0.9460
B(  2-C ,  6-H ) :  -0.2115 B(  2-C ,  7-H ) :   0.3646 B(  2-C ,  9-H ) :  -0.1577
B(  2-C , 11-H ) :  -0.1184 B(  3-N ,  4-N ) :   0.1115 B(  3-N ,  8-H ) :   1.1205
B(  3-N ,  9-H ) :   1.3239 B(  4-N ,  5-H ) :   1.0653 B(  4-N ,  6-H ) :   1.3803
B(  5-H ,  6-H ) :  -0.2190 B(  8-H ,  9-H ) :  -0.1873 B( 10-C , 12-H ) :   0.1258
B( 10-C , 13-C ) :   1.2749 B( 10-C , 14-H ) :   0.9116 B( 10-C , 15-H ) :   0.8331
B( 10-C , 16-H ) :   0.2731 B( 10-C , 17-H ) :   0.2495 B( 10-C , 18-H ) :   0.2463
B( 13-C , 16-H ) :   0.7539 B( 13-C , 17-H ) :   0.7039 B( 13-C , 18-H ) :   0.7054
B( 16-H , 18-H ) :   0.1082

Dispersion correction           -0.027435570
FINAL SINGLE POINT ENERGY      -306.847795544897

DIPOLE MOMENT
-------------
                                X             Y             Z
Electronic contribution:      3.83058      -4.06549      -1.73413
Nuclear contribution   :     -2.83106       3.92601       1.57906
                        -----------------------------------------
Total Dipole Moment    :      0.99951      -0.13948      -0.15507
                        -----------------------------------------
Magnitude (a.u.)       :      1.02104
Magnitude (Debye)      :      2.59528

Rotational constants in cm-1:     0.142679     0.055043     0.048600
Rotational constants in MHz :  4277.395781  1650.135877  1456.977167

                             ****ORCA TERMINATED NORMALLY****
TOTAL RUN TIME: 0 days 0 hours 0 minutes 19 seconds 869 msec
