                         Program Version 5.0.0 -  RELEASE  -
|  1> !B3LYP D3BJ RIJCOSX def2-SVPD def2/J TightSCF
|  2> *xyz 0 1
|  3> C          0.61188        1.65763       -4.50029
|  4> C          1.69499        1.54179       -5.57045
|  5> H          2.69733        1.73466       -5.18400
|  6> H          1.50666        2.27224       -6.35808
|  7> S          1.78029       -0.03313       -6.42874
|  8> O          2.56929        0.21366       -7.60736
|  9> F          0.41688       -0.46297       -6.61859
| 10> C          0.68036        0.65542       -3.34804
| 11> H         -0.35687        1.54923       -4.99113
| 12> H          0.65023        2.67544       -4.09600
| 13> O          2.50513       -0.93326       -5.48257
| 14> H          0.64318       -0.34009       -3.73853
| 15> H         -0.14865        0.81153       -2.68980
| 16> H          1.59447        0.79330       -2.80925
| 17> *
| 18> %MaxCore 64000
| 19>
| 20> %pal nprocs 8
| 21> end
| 22>
| 23> %scf
| 24>   MaxIter 150
| 25> end
| 26>
| 27>
| 28>                          ****END OF INPUT****

CARTESIAN COORDINATES (ANGSTROEM)
---------------------------------
  C      0.611880    1.657630   -4.500290
  C      1.694990    1.541790   -5.570450
  H      2.697330    1.734660   -5.184000
  H      1.506660    2.272240   -6.358080
  S      1.780290   -0.033130   -6.428740
  O      2.569290    0.213660   -7.607360
  F      0.416880   -0.462970   -6.618590
  C      0.680360    0.655420   -3.348040
  H     -0.356870    1.549230   -4.991130
  H      0.650230    2.675440   -4.096000
  O      2.505130   -0.933260   -5.482570
  H      0.643180   -0.340090   -3.738530
  H     -0.148650    0.811530   -2.689800
  H      1.594470    0.793300   -2.809250

 Total Charge           Charge          ....    0
 Multiplicity           Mult            ....    1
 Number of Electrons    NEL             ....   66
 Basis Dimension        Dim             ....  212

ORBITAL ENERGIES
----------------

  NO   OCC          E(Eh)            E(eV)
   0   2.0000     -89.138589     -2425.5843
   1   2.0000     -24.817818      -675.3272
   2   2.0000     -19.154707      -521.2261
   3   2.0000     -19.135470      -520.7026
   4   2.0000     -10.245754      -278.8011
   5   2.0000     -10.217768      -278.0396
   6   2.0000     -10.184153      -277.1249
   7   2.0000      -8.193284      -222.9506
   8   2.0000      -6.166440      -167.7974
   9   2.0000      -6.159813      -167.6170
  10   2.0000      -6.158380      -167.5780
  11   2.0000      -1.379243       -37.5311
  12   2.0000      -1.108245       -30.1569
  13   2.0000      -0.997966       -27.1560
  14   2.0000      -0.832105       -22.6427
  15   2.0000      -0.754459       -20.5299
  16   2.0000      -0.713992       -19.4287
  17   2.0000      -0.637911       -17.3585
  18   2.0000      -0.597879       -16.2691
  19   2.0000      -0.591601       -16.0983
  20   2.0000      -0.545503       -14.8439
  21   2.0000      -0.495705       -13.4888
  22   2.0000      -0.486150       -13.2288
  23   2.0000      -0.464258       -12.6331
  24   2.0000      -0.446411       -12.1475
  25   2.0000      -0.437478       -11.9044
  26   2.0000      -0.390792       -10.6340
  27   2.0000      -0.386856       -10.5269
  28   2.0000      -0.381695       -10.3865
  29   2.0000      -0.365640        -9.9496
  30   2.0000      -0.334219        -9.0946
  31   2.0000      -0.317914        -8.6509
  32   2.0000      -0.303161        -8.2494
  33   0.0000      -0.011965        -0.3256
  34   0.0000       0.021076         0.5735
  35   0.0000       0.031166         0.8481
  36   0.0000       0.033055         0.8995
  37   0.0000       0.041520         1.1298

MULLIKEN ATOMIC CHARGES
-----------------------
   0 C :   -0.078654
   1 C :    0.187480
   2 H :   -0.055227
   3 H :   -0.064397
   4 S :    1.458650
   5 O :   -0.662919
   6 F :   -0.407244
   7 C :    1.056389
   8 H :   -0.084966
   9 H :   -0.221108
  10 O :   -0.693616
  11 H :   -0.187242
  12 H :   -0.151715
  13 H :   -0.095432
Sum of atomic charges:    0.0000000

LOEWDIN ATOMIC CHARGES
----------------------
   0 C :   -0.074690
   1 C :   -0.042849
   2 H :    0.036940
   3 H :    0.017958
   4 S :    1.120241
   5 O :   -0.458315
   6 F :   -0.253402
   7 C :    0.146946
   8 H :    0.018439
   9 H :    0.028322
  10 O :   -0.486203
  11 H :   -0.031185
  12 H :   -0.014866
  13 H :   -0.007337

  Mayer bond orders larger than 0.100000
B(  0-C ,  1-C ) :   1.2377 B(  0-C ,  2-H ) :   0.1420 B(  0-C ,  3-H ) :   0.1568
B(  0-C ,  7-C ) :   1.2843 B(  0-C ,  8-H ) :   0.8498 B(  0-C ,  9-H ) :   0.8275
B(  0-C , 11-H ) :   0.2460 B(  0-C , 12-H ) :   0.2401 B(  0-C , 13-H ) :   0.2530
B(  1-C ,  2-H ) :   0.8915 B(  1-C ,  3-H ) :   0.8843 B(  1-C ,  4-S ) :   0.9821
B(  1-C ,  8-H ) :   0.1432 B(  1-C ,  9-H ) :   0.1631 B(  4-S ,  5-O ) :   1.5653
B(  4-S ,  6-F ) :   0.6615 B(  4-S , 10-O ) :   1.4587 B(  7-C , 11-H ) :   0.7531
B(  7-C , 12-H ) :   0.6859 B(  7-C , 13-H ) :   0.7014 B( 11-H , 13-H ) :   0.1109

Dispersion correction           -0.021867794
FINAL SINGLE POINT ENERGY      -766.332896137814

DIPOLE MOMENT
-------------
                                X             Y             Z
Electronic contribution:      1.43368      -6.52315     -10.22466
Nuclear contribution   :     -2.62245       7.78551      10.86491
                        -----------------------------------------
Total Dipole Moment    :     -1.18877       1.26236       0.64025
                        -----------------------------------------
Magnitude (a.u.)       :      1.84842
Magnitude (Debye)      :      4.69831

Rotational constants in cm-1:     0.129509     0.054228     0.052367
Rotational constants in MHz :  3882.596420  1625.701900  1569.934536

                             ****ORCA TERMINATED NORMALLY****
TOTAL RUN TIME: 0 days 0 hours 0 minutes 13 seconds 666 msec
