                         Program Version 5.0.0 -  RELEASE  -
|  1> !B3LYP D3BJ RIJCOSX def2-SVPD def2/J TightSCF
|  2> *xyz 0 1
|  3> C          1.96337       -1.74915       -1.89689
|  4> N          2.73849       -2.01517       -3.09711
|  5> C          4.04974       -2.15472       -3.15204
|  6> C          4.65821       -1.98629       -4.31866
|  7> N          4.76423       -2.45444       -2.05049
|  8> H          4.28736       -2.77626       -1.21750
|  9> H          5.75082       -2.65835       -2.12599
| 10> H          2.34518       -1.69027       -3.97145
| 11> H          4.10900       -1.59268       -5.07176
| 12> H          5.64910       -2.15646       -4.42724
| 13> C          2.08852       -0.30091       -1.41520
| 14> H          2.23127       -2.45162       -1.10264
| 15> H          0.93025       -1.97780       -2.15544
| 16> C          1.96899        0.73358       -2.53565
| 17> H          3.05136       -0.16860       -0.91187
| 18> H          1.31650       -0.13623       -0.65725
| 19> H          2.73046        0.55745       -3.26643
| 20> H          2.08619        1.71595       -2.12808
| 21> H          1.00672        0.65098       -2.99620
| 22> *
| 23> %MaxCore 64000
| 24>
| 25> %pal nprocs 8
| 26> end
| 27>
| 28> %scf
| 29>   MaxIter 150
| 30> end
| 31>
| 32>
| 33>                          ****END OF INPUT****

CARTESIAN COORDINATES (ANGSTROEM)
---------------------------------
  C      1.963370   -1.749150   -1.896890
  N      2.738490   -2.015170   -3.097110
  C      4.049740   -2.154720   -3.152040
  C      4.658210   -1.986290   -4.318660
  N      4.764230   -2.454440   -2.050490
  H      4.287360   -2.776260   -1.217500
  H      5.750820   -2.658350   -2.125990
  H      2.345180   -1.690270   -3.971450
  H      4.109000   -1.592680   -5.071760
  H      5.649100   -2.156460   -4.427240
  C      2.088520   -0.300910   -1.415200
  H      2.231270   -2.451620   -1.102640
  H      0.930250   -1.977800   -2.155440
  C      1.968990    0.733580   -2.535650
  H      3.051360   -0.168600   -0.911870
  H      1.316500   -0.136230   -0.657250
  H      2.730460    0.557450   -3.266430
  H      2.086190    1.715950   -2.128080
  H      1.006720    0.650980   -2.996200

 Total Charge           Charge          ....    0
 Multiplicity           Mult            ....    1
 Number of Electrons    NEL             ....   56
 Basis Dimension        Dim             ....  236

ORBITAL ENERGIES
----------------

  NO   OCC          E(Eh)            E(eV)
   0   2.0000     -14.330423      -389.9506
   1   2.0000     -14.327372      -389.8676
   2   2.0000     -10.226625      -278.2806
   3   2.0000     -10.220258      -278.1074
   4   2.0000     -10.181093      -277.0416
   5   2.0000     -10.168786      -276.7067
   6   2.0000     -10.096401      -274.7370
   7   2.0000      -0.959990       -26.1226
   8   2.0000      -0.875351       -23.8195
   9   2.0000      -0.779634       -21.2149
  10   2.0000      -0.718903       -19.5623
  11   2.0000      -0.664724       -18.0881
  12   2.0000      -0.606649       -16.5078
  13   2.0000      -0.583801       -15.8860
  14   2.0000      -0.533719       -14.5232
  15   2.0000      -0.494572       -13.4580
  16   2.0000      -0.481631       -13.1059
  17   2.0000      -0.457073       -12.4376
  18   2.0000      -0.444481       -12.0949
  19   2.0000      -0.405354       -11.0303
  20   2.0000      -0.393111       -10.6971
  21   2.0000      -0.391963       -10.6659
  22   2.0000      -0.372515       -10.1366
  23   2.0000      -0.352135        -9.5821
  24   2.0000      -0.350244        -9.5306
  25   2.0000      -0.338318        -9.2061
  26   2.0000      -0.254105        -6.9146
  27   2.0000      -0.163698        -4.4544
  28   0.0000       0.010288         0.2800
  29   0.0000       0.030657         0.8342
  30   0.0000       0.040749         1.1088
  31   0.0000       0.046885         1.2758
  32   0.0000       0.070991         1.9318

MULLIKEN ATOMIC CHARGES
-----------------------
   0 C :    0.983660
   1 N :   -0.308607
   2 C :    0.592979
   3 C :    0.536071
   4 N :    0.238888
   5 H :   -0.158530
   6 H :   -0.231488
   7 H :   -0.179998
   8 H :   -0.323592
   9 H :   -0.538901
  10 C :   -0.170485
  11 H :   -0.231302
  12 H :   -0.399513
  13 C :    1.013387
  14 H :   -0.081454
  15 H :   -0.237884
  16 H :   -0.231692
  17 H :   -0.189083
  18 H :   -0.082456
Sum of atomic charges:    0.0000000

LOEWDIN ATOMIC CHARGES
----------------------
   0 C :    0.050907
   1 N :   -0.012024
   2 C :   -0.242039
   3 C :    0.153501
   4 N :    0.206373
   5 H :   -0.025728
   6 H :    0.002321
   7 H :    0.026587
   8 H :   -0.104922
   9 H :   -0.103717
  10 C :   -0.057873
  11 H :    0.006191
  12 H :    0.017049
  13 C :    0.131980
  14 H :    0.011305
  15 H :    0.012119
  16 H :   -0.030401
  17 H :   -0.021291
  18 H :   -0.020340

  Mayer bond orders larger than 0.100000
B(  0-C ,  1-N ) :   0.9390 B(  0-C ,  7-H ) :  -0.1467 B(  0-C , 10-C ) :   1.0576
B(  0-C , 11-H ) :   0.8394 B(  0-C , 12-H ) :   0.6277 B(  0-C , 15-H ) :   0.1319
B(  1-N ,  2-C ) :   1.0961 B(  1-N ,  3-C ) :   0.2832 B(  1-N ,  4-N ) :   0.1395
B(  1-N ,  7-H ) :   1.1305 B(  1-N , 11-H ) :   0.1571 B(  1-N , 12-H ) :   0.3023
B(  2-C ,  3-C ) :   1.2736 B(  2-C ,  4-N ) :   1.0314 B(  2-C ,  6-H ) :  -0.1204
B(  2-C ,  7-H ) :  -0.1353 B(  2-C ,  8-H ) :   0.1155 B(  2-C ,  9-H ) :   0.1747
B(  3-C ,  4-N ) :   0.2163 B(  3-C ,  8-H ) :   0.8300 B(  3-C ,  9-H ) :   0.6813
B(  4-N ,  5-H ) :   1.0465 B(  4-N ,  6-H ) :   1.2594 B(  4-N , 11-H ) :   0.1017
B(  5-H ,  6-H ) :  -0.2132 B( 10-C , 11-H ) :   0.1044 B( 10-C , 12-H ) :   0.1576
B( 10-C , 13-C ) :   1.2864 B( 10-C , 14-H ) :   0.8988 B( 10-C , 15-H ) :   0.9295
B( 10-C , 16-H ) :   0.2417 B( 10-C , 17-H ) :   0.2398 B( 10-C , 18-H ) :   0.2358
B( 11-H , 12-H ) :  -0.1359 B( 13-C , 16-H ) :   0.7718 B( 13-C , 17-H ) :   0.7195
B( 13-C , 18-H ) :   0.7055 B( 16-H , 18-H ) :   0.1161

Dispersion correction           -0.027126722
FINAL SINGLE POINT ENERGY      -306.843867426672

DIPOLE MOMENT
-------------
                                X             Y             Z
Electronic contribution:      1.94383      -3.92579      -0.43286
Nuclear contribution   :     -2.41054       3.93233       1.31148
                        -----------------------------------------
Total Dipole Moment    :     -0.46671       0.00655       0.87862
                        -----------------------------------------
Magnitude (a.u.)       :      0.99490
Magnitude (Debye)      :      2.52884

Rotational constants in cm-1:     0.144008     0.056232     0.050126
Rotational constants in MHz :  4317.255215  1685.791221  1502.728769

                             ****ORCA TERMINATED NORMALLY****
TOTAL RUN TIME: 0 days 0 hours 0 minutes 17 seconds 376 msec
