                         Program Version 5.0.0 -  RELEASE  -
|  1> !B3LYP D3BJ RIJCOSX def2-SVPD def2/J TightSCF
|  2> *xyz 0 1
|  3> C          0.61188        1.65763       -4.50029
|  4> C          1.69499        1.54179       -5.57045
|  5> H          2.69733        1.73466       -5.18400
|  6> H          1.50666        2.27224       -6.35808
|  7> S          1.78029       -0.03313       -6.42874
|  8> O          2.56929        0.21366       -7.60736
|  9> O          0.41688       -0.46297       -6.61859
| 10> C          0.68036        0.65542       -3.34804
| 11> H         -0.35687        1.54923       -4.99113
| 12> H          0.65023        2.67544       -4.09600
| 13> F          2.50513       -0.93326       -5.48257
| 14> H          0.64318       -0.34009       -3.73853
| 15> H         -0.14865        0.81153       -2.68980
| 16> H          1.59447        0.79330       -2.80925
| 17> *
| 18> %MaxCore 64000
| 19>
| 20> %pal nprocs 8
| 21> end
| 22>
| 23> %scf
| 24>   MaxIter 150
| 25> end
| 26>
| 27>
| 28>                          ****END OF INPUT****

CARTESIAN COORDINATES (ANGSTROEM)
---------------------------------
  C      0.611880    1.657630   -4.500290
  C      1.694990    1.541790   -5.570450
  H      2.697330    1.734660   -5.184000
  H      1.506660    2.272240   -6.358080
  S      1.780290   -0.033130   -6.428740
  O      2.569290    0.213660   -7.607360
  O      0.416880   -0.462970   -6.618590
  C      0.680360    0.655420   -3.348040
  H     -0.356870    1.549230   -4.991130
  H      0.650230    2.675440   -4.096000
  F      2.505130   -0.933260   -5.482570
  H      0.643180   -0.340090   -3.738530
  H     -0.148650    0.811530   -2.689800
  H      1.594470    0.793300   -2.809250

 Total Charge           Charge          ....    0
 Multiplicity           Mult            ....    1
 Number of Electrons    NEL             ....   66
 Basis Dimension        Dim             ....  212

ORBITAL ENERGIES
----------------

  NO   OCC          E(Eh)            E(eV)
   0   2.0000     -89.136351     -2425.5234
   1   2.0000     -24.790064      -674.5719
   2   2.0000     -19.155013      -521.2344
   3   2.0000     -19.154120      -521.2101
   4   2.0000     -10.244704      -278.7726
   5   2.0000     -10.213313      -277.9184
   6   2.0000     -10.188384      -277.2400
   7   2.0000      -8.190863      -222.8847
   8   2.0000      -6.163666      -167.7219
   9   2.0000      -6.157764      -167.5613
  10   2.0000      -6.156238      -167.5198
  11   2.0000      -1.334665       -36.3181
  12   2.0000      -1.119549       -30.4645
  13   2.0000      -1.026433       -27.9307
  14   2.0000      -0.829569       -22.5737
  15   2.0000      -0.749398       -20.3922
  16   2.0000      -0.697152       -18.9705
  17   2.0000      -0.634417       -17.2634
  18   2.0000      -0.569352       -15.4929
  19   2.0000      -0.560662       -15.2564
  20   2.0000      -0.550533       -14.9808
  21   2.0000      -0.498914       -13.5761
  22   2.0000      -0.481713       -13.1081
  23   2.0000      -0.463286       -12.6067
  24   2.0000      -0.455205       -12.3867
  25   2.0000      -0.440278       -11.9806
  26   2.0000      -0.398302       -10.8383
  27   2.0000      -0.389244       -10.5919
  28   2.0000      -0.376719       -10.2510
  29   2.0000      -0.364977        -9.9315
  30   2.0000      -0.343947        -9.3593
  31   2.0000      -0.333449        -9.0736
  32   2.0000      -0.325185        -8.8487
  33   0.0000      -0.003886        -0.1057
  34   0.0000       0.021530         0.5859
  35   0.0000       0.029356         0.7988
  36   0.0000       0.033405         0.9090
  37   0.0000       0.045314         1.2330

MULLIKEN ATOMIC CHARGES
-----------------------
   0 C :   -0.053390
   1 C :    0.162532
   2 H :   -0.043922
   3 H :   -0.055868
   4 S :    1.462778
   5 O :   -0.674822
   6 O :   -0.671326
   7 C :    1.023259
   8 H :   -0.058331
   9 H :   -0.216854
  10 F :   -0.418751
  11 H :   -0.204177
  12 H :   -0.148831
  13 H :   -0.102297
Sum of atomic charges:    0.0000000

LOEWDIN ATOMIC CHARGES
----------------------
   0 C :   -0.069704
   1 C :   -0.045347
   2 H :    0.023175
   3 H :    0.028868
   4 S :    1.114803
   5 O :   -0.459486
   6 O :   -0.456887
   7 C :    0.145773
   8 H :    0.024611
   9 H :    0.028414
  10 F :   -0.279842
  11 H :   -0.028831
  12 H :   -0.012461
  13 H :   -0.013086

  Mayer bond orders larger than 0.100000
B(  0-C ,  1-C ) :   1.2782 B(  0-C ,  2-H ) :   0.1467 B(  0-C ,  3-H ) :   0.1508
B(  0-C ,  7-C ) :   1.2779 B(  0-C ,  8-H ) :   0.8572 B(  0-C ,  9-H ) :   0.8148
B(  0-C , 11-H ) :   0.2374 B(  0-C , 12-H ) :   0.2379 B(  0-C , 13-H ) :   0.2456
B(  1-C ,  2-H ) :   0.8923 B(  1-C ,  3-H ) :   0.8652 B(  1-C ,  4-S ) :   0.9803
B(  1-C ,  8-H ) :   0.1550 B(  1-C ,  9-H ) :   0.1651 B(  4-S ,  5-O ) :   1.5597
B(  4-S ,  6-O ) :   1.5046 B(  4-S , 10-F ) :   0.5969 B(  7-C , 11-H ) :   0.7608
B(  7-C , 12-H ) :   0.6965 B(  7-C , 13-H ) :   0.7052

Dispersion correction           -0.021875199
FINAL SINGLE POINT ENERGY      -766.357497721075

DIPOLE MOMENT
-------------
                                X             Y             Z
Electronic contribution:      4.98054      -7.34109      -8.27171
Nuclear contribution   :     -4.86824       8.29128       9.64318
                        -----------------------------------------
Total Dipole Moment    :      0.11230       0.95019       1.37148
                        -----------------------------------------
Magnitude (a.u.)       :      1.67225
Magnitude (Debye)      :      4.25053

Rotational constants in cm-1:     0.129339     0.055092     0.051542
Rotational constants in MHz :  3877.477482  1651.602611  1545.182728

                             ****ORCA TERMINATED NORMALLY****
TOTAL RUN TIME: 0 days 0 hours 0 minutes 13 seconds 529 msec
