                         Program Version 5.0.0 -  RELEASE  -
|  1> !B3LYP D3BJ RIJCOSX def2-SVPD def2/J TightSCF
|  2> *xyz 0 1
|  3> C          1.96337       -1.74915       -1.89689
|  4> N          2.73849       -2.01517       -3.09711
|  5> C          4.04974       -2.15472       -3.15204
|  6> N          4.65821       -1.98629       -4.31866
|  7> C          4.76423       -2.45444       -2.05049
|  8> H          4.28736       -2.77626       -1.21750
|  9> H          5.75082       -2.65835       -2.12599
| 10> H          2.34518       -1.69027       -3.97145
| 11> H          4.10900       -1.59268       -5.07176
| 12> H          5.64910       -2.15646       -4.42724
| 13> C          2.08852       -0.30091       -1.41520
| 14> H          2.23127       -2.45162       -1.10264
| 15> H          0.93025       -1.97780       -2.15544
| 16> C          1.96899        0.73358       -2.53565
| 17> H          3.05136       -0.16860       -0.91187
| 18> H          1.31650       -0.13623       -0.65725
| 19> H          2.73046        0.55745       -3.26643
| 20> H          2.08619        1.71595       -2.12808
| 21> H          1.00672        0.65098       -2.99620
| 22> *
| 23> %MaxCore 64000
| 24>
| 25> %pal nprocs 8
| 26> end
| 27>
| 28> %scf
| 29>   MaxIter 150
| 30> end
| 31>
| 32>
| 33>                          ****END OF INPUT****

CARTESIAN COORDINATES (ANGSTROEM)
---------------------------------
  C      1.963370   -1.749150   -1.896890
  N      2.738490   -2.015170   -3.097110
  C      4.049740   -2.154720   -3.152040
  N      4.658210   -1.986290   -4.318660
  C      4.764230   -2.454440   -2.050490
  H      4.287360   -2.776260   -1.217500
  H      5.750820   -2.658350   -2.125990
  H      2.345180   -1.690270   -3.971450
  H      4.109000   -1.592680   -5.071760
  H      5.649100   -2.156460   -4.427240
  C      2.088520   -0.300910   -1.415200
  H      2.231270   -2.451620   -1.102640
  H      0.930250   -1.977800   -2.155440
  C      1.968990    0.733580   -2.535650
  H      3.051360   -0.168600   -0.911870
  H      1.316500   -0.136230   -0.657250
  H      2.730460    0.557450   -3.266430
  H      2.086190    1.715950   -2.128080
  H      1.006720    0.650980   -2.996200

 Total Charge           Charge          ....    0
 Multiplicity           Mult            ....    1
 Number of Electrons    NEL             ....   56
 Basis Dimension        Dim             ....  236

ORBITAL ENERGIES
----------------

  NO   OCC          E(Eh)            E(eV)
   0   2.0000     -14.332938      -390.0191
   1   2.0000     -14.331310      -389.9748
   2   2.0000     -10.228142      -278.3219
   3   2.0000     -10.214297      -277.9452
   4   2.0000     -10.175505      -276.8896
   5   2.0000     -10.168441      -276.6973
   6   2.0000     -10.096091      -274.7286
   7   2.0000      -0.965812       -26.2811
   8   2.0000      -0.879577       -23.9345
   9   2.0000      -0.770241       -20.9593
  10   2.0000      -0.704455       -19.1692
  11   2.0000      -0.686439       -18.6789
  12   2.0000      -0.604599       -16.4520
  13   2.0000      -0.551588       -15.0095
  14   2.0000      -0.547021       -14.8852
  15   2.0000      -0.524083       -14.2610
  16   2.0000      -0.473647       -12.8886
  17   2.0000      -0.451009       -12.2726
  18   2.0000      -0.439107       -11.9487
  19   2.0000      -0.404597       -11.0096
  20   2.0000      -0.394321       -10.7300
  21   2.0000      -0.382779       -10.4160
  22   2.0000      -0.370110       -10.0712
  23   2.0000      -0.351767        -9.5721
  24   2.0000      -0.347700        -9.4614
  25   2.0000      -0.331672        -9.0253
  26   2.0000      -0.252095        -6.8598
  27   2.0000      -0.164592        -4.4788
  28   0.0000       0.006596         0.1795
  29   0.0000       0.033109         0.9010
  30   0.0000       0.043320         1.1788
  31   0.0000       0.048692         1.3250
  32   0.0000       0.065176         1.7735

MULLIKEN ATOMIC CHARGES
-----------------------
   0 C :    0.937639
   1 N :   -0.329160
   2 C :    0.660749
   3 N :    0.138426
   4 C :    0.529708
   5 H :   -0.141589
   6 H :   -0.708612
   7 H :   -0.273070
   8 H :   -0.141385
   9 H :   -0.176189
  10 C :   -0.133207
  11 H :   -0.099264
  12 H :   -0.423878
  13 C :    1.007982
  14 H :   -0.132053
  15 H :   -0.207271
  16 H :   -0.243227
  17 H :   -0.185892
  18 H :   -0.079705
Sum of atomic charges:    0.0000000

LOEWDIN ATOMIC CHARGES
----------------------
   0 C :    0.059873
   1 N :   -0.015050
   2 C :   -0.244143
   3 N :    0.192726
   4 C :    0.168325
   5 H :   -0.115954
   6 H :   -0.110140
   7 H :    0.013199
   8 H :   -0.012565
   9 H :    0.009255
  10 C :   -0.051585
  11 H :    0.014772
  12 H :    0.016923
  13 C :    0.127228
  14 H :    0.012055
  15 H :    0.014589
  16 H :   -0.035643
  17 H :   -0.021727
  18 H :   -0.022138

  Mayer bond orders larger than 0.100000
B(  0-C ,  1-N ) :   0.9284 B(  0-C ,  4-C ) :   0.1102 B(  0-C ,  7-H ) :  -0.1438
B(  0-C , 10-C ) :   1.0330 B(  0-C , 11-H ) :   0.8446 B(  0-C , 12-H ) :   0.7008
B(  0-C , 14-H ) :   0.1105 B(  0-C , 15-H ) :   0.1275 B(  1-N ,  2-C ) :   0.9682
B(  1-N ,  3-N ) :   0.2058 B(  1-N ,  4-C ) :   0.3812 B(  1-N ,  7-H ) :   1.2071
B(  1-N , 12-H ) :   0.2410 B(  2-C ,  3-N ) :   0.8725 B(  2-C ,  4-C ) :   1.5447
B(  2-C ,  5-H ) :   0.2882 B(  2-C ,  6-H ) :   0.1561 B(  2-C ,  7-H ) :  -0.1985
B(  2-C ,  9-H ) :  -0.1219 B(  3-N ,  4-C ) :   0.2340 B(  3-N ,  8-H ) :   1.1376
B(  3-N ,  9-H ) :   1.2810 B(  4-C ,  5-H ) :   0.5776 B(  4-C ,  6-H ) :   0.7991
B(  5-H , 11-H ) :   0.1289 B(  8-H ,  9-H ) :  -0.1725 B( 10-C , 12-H ) :   0.1534
B( 10-C , 13-C ) :   1.2774 B( 10-C , 14-H ) :   0.9208 B( 10-C , 15-H ) :   0.8985
B( 10-C , 16-H ) :   0.2496 B( 10-C , 17-H ) :   0.2396 B( 10-C , 18-H ) :   0.2382
B( 11-H , 12-H ) :  -0.1812 B( 13-C , 16-H ) :   0.7683 B( 13-C , 17-H ) :   0.7199
B( 13-C , 18-H ) :   0.7027 B( 16-H , 18-H ) :   0.1102

Dispersion correction           -0.027244633
FINAL SINGLE POINT ENERGY      -306.842949023105

DIPOLE MOMENT
-------------
                                X             Y             Z
Electronic contribution:      1.87206      -3.42102      -2.61189
Nuclear contribution   :     -2.38731       3.82978       1.80833
                        -----------------------------------------
Total Dipole Moment    :     -0.51525       0.40877      -0.80356
                        -----------------------------------------
Magnitude (a.u.)       :      1.03840
Magnitude (Debye)      :      2.63941

Rotational constants in cm-1:     0.144922     0.055791     0.049560
Rotational constants in MHz :  4344.653038  1672.561873  1485.775629

                             ****ORCA TERMINATED NORMALLY****
TOTAL RUN TIME: 0 days 0 hours 0 minutes 18 seconds 498 msec
