                         Program Version 5.0.0 -  RELEASE  -
|  1> !B3LYP D3BJ RIJCOSX def2-SVPD def2/J TightSCF xyzfile
|  2>
|  3> *xyzfile 0 1 D2.xyz
|  4>
|  5> %MaxCore 64000
|  6>
|  7> %pal nprocs 4
|  8> end
|  9>
| 10> %scf
| 11>   MaxIter 150
| 12> end
| 13>
| 14>
| 15>                          ****END OF INPUT****

CARTESIAN COORDINATES (ANGSTROEM)
---------------------------------
  C      1.963365   -1.749150   -1.896887
  N      2.738490   -2.015170   -3.097113
  C      0.611877    1.657634   -4.500288
  C      1.694991    1.541794   -5.570447
  H      2.697326    1.734659   -5.183996
  H      1.506656    2.272239   -6.358076
  S      1.780287   -0.033128   -6.428739
  C      4.049736   -2.154717   -3.152044
  C      4.658206   -1.986293   -4.318655
  N      4.764231   -2.454435   -2.050491
  H      4.287363   -2.776259   -1.217496
  H      5.750825   -2.658351   -2.125988
  H      2.345176   -1.690274   -3.971447
  H      4.109004   -1.592677   -5.071760
  H      5.649095   -2.156462   -4.427237
  F      2.569287    0.213657   -7.607360
  O      0.416880   -0.462969   -6.618595
  C      2.088520   -0.300912   -1.415204
  H      2.231272   -2.451616   -1.102643
  H      0.930249   -1.977801   -2.155438
  C      0.680356    0.655418   -3.348038
  H     -0.356865    1.549231   -4.991128
  H      0.650228    2.675438   -4.096000
  C      1.968993    0.733582   -2.535654
  H      3.051356   -0.168602   -0.911868
  H      1.316501   -0.136231   -0.657252
  O      2.505129   -0.933263   -5.482570
  H      2.824195    0.624726   -3.208464
  H      2.058919    1.730331   -2.093112
  H      0.542252   -0.344731   -3.766662
  H     -0.174219    0.829692   -2.685182

 Total Charge           Charge          ....    0
 Multiplicity           Mult            ....    1
 Number of Electrons    NEL             ....  120
 Basis Dimension        Dim             ....  432

ORBITAL ENERGIES
----------------

  NO   OCC          E(Eh)            E(eV)
   0   2.0000     -89.152582     -2425.9651
   1   2.0000     -24.827497      -675.5905
   2   2.0000     -19.165946      -521.5319
   3   2.0000     -19.149705      -521.0900
   4   2.0000     -14.311689      -389.4408
   5   2.0000     -14.295134      -388.9904
   6   2.0000     -10.252302      -278.9793
   7   2.0000     -10.216580      -278.0073
   8   2.0000     -10.205508      -277.7060
   9   2.0000     -10.202400      -277.6214
  10   2.0000     -10.190578      -277.2997
  11   2.0000     -10.180576      -277.0276
  12   2.0000     -10.175167      -276.8804
  13   2.0000     -10.065228      -273.8888
  14   2.0000      -8.206038      -223.2977
  15   2.0000      -6.178918      -168.1369
  16   2.0000      -6.172976      -167.9752
  17   2.0000      -6.171234      -167.9278
  18   2.0000      -1.389437       -37.8085
  19   2.0000      -1.120354       -30.4864
  20   2.0000      -1.016207       -27.6524
  21   2.0000      -0.936750       -25.4903
  22   2.0000      -0.855749       -23.2861
  23   2.0000      -0.838828       -22.8257
  24   2.0000      -0.789169       -21.4744
  25   2.0000      -0.757845       -20.6220
  26   2.0000      -0.721993       -19.6464
  27   2.0000      -0.693670       -18.8757
  28   2.0000      -0.656326       -17.8595
  29   2.0000      -0.625685       -17.0258
  30   2.0000      -0.607472       -16.5301
  31   2.0000      -0.593650       -16.1540
  32   2.0000      -0.589479       -16.0405
  33   2.0000      -0.563543       -15.3348
  34   2.0000      -0.557395       -15.1675
  35   2.0000      -0.516330       -14.0500
  36   2.0000      -0.504510       -13.7284
  37   2.0000      -0.501157       -13.6372
  38   2.0000      -0.477678       -12.9983
  39   2.0000      -0.476836       -12.9754
  40   2.0000      -0.468012       -12.7352
  41   2.0000      -0.459110       -12.4930
  42   2.0000      -0.441238       -12.0067
  43   2.0000      -0.433642       -11.8000
  44   2.0000      -0.418404       -11.3853
  45   2.0000      -0.402411       -10.9502
  46   2.0000      -0.388607       -10.5745
  47   2.0000      -0.386100       -10.5063
  48   2.0000      -0.374028       -10.1778
  49   2.0000      -0.363524        -9.8920
  50   2.0000      -0.357705        -9.7337
  51   2.0000      -0.355269        -9.6674
  52   2.0000      -0.348874        -9.4934
  53   2.0000      -0.334648        -9.1062
  54   2.0000      -0.331016        -9.0074
  55   2.0000      -0.325508        -8.8575
  56   2.0000      -0.322398        -8.7729
  57   2.0000      -0.304090        -8.2747
  58   2.0000      -0.232559        -6.3282
  59   2.0000      -0.139945        -3.8081
  60   0.0000      -0.009797        -0.2666
  61   0.0000       0.006608         0.1798
  62   0.0000       0.021432         0.5832
  63   0.0000       0.024615         0.6698
  64   0.0000       0.037979         1.0335

MULLIKEN ATOMIC CHARGES
-----------------------
   0 C :    1.161014
   1 N :    0.088943
   2 C :    0.597561
   3 C :    0.254178
   4 H :    0.046429
   5 H :   -0.169540
   6 S :    1.666678
   7 C :    0.632988
   8 C :    0.808514
   9 N :    0.288223
  10 H :   -0.115730
  11 H :   -0.254562
  12 H :   -0.658161
  13 H :   -0.354942
  14 H :   -0.767377
  15 F :   -0.474303
  16 O :   -0.701181
  17 C :    0.584419
  18 H :   -0.534474
  19 H :   -0.245831
  20 C :    0.173578
  21 H :   -0.082860
  22 H :   -0.122605
  23 C :    0.187192
  24 H :   -0.117376
  25 H :   -0.190035
  26 O :   -0.858200
  27 H :    0.007865
  28 H :   -0.434254
  29 H :   -0.141523
  30 H :   -0.274630
Sum of atomic charges:   -0.0000000

LOEWDIN ATOMIC CHARGES
----------------------
   0 C :    0.063517
   1 N :    0.015502
   2 C :   -0.012393
   3 C :   -0.038851
   4 H :    0.021258
   5 H :    0.016257
   6 S :    1.195021
   7 C :   -0.222394
   8 C :    0.171526
   9 N :    0.200199
  10 H :   -0.030562
  11 H :   -0.002379
  12 H :   -0.073834
  13 H :   -0.169836
  14 H :   -0.106103
  15 F :   -0.238620
  16 O :   -0.443897
  17 C :   -0.009163
  18 H :    0.003041
  19 H :    0.013475
  20 C :   -0.015228
  21 H :    0.027018
  22 H :    0.036042
  23 C :   -0.020135
  24 H :    0.014271
  25 H :    0.013826
  26 O :   -0.473617
  27 H :    0.007417
  28 H :    0.021127
  29 H :    0.005899
  30 H :    0.031616

  Mayer bond orders larger than 0.100000
B(  0-C ,  1-N ) :   0.9296 B(  0-C , 12-H ) :  -0.3436 B(  0-C , 17-C ) :   1.0408
B(  0-C , 18-H ) :   0.7882 B(  0-C , 19-H ) :   0.5585 B(  0-C , 23-C ) :   0.1323
B(  0-C , 25-H ) :   0.1360 B(  1-N ,  7-C ) :   1.0523 B(  1-N ,  8-C ) :   0.2261
B(  1-N ,  9-N ) :   0.2221 B(  1-N , 12-H ) :   1.0555 B(  1-N , 18-H ) :   0.1073
B(  1-N , 19-H ) :   0.1549 B(  2-C ,  3-C ) :   1.2701 B(  2-C ,  4-H ) :   0.1183
B(  2-C ,  5-H ) :   0.2172 B(  2-C , 20-C ) :   1.2357 B(  2-C , 21-H ) :   0.5990
B(  2-C , 22-H ) :   0.7157 B(  3-C ,  4-H ) :   0.8610 B(  3-C ,  5-H ) :   0.7395
B(  3-C ,  6-S ) :   1.0084 B(  3-C , 21-H ) :   0.1289 B(  3-C , 22-H ) :   0.1715
B(  6-S , 15-F ) :   0.5977 B(  6-S , 16-O ) :   1.4446 B(  6-S , 26-O ) :   1.3309
B(  7-C ,  8-C ) :   1.3299 B(  7-C ,  9-N ) :   0.9715 B(  7-C , 11-H ) :  -0.1357
B(  7-C , 12-H ) :  -0.3473 B(  7-C , 13-H ) :   0.1582 B(  7-C , 14-H ) :   0.2571
B(  8-C ,  9-N ) :   0.2862 B(  8-C , 13-H ) :   0.5003 B(  8-C , 14-H ) :   0.5651
B(  9-N , 10-H ) :   0.9656 B(  9-N , 11-H ) :   1.2698 B(  9-N , 18-H ) :   0.1072
B( 10-H , 11-H ) :  -0.2196 B( 12-H , 13-H ) :  -0.1006 B( 12-H , 19-H ) :   0.2098
B( 12-H , 24-H ) :   0.1466 B( 12-H , 27-H ) :   0.1181 B( 12-H , 28-H ) :  -0.1178
B( 13-H , 14-H ) :  -0.2139 B( 13-H , 26-O ) :   0.2467 B( 16-O , 26-O ) :   0.1562
B( 17-C , 18-H ) :   0.1426 B( 17-C , 19-H ) :   0.1170 B( 17-C , 23-C ) :   1.2315
B( 17-C , 24-H ) :   0.6923 B( 17-C , 25-H ) :   0.8171 B( 18-H , 19-H ) :  -0.1793
B( 20-C , 21-H ) :   0.3166 B( 20-C , 22-H ) :   0.1013 B( 20-C , 23-C ) :   1.1624
B( 20-C , 27-H ) :   0.1213 B( 20-C , 28-H ) :   0.1442 B( 20-C , 29-H ) :   0.9218
B( 20-C , 30-H ) :   0.7654 B( 21-H , 22-H ) :  -0.1107 B( 23-C , 24-H ) :   0.2487
B( 23-C , 25-H ) :   0.1410 B( 23-C , 27-H ) :   0.8412 B( 23-C , 28-H ) :   0.8285
B( 23-C , 29-H ) :   0.1059 B( 23-C , 30-H ) :   0.1430 B( 24-H , 25-H ) :  -0.1118

Dispersion correction           -0.061940682
FINAL SINGLE POINT ENERGY     -1071.982120713252

DIPOLE MOMENT
-------------
                                X             Y             Z
Electronic contribution:     -0.89035      -0.79018     -22.47425
Nuclear contribution   :      0.43347       2.59110      22.83150
                        -----------------------------------------
Total Dipole Moment    :     -0.45689       1.80092       0.35725
                        -----------------------------------------
Magnitude (a.u.)       :      1.89201
Magnitude (Debye)      :      4.80911

Rotational constants in cm-1:     0.029257     0.014415     0.010996
Rotational constants in MHz :   877.098782   432.159206   329.643335

                             ****ORCA TERMINATED NORMALLY****
TOTAL RUN TIME: 0 days 0 hours 2 minutes 57 seconds 530 msec
