                         Program Version 5.0.0 -  RELEASE  -
|  1> !B3LYP D3BJ RIJCOSX def2-SVPD def2/J TightSCF xyzfile
|  2>
|  3> *xyzfile 0 1 D5.xyz
|  4>
|  5> %MaxCore 64000
|  6>
|  7> %pal nprocs 4
|  8> end
|  9>
| 10> %scf
| 11>   MaxIter 150
| 12> end
| 13>
| 14>
| 15>                          ****END OF INPUT****

CARTESIAN COORDINATES (ANGSTROEM)
---------------------------------
  C      1.963365   -1.749150   -1.896887
  N      2.738490   -2.015170   -3.097113
  C      0.611877    1.657634   -4.500288
  C      1.694991    1.541794   -5.570447
  H      2.697326    1.734659   -5.183996
  H      1.506656    2.272239   -6.358076
  S      1.780287   -0.033128   -6.428739
  C      4.049736   -2.154717   -3.152044
  C      4.658206   -1.986293   -4.318655
  N      4.764231   -2.454435   -2.050491
  H      4.287363   -2.776259   -1.217496
  H      5.750825   -2.658351   -2.125988
  H      2.345176   -1.690274   -3.971447
  H      4.109004   -1.592677   -5.071760
  H      5.649095   -2.156462   -4.427237
  O      2.569287    0.213657   -7.607360
  F      0.416880   -0.462969   -6.618595
  C      2.088520   -0.300912   -1.415204
  H      2.231272   -2.451616   -1.102643
  H      0.930249   -1.977801   -2.155438
  C      0.680356    0.655418   -3.348038
  H     -0.356865    1.549231   -4.991128
  H      0.650228    2.675438   -4.096000
  C      1.968993    0.733582   -2.535654
  H      3.051356   -0.168602   -0.911868
  H      1.316501   -0.136231   -0.657252
  O      2.505129   -0.933263   -5.482570
  H      2.824195    0.624726   -3.208464
  H      2.058919    1.730331   -2.093112
  H      0.542252   -0.344731   -3.766662
  H     -0.174219    0.829692   -2.685182

 Total Charge           Charge          ....    0
 Multiplicity           Mult            ....    1
 Number of Electrons    NEL             ....  120
 Basis Dimension        Dim             ....  432

ORBITAL ENERGIES
----------------

  NO   OCC          E(Eh)            E(eV)
   0   2.0000     -89.151442     -2425.9341
   1   2.0000     -24.827111      -675.5800
   2   2.0000     -19.164665      -521.4970
   3   2.0000     -19.150545      -521.1128
   4   2.0000     -14.311746      -389.4424
   5   2.0000     -14.295237      -388.9932
   6   2.0000     -10.251624      -278.9609
   7   2.0000     -10.221077      -278.1296
   8   2.0000     -10.208214      -277.7796
   9   2.0000     -10.202034      -277.6114
  10   2.0000     -10.198738      -277.5218
  11   2.0000     -10.184858      -277.1441
  12   2.0000     -10.178187      -276.9625
  13   2.0000     -10.065247      -273.8893
  14   2.0000      -8.204948      -223.2680
  15   2.0000      -6.178154      -168.1161
  16   2.0000      -6.171665      -167.9395
  17   2.0000      -6.170059      -167.8959
  18   2.0000      -1.388173       -37.7741
  19   2.0000      -1.120373       -30.4869
  20   2.0000      -1.016035       -27.6477
  21   2.0000      -0.937213       -25.5029
  22   2.0000      -0.856515       -23.3069
  23   2.0000      -0.843572       -22.9548
  24   2.0000      -0.790842       -21.5199
  25   2.0000      -0.756497       -20.5853
  26   2.0000      -0.724753       -19.7215
  27   2.0000      -0.696570       -18.9546
  28   2.0000      -0.657412       -17.8891
  29   2.0000      -0.628593       -17.1049
  30   2.0000      -0.606769       -16.5110
  31   2.0000      -0.604687       -16.4544
  32   2.0000      -0.590058       -16.0563
  33   2.0000      -0.568242       -15.4627
  34   2.0000      -0.549827       -14.9615
  35   2.0000      -0.517409       -14.0794
  36   2.0000      -0.504021       -13.7151
  37   2.0000      -0.497883       -13.5481
  38   2.0000      -0.482634       -13.1331
  39   2.0000      -0.475049       -12.9267
  40   2.0000      -0.471533       -12.8311
  41   2.0000      -0.460959       -12.5433
  42   2.0000      -0.445487       -12.1223
  43   2.0000      -0.433601       -11.7989
  44   2.0000      -0.426235       -11.5984
  45   2.0000      -0.400902       -10.9091
  46   2.0000      -0.397277       -10.8105
  47   2.0000      -0.389921       -10.6103
  48   2.0000      -0.379975       -10.3396
  49   2.0000      -0.365072        -9.9341
  50   2.0000      -0.362310        -9.8590
  51   2.0000      -0.353154        -9.6098
  52   2.0000      -0.341610        -9.2957
  53   2.0000      -0.335627        -9.1329
  54   2.0000      -0.332564        -9.0495
  55   2.0000      -0.328855        -8.9486
  56   2.0000      -0.322061        -8.7637
  57   2.0000      -0.311269        -8.4701
  58   2.0000      -0.233233        -6.3466
  59   2.0000      -0.139720        -3.8020
  60   0.0000      -0.015222        -0.4142
  61   0.0000       0.013291         0.3617
  62   0.0000       0.017125         0.4660
  63   0.0000       0.021935         0.5969
  64   0.0000       0.034655         0.9430

MULLIKEN ATOMIC CHARGES
-----------------------
   0 C :    1.167758
   1 N :    0.091320
   2 C :    0.640983
   3 C :    0.277355
   4 H :    0.015696
   5 H :   -0.180087
   6 S :    1.558306
   7 C :    0.635456
   8 C :    0.811695
   9 N :    0.286209
  10 H :   -0.114829
  11 H :   -0.254163
  12 H :   -0.655213
  13 H :   -0.353410
  14 H :   -0.763861
  15 O :   -0.653509
  16 F :   -0.468081
  17 C :    0.579483
  18 H :   -0.530375
  19 H :   -0.263439
  20 C :    0.201079
  21 H :   -0.105391
  22 H :   -0.128074
  23 C :    0.168303
  24 H :   -0.119324
  25 H :   -0.185449
  26 O :   -0.836473
  27 H :    0.018208
  28 H :   -0.429583
  29 H :   -0.134242
  30 H :   -0.276352
Sum of atomic charges:   -0.0000000

LOEWDIN ATOMIC CHARGES
----------------------
   0 C :    0.061866
   1 N :    0.012225
   2 C :   -0.027844
   3 C :   -0.027030
   4 H :    0.033318
   5 H :    0.020219
   6 S :    1.189319
   7 C :   -0.223230
   8 C :    0.177473
   9 N :    0.199851
  10 H :   -0.031135
  11 H :   -0.002051
  12 H :   -0.079976
  13 H :   -0.161849
  14 H :   -0.103203
  15 O :   -0.435182
  16 F :   -0.244288
  17 C :   -0.008762
  18 H :    0.003011
  19 H :    0.011190
  20 C :   -0.021570
  21 H :    0.021327
  22 H :    0.034098
  23 C :   -0.017529
  24 H :    0.015238
  25 H :    0.013639
  26 O :   -0.472168
  27 H :    0.009331
  28 H :    0.022631
  29 H :    0.000091
  30 H :    0.030988

  Mayer bond orders larger than 0.100000
B(  0-C ,  1-N ) :   0.9217 B(  0-C , 12-H ) :  -0.3455 B(  0-C , 17-C ) :   1.0394
B(  0-C , 18-H ) :   0.7858 B(  0-C , 19-H ) :   0.5590 B(  0-C , 23-C ) :   0.1333
B(  0-C , 25-H ) :   0.1367 B(  1-N ,  7-C ) :   1.0487 B(  1-N ,  8-C ) :   0.2280
B(  1-N ,  9-N ) :   0.2231 B(  1-N , 12-H ) :   1.0551 B(  1-N , 18-H ) :   0.1069
B(  1-N , 19-H ) :   0.1589 B(  2-C ,  3-C ) :   1.2267 B(  2-C ,  4-H ) :   0.1125
B(  2-C ,  5-H ) :   0.1921 B(  2-C , 20-C ) :   1.2356 B(  2-C , 21-H ) :   0.5825
B(  2-C , 22-H ) :   0.7162 B(  3-C ,  4-H ) :   0.8752 B(  3-C ,  5-H ) :   0.8038
B(  3-C ,  6-S ) :   1.0285 B(  3-C , 21-H ) :   0.1263 B(  3-C , 22-H ) :   0.1643
B(  6-S , 15-O ) :   1.5733 B(  6-S , 16-F ) :   0.5391 B(  6-S , 26-O ) :   1.3670
B(  7-C ,  8-C ) :   1.3277 B(  7-C ,  9-N ) :   0.9709 B(  7-C , 11-H ) :  -0.1367
B(  7-C , 12-H ) :  -0.3445 B(  7-C , 13-H ) :   0.1538 B(  7-C , 14-H ) :   0.2552
B(  8-C ,  9-N ) :   0.2869 B(  8-C , 13-H ) :   0.5073 B(  8-C , 14-H ) :   0.5670
B(  9-N , 10-H ) :   0.9647 B(  9-N , 11-H ) :   1.2689 B(  9-N , 18-H ) :   0.1083
B( 10-H , 11-H ) :  -0.2196 B( 12-H , 13-H ) :  -0.1025 B( 12-H , 19-H ) :   0.2009
B( 12-H , 24-H ) :   0.1475 B( 12-H , 27-H ) :   0.1164 B( 12-H , 28-H ) :  -0.1157
B( 13-H , 14-H ) :  -0.2119 B( 13-H , 26-O ) :   0.2449 B( 16-F , 26-O ) :   0.1605
B( 17-C , 18-H ) :   0.1432 B( 17-C , 19-H ) :   0.1176 B( 17-C , 23-C ) :   1.2313
B( 17-C , 24-H ) :   0.6932 B( 17-C , 25-H ) :   0.8179 B( 18-H , 19-H ) :  -0.1782
B( 20-C , 21-H ) :   0.3143 B( 20-C , 23-C ) :   1.1755 B( 20-C , 27-H ) :   0.1235
B( 20-C , 28-H ) :   0.1395 B( 20-C , 29-H ) :   0.9030 B( 20-C , 30-H ) :   0.7649
B( 21-H , 22-H ) :  -0.1252 B( 23-C , 24-H ) :   0.2462 B( 23-C , 25-H ) :   0.1410
B( 23-C , 27-H ) :   0.8383 B( 23-C , 28-H ) :   0.8307 B( 23-C , 29-H ) :   0.1200
B( 23-C , 30-H ) :   0.1413 B( 24-H , 25-H ) :  -0.1107

Dispersion correction           -0.061755687
FINAL SINGLE POINT ENERGY     -1071.981437379796

DIPOLE MOMENT
-------------
                                X             Y             Z
Electronic contribution:     -4.61465      -1.96399     -20.69792
Nuclear contribution   :      2.89225       3.36404      21.70199
                        -----------------------------------------
Total Dipole Moment    :     -1.72240       1.40005       1.00407
                        -----------------------------------------
Magnitude (a.u.)       :      2.43617
Magnitude (Debye)      :      6.19225

Rotational constants in cm-1:     0.029431     0.014408     0.011084
Rotational constants in MHz :   882.306106   431.946714   332.288152

                             ****ORCA TERMINATED NORMALLY****
TOTAL RUN TIME: 0 days 0 hours 3 minutes 18 seconds 354 msec
