                         Program Version 5.0.0 -  RELEASE  -
|  1> !B3LYP D3BJ RIJCOSX def2-SVPD def2/J TightSCF xyzfile
|  2>
|  3> *xyzfile 0 1 D9.xyz
|  4>
|  5> %MaxCore 64000
|  6>
|  7> %pal nprocs 4
|  8> end
|  9>
| 10> %scf
| 11>   MaxIter 150
| 12> end
| 13>
| 14>
| 15>                          ****END OF INPUT****

CARTESIAN COORDINATES (ANGSTROEM)
---------------------------------
  C      1.963365   -1.749150   -1.896887
  N      2.738490   -2.015170   -3.097113
  C      0.611877    1.657634   -4.500288
  C      1.694991    1.541794   -5.570447
  H      2.697326    1.734659   -5.183996
  H      1.506656    2.272239   -6.358076
  S      1.780287   -0.033128   -6.428739
  C      4.049736   -2.154717   -3.152044
  N      4.658206   -1.986293   -4.318655
  C      4.764231   -2.454435   -2.050491
  H      4.287363   -2.776259   -1.217496
  H      5.750825   -2.658351   -2.125988
  H      2.345176   -1.690274   -3.971447
  H      4.109004   -1.592677   -5.071760
  H      5.649095   -2.156462   -4.427237
  O      2.569287    0.213657   -7.607360
  O      0.416880   -0.462969   -6.618595
  C      2.088520   -0.300912   -1.415204
  H      2.231272   -2.451616   -1.102643
  H      0.930249   -1.977801   -2.155438
  C      0.680356    0.655418   -3.348038
  H     -0.356865    1.549231   -4.991128
  H      0.650228    2.675438   -4.096000
  C      1.968993    0.733582   -2.535654
  H      3.051356   -0.168602   -0.911868
  H      1.316501   -0.136231   -0.657252
  F      2.505129   -0.933263   -5.482570
  H      2.824195    0.624726   -3.208464
  H      2.058919    1.730331   -2.093112
  H      0.542252   -0.344731   -3.766662
  H     -0.174219    0.829692   -2.685182

 Total Charge           Charge          ....    0
 Multiplicity           Mult            ....    1
 Number of Electrons    NEL             ....  120
 Basis Dimension        Dim             ....  432

ORBITAL ENERGIES
----------------

  NO   OCC          E(Eh)            E(eV)
   0   2.0000     -89.155416     -2426.0422
   1   2.0000     -24.824016      -675.4958
   2   2.0000     -19.172177      -521.7015
   3   2.0000     -19.171823      -521.6918
   4   2.0000     -14.327807      -389.8795
   5   2.0000     -14.326185      -389.8353
   6   2.0000     -10.256400      -279.0908
   7   2.0000     -10.226752      -278.2841
   8   2.0000     -10.219884      -278.0972
   9   2.0000     -10.216931      -278.0168
  10   2.0000     -10.203432      -277.6495
  11   2.0000     -10.194312      -277.4013
  12   2.0000     -10.183652      -277.1113
  13   2.0000     -10.094915      -274.6966
  14   2.0000      -8.209217      -223.3841
  15   2.0000      -6.182442      -168.2328
  16   2.0000      -6.175936      -168.0558
  17   2.0000      -6.174343      -168.0124
  18   2.0000      -1.371197       -37.3122
  19   2.0000      -1.138913       -30.9914
  20   2.0000      -1.043301       -28.3897
  21   2.0000      -0.965584       -26.2749
  22   2.0000      -0.879557       -23.9340
  23   2.0000      -0.846602       -23.0372
  24   2.0000      -0.797713       -21.7069
  25   2.0000      -0.763402       -20.7732
  26   2.0000      -0.733541       -19.9607
  27   2.0000      -0.695037       -18.9129
  28   2.0000      -0.690623       -18.7928
  29   2.0000      -0.640046       -17.4165
  30   2.0000      -0.609300       -16.5799
  31   2.0000      -0.603253       -16.4154
  32   2.0000      -0.586624       -15.9629
  33   2.0000      -0.568288       -15.4639
  34   2.0000      -0.547905       -14.9092
  35   2.0000      -0.542214       -14.7544
  36   2.0000      -0.520185       -14.1550
  37   2.0000      -0.510628       -13.8949
  38   2.0000      -0.503173       -13.6920
  39   2.0000      -0.488168       -13.2837
  40   2.0000      -0.476886       -12.9767
  41   2.0000      -0.466627       -12.6976
  42   2.0000      -0.449359       -12.2277
  43   2.0000      -0.442213       -12.0332
  44   2.0000      -0.431705       -11.7473
  45   2.0000      -0.414421       -11.2770
  46   2.0000      -0.403991       -10.9932
  47   2.0000      -0.402453       -10.9513
  48   2.0000      -0.385471       -10.4892
  49   2.0000      -0.375224       -10.2104
  50   2.0000      -0.373960       -10.1760
  51   2.0000      -0.367883       -10.0106
  52   2.0000      -0.361064        -9.8250
  53   2.0000      -0.350943        -9.5497
  54   2.0000      -0.346073        -9.4171
  55   2.0000      -0.343319        -9.3422
  56   2.0000      -0.339870        -9.2483
  57   2.0000      -0.331389        -9.0176
  58   2.0000      -0.250907        -6.8275
  59   2.0000      -0.164002        -4.4627
  60   0.0000      -0.012755        -0.3471
  61   0.0000       0.009970         0.2713
  62   0.0000       0.012960         0.3527
  63   0.0000       0.017743         0.4828
  64   0.0000       0.029467         0.8019

MULLIKEN ATOMIC CHARGES
-----------------------
   0 C :    1.128681
   1 N :    0.218610
   2 C :    0.664125
   3 C :    0.267414
   4 H :    0.059100
   5 H :   -0.249172
   6 S :    1.556992
   7 C :    0.656901
   8 N :    0.574751
   9 C :    0.552898
  10 H :   -0.058301
  11 H :   -0.769039
  12 H :   -0.879465
  13 H :   -0.409722
  14 H :   -0.262603
  15 O :   -0.670761
  16 O :   -0.710851
  17 C :    0.621051
  18 H :   -0.411973
  19 H :   -0.269286
  20 C :    0.160801
  21 H :   -0.091752
  22 H :   -0.118619
  23 C :    0.159655
  24 H :   -0.193077
  25 H :   -0.129806
  26 F :   -0.551640
  27 H :   -0.030370
  28 H :   -0.391419
  29 H :   -0.185797
  30 H :   -0.237325
Sum of atomic charges:   -0.0000000

LOEWDIN ATOMIC CHARGES
----------------------
   0 C :    0.073834
   1 N :    0.008245
   2 C :   -0.022216
   3 C :   -0.031348
   4 H :    0.018858
   5 H :    0.031398
   6 S :    1.143591
   7 C :   -0.226181
   8 N :    0.212589
   9 C :    0.167581
  10 H :   -0.116583
  11 H :   -0.109854
  12 H :   -0.058467
  13 H :   -0.065437
  14 H :    0.013869
  15 O :   -0.442933
  16 O :   -0.440495
  17 C :   -0.001584
  18 H :    0.014724
  19 H :    0.015277
  20 C :   -0.019695
  21 H :    0.027585
  22 H :    0.034810
  23 C :   -0.024560
  24 H :    0.016369
  25 H :    0.019409
  26 F :   -0.300859
  27 H :    0.002129
  28 H :    0.024789
  29 H :    0.000680
  30 H :    0.034475

  Mayer bond orders larger than 0.100000
B(  0-C ,  1-N ) :   0.9543 B(  0-C ,  7-C ) :  -0.1044 B(  0-C , 12-H ) :  -0.3681
B(  0-C , 17-C ) :   1.0089 B(  0-C , 18-H ) :   0.8166 B(  0-C , 19-H ) :   0.6378
B(  0-C , 23-C ) :   0.1220 B(  0-C , 25-H ) :   0.1085 B(  1-N ,  7-C ) :   0.9272
B(  1-N ,  9-C ) :   0.4895 B(  1-N , 12-H ) :   0.8999 B(  1-N , 19-H ) :   0.1781
B(  2-C ,  3-C ) :   1.2226 B(  2-C ,  4-H ) :   0.1348 B(  2-C ,  5-H ) :   0.1940
B(  2-C , 20-C ) :   1.2370 B(  2-C , 21-H ) :   0.5950 B(  2-C , 22-H ) :   0.7015
B(  2-C , 29-H ) :   0.1002 B(  3-C ,  4-H ) :   0.8702 B(  3-C ,  5-H ) :   0.7411
B(  3-C ,  6-S ) :   1.0322 B(  3-C , 21-H ) :   0.1417 B(  3-C , 22-H ) :   0.1517
B(  5-H ,  6-S ) :   0.1130 B(  6-S , 15-O ) :   1.5176 B(  6-S , 16-O ) :   1.4436
B(  6-S , 26-F ) :   0.5845 B(  7-C ,  8-N ) :   0.8471 B(  7-C ,  9-C ) :   1.4183
B(  7-C , 10-H ) :   0.3482 B(  7-C , 11-H ) :   0.2463 B(  7-C , 12-H ) :  -0.3703
B(  7-C , 14-H ) :  -0.1827 B(  8-N ,  9-C ) :   0.2558 B(  8-N , 13-H ) :   1.0116
B(  8-N , 14-H ) :   1.2846 B(  9-C , 10-H ) :   0.5347 B(  9-C , 11-H ) :   0.6718
B(  9-C , 12-H ) :  -0.1326 B( 10-H , 18-H ) :   0.1564 B( 10-H , 19-H ) :  -0.1105
B( 12-H , 19-H ) :   0.1149 B( 12-H , 27-H ) :   0.1109 B( 13-H , 14-H ) :  -0.1787
B( 13-H , 26-F ) :   0.2547 B( 16-O , 26-F ) :   0.1061 B( 17-C , 18-H ) :   0.1093
B( 17-C , 19-H ) :   0.1088 B( 17-C , 23-C ) :   1.2143 B( 17-C , 24-H ) :   0.7283
B( 17-C , 25-H ) :   0.7817 B( 17-C , 27-H ) :   0.1198 B( 18-H , 19-H ) :  -0.2338
B( 20-C , 21-H ) :   0.3166 B( 20-C , 22-H ) :   0.1029 B( 20-C , 23-C ) :   1.1803
B( 20-C , 27-H ) :   0.1103 B( 20-C , 28-H ) :   0.1669 B( 20-C , 29-H ) :   0.9206
B( 20-C , 30-H ) :   0.7530 B( 21-H , 22-H ) :  -0.1090 B( 23-C , 24-H ) :   0.2595
B( 23-C , 25-H ) :   0.1477 B( 23-C , 27-H ) :   0.8255 B( 23-C , 28-H ) :   0.8272
B( 23-C , 30-H ) :   0.1625 B( 24-H , 25-H ) :  -0.1144

Dispersion correction           -0.061102030
FINAL SINGLE POINT ENERGY     -1072.003303542956

DIPOLE MOMENT
-------------
                                X             Y             Z
Electronic contribution:     -1.05521      -2.35220     -20.30471
Nuclear contribution   :      0.52036       3.84122      20.69523
                        -----------------------------------------
Total Dipole Moment    :     -0.53485       1.48902       0.39051
                        -----------------------------------------
Magnitude (a.u.)       :      1.62965
Magnitude (Debye)      :      4.14223

Rotational constants in cm-1:     0.029184     0.014996     0.011314
Rotational constants in MHz :   874.907122   449.569665   339.178205

                             ****ORCA TERMINATED NORMALLY****
TOTAL RUN TIME: 0 days 0 hours 2 minutes 49 seconds 449 msec
