                         Program Version 5.0.0 -  RELEASE  -
|  1> !TPSS D3BJ RIJCOSX def2-SVP def2/J TightSCF
|  2> *xyz -1 1
|  3> C         -0.77894        0.17197        1.80496
|  4> C         -0.60249       -0.63071        0.49224
|  5> H          0.31389       -1.24035        0.60350
|  6> H         -0.36383        0.11332       -0.30117
|  7> O         -1.71206       -1.37684        0.20253
|  8> H         -1.65864        0.77733        1.73736
|  9> H          0.07466        0.79896        1.95712
| 10> H         -0.87474       -0.50584        2.62734
| 11> *
| 12> %MaxCore 64000
| 13>
| 14> %pal nprocs 4
| 15> end
| 16>
| 17> %scf
| 18>   MaxIter 150
| 19> end
| 20>
| 21>
| 22>                          ****END OF INPUT****

CARTESIAN COORDINATES (ANGSTROEM)
---------------------------------
  C     -0.778940    0.171970    1.804960
  C     -0.602490   -0.630710    0.492240
  H      0.313890   -1.240350    0.603500
  H     -0.363830    0.113320   -0.301170
  O     -1.712060   -1.376840    0.202530
  H     -1.658640    0.777330    1.737360
  H      0.074660    0.798960    1.957120
  H     -0.874740   -0.505840    2.627340

 Total Charge           Charge          ....   -1
 Multiplicity           Mult            ....    1
 Number of Electrons    NEL             ....   26
 Basis Dimension        Dim             ....   67

ORBITAL ENERGIES
----------------

  NO   OCC          E(Eh)            E(eV)
   0   2.0000     -18.513112      -503.7674
   1   2.0000      -9.789306      -266.3806
   2   2.0000      -9.776438      -266.0304
   3   2.0000      -0.563307       -15.3284
   4   2.0000      -0.441220       -12.0062
   5   2.0000      -0.297035        -8.0827
   6   2.0000      -0.189329        -5.1519
   7   2.0000      -0.167303        -4.5526
   8   2.0000      -0.110530        -3.0077
   9   2.0000      -0.099926        -2.7191
  10   2.0000      -0.027612        -0.7514
  11   2.0000       0.115817         3.1516
  12   2.0000       0.118628         3.2280
  13   0.0000       0.244159         6.6439
  14   0.0000       0.285067         7.7571
  15   0.0000       0.296455         8.0669
  16   0.0000       0.306793         8.3482
  17   0.0000       0.346249         9.4219

MULLIKEN ATOMIC CHARGES
-----------------------
   0 C :    0.076105
   1 C :    0.240432
   2 H :   -0.172737
   3 H :   -0.176900
   4 O :   -0.682753
   5 H :   -0.072484
   6 H :   -0.139174
   7 H :   -0.072488
Sum of atomic charges:   -1.0000000

LOEWDIN ATOMIC CHARGES
----------------------
   0 C :   -0.102261
   1 C :    0.013557
   2 H :   -0.088339
   3 H :   -0.091504
   4 O :   -0.638195
   5 H :   -0.022035
   6 H :   -0.049097
   7 H :   -0.022126

  Mayer bond orders larger than 0.100000
B(  0-C ,  1-C ) :   0.9924 B(  0-C ,  5-H ) :   0.9529 B(  0-C ,  6-H ) :   0.8970
B(  0-C ,  7-H ) :   0.9552 B(  1-C ,  2-H ) :   0.8533 B(  1-C ,  3-H ) :   0.8508
B(  1-C ,  4-O ) :   1.5113 B(  4-O ,  6-H ) :   0.1006

Dispersion correction           -0.004555562
FINAL SINGLE POINT ENERGY      -154.304314298496

DIPOLE MOMENT
-------------
                                X             Y             Z
Electronic contribution:     -2.00666      -2.15558      -1.64134
Nuclear contribution   :      2.47835       2.80827       2.30058
                        -----------------------------------------
Total Dipole Moment    :      0.47169       0.65269       0.65924
                        -----------------------------------------
Magnitude (a.u.)       :      1.04072
Magnitude (Debye)      :      2.64531

Rotational constants in cm-1:     1.255775     0.327783     0.287473
Rotational constants in MHz : 37647.186859  9826.677683  8618.224821

                             ****ORCA TERMINATED NORMALLY****
TOTAL RUN TIME: 0 days 0 hours 0 minutes 6 seconds 836 msec
