                         Program Version 5.0.0 -  RELEASE  -
|  1> !TPSS D3BJ RIJCOSX def2-SVP def2/J TightSCF
|  2> *xyz 1 1
|  3> C         -2.12050        0.88520        1.78951
|  4> C         -0.77894        0.17197        1.80496
|  5> H         -2.32419        1.47265        2.68608
|  6> H         -2.18770        1.54127        0.91948
|  7> N         -3.17690       -0.15948        1.61070
|  8> H         -4.06474        0.23127        1.28675
|  9> H         -3.34407       -0.67151        2.48493
| 10> H         -2.71686       -0.78189        0.93588
| 11> H         -0.65708       -0.37837        0.89547
| 12> H         -0.74207       -0.50050        2.63642
| 13> H          0.00707        0.89251        1.89389
| 14> *
| 15> %MaxCore 64000
| 16>
| 17> %pal nprocs 4
| 18> end
| 19>
| 20> %scf
| 21>   MaxIter 150
| 22> end
| 23>
| 24>
| 25>                          ****END OF INPUT****

CARTESIAN COORDINATES (ANGSTROEM)
---------------------------------
  C     -2.120500    0.885200    1.789510
  C     -0.778940    0.171970    1.804960
  H     -2.324190    1.472650    2.686080
  H     -2.187700    1.541270    0.919480
  N     -3.176900   -0.159480    1.610700
  H     -4.064740    0.231270    1.286750
  H     -3.344070   -0.671510    2.484930
  H     -2.716860   -0.781890    0.935880
  H     -0.657080   -0.378370    0.895470
  H     -0.742070   -0.500500    2.636420
  H      0.007070    0.892510    1.893890

 Total Charge           Charge          ....    1
 Multiplicity           Mult            ....    1
 Number of Electrons    NEL             ....   26
 Basis Dimension        Dim             ....   82

ORBITAL ENERGIES
----------------

  NO   OCC          E(Eh)            E(eV)
   0   2.0000     -14.452977      -393.2855
   1   2.0000     -10.256110      -279.0829
   2   2.0000     -10.184191      -277.1259
   3   2.0000      -1.149470       -31.2787
   4   2.0000      -0.907661       -24.6987
   5   2.0000      -0.793720       -21.5982
   6   2.0000      -0.761346       -20.7173
   7   2.0000      -0.750520       -20.4227
   8   2.0000      -0.651806       -17.7365
   9   2.0000      -0.605009       -16.4631
  10   2.0000      -0.546784       -14.8788
  11   2.0000      -0.540664       -14.7122
  12   2.0000      -0.521416       -14.1884
  13   0.0000      -0.195873        -5.3300
  14   0.0000      -0.140390        -3.8202
  15   0.0000      -0.137062        -3.7296
  16   0.0000      -0.104748        -2.8503
  17   0.0000      -0.073884        -2.0105

MULLIKEN ATOMIC CHARGES
-----------------------
   0 C :   -0.043631
   1 C :   -0.047689
   2 H :    0.109997
   3 H :    0.102347
   4 N :    0.028150
   5 H :    0.214582
   6 H :    0.210107
   7 H :    0.203410
   8 H :    0.060738
   9 H :    0.063985
  10 H :    0.098004
Sum of atomic charges:    1.0000000

LOEWDIN ATOMIC CHARGES
----------------------
   0 C :    0.062259
   1 C :   -0.031283
   2 H :    0.053028
   3 H :    0.052411
   4 N :    0.303527
   5 H :    0.142796
   6 H :    0.142597
   7 H :    0.138693
   8 H :    0.035797
   9 H :    0.037614
  10 H :    0.062563

  Mayer bond orders larger than 0.100000
B(  0-C ,  1-C ) :   1.0972 B(  0-C ,  2-H ) :   0.9504 B(  0-C ,  3-H ) :   0.9502
B(  0-C ,  4-N ) :   0.9294 B(  1-C ,  8-H ) :   0.9605 B(  1-C ,  9-H ) :   0.9718
B(  1-C , 10-H ) :   0.9552 B(  4-N ,  5-H ) :   0.9305 B(  4-N ,  6-H ) :   0.9365
B(  4-N ,  7-H ) :   0.9361

Dispersion correction           -0.007538507
FINAL SINGLE POINT ENERGY      -135.459989837301

DIPOLE MOMENT
-------------
                                X             Y             Z
Electronic contribution:     -1.86830      -0.17871      -0.06537
Nuclear contribution   :      0.50278      -0.30871      -0.06979
                        -----------------------------------------
Total Dipole Moment    :     -1.36552      -0.48742      -0.13516
                        -----------------------------------------
Magnitude (a.u.)       :      1.45619
Magnitude (Debye)      :      3.70135

Rotational constants in cm-1:     0.963746     0.295157     0.256910
Rotational constants in MHz : 28892.375247  8848.576767  7701.963879

                             ****ORCA TERMINATED NORMALLY****
TOTAL RUN TIME: 0 days 0 hours 0 minutes 7 seconds 264 msec
