                         Program Version 5.0.0 -  RELEASE  -
|  1> !TPSS D3BJ RIJCOSX def2-TZVP def2/J TightSCF xyzfile
|  2>
|  3> *xyzfile 0 1 B.xyz
|  4>
|  5> %MaxCore 64000
|  6>
|  7> %pal nprocs 18
|  8> end
|  9>
| 10> %scf
| 11>   MaxIter 150
| 12> end
| 13>
| 14>
| 15>                          ****END OF INPUT****

CARTESIAN COORDINATES (ANGSTROEM)
---------------------------------
  C     -2.120502    0.885196    1.789506
  C     -0.778939    0.171966    1.804965
  H     -2.324193    1.472649    2.686078
  H     -2.187698    1.541272    0.919482
  N     -3.176900   -0.159484    1.610700
  H      0.015695    0.910767    1.939153
  H     -0.743553   -0.506827    2.665420
  C     -0.602493   -0.630712    0.492240
  H      0.313894   -1.240346    0.603498
  H     -0.363829    0.113322   -0.301169
  O     -1.712061   -1.376836    0.202535
  H     -4.064736    0.231272    1.286754
  H     -3.344073   -0.671511    2.484928
  H     -2.716861   -0.781886    0.935880

 Total Charge           Charge          ....    0
 Multiplicity           Mult            ....    1
 Number of Electrons    NEL             ....   42
 Basis Dimension        Dim             ....  209

ORBITAL ENERGIES
----------------

  NO   OCC          E(Eh)            E(eV)
   0   2.0000     -18.751434      -510.2525
   1   2.0000     -14.179920      -385.8552
   2   2.0000     -10.047000      -273.3928
   3   2.0000      -9.979908      -271.5671
   4   2.0000      -9.977249      -271.4948
   5   2.0000      -0.928949       -25.2780
   6   2.0000      -0.826439       -22.4886
   7   2.0000      -0.714594       -19.4451
   8   2.0000      -0.603637       -16.4258
   9   2.0000      -0.543811       -14.7979
  10   2.0000      -0.525216       -14.2919
  11   2.0000      -0.498135       -13.5549
  12   2.0000      -0.442899       -12.0519
  13   2.0000      -0.395925       -10.7737
  14   2.0000      -0.363858        -9.9011
  15   2.0000      -0.361844        -9.8463
  16   2.0000      -0.316927        -8.6240
  17   2.0000      -0.302097        -8.2205
  18   2.0000      -0.272958        -7.4276
  19   2.0000      -0.141790        -3.8583
  20   2.0000      -0.132235        -3.5983
  21   0.0000      -0.019192        -0.5222
  22   0.0000       0.023845         0.6489
  23   0.0000       0.036716         0.9991
  24   0.0000       0.069451         1.8898
  25   0.0000       0.081054         2.2056

MULLIKEN ATOMIC CHARGES
-----------------------
   0 C :   -0.109492
   1 C :   -0.216514
   2 H :    0.122039
   3 H :    0.118305
   4 N :   -0.282120
   5 H :    0.085125
   6 H :    0.070820
   7 C :    0.061285
   8 H :    0.036035
   9 H :    0.005013
  10 O :   -0.656174
  11 H :    0.248025
  12 H :    0.248690
  13 H :    0.268962
Sum of atomic charges:    0.0000000

LOEWDIN ATOMIC CHARGES
----------------------
   0 C :   -0.269799
   1 C :   -0.290691
   2 H :    0.121239
   3 H :    0.137749
   4 N :    0.133750
   5 H :    0.133016
   6 H :    0.126159
   7 C :   -0.468097
   8 H :    0.097624
   9 H :    0.088733
  10 O :   -0.263045
  11 H :    0.174952
  12 H :    0.182253
  13 H :    0.096157

  Mayer bond orders larger than 0.100000
B(  0-C ,  1-C ) :   1.0283 B(  0-C ,  2-H ) :   0.9597 B(  0-C ,  3-H ) :   0.9460
B(  0-C ,  4-N ) :   0.9221 B(  1-C ,  5-H ) :   0.9369 B(  1-C ,  6-H ) :   0.9454
B(  1-C ,  7-C ) :   0.9955 B(  4-N , 11-H ) :   0.8957 B(  4-N , 12-H ) :   0.9020
B(  4-N , 13-H ) :   0.6136 B(  7-C ,  8-H ) :   0.9328 B(  7-C ,  9-H ) :   0.9222
B(  7-C , 10-O ) :   1.2586 B( 10-O , 13-H ) :   0.4292

Dispersion correction           -0.012737707
FINAL SINGLE POINT ENERGY      -249.798457206105

DIPOLE MOMENT
-------------
                                X             Y             Z
Electronic contribution:     -1.54950      -1.55463      -0.85667
Nuclear contribution   :      0.08650       3.01678       2.47433
                        -----------------------------------------
Total Dipole Moment    :     -1.46300       1.46215       1.61766
                        -----------------------------------------
Magnitude (a.u.)       :      2.62585
Magnitude (Debye)      :      6.67437

Rotational constants in cm-1:     0.238796     0.156489     0.106146
Rotational constants in MHz :  7158.916762  4691.413084  3182.185740

                             ****ORCA TERMINATED NORMALLY****
TOTAL RUN TIME: 0 days 0 hours 0 minutes 5 seconds 22 msec
