                         Program Version 5.0.0 -  RELEASE  -
|  1> !TPSS D3BJ RIJCOSX def2-SVP def2/J TightSCF
|  2> *xyz 0 1
|  3> C         -0.77894        0.17197        1.80496
|  4> C         -0.60249       -0.63071        0.49224
|  5> H          0.31389       -1.24035        0.60350
|  6> H         -0.36383        0.11332       -0.30117
|  7> F         -1.71206       -1.37684        0.20253
|  8> H         -1.65864        0.77733        1.73736
|  9> H          0.07466        0.79896        1.95712
| 10> H         -0.87474       -0.50584        2.62734
| 11> *
| 12> %MaxCore 64000
| 13>
| 14> %pal nprocs 4
| 15> end
| 16>
| 17> %scf
| 18>   MaxIter 150
| 19> end
| 20>
| 21>
| 22>                          ****END OF INPUT****

CARTESIAN COORDINATES (ANGSTROEM)
---------------------------------
  C     -0.778940    0.171970    1.804960
  C     -0.602490   -0.630710    0.492240
  H      0.313890   -1.240350    0.603500
  H     -0.363830    0.113320   -0.301170
  F     -1.712060   -1.376840    0.202530
  H     -1.658640    0.777330    1.737360
  H      0.074660    0.798960    1.957120
  H     -0.874740   -0.505840    2.627340

 Total Charge           Charge          ....    0
 Multiplicity           Mult            ....    1
 Number of Electrons    NEL             ....   26
 Basis Dimension        Dim             ....   67

ORBITAL ENERGIES
----------------

  NO   OCC          E(Eh)            E(eV)
   0   2.0000     -24.392763      -663.7608
   1   2.0000     -10.072774      -274.0941
   2   2.0000      -9.995418      -271.9892
   3   2.0000      -1.090912       -29.6852
   4   2.0000      -0.695178       -18.9168
   5   2.0000      -0.569746       -15.5036
   6   2.0000      -0.449356       -12.2276
   7   2.0000      -0.440031       -11.9738
   8   2.0000      -0.397376       -10.8131
   9   2.0000      -0.357807        -9.7364
  10   2.0000      -0.353163        -9.6100
  11   2.0000      -0.280826        -7.6417
  12   2.0000      -0.278733        -7.5847
  13   0.0000       0.054292         1.4774
  14   0.0000       0.097695         2.6584
  15   0.0000       0.102457         2.7880
  16   0.0000       0.111261         3.0276
  17   0.0000       0.130696         3.5564

MULLIKEN ATOMIC CHARGES
-----------------------
   0 C :   -0.047748
   1 C :    0.213708
   2 H :    0.009937
   3 H :    0.009666
   4 F :   -0.253937
   5 H :    0.027536
   6 H :    0.014457
   7 H :    0.026381
Sum of atomic charges:   -0.0000000

LOEWDIN ATOMIC CHARGES
----------------------
   0 C :   -0.062881
   1 C :    0.111520
   2 H :    0.005580
   3 H :    0.005941
   4 F :   -0.126693
   5 H :    0.021552
   6 H :    0.024629
   7 H :    0.020351

  Mayer bond orders larger than 0.100000
B(  0-C ,  1-C ) :   1.0923 B(  0-C ,  5-H ) :   0.9711 B(  0-C ,  6-H ) :   0.9588
B(  0-C ,  7-H ) :   0.9724 B(  1-C ,  2-H ) :   0.9527 B(  1-C ,  3-H ) :   0.9533
B(  1-C ,  4-F ) :   1.0101

Dispersion correction           -0.004201306
FINAL SINGLE POINT ENERGY      -178.944814309504

DIPOLE MOMENT
-------------
                                X             Y             Z
Electronic contribution:     -2.79703      -3.34698      -2.85713
Nuclear contribution   :      3.27800       3.70743       3.04146
                        -----------------------------------------
Total Dipole Moment    :      0.48098       0.36046       0.18433
                        -----------------------------------------
Magnitude (a.u.)       :      0.62869
Magnitude (Debye)      :      1.59800

Rotational constants in cm-1:     1.234437     0.305084     0.268865
Rotational constants in MHz : 37007.496448  9146.194083  8060.380630

                             ****ORCA TERMINATED NORMALLY****
TOTAL RUN TIME: 0 days 0 hours 0 minutes 6 seconds 405 msec
