                         Program Version 5.0.0 -  RELEASE  -
|  1> !TPSS D3BJ RIJCOSX def2-SVP def2/J TightSCF
|  2> *xyz 0 1
|  3> C         -2.12050        0.88520        1.78951
|  4> C         -0.77894        0.17197        1.80496
|  5> H         -2.32419        1.47265        2.68608
|  6> H         -2.18770        1.54127        0.91948
|  7> C         -3.17690       -0.15948        1.61070
|  8> H         -4.06474        0.23127        1.28675
|  9> H         -3.34407       -0.67151        2.48493
| 10> H         -2.71686       -0.78189        0.93588
| 11> H         -0.65708       -0.37837        0.89547
| 12> H         -0.74207       -0.50050        2.63642
| 13> H          0.00707        0.89251        1.89389
| 14> *
| 15> %MaxCore 64000
| 16>
| 17> %pal nprocs 4
| 18> end
| 19>
| 20> %scf
| 21>   MaxIter 150
| 22> end
| 23>
| 24>
| 25>                          ****END OF INPUT****

CARTESIAN COORDINATES (ANGSTROEM)
---------------------------------
  C     -2.120500    0.885200    1.789510
  C     -0.778940    0.171970    1.804960
  H     -2.324190    1.472650    2.686080
  H     -2.187700    1.541270    0.919480
  C     -3.176900   -0.159480    1.610700
  H     -4.064740    0.231270    1.286750
  H     -3.344070   -0.671510    2.484930
  H     -2.716860   -0.781890    0.935880
  H     -0.657080   -0.378370    0.895470
  H     -0.742070   -0.500500    2.636420
  H      0.007070    0.892510    1.893890

 Total Charge           Charge          ....    0
 Multiplicity           Mult            ....    1
 Number of Electrons    NEL             ....   26
 Basis Dimension        Dim             ....   82

ORBITAL ENERGIES
----------------

  NO   OCC          E(Eh)            E(eV)
   0   2.0000      -9.985411      -271.7168
   1   2.0000      -9.981371      -271.6069
   2   2.0000      -9.963106      -271.1099
   3   2.0000      -0.729175       -19.8418
   4   2.0000      -0.625721       -17.0267
   5   2.0000      -0.531313       -14.4578
   6   2.0000      -0.426847       -11.6151
   7   2.0000      -0.408925       -11.1274
   8   2.0000      -0.358978        -9.7683
   9   2.0000      -0.345064        -9.3897
  10   2.0000      -0.301670        -8.2088
  11   2.0000      -0.293321        -7.9817
  12   2.0000      -0.290524        -7.9056
  13   0.0000       0.055509         1.5105
  14   0.0000       0.098511         2.6806
  15   0.0000       0.100229         2.7274
  16   0.0000       0.109459         2.9785
  17   0.0000       0.133147         3.6231

MULLIKEN ATOMIC CHARGES
-----------------------
   0 C :   -0.090991
   1 C :   -0.002601
   2 H :    0.010783
   3 H :    0.007748
   4 C :    0.080238
   5 H :   -0.009215
   6 H :   -0.010163
   7 H :   -0.018182
   8 H :    0.013037
   9 H :    0.010809
  10 H :    0.008537
Sum of atomic charges:   -0.0000000

LOEWDIN ATOMIC CHARGES
----------------------
   0 C :   -0.033950
   1 C :   -0.041952
   2 H :    0.013527
   3 H :    0.015826
   4 C :   -0.030475
   5 H :    0.008237
   6 H :    0.009543
   7 H :    0.010266
   8 H :    0.016583
   9 H :    0.016693
  10 H :    0.015702

  Mayer bond orders larger than 0.100000
B(  0-C ,  1-C ) :   1.1082 B(  0-C ,  2-H ) :   0.9540 B(  0-C ,  3-H ) :   0.9530
B(  0-C ,  4-C ) :   1.1000 B(  1-C ,  8-H ) :   0.9689 B(  1-C ,  9-H ) :   0.9749
B(  1-C , 10-H ) :   0.9665 B(  4-C ,  5-H ) :   0.9630 B(  4-C ,  6-H ) :   0.9688
B(  4-C ,  7-H ) :   0.9717

Dispersion correction           -0.007560930
FINAL SINGLE POINT ENERGY      -119.060818886377

DIPOLE MOMENT
-------------
                                X             Y             Z
Electronic contribution:     -0.14065       0.45657       0.10988
Nuclear contribution   :      0.13334      -0.45108      -0.10852
                        -----------------------------------------
Total Dipole Moment    :     -0.00731       0.00549       0.00136
                        -----------------------------------------
Magnitude (a.u.)       :      0.00925
Magnitude (Debye)      :      0.02351

Rotational constants in cm-1:     0.972269     0.310387     0.269029
Rotational constants in MHz : 29147.878530  9305.178981  8065.286472

                             ****ORCA TERMINATED NORMALLY****
TOTAL RUN TIME: 0 days 0 hours 0 minutes 7 seconds 319 msec
