                         Program Version 5.0.0 -  RELEASE  -
|  1> !wB97X-D3 RIJCOSX def2-SVPD def2/J TightSCF CPCM(Water)
|  2> *xyz -1 1
|  3> C          4.90646       -3.10282       -5.95484
|  4> C          3.51177       -2.80621       -6.49228
|  5> H          2.73604       -3.37345       -5.97374
|  6> H          3.44490       -3.04083       -7.55528
|  7> S          3.00462       -1.09621       -6.38926
|  8> O          4.12886       -0.32965       -6.95372
|  9> O          1.78128       -1.00078       -7.13640
| 10> C          5.02498       -3.02568       -4.43762
| 11> H          5.20153       -4.10021       -6.29691
| 12> H          5.60592       -2.39782       -6.41337
| 13> O          2.85155       -0.78368       -4.95679
| 14> H          4.73604       -2.05011       -4.10644
| 15> H          6.03776       -3.21492       -4.14890
| 16> H          4.38436       -3.75784       -3.99214
| 17> *
| 18>
| 19> %MaxCore 64000
| 20>
| 21> %pal nprocs 8
| 22> end
| 23>
| 24> %scf
| 25>   MaxIter 150
| 26> end
| 27>
| 28>
| 29>                          ****END OF INPUT****

CARTESIAN COORDINATES (ANGSTROEM)
---------------------------------
  C      4.906460   -3.102820   -5.954840
  C      3.511770   -2.806210   -6.492280
  H      2.736040   -3.373450   -5.973740
  H      3.444900   -3.040830   -7.555280
  S      3.004620   -1.096210   -6.389260
  O      4.128860   -0.329650   -6.953720
  O      1.781280   -1.000780   -7.136400
  C      5.024980   -3.025680   -4.437620
  H      5.201530   -4.100210   -6.296910
  H      5.605920   -2.397820   -6.413370
  O      2.851550   -0.783680   -4.956790
  H      4.736040   -2.050110   -4.106440
  H      6.037760   -3.214920   -4.148900
  H      4.384360   -3.757840   -3.992140

 Total Charge           Charge          ....   -1
 Multiplicity           Mult            ....    1
 Number of Electrons    NEL             ....   66
 Basis Dimension        Dim             ....  212

ORBITAL ENERGIES
----------------

  NO   OCC          E(Eh)            E(eV)
   0   2.0000     -89.151442     -2425.9341
   1   2.0000     -19.210214      -522.7365
   2   2.0000     -19.199653      -522.4491
   3   2.0000     -19.198573      -522.4197
   4   2.0000     -10.297919      -280.2206
   5   2.0000     -10.285141      -279.8729
   6   2.0000     -10.262143      -279.2471
   7   2.0000      -8.225819      -223.8359
   8   2.0000      -6.185688      -168.3211
   9   2.0000      -6.185667      -168.3206
  10   2.0000      -6.183859      -168.2714
  11   2.0000      -1.227742       -33.4086
  12   2.0000      -1.085011       -29.5246
  13   2.0000      -1.064800       -28.9747
  14   2.0000      -0.904337       -24.6083
  15   2.0000      -0.815567       -22.1927
  16   2.0000      -0.713862       -19.4252
  17   2.0000      -0.648658       -17.6509
  18   2.0000      -0.592123       -16.1125
  19   2.0000      -0.568775       -15.4771
  20   2.0000      -0.557469       -15.1695
  21   2.0000      -0.534703       -14.5500
  22   2.0000      -0.529229       -14.4010
  23   2.0000      -0.499877       -13.6024
  24   2.0000      -0.454232       -12.3603
  25   2.0000      -0.442231       -12.0337
  26   2.0000      -0.435642       -11.8544
  27   2.0000      -0.430326       -11.7098
  28   2.0000      -0.426502       -11.6057
  29   2.0000      -0.389677       -10.6037
  30   2.0000      -0.379038       -10.3141
  31   2.0000      -0.367934       -10.0120
  32   2.0000      -0.344385        -9.3712
  33   0.0000       0.082209         2.2370
  34   0.0000       0.100420         2.7326
  35   0.0000       0.100780         2.7424
  36   0.0000       0.104803         2.8518
  37   0.0000       0.137109         3.7309

MULLIKEN ATOMIC CHARGES
-----------------------
   0 C :   -0.255306
   1 C :   -0.052644
   2 H :    0.045523
   3 H :    0.037529
   4 S :    1.311589
   5 O :   -0.853915
   6 O :   -0.825363
   7 C :    0.748199
   8 H :   -0.086096
   9 H :   -0.016923
  10 O :   -0.859184
  11 H :   -0.193536
  12 H :   -0.016961
  13 H :    0.017088
Sum of atomic charges:   -1.0000000

LOEWDIN ATOMIC CHARGES
----------------------
   0 C :   -0.079911
   1 C :   -0.084832
   2 H :    0.024982
   3 H :    0.019524
   4 S :    0.855498
   5 O :   -0.618560
   6 O :   -0.597477
   7 C :    0.122571
   8 H :    0.028610
   9 H :    0.014549
  10 O :   -0.616192
  11 H :   -0.045132
  12 H :   -0.014109
  13 H :   -0.009522

  Mayer bond orders larger than 0.100000
B(  0-C ,  1-C ) :   1.2033 B(  0-C ,  2-H ) :   0.1047 B(  0-C ,  3-H ) :   0.1129
B(  0-C ,  7-C ) :   1.2329 B(  0-C ,  8-H ) :   0.9273 B(  0-C ,  9-H ) :   0.9223
B(  0-C , 11-H ) :   0.2358 B(  0-C , 12-H ) :   0.1881 B(  0-C , 13-H ) :   0.1947
B(  1-C ,  2-H ) :   0.9370 B(  1-C ,  3-H ) :   0.9448 B(  1-C ,  4-S ) :   0.9640
B(  1-C ,  8-H ) :   0.1103 B(  1-C ,  9-H ) :   0.1345 B(  4-S ,  5-O ) :   1.2540
B(  4-S ,  6-O ) :   1.3606 B(  4-S , 10-O ) :   1.2446 B(  7-C , 11-H ) :   0.8305
B(  7-C , 12-H ) :   0.7721 B(  7-C , 13-H ) :   0.7539 B( 11-H , 13-H ) :   0.1071

Dispersion correction           -0.004525158
FINAL SINGLE POINT ENERGY      -742.075941849669

DIPOLE MOMENT
-------------
                                X             Y             Z
Electronic contribution:     -5.82094       6.96028      -3.64430
Nuclear contribution   :      7.19636      -9.97366       3.94889
                        -----------------------------------------
Total Dipole Moment    :      1.37542      -3.01337       0.30459
                        -----------------------------------------
Magnitude (a.u.)       :      3.32641
Magnitude (Debye)      :      8.45505

Rotational constants in cm-1:     0.137066     0.054570     0.051980
Rotational constants in MHz :  4109.139955  1635.961703  1558.315282

                             ****ORCA TERMINATED NORMALLY****
TOTAL RUN TIME: 0 days 0 hours 0 minutes 22 seconds 721 msec
