                         Program Version 5.0.0 -  RELEASE  -
|  1> !wB97X-D3 RIJCOSX def2-SVPD def2/J TightSCF CPCM(Water)
|  2> *xyz 1 1
|  3> C          4.49059        1.15590       -2.46929
|  4> N          4.30539        1.22276       -3.90832
|  5> C          4.63192        2.24637       -4.67096
|  6> N          4.54169        2.14399       -5.98714
|  7> N          5.08409        3.39358       -4.11855
|  8> H          4.92067        3.57050       -3.13587
|  9> H          5.25465        4.19739       -4.70696
| 10> H          3.82453        0.44911       -4.35093
| 11> H          4.34337        1.24932       -6.41665
| 12> H          4.67671        2.95662       -6.57411
| 13> C          5.94213        0.93950       -2.03689
| 14> H          3.86431        0.32853       -2.13661
| 15> H          4.07623        2.04999       -1.98901
| 16> C          6.55996       -0.35629       -2.55909
| 17> H          5.96798        0.95257       -0.94244
| 18> H          6.54718        1.78833       -2.36885
| 19> H          6.53022       -0.35990       -3.62867
| 20> H          6.00654       -1.19175       -2.18407
| 21> H          7.57588       -0.42487       -2.23029
| 22> *
| 23>
| 24> %MaxCore 64000
| 25>
| 26> %pal nprocs 8
| 27> end
| 28>
| 29> %scf
| 30>   MaxIter 150
| 31> end
| 32>
| 33>
| 34>                          ****END OF INPUT****

CARTESIAN COORDINATES (ANGSTROEM)
---------------------------------
  C      4.490590    1.155900   -2.469290
  N      4.305390    1.222760   -3.908320
  C      4.631920    2.246370   -4.670960
  N      4.541690    2.143990   -5.987140
  N      5.084090    3.393580   -4.118550
  H      4.920670    3.570500   -3.135870
  H      5.254650    4.197390   -4.706960
  H      3.824530    0.449110   -4.350930
  H      4.343370    1.249320   -6.416650
  H      4.676710    2.956620   -6.574110
  C      5.942130    0.939500   -2.036890
  H      3.864310    0.328530   -2.136610
  H      4.076230    2.049990   -1.989010
  C      6.559960   -0.356290   -2.559090
  H      5.967980    0.952570   -0.942440
  H      6.547180    1.788330   -2.368850
  H      6.530220   -0.359900   -3.628670
  H      6.006540   -1.191750   -2.184070
  H      7.575880   -0.424870   -2.230290

 Total Charge           Charge          ....    1
 Multiplicity           Mult            ....    1
 Number of Electrons    NEL             ....   56
 Basis Dimension        Dim             ....  236

ORBITAL ENERGIES
----------------

  NO   OCC          E(Eh)            E(eV)
   0   2.0000     -14.490266      -394.3002
   1   2.0000     -14.483717      -394.1220
   2   2.0000     -14.483257      -394.1094
   3   2.0000     -10.455743      -284.5152
   4   2.0000     -10.337861      -281.3075
   5   2.0000     -10.291364      -280.0423
   6   2.0000     -10.271775      -279.5092
   7   2.0000      -1.153870       -31.3984
   8   2.0000      -1.043124       -28.3849
   9   2.0000      -1.022253       -27.8169
  10   2.0000      -0.901507       -24.5312
  11   2.0000      -0.821933       -22.3659
  12   2.0000      -0.762749       -20.7555
  13   2.0000      -0.722931       -19.6720
  14   2.0000      -0.710104       -19.3229
  15   2.0000      -0.667774       -18.1711
  16   2.0000      -0.618031       -16.8175
  17   2.0000      -0.613745       -16.7008
  18   2.0000      -0.598470       -16.2852
  19   2.0000      -0.570489       -15.5238
  20   2.0000      -0.543694       -14.7947
  21   2.0000      -0.534071       -14.5328
  22   2.0000      -0.502207       -13.6657
  23   2.0000      -0.460089       -12.5197
  24   2.0000      -0.444274       -12.0893
  25   2.0000      -0.435908       -11.8617
  26   2.0000      -0.397032       -10.8038
  27   2.0000      -0.374446       -10.1892
  28   0.0000       0.080799         2.1987
  29   0.0000       0.086561         2.3554
  30   0.0000       0.114738         3.1222
  31   0.0000       0.115663         3.1473
  32   0.0000       0.124972         3.4007

MULLIKEN ATOMIC CHARGES
-----------------------
   0 C :    0.660771
   1 N :   -0.653062
   2 C :    1.413612
   3 N :   -0.167144
   4 N :   -0.095780
   5 H :    0.037569
   6 H :   -0.091156
   7 H :   -0.068385
   8 H :    0.019527
   9 H :    0.021556
  10 C :   -0.440889
  11 H :   -0.212333
  12 H :    0.036141
  13 C :    0.597890
  14 H :   -0.075011
  15 H :    0.042663
  16 H :   -0.057856
  17 H :    0.062854
  18 H :   -0.030969
Sum of atomic charges:    1.0000000

LOEWDIN ATOMIC CHARGES
----------------------
   0 C :    0.070892
   1 N :    0.044910
   2 C :   -0.027634
   3 N :    0.263195
   4 N :    0.278238
   5 H :    0.021434
   6 H :    0.043639
   7 H :    0.074695
   8 H :    0.049921
   9 H :    0.049165
  10 C :   -0.060788
  11 H :    0.042712
  12 H :    0.032376
  13 C :    0.120497
  14 H :    0.030517
  15 H :    0.013888
  16 H :   -0.021291
  17 H :   -0.012344
  18 H :   -0.014021

  Mayer bond orders larger than 0.100000
B(  0-C ,  1-N ) :   0.8175 B(  0-C ,  7-H ) :  -0.1534 B(  0-C , 10-C ) :   1.1326
B(  0-C , 11-H ) :   0.8414 B(  0-C , 12-H ) :   0.9033 B(  0-C , 15-H ) :   0.1104
B(  1-N ,  2-C ) :   0.9119 B(  1-N ,  3-N ) :   0.3133 B(  1-N ,  4-N ) :   0.2373
B(  1-N ,  7-H ) :   1.3120 B(  1-N , 11-H ) :   0.1959 B(  2-C ,  3-N ) :   0.8215
B(  2-C ,  4-N ) :   0.9184 B(  2-C ,  6-H ) :  -0.1345 B(  2-C ,  7-H ) :  -0.2096
B(  2-C ,  8-H ) :  -0.1616 B(  2-C ,  9-H ) :  -0.1079 B(  3-N ,  4-N ) :   0.1389
B(  3-N ,  8-H ) :   1.1765 B(  3-N ,  9-H ) :   1.2042 B(  4-N ,  5-H ) :   1.0413
B(  4-N ,  6-H ) :   1.2750 B(  5-H ,  6-H ) :  -0.1963 B(  8-H ,  9-H ) :  -0.1693
B( 10-C , 11-H ) :   0.1209 B( 10-C , 13-C ) :   1.3023 B( 10-C , 14-H ) :   1.0376
B( 10-C , 15-H ) :   0.9152 B( 10-C , 16-H ) :   0.1898 B( 10-C , 17-H ) :   0.1757
B( 10-C , 18-H ) :   0.2030 B( 13-C , 16-H ) :   0.8473 B( 13-C , 17-H ) :   0.8085
B( 13-C , 18-H ) :   0.8162

Dispersion correction           -0.005393084
FINAL SINGLE POINT ENERGY      -323.516461114604

DIPOLE MOMENT
-------------
                                X             Y             Z
Electronic contribution:     -3.54570       4.02397      -5.17123
Nuclear contribution   :      2.46011      -2.82418       3.51638
                        -----------------------------------------
Total Dipole Moment    :     -1.08559       1.19979      -1.65485
                        -----------------------------------------
Magnitude (a.u.)       :      2.31442
Magnitude (Debye)      :      5.88278

Rotational constants in cm-1:     0.152406     0.050160     0.046480
Rotational constants in MHz :  4569.006375  1503.763011  1393.441650

                             ****ORCA TERMINATED NORMALLY****
TOTAL RUN TIME: 0 days 0 hours 0 minutes 29 seconds 824 msec
