                         Program Version 5.0.0 -  RELEASE  -
|  1> !wB97X-D3 RIJCOSX def2-SVPD def2/J TightSCF CPCM(Water)
|  2> *xyz 0 1
|  3> C          4.90646       -3.10282       -5.95484
|  4> C          3.51177       -2.80621       -6.49228
|  5> H          2.73604       -3.37345       -5.97374
|  6> H          3.44490       -3.04083       -7.55528
|  7> S          3.00462       -1.09621       -6.38926
|  8> F          4.12886       -0.32965       -6.95372
|  9> O          1.78128       -1.00078       -7.13640
| 10> C          5.02498       -3.02568       -4.43762
| 11> H          5.20153       -4.10021       -6.29691
| 12> H          5.60592       -2.39782       -6.41337
| 13> O          2.85155       -0.78368       -4.95679
| 14> H          4.73604       -2.05011       -4.10644
| 15> H          6.03776       -3.21492       -4.14890
| 16> H          4.38436       -3.75784       -3.99214
| 17> *
| 18>
| 19> %MaxCore 64000
| 20>
| 21> %pal nprocs 8
| 22> end
| 23>
| 24> %scf
| 25>   MaxIter 150
| 26> end
| 27>
| 28>
| 29>                          ****END OF INPUT****

CARTESIAN COORDINATES (ANGSTROEM)
---------------------------------
  C      4.906460   -3.102820   -5.954840
  C      3.511770   -2.806210   -6.492280
  H      2.736040   -3.373450   -5.973740
  H      3.444900   -3.040830   -7.555280
  S      3.004620   -1.096210   -6.389260
  F      4.128860   -0.329650   -6.953720
  O      1.781280   -1.000780   -7.136400
  C      5.024980   -3.025680   -4.437620
  H      5.201530   -4.100210   -6.296910
  H      5.605920   -2.397820   -6.413370
  O      2.851550   -0.783680   -4.956790
  H      4.736040   -2.050110   -4.106440
  H      6.037760   -3.214920   -4.148900
  H      4.384360   -3.757840   -3.992140

 Total Charge           Charge          ....    0
 Multiplicity           Mult            ....    1
 Number of Electrons    NEL             ....   66
 Basis Dimension        Dim             ....  212

ORBITAL ENERGIES
----------------

  NO   OCC          E(Eh)            E(eV)
   0   2.0000     -89.238187     -2428.2945
   1   2.0000     -24.904845      -677.6953
   2   2.0000     -19.270988      -524.3902
   3   2.0000     -19.259566      -524.0794
   4   2.0000     -10.339004      -281.3386
   5   2.0000     -10.303489      -280.3722
   6   2.0000     -10.271522      -279.5023
   7   2.0000      -8.312549      -226.1960
   8   2.0000      -6.276180      -170.7835
   9   2.0000      -6.270360      -170.6252
  10   2.0000      -6.268085      -170.5633
  11   2.0000      -1.466783       -39.9132
  12   2.0000      -1.237729       -33.6803
  13   2.0000      -1.135575       -30.9006
  14   2.0000      -0.938414       -25.5355
  15   2.0000      -0.855732       -23.2856
  16   2.0000      -0.805077       -21.9072
  17   2.0000      -0.731136       -19.8952
  18   2.0000      -0.685426       -18.6514
  19   2.0000      -0.676685       -18.4135
  20   2.0000      -0.654215       -17.8021
  21   2.0000      -0.584438       -15.9034
  22   2.0000      -0.582175       -15.8418
  23   2.0000      -0.555788       -15.1238
  24   2.0000      -0.553148       -15.0519
  25   2.0000      -0.523545       -14.2464
  26   2.0000      -0.497041       -13.5252
  27   2.0000      -0.472789       -12.8653
  28   2.0000      -0.462690       -12.5904
  29   2.0000      -0.444007       -12.0820
  30   2.0000      -0.438958       -11.9446
  31   2.0000      -0.423584       -11.5263
  32   2.0000      -0.411920       -11.2089
  33   0.0000       0.070414         1.9161
  34   0.0000       0.096616         2.6291
  35   0.0000       0.098267         2.6740
  36   0.0000       0.099645         2.7115
  37   0.0000       0.122952         3.3457

MULLIKEN ATOMIC CHARGES
-----------------------
   0 C :   -0.280673
   1 C :   -0.139822
   2 H :    0.119606
   3 H :    0.106235
   4 S :    1.540367
   5 F :   -0.413433
   6 O :   -0.711792
   7 C :    0.727731
   8 H :   -0.058152
   9 H :    0.016618
  10 O :   -0.753451
  11 H :   -0.183560
  12 H :   -0.001393
  13 H :    0.031719
Sum of atomic charges:    0.0000000

LOEWDIN ATOMIC CHARGES
----------------------
   0 C :   -0.067464
   1 C :   -0.039464
   2 H :    0.049549
   3 H :    0.036394
   4 S :    1.132829
   5 F :   -0.255235
   6 O :   -0.491830
   7 C :    0.131154
   8 H :    0.039837
   9 H :    0.028934
  10 O :   -0.512254
  11 H :   -0.040024
  12 H :   -0.008239
  13 H :   -0.004186

  Mayer bond orders larger than 0.100000
B(  0-C ,  1-C ) :   1.1954 B(  0-C ,  3-H ) :   0.1068 B(  0-C ,  7-C ) :   1.2474
B(  0-C ,  8-H ) :   0.9444 B(  0-C ,  9-H ) :   0.9137 B(  0-C , 11-H ) :   0.2317
B(  0-C , 12-H ) :   0.1823 B(  0-C , 13-H ) :   0.1904 B(  1-C ,  2-H ) :   0.9356
B(  1-C ,  3-H ) :   0.9453 B(  1-C ,  4-S ) :   1.0237 B(  1-C ,  9-H ) :   0.1269
B(  4-S ,  5-F ) :   0.6361 B(  4-S ,  6-O ) :   1.5389 B(  4-S , 10-O ) :   1.4449
B(  7-C , 11-H ) :   0.8336 B(  7-C , 12-H ) :   0.7794 B(  7-C , 13-H ) :   0.7636
B( 11-H , 13-H ) :   0.1070

Dispersion correction           -0.004478853
FINAL SINGLE POINT ENERGY      -766.481732683740

DIPOLE MOMENT
-------------
                                X             Y             Z
Electronic contribution:     -4.93549       9.81925      -5.56095
Nuclear contribution   :      6.51452     -11.35172       4.86721
                        -----------------------------------------
Total Dipole Moment    :      1.57902      -1.53247      -0.69375
                        -----------------------------------------
Magnitude (a.u.)       :      2.30718
Magnitude (Debye)      :      5.86438

Rotational constants in cm-1:     0.130386     0.053203     0.051661
Rotational constants in MHz :  3908.886819  1594.983443  1548.763987

                             ****ORCA TERMINATED NORMALLY****
TOTAL RUN TIME: 0 days 0 hours 0 minutes 23 seconds 965 msec
