                         Program Version 5.0.0 -  RELEASE  -
|  1> !wB97X-D3 RIJCOSX def2-SVPD def2/J TightSCF CPCM(Water)
|  2> *xyz 0 1
|  3> C          4.49059        1.15590       -2.46929
|  4> C          4.30539        1.22276       -3.90832
|  5> C          4.63192        2.24637       -4.67096
|  6> N          4.54169        2.14399       -5.98714
|  7> N          5.08409        3.39358       -4.11855
|  8> H          4.92067        3.57050       -3.13587
|  9> H          5.25465        4.19739       -4.70696
| 10> H          3.82453        0.44911       -4.35093
| 11> H          4.34337        1.24932       -6.41665
| 12> H          4.67671        2.95662       -6.57411
| 13> C          5.94213        0.93950       -2.03689
| 14> H          3.86431        0.32853       -2.13661
| 15> H          4.07623        2.04999       -1.98901
| 16> C          6.55996       -0.35629       -2.55909
| 17> H          5.96798        0.95257       -0.94244
| 18> H          6.54718        1.78833       -2.36885
| 19> H          6.53022       -0.35990       -3.62867
| 20> H          6.00654       -1.19175       -2.18407
| 21> H          7.57588       -0.42487       -2.23029
| 22> *
| 23>
| 24> %MaxCore 64000
| 25>
| 26> %pal nprocs 8
| 27> end
| 28>
| 29> %scf
| 30>   MaxIter 150
| 31> end
| 32>
| 33>
| 34>                          ****END OF INPUT****

CARTESIAN COORDINATES (ANGSTROEM)
---------------------------------
  C      4.490590    1.155900   -2.469290
  C      4.305390    1.222760   -3.908320
  C      4.631920    2.246370   -4.670960
  N      4.541690    2.143990   -5.987140
  N      5.084090    3.393580   -4.118550
  H      4.920670    3.570500   -3.135870
  H      5.254650    4.197390   -4.706960
  H      3.824530    0.449110   -4.350930
  H      4.343370    1.249320   -6.416650
  H      4.676710    2.956620   -6.574110
  C      5.942130    0.939500   -2.036890
  H      3.864310    0.328530   -2.136610
  H      4.076230    2.049990   -1.989010
  C      6.559960   -0.356290   -2.559090
  H      5.967980    0.952570   -0.942440
  H      6.547180    1.788330   -2.368850
  H      6.530220   -0.359900   -3.628670
  H      6.006540   -1.191750   -2.184070
  H      7.575880   -0.424870   -2.230290

 Total Charge           Charge          ....    0
 Multiplicity           Mult            ....    1
 Number of Electrons    NEL             ....   56
 Basis Dimension        Dim             ....  236

ORBITAL ENERGIES
----------------

  NO   OCC          E(Eh)            E(eV)
   0   2.0000     -14.431262      -392.6946
   1   2.0000     -14.428460      -392.6183
   2   2.0000     -10.335430      -281.2413
   3   2.0000     -10.269590      -279.4497
   4   2.0000     -10.265320      -279.3336
   5   2.0000     -10.260469      -279.2016
   6   2.0000     -10.210612      -277.8449
   7   2.0000      -1.065528       -28.9945
   8   2.0000      -0.970143       -26.3989
   9   2.0000      -0.898678       -24.4543
  10   2.0000      -0.832765       -22.6607
  11   2.0000      -0.766473       -20.8568
  12   2.0000      -0.699652       -19.0385
  13   2.0000      -0.672374       -18.2962
  14   2.0000      -0.638637       -17.3782
  15   2.0000      -0.602470       -16.3940
  16   2.0000      -0.566564       -15.4170
  17   2.0000      -0.548864       -14.9354
  18   2.0000      -0.535997       -14.5852
  19   2.0000      -0.514741       -14.0068
  20   2.0000      -0.489792       -13.3279
  21   2.0000      -0.469909       -12.7869
  22   2.0000      -0.459107       -12.4929
  23   2.0000      -0.428191       -11.6517
  24   2.0000      -0.409602       -11.1458
  25   2.0000      -0.406095       -11.0504
  26   2.0000      -0.355804        -9.6819
  27   2.0000      -0.249982        -6.8024
  28   0.0000       0.095097         2.5877
  29   0.0000       0.117366         3.1937
  30   0.0000       0.121271         3.2999
  31   0.0000       0.125371         3.4115
  32   0.0000       0.147367         4.0101

MULLIKEN ATOMIC CHARGES
-----------------------
   0 C :    0.179951
   1 C :   -0.264921
   2 C :    0.879484
   3 N :   -0.095296
   4 N :   -0.109888
   5 H :    0.018388
   6 H :   -0.173604
   7 H :   -0.382807
   8 H :    0.022269
   9 H :   -0.095400
  10 C :   -0.375832
  11 H :    0.007271
  12 H :   -0.067802
  13 C :    0.670589
  14 H :   -0.075631
  15 H :   -0.061343
  16 H :   -0.088897
  17 H :    0.036518
  18 H :   -0.023051
Sum of atomic charges:   -0.0000000

LOEWDIN ATOMIC CHARGES
----------------------
   0 C :   -0.076057
   1 C :   -0.061836
   2 C :   -0.228954
   3 N :    0.176444
   4 N :    0.204870
   5 H :   -0.003161
   6 H :    0.005942
   7 H :   -0.052140
   8 H :    0.018882
   9 H :    0.009715
  10 C :   -0.084156
  11 H :    0.016828
  12 H :    0.008564
  13 C :    0.110901
  14 H :    0.014283
  15 H :    0.006362
  16 H :   -0.028811
  17 H :   -0.017167
  18 H :   -0.020508

  Mayer bond orders larger than 0.100000
B(  0-C ,  1-C ) :   1.1990 B(  0-C ,  7-H ) :   0.2841 B(  0-C , 10-C ) :   1.1415
B(  0-C , 11-H ) :   0.7248 B(  0-C , 12-H ) :   0.9066 B(  0-C , 14-H ) :   0.1231
B(  0-C , 15-H ) :   0.1466 B(  1-C ,  2-C ) :   1.6837 B(  1-C ,  3-N ) :   0.3638
B(  1-C ,  4-N ) :   0.2241 B(  1-C ,  7-H ) :   0.8662 B(  1-C , 11-H ) :   0.3017
B(  1-C , 12-H ) :   0.1496 B(  2-C ,  3-N ) :   0.8668 B(  2-C ,  4-N ) :   0.9124
B(  2-C ,  6-H ) :  -0.1616 B(  3-N ,  8-H ) :   1.1440 B(  3-N ,  9-H ) :   1.2225
B(  4-N ,  5-H ) :   1.0208 B(  4-N ,  6-H ) :   1.3259 B(  5-H ,  6-H ) :  -0.1857
B(  8-H ,  9-H ) :  -0.1628 B( 10-C , 11-H ) :   0.1123 B( 10-C , 13-C ) :   1.3121
B( 10-C , 14-H ) :   0.9585 B( 10-C , 15-H ) :   0.9379 B( 10-C , 16-H ) :   0.2262
B( 10-C , 17-H ) :   0.2082 B( 10-C , 18-H ) :   0.2204 B( 13-C , 16-H ) :   0.8264
B( 13-C , 17-H ) :   0.7862 B( 13-C , 18-H ) :   0.7670

Dispersion correction           -0.005368181
FINAL SINGLE POINT ENERGY      -306.961015975491

DIPOLE MOMENT
-------------
                                X             Y             Z
Electronic contribution:     -2.29759       3.93910      -4.31417
Nuclear contribution   :      2.29046      -2.89565       3.47129
                        -----------------------------------------
Total Dipole Moment    :     -0.00713       1.04344      -0.84288
                        -----------------------------------------
Magnitude (a.u.)       :      1.34137
Magnitude (Debye)      :      3.40950

Rotational constants in cm-1:     0.154384     0.050352     0.046525
Rotational constants in MHz :  4628.320816  1509.522910  1394.780903

                             ****ORCA TERMINATED NORMALLY****
TOTAL RUN TIME: 0 days 0 hours 0 minutes 30 seconds 170 msec
