                         Program Version 5.0.0 -  RELEASE  -
|  1> !wB97X-D3 RIJCOSX def2-SVPD def2/J TightSCF CPCM(Water)
|  2> *xyz 0 1
|  3> C          4.90646       -3.10282       -5.95484
|  4> C          3.51177       -2.80621       -6.49228
|  5> H          2.73604       -3.37345       -5.97374
|  6> H          3.44490       -3.04083       -7.55528
|  7> S          3.00462       -1.09621       -6.38926
|  8> O          4.12886       -0.32965       -6.95372
|  9> F          1.78128       -1.00078       -7.13640
| 10> C          5.02498       -3.02568       -4.43762
| 11> H          5.20153       -4.10021       -6.29691
| 12> H          5.60592       -2.39782       -6.41337
| 13> O          2.85155       -0.78368       -4.95679
| 14> H          4.73604       -2.05011       -4.10644
| 15> H          6.03776       -3.21492       -4.14890
| 16> H          4.38436       -3.75784       -3.99214
| 17> *
| 18>
| 19> %MaxCore 64000
| 20>
| 21> %pal nprocs 8
| 22> end
| 23>
| 24> %scf
| 25>   MaxIter 150
| 26> end
| 27>
| 28>
| 29>                          ****END OF INPUT****

CARTESIAN COORDINATES (ANGSTROEM)
---------------------------------
  C      4.906460   -3.102820   -5.954840
  C      3.511770   -2.806210   -6.492280
  H      2.736040   -3.373450   -5.973740
  H      3.444900   -3.040830   -7.555280
  S      3.004620   -1.096210   -6.389260
  O      4.128860   -0.329650   -6.953720
  F      1.781280   -1.000780   -7.136400
  C      5.024980   -3.025680   -4.437620
  H      5.201530   -4.100210   -6.296910
  H      5.605920   -2.397820   -6.413370
  O      2.851550   -0.783680   -4.956790
  H      4.736040   -2.050110   -4.106440
  H      6.037760   -3.214920   -4.148900
  H      4.384360   -3.757840   -3.992140

 Total Charge           Charge          ....    0
 Multiplicity           Mult            ....    1
 Number of Electrons    NEL             ....   66
 Basis Dimension        Dim             ....  212

ORBITAL ENERGIES
----------------

  NO   OCC          E(Eh)            E(eV)
   0   2.0000     -89.240236     -2428.3503
   1   2.0000     -24.921191      -678.1401
   2   2.0000     -19.260274      -524.0987
   3   2.0000     -19.259894      -524.0884
   4   2.0000     -10.339300      -281.3467
   5   2.0000     -10.304774      -280.4071
   6   2.0000     -10.271601      -279.5045
   7   2.0000      -8.314608      -226.2520
   8   2.0000      -6.278249      -170.8398
   9   2.0000      -6.272316      -170.6784
  10   2.0000      -6.270084      -170.6177
  11   2.0000      -1.495862       -40.7045
  12   2.0000      -1.225201       -33.3394
  13   2.0000      -1.122154       -30.5354
  14   2.0000      -0.936927       -25.4951
  15   2.0000      -0.865192       -23.5431
  16   2.0000      -0.811914       -22.0933
  17   2.0000      -0.736133       -20.0312
  18   2.0000      -0.697183       -18.9713
  19   2.0000      -0.681274       -18.5384
  20   2.0000      -0.664055       -18.0698
  21   2.0000      -0.592734       -16.1291
  22   2.0000      -0.581382       -15.8202
  23   2.0000      -0.555759       -15.1230
  24   2.0000      -0.542633       -14.7658
  25   2.0000      -0.520600       -14.1663
  26   2.0000      -0.492021       -13.3886
  27   2.0000      -0.466113       -12.6836
  28   2.0000      -0.458463       -12.4754
  29   2.0000      -0.444284       -12.0896
  30   2.0000      -0.433257       -11.7895
  31   2.0000      -0.416041       -11.3210
  32   2.0000      -0.410384       -11.1671
  33   0.0000       0.071602         1.9484
  34   0.0000       0.095494         2.5985
  35   0.0000       0.098931         2.6920
  36   0.0000       0.100667         2.7393
  37   0.0000       0.119202         3.2436

MULLIKEN ATOMIC CHARGES
-----------------------
   0 C :   -0.297484
   1 C :   -0.149152
   2 H :    0.125217
   3 H :    0.129726
   4 S :    1.579524
   5 O :   -0.738550
   6 F :   -0.426805
   7 C :    0.722494
   8 H :   -0.051355
   9 H :    0.012967
  10 O :   -0.753382
  11 H :   -0.182190
  12 H :   -0.000385
  13 H :    0.029376
Sum of atomic charges:    0.0000000

LOEWDIN ATOMIC CHARGES
----------------------
   0 C :   -0.058352
   1 C :   -0.046259
   2 H :    0.041148
   3 H :    0.036675
   4 S :    1.142022
   5 O :   -0.515754
   6 F :   -0.235860
   7 C :    0.133266
   8 H :    0.042882
   9 H :    0.025396
  10 O :   -0.515301
  11 H :   -0.037618
  12 H :   -0.007724
  13 H :   -0.004522

  Mayer bond orders larger than 0.100000
B(  0-C ,  1-C ) :   1.2336 B(  0-C ,  2-H ) :   0.1058 B(  0-C ,  3-H ) :   0.1185
B(  0-C ,  7-C ) :   1.2423 B(  0-C ,  8-H ) :   0.9446 B(  0-C ,  9-H ) :   0.9220
B(  0-C , 11-H ) :   0.2248 B(  0-C , 12-H ) :   0.1844 B(  0-C , 13-H ) :   0.1890
B(  1-C ,  2-H ) :   0.9263 B(  1-C ,  3-H ) :   0.9075 B(  1-C ,  4-S ) :   0.9964
B(  1-C ,  9-H ) :   0.1301 B(  4-S ,  5-O ) :   1.4397 B(  4-S ,  6-F ) :   0.6883
B(  4-S , 10-O ) :   1.4189 B(  7-C , 11-H ) :   0.8366 B(  7-C , 12-H ) :   0.7764
B(  7-C , 13-H ) :   0.7609 B( 11-H , 13-H ) :   0.1081

Dispersion correction           -0.004510354
FINAL SINGLE POINT ENERGY      -766.467914613075

DIPOLE MOMENT
-------------
                                X             Y             Z
Electronic contribution:     -9.50966       8.50273      -5.90710
Nuclear contribution   :      9.03920     -10.62996       5.06367
                        -----------------------------------------
Total Dipole Moment    :     -0.47045      -2.12723      -0.84343
                        -----------------------------------------
Magnitude (a.u.)       :      2.33620
Magnitude (Debye)      :      5.93814

Rotational constants in cm-1:     0.135071     0.052485     0.050188
Rotational constants in MHz :  4049.321380  1573.451279  1504.609887

                             ****ORCA TERMINATED NORMALLY****
TOTAL RUN TIME: 0 days 0 hours 0 minutes 22 seconds 944 msec
