                         Program Version 5.0.0 -  RELEASE  -
|  1> !wB97X-D3 RIJCOSX def2-SVPD def2/J TightSCF CPCM(Water)
|  2> *xyz 0 1
|  3> C          4.49059        1.15590       -2.46929
|  4> N          4.30539        1.22276       -3.90832
|  5> C          4.63192        2.24637       -4.67096
|  6> C          4.54169        2.14399       -5.98714
|  7> N          5.08409        3.39358       -4.11855
|  8> H          4.92067        3.57050       -3.13587
|  9> H          5.25465        4.19739       -4.70696
| 10> H          3.82453        0.44911       -4.35093
| 11> H          4.34337        1.24932       -6.41665
| 12> H          4.67671        2.95662       -6.57411
| 13> C          5.94213        0.93950       -2.03689
| 14> H          3.86431        0.32853       -2.13661
| 15> H          4.07623        2.04999       -1.98901
| 16> C          6.55996       -0.35629       -2.55909
| 17> H          5.96798        0.95257       -0.94244
| 18> H          6.54718        1.78833       -2.36885
| 19> H          6.53022       -0.35990       -3.62867
| 20> H          6.00654       -1.19175       -2.18407
| 21> H          7.57588       -0.42487       -2.23029
| 22> *
| 23>
| 24> %MaxCore 64000
| 25>
| 26> %pal nprocs 8
| 27> end
| 28>
| 29> %scf
| 30>   MaxIter 150
| 31> end
| 32>
| 33>
| 34>                          ****END OF INPUT****

CARTESIAN COORDINATES (ANGSTROEM)
---------------------------------
  C      4.490590    1.155900   -2.469290
  N      4.305390    1.222760   -3.908320
  C      4.631920    2.246370   -4.670960
  C      4.541690    2.143990   -5.987140
  N      5.084090    3.393580   -4.118550
  H      4.920670    3.570500   -3.135870
  H      5.254650    4.197390   -4.706960
  H      3.824530    0.449110   -4.350930
  H      4.343370    1.249320   -6.416650
  H      4.676710    2.956620   -6.574110
  C      5.942130    0.939500   -2.036890
  H      3.864310    0.328530   -2.136610
  H      4.076230    2.049990   -1.989010
  C      6.559960   -0.356290   -2.559090
  H      5.967980    0.952570   -0.942440
  H      6.547180    1.788330   -2.368850
  H      6.530220   -0.359900   -3.628670
  H      6.006540   -1.191750   -2.184070
  H      7.575880   -0.424870   -2.230290

 Total Charge           Charge          ....    0
 Multiplicity           Mult            ....    1
 Number of Electrons    NEL             ....   56
 Basis Dimension        Dim             ....  236

ORBITAL ENERGIES
----------------

  NO   OCC          E(Eh)            E(eV)
   0   2.0000     -14.435093      -392.7989
   1   2.0000     -14.433313      -392.7504
   2   2.0000     -10.344360      -281.4843
   3   2.0000     -10.316718      -280.7322
   4   2.0000     -10.279614      -279.7225
   5   2.0000     -10.266221      -279.3581
   6   2.0000     -10.207049      -277.7479
   7   2.0000      -1.078448       -29.3461
   8   2.0000      -0.986574       -26.8460
   9   2.0000      -0.891736       -24.2654
  10   2.0000      -0.833793       -22.6886
  11   2.0000      -0.774324       -21.0704
  12   2.0000      -0.715288       -19.4640
  13   2.0000      -0.683277       -18.5929
  14   2.0000      -0.634485       -17.2652
  15   2.0000      -0.597984       -16.2720
  16   2.0000      -0.575103       -15.6493
  17   2.0000      -0.555843       -15.1253
  18   2.0000      -0.535819       -14.5804
  19   2.0000      -0.499003       -13.5786
  20   2.0000      -0.496412       -13.5081
  21   2.0000      -0.488097       -13.2818
  22   2.0000      -0.470353       -12.7990
  23   2.0000      -0.440386       -11.9835
  24   2.0000      -0.433193       -11.7878
  25   2.0000      -0.423639       -11.5278
  26   2.0000      -0.346442        -9.4272
  27   2.0000      -0.259902        -7.0723
  28   0.0000       0.091960         2.5024
  29   0.0000       0.116524         3.1708
  30   0.0000       0.119565         3.2535
  31   0.0000       0.123300         3.3552
  32   0.0000       0.144941         3.9440

MULLIKEN ATOMIC CHARGES
-----------------------
   0 C :    0.681397
   1 N :   -0.555417
   2 C :    0.592775
   3 C :    0.327175
   4 N :    0.064932
   5 H :   -0.050649
   6 H :   -0.122419
   7 H :   -0.112437
   8 H :   -0.235312
   9 H :   -0.357033
  10 C :   -0.418503
  11 H :   -0.266982
  12 H :   -0.013069
  13 C :    0.625682
  14 H :   -0.117712
  15 H :    0.014554
  16 H :   -0.078608
  17 H :    0.061690
  18 H :   -0.040064
Sum of atomic charges:   -0.0000000

LOEWDIN ATOMIC CHARGES
----------------------
   0 C :    0.048805
   1 N :   -0.016000
   2 C :   -0.249698
   3 C :    0.104932
   4 N :    0.204430
   5 H :   -0.009250
   6 H :    0.016000
   7 H :    0.050198
   8 H :   -0.107029
   9 H :   -0.110110
  10 C :   -0.070921
  11 H :    0.031162
  12 H :    0.018731
  13 C :    0.115232
  14 H :    0.022889
  15 H :    0.007777
  16 H :   -0.024426
  17 H :   -0.015238
  18 H :   -0.017485

  Mayer bond orders larger than 0.100000
B(  0-C ,  1-N ) :   0.8614 B(  0-C ,  7-H ) :  -0.1585 B(  0-C , 10-C ) :   1.1282
B(  0-C , 11-H ) :   0.8225 B(  0-C , 12-H ) :   0.9017 B(  0-C , 15-H ) :   0.1143
B(  1-N ,  2-C ) :   1.0097 B(  1-N ,  3-C ) :   0.2353 B(  1-N ,  4-N ) :   0.1870
B(  1-N ,  7-H ) :   1.2733 B(  1-N , 11-H ) :   0.2196 B(  2-C ,  3-C ) :   1.5331
B(  2-C ,  4-N ) :   0.9886 B(  2-C ,  7-H ) :  -0.1695 B(  2-C ,  9-H ) :   0.1482
B(  3-C ,  4-N ) :   0.1763 B(  3-C ,  8-H ) :   0.8560 B(  3-C ,  9-H ) :   0.7778
B(  4-N ,  5-H ) :   1.0262 B(  4-N ,  6-H ) :   1.2100 B(  5-H ,  6-H ) :  -0.1839
B(  8-H ,  9-H ) :   0.1137 B( 10-C , 11-H ) :   0.1279 B( 10-C , 13-C ) :   1.2840
B( 10-C , 14-H ) :   1.0456 B( 10-C , 15-H ) :   0.9182 B( 10-C , 16-H ) :   0.2011
B( 10-C , 17-H ) :   0.1782 B( 10-C , 18-H ) :   0.2057 B( 13-C , 16-H ) :   0.8452
B( 13-C , 17-H ) :   0.8031 B( 13-C , 18-H ) :   0.8093

Dispersion correction           -0.005437208
FINAL SINGLE POINT ENERGY      -306.953584610171

DIPOLE MOMENT
-------------
                                X             Y             Z
Electronic contribution:     -2.54576       2.76601      -1.51208
Nuclear contribution   :      2.34222      -2.69386       3.01591
                        -----------------------------------------
Total Dipole Moment    :     -0.20354       0.07215       1.50383
                        -----------------------------------------
Magnitude (a.u.)       :      1.51926
Magnitude (Debye)      :      3.86165

Rotational constants in cm-1:     0.155143     0.051710     0.048050
Rotational constants in MHz :  4651.080391  1550.217078  1440.507386

                             ****ORCA TERMINATED NORMALLY****
TOTAL RUN TIME: 0 days 0 hours 0 minutes 29 seconds 915 msec
