                         Program Version 5.0.0 -  RELEASE  -
|  1> !wB97X-D3 RIJCOSX def2-SVPD def2/J TightSCF CPCM(Water)
|  2> *xyz 0 1
|  3> C          4.90646       -3.10282       -5.95484
|  4> C          3.51177       -2.80621       -6.49228
|  5> H          2.73604       -3.37345       -5.97374
|  6> H          3.44490       -3.04083       -7.55528
|  7> S          3.00462       -1.09621       -6.38926
|  8> O          4.12886       -0.32965       -6.95372
|  9> O          1.78128       -1.00078       -7.13640
| 10> C          5.02498       -3.02568       -4.43762
| 11> H          5.20153       -4.10021       -6.29691
| 12> H          5.60592       -2.39782       -6.41337
| 13> F          2.85155       -0.78368       -4.95679
| 14> H          4.73604       -2.05011       -4.10644
| 15> H          6.03776       -3.21492       -4.14890
| 16> H          4.38436       -3.75784       -3.99214
| 17> *
| 18>
| 19> %MaxCore 64000
| 20>
| 21> %pal nprocs 8
| 22> end
| 23>
| 24> %scf
| 25>   MaxIter 150
| 26> end
| 27>
| 28>
| 29>                          ****END OF INPUT****

CARTESIAN COORDINATES (ANGSTROEM)
---------------------------------
  C      4.906460   -3.102820   -5.954840
  C      3.511770   -2.806210   -6.492280
  H      2.736040   -3.373450   -5.973740
  H      3.444900   -3.040830   -7.555280
  S      3.004620   -1.096210   -6.389260
  O      4.128860   -0.329650   -6.953720
  O      1.781280   -1.000780   -7.136400
  C      5.024980   -3.025680   -4.437620
  H      5.201530   -4.100210   -6.296910
  H      5.605920   -2.397820   -6.413370
  F      2.851550   -0.783680   -4.956790
  H      4.736040   -2.050110   -4.106440
  H      6.037760   -3.214920   -4.148900
  H      4.384360   -3.757840   -3.992140

 Total Charge           Charge          ....    0
 Multiplicity           Mult            ....    1
 Number of Electrons    NEL             ....   66
 Basis Dimension        Dim             ....  212

ORBITAL ENERGIES
----------------

  NO   OCC          E(Eh)            E(eV)
   0   2.0000     -89.238370     -2428.2995
   1   2.0000     -24.904765      -677.6931
   2   2.0000     -19.271345      -524.4000
   3   2.0000     -19.260619      -524.1081
   4   2.0000     -10.339167      -281.3430
   5   2.0000     -10.302414      -280.3429
   6   2.0000     -10.275503      -279.6107
   7   2.0000      -8.312743      -226.2012
   8   2.0000      -6.276350      -170.7882
   9   2.0000      -6.270514      -170.6294
  10   2.0000      -6.268338      -170.5702
  11   2.0000      -1.466528       -39.9063
  12   2.0000      -1.237887       -33.6846
  13   2.0000      -1.137134       -30.9430
  14   2.0000      -0.937867       -25.5207
  15   2.0000      -0.856138       -23.2967
  16   2.0000      -0.806535       -21.9469
  17   2.0000      -0.734885       -19.9972
  18   2.0000      -0.680669       -18.5219
  19   2.0000      -0.674058       -18.3420
  20   2.0000      -0.657673       -17.8962
  21   2.0000      -0.593049       -16.1377
  22   2.0000      -0.572750       -15.5853
  23   2.0000      -0.566677       -15.4201
  24   2.0000      -0.549236       -14.9455
  25   2.0000      -0.522572       -14.2199
  26   2.0000      -0.501648       -13.6505
  27   2.0000      -0.473145       -12.8749
  28   2.0000      -0.451383       -12.2827
  29   2.0000      -0.443872       -12.0784
  30   2.0000      -0.440183       -11.9780
  31   2.0000      -0.425569       -11.5803
  32   2.0000      -0.420902       -11.4533
  33   0.0000       0.070652         1.9225
  34   0.0000       0.095975         2.6116
  35   0.0000       0.097008         2.6397
  36   0.0000       0.102690         2.7943
  37   0.0000       0.121264         3.2998

MULLIKEN ATOMIC CHARGES
-----------------------
   0 C :   -0.263540
   1 C :   -0.150147
   2 H :    0.128589
   3 H :    0.118421
   4 S :    1.525391
   5 O :   -0.747076
   6 O :   -0.709122
   7 C :    0.698186
   8 H :   -0.049305
   9 H :    0.008047
  10 F :   -0.417937
  11 H :   -0.175947
  12 H :   -0.001518
  13 H :    0.035957
Sum of atomic charges:    0.0000000

LOEWDIN ATOMIC CHARGES
----------------------
   0 C :   -0.070068
   1 C :   -0.040715
   2 H :    0.041600
   3 H :    0.044628
   4 S :    1.128681
   5 O :   -0.513078
   6 O :   -0.491396
   7 C :    0.133925
   8 H :    0.040768
   9 H :    0.023432
  10 F :   -0.258872
  11 H :   -0.028839
  12 H :   -0.006254
  13 H :   -0.003812

  Mayer bond orders larger than 0.100000
B(  0-C ,  1-C ) :   1.2203 B(  0-C ,  3-H ) :   0.1049 B(  0-C ,  7-C ) :   1.2446
B(  0-C ,  8-H ) :   0.9317 B(  0-C ,  9-H ) :   0.9269 B(  0-C , 11-H ) :   0.2131
B(  0-C , 12-H ) :   0.1857 B(  0-C , 13-H ) :   0.1856 B(  1-C ,  2-H ) :   0.9329
B(  1-C ,  3-H ) :   0.9241 B(  1-C ,  4-S ) :   1.0316 B(  1-C ,  8-H ) :   0.1071
B(  1-C ,  9-H ) :   0.1351 B(  4-S ,  5-O ) :   1.4626 B(  4-S ,  6-O ) :   1.5345
B(  4-S , 10-F ) :   0.6305 B(  7-C , 11-H ) :   0.8341 B(  7-C , 12-H ) :   0.7827
B(  7-C , 13-H ) :   0.7739 B( 11-H , 13-H ) :   0.1009

Dispersion correction           -0.004480590
FINAL SINGLE POINT ENERGY      -766.482425995006

DIPOLE MOMENT
-------------
                                X             Y             Z
Electronic contribution:     -7.42800       8.90689      -1.64213
Nuclear contribution   :      7.88819     -10.86344       2.71963
                        -----------------------------------------
Total Dipole Moment    :      0.46019      -1.95655       1.07750
                        -----------------------------------------
Magnitude (a.u.)       :      2.28054
Magnitude (Debye)      :      5.79668

Rotational constants in cm-1:     0.130261     0.054435     0.050898
Rotational constants in MHz :  3905.114465  1631.935083  1525.880669

                             ****ORCA TERMINATED NORMALLY****
TOTAL RUN TIME: 0 days 0 hours 0 minutes 22 seconds 417 msec
