                         Program Version 5.0.0 -  RELEASE  -
|  1> !wB97X-D3 RIJCOSX def2-SVPD def2/J TightSCF CPCM(Water)
|  2> *xyz 0 1
|  3> C          4.49059        1.15590       -2.46929
|  4> N          4.30539        1.22276       -3.90832
|  5> C          4.63192        2.24637       -4.67096
|  6> N          4.54169        2.14399       -5.98714
|  7> C          5.08409        3.39358       -4.11855
|  8> H          4.92067        3.57050       -3.13587
|  9> H          5.25465        4.19739       -4.70696
| 10> H          3.82453        0.44911       -4.35093
| 11> H          4.34337        1.24932       -6.41665
| 12> H          4.67671        2.95662       -6.57411
| 13> C          5.94213        0.93950       -2.03689
| 14> H          3.86431        0.32853       -2.13661
| 15> H          4.07623        2.04999       -1.98901
| 16> C          6.55996       -0.35629       -2.55909
| 17> H          5.96798        0.95257       -0.94244
| 18> H          6.54718        1.78833       -2.36885
| 19> H          6.53022       -0.35990       -3.62867
| 20> H          6.00654       -1.19175       -2.18407
| 21> H          7.57588       -0.42487       -2.23029
| 22> *
| 23>
| 24> %MaxCore 64000
| 25>
| 26> %pal nprocs 8
| 27> end
| 28>
| 29> %scf
| 30>   MaxIter 150
| 31> end
| 32>
| 33>
| 34>                          ****END OF INPUT****

CARTESIAN COORDINATES (ANGSTROEM)
---------------------------------
  C      4.490590    1.155900   -2.469290
  N      4.305390    1.222760   -3.908320
  C      4.631920    2.246370   -4.670960
  N      4.541690    2.143990   -5.987140
  C      5.084090    3.393580   -4.118550
  H      4.920670    3.570500   -3.135870
  H      5.254650    4.197390   -4.706960
  H      3.824530    0.449110   -4.350930
  H      4.343370    1.249320   -6.416650
  H      4.676710    2.956620   -6.574110
  C      5.942130    0.939500   -2.036890
  H      3.864310    0.328530   -2.136610
  H      4.076230    2.049990   -1.989010
  C      6.559960   -0.356290   -2.559090
  H      5.967980    0.952570   -0.942440
  H      6.547180    1.788330   -2.368850
  H      6.530220   -0.359900   -3.628670
  H      6.006540   -1.191750   -2.184070
  H      7.575880   -0.424870   -2.230290

 Total Charge           Charge          ....    0
 Multiplicity           Mult            ....    1
 Number of Electrons    NEL             ....   56
 Basis Dimension        Dim             ....  236

ORBITAL ENERGIES
----------------

  NO   OCC          E(Eh)            E(eV)
   0   2.0000     -14.438122      -392.8813
   1   2.0000     -14.433605      -392.7584
   2   2.0000     -10.346269      -281.5363
   3   2.0000     -10.315374      -280.6956
   4   2.0000     -10.277462      -279.6640
   5   2.0000     -10.265291      -279.3328
   6   2.0000     -10.207526      -277.7609
   7   2.0000      -1.081463       -29.4281
   8   2.0000      -0.993449       -27.0331
   9   2.0000      -0.882974       -24.0269
  10   2.0000      -0.822719       -22.3873
  11   2.0000      -0.793756       -21.5992
  12   2.0000      -0.710729       -19.3399
  13   2.0000      -0.657371       -17.8880
  14   2.0000      -0.650760       -17.7081
  15   2.0000      -0.619396       -16.8546
  16   2.0000      -0.573960       -15.6182
  17   2.0000      -0.549908       -14.9637
  18   2.0000      -0.527032       -14.3413
  19   2.0000      -0.500032       -13.6066
  20   2.0000      -0.494583       -13.4583
  21   2.0000      -0.483338       -13.1523
  22   2.0000      -0.470472       -12.8022
  23   2.0000      -0.440663       -11.9911
  24   2.0000      -0.431307       -11.7365
  25   2.0000      -0.422042       -11.4843
  26   2.0000      -0.341082        -9.2813
  27   2.0000      -0.260923        -7.1001
  28   0.0000       0.093856         2.5540
  29   0.0000       0.114737         3.1222
  30   0.0000       0.118183         3.2159
  31   0.0000       0.123317         3.3556
  32   0.0000       0.143339         3.9005

MULLIKEN ATOMIC CHARGES
-----------------------
   0 C :    0.680220
   1 N :   -0.638245
   2 C :    0.597151
   3 N :   -0.010416
   4 C :    0.406071
   5 H :   -0.041551
   6 H :   -0.558498
   7 H :   -0.175371
   8 H :   -0.075178
   9 H :   -0.016515
  10 C :   -0.401731
  11 H :   -0.279889
  12 H :    0.079281
  13 C :    0.618414
  14 H :   -0.099557
  15 H :   -0.015150
  16 H :   -0.076891
  17 H :    0.049700
  18 H :   -0.041845
Sum of atomic charges:   -0.0000000

LOEWDIN ATOMIC CHARGES
----------------------
   0 C :    0.051672
   1 N :   -0.015755
   2 C :   -0.243439
   3 N :    0.186998
   4 C :    0.121922
   5 H :   -0.126110
   6 H :   -0.116529
   7 H :    0.045321
   8 H :    0.014792
   9 H :    0.021184
  10 C :   -0.068058
  11 H :    0.030999
  12 H :    0.018446
  13 C :    0.114234
  14 H :    0.023440
  15 H :    0.000630
  16 H :   -0.025501
  17 H :   -0.016224
  18 H :   -0.018021

  Mayer bond orders larger than 0.100000
B(  0-C ,  1-N ) :   0.8352 B(  0-C ,  5-H ) :   0.1032 B(  0-C ,  7-H ) :  -0.1688
B(  0-C , 10-C ) :   1.1028 B(  0-C , 11-H ) :   0.8927 B(  0-C , 12-H ) :   0.8664
B(  0-C , 15-H ) :   0.1256 B(  1-N ,  2-C ) :   0.8464 B(  1-N ,  3-N ) :   0.2147
B(  1-N ,  4-C ) :   0.3584 B(  1-N ,  7-H ) :   1.4469 B(  1-N , 11-H ) :   0.1609
B(  2-C ,  3-N ) :   0.9444 B(  2-C ,  4-C ) :   1.7270 B(  2-C ,  5-H ) :   0.2970
B(  2-C ,  6-H ) :   0.1967 B(  2-C ,  7-H ) :  -0.2903 B(  3-N ,  4-C ) :   0.2088
B(  3-N ,  8-H ) :   1.1648 B(  3-N ,  9-H ) :   1.1831 B(  4-C ,  5-H ) :   0.6235
B(  4-C ,  6-H ) :   0.8465 B(  8-H ,  9-H ) :  -0.1624 B( 10-C , 11-H ) :   0.1318
B( 10-C , 13-C ) :   1.2819 B( 10-C , 14-H ) :   1.0336 B( 10-C , 15-H ) :   0.9384
B( 10-C , 16-H ) :   0.1947 B( 10-C , 17-H ) :   0.1789 B( 10-C , 18-H ) :   0.2047
B( 11-H , 12-H ) :  -0.1312 B( 13-C , 16-H ) :   0.8505 B( 13-C , 17-H ) :   0.8044
B( 13-C , 18-H ) :   0.8127

Dispersion correction           -0.005377382
FINAL SINGLE POINT ENERGY      -306.953704253697

DIPOLE MOMENT
-------------
                                X             Y             Z
Electronic contribution:     -3.20706       1.08558      -4.02994
Nuclear contribution   :      2.46104      -2.42013       3.42523
                        -----------------------------------------
Total Dipole Moment    :     -0.74602      -1.33455      -0.60471
                        -----------------------------------------
Magnitude (a.u.)       :      1.64415
Magnitude (Debye)      :      4.17910

Rotational constants in cm-1:     0.157414     0.050835     0.047338
Rotational constants in MHz :  4719.163414  1524.007825  1419.164399

                             ****ORCA TERMINATED NORMALLY****
TOTAL RUN TIME: 0 days 0 hours 0 minutes 29 seconds 682 msec
