                         Program Version 5.0.0 -  RELEASE  -
|  1> !wB97X-D3 RIJCOSX def2-SVPD def2/J TightSCF CPCM(Water) xyzfile
|  2>
|  3> *xyzfile 0 1 D4.xyz
|  4>
|  5> %MaxCore 64000
|  6>
|  7> %pal nprocs 18
|  8> end
|  9>
| 10> %scf
| 11>   MaxIter 150
| 12> end
| 13>
| 14>
| 15>                          ****END OF INPUT****

CARTESIAN COORDINATES (ANGSTROEM)
---------------------------------
  C      4.490588    1.155899   -2.469290
  C      4.305394    1.222762   -3.908317
  C      4.906458   -3.102816   -5.954844
  C      3.511771   -2.806215   -6.492283
  H      2.736044   -3.373445   -5.973736
  H      3.444904   -3.040831   -7.555281
  S      3.004618   -1.096206   -6.389259
  C      4.631918    2.246365   -4.670958
  N      4.541686    2.143990   -5.987139
  N      5.084086    3.393584   -4.118545
  H      4.920675    3.570501   -3.135870
  H      5.254652    4.197390   -4.706956
  H      3.824530    0.449113   -4.350926
  H      4.343373    1.249318   -6.416646
  H      4.676712    2.956624   -6.574113
  O      4.128856   -0.329647   -6.953717
  F      1.781285   -1.000779   -7.136399
  C      5.942129    0.939500   -2.036893
  H      3.864305    0.328532   -2.136611
  H      4.076233    2.049994   -1.989010
  C      6.462677   -3.117775   -3.944671
  C      5.024977   -3.025679   -4.437625
  H      4.423321   -3.818693   -3.977648
  H      4.579350   -2.087131   -4.108727
  H      5.201533   -4.100207   -6.296905
  H      5.605922   -2.397822   -6.413368
  C      6.559957   -0.356290   -2.559086
  H      5.967976    0.952567   -0.942444
  H      6.547184    1.788331   -2.368849
  C      6.006283   -1.615917   -1.899301
  H      7.642360   -0.318000   -2.402059
  H      6.414855   -0.403433   -3.642587
  C      6.608718   -2.917014   -2.435655
  H      6.190324   -1.561115   -0.820948
  H      4.919250   -1.651245   -2.016586
  H      7.066975   -2.374258   -4.475514
  H      6.887808   -4.089747   -4.215332
  H      6.135197   -3.755573   -1.915159
  H      7.671142   -2.955503   -2.172291
  O      2.851546   -0.783683   -4.956789

 Total Charge           Charge          ....    0
 Multiplicity           Mult            ....    1
 Number of Electrons    NEL             ....  144
 Basis Dimension        Dim             ....  540

ORBITAL ENERGIES
----------------

  NO   OCC          E(Eh)            E(eV)
   0   2.0000     -89.248759     -2428.5822
   1   2.0000     -24.925570      -678.2592
   2   2.0000     -19.270451      -524.3756
   3   2.0000     -19.262894      -524.1700
   4   2.0000     -14.424193      -392.5023
   5   2.0000     -14.407605      -392.0509
   6   2.0000     -10.341561      -281.4082
   7   2.0000     -10.321896      -280.8731
   8   2.0000     -10.303698      -280.3779
   9   2.0000     -10.279123      -279.7092
  10   2.0000     -10.276769      -279.6451
  11   2.0000     -10.275147      -279.6010
  12   2.0000     -10.271342      -279.4974
  13   2.0000     -10.267534      -279.3938
  14   2.0000     -10.265155      -279.3291
  15   2.0000     -10.258962      -279.1606
  16   2.0000     -10.187380      -277.2127
  17   2.0000      -8.321804      -226.4478
  18   2.0000      -6.285491      -171.0369
  19   2.0000      -6.279709      -170.8796
  20   2.0000      -6.277340      -170.8151
  21   2.0000      -1.499322       -40.7986
  22   2.0000      -1.235253       -33.6129
  23   2.0000      -1.132877       -30.8272
  24   2.0000      -1.054189       -28.6860
  25   2.0000      -0.959947       -26.1215
  26   2.0000      -0.943628       -25.6774
  27   2.0000      -0.917635       -24.9701
  28   2.0000      -0.890981       -24.2448
  29   2.0000      -0.865627       -23.5549
  30   2.0000      -0.834518       -22.7084
  31   2.0000      -0.810064       -22.0430
  32   2.0000      -0.776079       -21.1182
  33   2.0000      -0.748034       -20.3550
  34   2.0000      -0.721753       -19.6399
  35   2.0000      -0.704200       -19.1623
  36   2.0000      -0.696354       -18.9488
  37   2.0000      -0.685832       -18.6624
  38   2.0000      -0.676496       -18.4084
  39   2.0000      -0.660757       -17.9801
  40   2.0000      -0.647142       -17.6096
  41   2.0000      -0.632372       -17.2077
  42   2.0000      -0.604065       -16.4374
  43   2.0000      -0.599187       -16.3047
  44   2.0000      -0.581485       -15.8230
  45   2.0000      -0.575320       -15.6553
  46   2.0000      -0.564547       -15.3621
  47   2.0000      -0.555117       -15.1055
  48   2.0000      -0.551538       -15.0081
  49   2.0000      -0.533264       -14.5108
  50   2.0000      -0.524978       -14.2854
  51   2.0000      -0.518073       -14.0975
  52   2.0000      -0.514595       -14.0028
  53   2.0000      -0.506887       -13.7931
  54   2.0000      -0.489045       -13.3076
  55   2.0000      -0.481513       -13.1026
  56   2.0000      -0.473218       -12.8769
  57   2.0000      -0.464514       -12.6401
  58   2.0000      -0.461593       -12.5606
  59   2.0000      -0.447794       -12.1851
  60   2.0000      -0.440461       -11.9856
  61   2.0000      -0.432800       -11.7771
  62   2.0000      -0.426106       -11.5949
  63   2.0000      -0.420082       -11.4310
  64   2.0000      -0.417408       -11.3582
  65   2.0000      -0.412800       -11.2329
  66   2.0000      -0.398876       -10.8540
  67   2.0000      -0.392907       -10.6915
  68   2.0000      -0.388556       -10.5732
  69   2.0000      -0.375743       -10.2245
  70   2.0000      -0.346159        -9.4195
  71   2.0000      -0.237613        -6.4658
  72   0.0000       0.071965         1.9583
  73   0.0000       0.090532         2.4635
  74   0.0000       0.095296         2.5931
  75   0.0000       0.097036         2.6405
  76   0.0000       0.109863         2.9895

MULLIKEN ATOMIC CHARGES
-----------------------
   0 C :    0.045878
   1 C :    0.327438
   2 C :    0.112165
   3 C :    0.125181
   4 H :    0.135452
   5 H :    0.121122
   6 S :    1.698896
   7 C :    0.810304
   8 N :    0.193466
   9 N :   -0.082461
  10 H :    0.004850
  11 H :   -0.185951
  12 H :   -0.715593
  13 H :   -0.280498
  14 H :   -0.139980
  15 O :   -0.706218
  16 F :   -0.523631
  17 C :    0.394183
  18 H :    0.148350
  19 H :   -0.175371
  20 C :   -0.011471
  21 C :    0.249977
  22 H :    0.066924
  23 H :   -0.570382
  24 H :   -0.033801
  25 H :    0.064298
  26 C :    0.059378
  27 H :   -0.063705
  28 H :   -0.129738
  29 C :   -0.117912
  30 H :   -0.111492
  31 H :   -0.086048
  32 C :    0.611305
  33 H :   -0.314319
  34 H :    0.117397
  35 H :    0.127758
  36 H :   -0.303393
  37 H :   -0.018581
  38 H :    0.025210
  39 O :   -0.868987
Sum of atomic charges:    0.0000000

LOEWDIN ATOMIC CHARGES
----------------------
   0 C :   -0.052354
   1 C :   -0.036891
   2 C :   -0.015411
   3 C :   -0.028663
   4 H :    0.044963
   5 H :    0.039090
   6 S :    1.215701
   7 C :   -0.210612
   8 N :    0.197349
   9 N :    0.198256
  10 H :   -0.007296
  11 H :    0.000863
  12 H :   -0.152950
  13 H :   -0.122967
  14 H :    0.008080
  15 O :   -0.464297
  16 F :   -0.222731
  17 C :   -0.035112
  18 H :    0.008508
  19 H :    0.007538
  20 C :   -0.036110
  21 C :   -0.026340
  22 H :    0.045246
  23 H :   -0.017913
  24 H :    0.048491
  25 H :    0.030020
  26 C :   -0.035813
  27 H :    0.016220
  28 H :    0.007406
  29 C :   -0.038642
  30 H :    0.025150
  31 H :    0.003094
  32 C :   -0.033633
  33 H :    0.024029
  34 H :    0.007112
  35 H :    0.018995
  36 H :    0.026480
  37 H :    0.022829
  38 H :    0.023034
  39 O :   -0.480720

  Mayer bond orders larger than 0.100000
B(  0-C ,  1-C ) :   1.2166 B(  0-C , 12-H ) :   0.7876 B(  0-C , 17-C ) :   1.1341
B(  0-C , 18-H ) :   0.6915 B(  0-C , 19-H ) :   0.9219 B(  0-C , 27-H ) :   0.1785
B(  0-C , 28-H ) :   0.1408 B(  1-C ,  7-C ) :   1.6701 B(  1-C ,  8-N ) :   0.3032
B(  1-C ,  9-N ) :   0.2969 B(  1-C , 10-H ) :  -0.1004 B(  1-C , 12-H ) :  -0.4858
B(  1-C , 18-H ) :   0.3549 B(  1-C , 19-H ) :   0.1630 B(  2-C ,  3-C ) :   1.2841
B(  2-C ,  5-H ) :   0.2465 B(  2-C , 21-C ) :   1.1273 B(  2-C , 24-H ) :   0.8555
B(  2-C , 25-H ) :   0.8660 B(  3-C ,  4-H ) :   0.9092 B(  3-C ,  5-H ) :   0.7095
B(  3-C ,  6-S ) :   1.0152 B(  3-C , 16-F ) :   0.1024 B(  3-C , 25-H ) :   0.1034
B(  6-S , 15-O ) :   1.3339 B(  6-S , 16-F ) :   0.4670 B(  6-S , 39-O ) :   1.4146
B(  7-C ,  8-N ) :   0.8725 B(  7-C ,  9-N ) :   0.8312 B(  7-C , 11-H ) :  -0.1606
B(  7-C , 13-H ) :  -0.2019 B(  7-C , 14-H ) :  -0.1585 B(  8-N , 13-H ) :   1.1609
B(  8-N , 14-H ) :   1.3500 B(  9-N , 10-H ) :   1.0312 B(  9-N , 11-H ) :   1.3253
B( 10-H , 11-H ) :  -0.1890 B( 11-H , 12-H ) :  -0.1102 B( 12-H , 18-H ) :  -0.1844
B( 12-H , 39-O ) :   0.2111 B( 13-H , 14-H ) :  -0.2607 B( 13-H , 15-O ) :   0.1537
B( 16-F , 39-O ) :   0.1120 B( 17-C , 18-H ) :   0.1063 B( 17-C , 26-C ) :   1.2703
B( 17-C , 27-H ) :   0.7950 B( 17-C , 28-H ) :   0.7331 B( 17-C , 31-H ) :   0.1342
B( 20-C , 21-C ) :   1.2170 B( 20-C , 22-H ) :   0.1060 B( 20-C , 23-H ) :   0.1044
B( 20-C , 32-C ) :   1.1350 B( 20-C , 35-H ) :   0.8558 B( 20-C , 36-H ) :   0.9847
B( 20-C , 37-H ) :   0.1048 B( 20-C , 38-H ) :   0.2068 B( 21-C , 22-H ) :   0.7244
B( 21-C , 23-H ) :   0.8030 B( 21-C , 24-H ) :   0.1746 B( 21-C , 36-H ) :   0.1926
B( 22-H , 23-H ) :   0.2224 B( 23-H , 34-H ) :   0.1164 B( 26-C , 27-H ) :   0.1243
B( 26-C , 28-H ) :   0.2166 B( 26-C , 29-C ) :   1.2022 B( 26-C , 30-H ) :   0.8484
B( 26-C , 31-H ) :   0.9006 B( 26-C , 33-H ) :   0.1319 B( 27-H , 28-H ) :  -0.1161
B( 29-C , 30-H ) :   0.1288 B( 29-C , 31-H ) :   0.1059 B( 29-C , 32-C ) :   1.1346
B( 29-C , 33-H ) :   1.0415 B( 29-C , 34-H ) :   0.8489 B( 29-C , 37-H ) :   0.2678
B( 29-C , 38-H ) :   0.1334 B( 32-C , 37-H ) :   0.6978 B( 32-C , 38-H ) :   0.7099

Dispersion correction           -0.021960216
FINAL SINGLE POINT ENERGY     -1190.059985052035

DIPOLE MOMENT
-------------
                                X             Y             Z
Electronic contribution:    -20.71877       3.10683     -22.37738
Nuclear contribution   :     19.99734      -4.67125      20.55522
                        -----------------------------------------
Total Dipole Moment    :     -0.72143      -1.56442      -1.82216
                        -----------------------------------------
Magnitude (a.u.)       :      2.50761
Magnitude (Debye)      :      6.37385

Rotational constants in cm-1:     0.014213     0.012058     0.007367
Rotational constants in MHz :   426.102180   361.491761   220.844824

                             ****ORCA TERMINATED NORMALLY****
TOTAL RUN TIME: 0 days 0 hours 2 minutes 12 seconds 4 msec
