                         Program Version 5.0.0 -  RELEASE  -
|  1> !DLPNO-CCSD(T) aug-cc-pVTZ aug-cc-pVTZ/C TightSCF TightPNO RIJCOSX def2/J
|  2> *xyz -1 1
|  3> C          0.84888        2.66797       -4.30235
|  4> C          2.09343        1.86104       -4.65684
|  5> H          2.44481        2.04157       -5.67499
|  6> H          2.90175        2.13786       -3.98034
|  7> S          1.87964        0.07859       -4.46297
|  8> O          3.20757       -0.46611       -4.42026
|  9> O          1.07506       -0.05616       -3.26876
| 10> O          1.13166       -0.31996       -5.67903
| 11> H          0.05064        2.40112       -4.96303
| 12> H          1.06043        3.71210       -4.40203
| 13> H          0.56237        2.45684       -3.29327
| 14> *
| 15>
| 16> %MaxCore 64000
| 17>
| 18> %pal nprocs 18
| 19> end
| 20>
| 21> %scf
| 22>   MaxIter 150
| 23> end
| 24>
| 25>
| 26>                          ****END OF INPUT****

CARTESIAN COORDINATES (ANGSTROEM)
---------------------------------
  C      0.848880    2.667970   -4.302350
  C      2.093430    1.861040   -4.656840
  H      2.444810    2.041570   -5.674990
  H      2.901750    2.137860   -3.980340
  S      1.879640    0.078590   -4.462970
  O      3.207570   -0.466110   -4.420260
  O      1.075060   -0.056160   -3.268760
  O      1.131660   -0.319960   -5.679030
  H      0.050640    2.401120   -4.963030
  H      1.060430    3.712100   -4.402030
  H      0.562370    2.456840   -3.293270

 Total Charge           Charge          ....   -1
 Multiplicity           Mult            ....    1
 Number of Electrons    NEL             ....   58
 Basis Dimension        Dim             ....  395

ORBITAL ENERGIES
----------------

  NO   OCC          E(Eh)            E(eV)
   0   2.0000     -91.981785     -2502.9516
   1   2.0000     -20.335838      -553.3663
   2   2.0000     -20.331880      -553.2586
   3   2.0000     -20.319255      -552.9150
   4   2.0000     -11.089230      -301.7533
   5   2.0000     -11.078489      -301.4610
   6   2.0000      -8.945219      -243.4118
   7   2.0000      -6.631444      -180.4508
   8   2.0000      -6.630120      -180.4147
   9   2.0000      -6.630029      -180.4123
  10   2.0000      -1.275550       -34.7095
  11   2.0000      -1.135414       -30.8962
  12   2.0000      -1.106444       -30.1079
  13   2.0000      -0.902646       -24.5623
  14   2.0000      -0.741271       -20.1710
  15   2.0000      -0.595394       -16.2015
  16   2.0000      -0.502594       -13.6763
  17   2.0000      -0.488978       -13.3058
  18   2.0000      -0.460148       -12.5213
  19   2.0000      -0.446790       -12.1578
  20   2.0000      -0.421724       -11.4757
  21   2.0000      -0.380026       -10.3410
  22   2.0000      -0.365943        -9.9578
  23   2.0000      -0.324757        -8.8371
  24   2.0000      -0.322318        -8.7707
  25   2.0000      -0.282236        -7.6800
  26   2.0000      -0.267450        -7.2777
  27   2.0000      -0.245055        -6.6683
  28   2.0000      -0.231073        -6.2878
  29   0.0000       0.113956         3.1009
  30   0.0000       0.133045         3.6203
  31   0.0000       0.134965         3.6726
  32   0.0000       0.145944         3.9713
  33   0.0000       0.155157         4.2220

MULLIKEN ATOMIC CHARGES
-----------------------
   0 C :   -0.954544
   1 C :   -0.582831
   2 H :    0.282250
   3 H :    0.247172
   4 S :    2.190356
   5 O :   -1.030073
   6 O :   -1.042467
   7 O :   -1.032019
   8 H :    0.306670
   9 H :    0.285841
  10 H :    0.329645
Sum of atomic charges:   -1.0000000

LOEWDIN ATOMIC CHARGES
----------------------
   0 C :    0.521544
   1 C :    0.113738
   2 H :   -0.205876
   3 H :   -0.220405
   4 S :   -0.407556
   5 O :   -0.051987
   6 O :   -0.041632
   7 O :   -0.082821
   8 H :   -0.199348
   9 H :   -0.207942
  10 H :   -0.217714

  Mayer bond orders larger than 0.100000
B(  0-C ,  1-C ) :   0.8949 B(  0-C ,  8-H ) :   0.9161 B(  0-C ,  9-H ) :   0.9548
B(  0-C , 10-H ) :   0.9170 B(  1-C ,  2-H ) :   0.9132 B(  1-C ,  3-H ) :   0.9555
B(  1-C ,  4-S ) :   0.7636 B(  4-S ,  5-O ) :   1.3560 B(  4-S ,  6-O ) :   1.3616
B(  4-S ,  7-O ) :   1.3233

E(0)                                       ...   -700.924845733
E(0)                                       ...   -700.924845733
E(CORR)(strong-pairs)                      ...     -1.301809176
E(CORR)(weak-pairs)                        ...     -0.001288917
E(CORR)(corrected)                         ...     -1.303098094
E(TOT)                                     ...   -702.227943826
E(CCSD(T))                                 ...   -702.283430033
FINAL SINGLE POINT ENERGY      -702.283430032726

DIPOLE MOMENT
-------------
                                X             Y             Z
Electronic contribution:      1.62325      -7.49968       0.05911
Nuclear contribution   :     -1.55288       9.51857       0.00420
                        -----------------------------------------
Total Dipole Moment    :      0.07037       2.01889       0.06331
                        -----------------------------------------
Magnitude (a.u.)       :      2.02111
Magnitude (Debye)      :      5.13726

Rotational constants in cm-1:     0.163401     0.083833     0.082462
Rotational constants in MHz :  4898.624208  2513.264548  2472.149188

                             ****ORCA TERMINATED NORMALLY****
TOTAL RUN TIME: 0 days 0 hours 6 minutes 46 seconds 410 msec
