                         Program Version 5.0.0 -  RELEASE  -
|  1> !DLPNO-CCSD(T) aug-cc-pVTZ aug-cc-pVTZ/C TightSCF TightPNO RIJCOSX def2/J
|  2> *xyz 1 1
|  3> C         -0.46129        2.23469       -4.98962
|  4> C          0.84888        2.66797       -4.30235
|  5> C         -0.42384        2.39877       -6.47432
|  6> N         -0.95947        3.49265       -7.00740
|  7> N          0.14558        1.48689       -7.20399
|  8> H          0.56537        0.69681       -6.72386
|  9> H          0.22068        1.58177       -8.20752
| 10> H         -1.40624        4.18151       -6.40326
| 11> H         -0.93421        3.68160       -7.99947
| 12> H         -1.28888        2.82674       -4.59500
| 13> H         -0.65170        1.18634       -4.75655
| 14> H          1.66208        2.08894       -4.68750
| 15> H          0.76716        2.51042       -3.24717
| 16> H          1.02677        3.70527       -4.49537
| 17> *
| 18>
| 19> %MaxCore 64000
| 20>
| 21> %pal nprocs 18
| 22> end
| 23>
| 24> %scf
| 25>   MaxIter 150
| 26> end
| 27>
| 28>
| 29>                          ****END OF INPUT****

CARTESIAN COORDINATES (ANGSTROEM)
---------------------------------
  C     -0.461290    2.234690   -4.989620
  C      0.848880    2.667970   -4.302350
  C     -0.423840    2.398770   -6.474320
  N     -0.959470    3.492650   -7.007400
  N      0.145580    1.486890   -7.203990
  H      0.565370    0.696810   -6.723860
  H      0.220680    1.581770   -8.207520
  H     -1.406240    4.181510   -6.403260
  H     -0.934210    3.681600   -7.999470
  H     -1.288880    2.826740   -4.595000
  H     -0.651700    1.186340   -4.756550
  H      1.662080    2.088940   -4.687500
  H      0.767160    2.510420   -3.247170
  H      1.026770    3.705270   -4.495370

 Total Charge           Charge          ....    1
 Multiplicity           Mult            ....    1
 Number of Electrons    NEL             ....   40
 Basis Dimension        Dim             ....  437

ORBITAL ENERGIES
----------------

  NO   OCC          E(Eh)            E(eV)
   0   2.0000     -15.808973      -430.1840
   1   2.0000     -15.804145      -430.0526
   2   2.0000     -11.569394      -314.8192
   3   2.0000     -11.425191      -310.8953
   4   2.0000     -11.380394      -309.6763
   5   2.0000      -1.523292       -41.4509
   6   2.0000      -1.404838       -38.2276
   7   2.0000      -1.239024       -33.7156
   8   2.0000      -1.093566       -29.7575
   9   2.0000      -1.026151       -27.9230
  10   2.0000      -0.962250       -26.1841
  11   2.0000      -0.939562       -25.5668
  12   2.0000      -0.869516       -23.6607
  13   2.0000      -0.811968       -22.0948
  14   2.0000      -0.789597       -21.4860
  15   2.0000      -0.771933       -21.0054
  16   2.0000      -0.695287       -18.9197
  17   2.0000      -0.681544       -18.5458
  18   2.0000      -0.677817       -18.4443
  19   2.0000      -0.627663       -17.0796
  20   0.0000      -0.097627        -2.6566
  21   0.0000      -0.075220        -2.0468
  22   0.0000      -0.073684        -2.0051
  23   0.0000      -0.063885        -1.7384
  24   0.0000      -0.051091        -1.3903

MULLIKEN ATOMIC CHARGES
-----------------------
   0 C :   -0.090743
   1 C :   -0.926908
   2 C :    0.728640
   3 N :   -0.367446
   4 N :   -0.360309
   5 H :    0.107894
   6 H :    0.152649
   7 H :    0.124169
   8 H :    0.148966
   9 H :    0.269805
  10 H :    0.277062
  11 H :    0.308811
  12 H :    0.329072
  13 H :    0.298336
Sum of atomic charges:    1.0000000

LOEWDIN ATOMIC CHARGES
----------------------
   0 C :    0.340639
   1 C :    0.653847
   2 C :   -0.223588
   3 N :    0.947784
   4 N :    0.944984
   5 H :   -0.224963
   6 H :   -0.218939
   7 H :   -0.228302
   8 H :   -0.231677
   9 H :   -0.134491
  10 H :   -0.128744
  11 H :   -0.172466
  12 H :   -0.156755
  13 H :   -0.167329

  Mayer bond orders larger than 0.100000
B(  0-C ,  1-C ) :   0.8377 B(  0-C ,  2-C ) :   0.4341 B(  0-C ,  9-H ) :   0.9737
B(  0-C , 10-H ) :   0.9607 B(  1-C ,  2-C ) :   0.1334 B(  1-C , 11-H ) :   0.9197
B(  1-C , 12-H ) :   0.9301 B(  1-C , 13-H ) :   0.9307 B(  2-C ,  3-N ) :   0.9678
B(  2-C ,  4-N ) :   1.0196 B(  3-N ,  7-H ) :   1.0974 B(  3-N ,  8-H ) :   1.0751
B(  4-N ,  5-H ) :   1.1264 B(  4-N ,  6-H ) :   1.0632

E(0)                                       ...   -227.645662912
E(0)                                       ...   -227.645662912
E(CORR)(strong-pairs)                      ...     -0.968676696
E(CORR)(weak-pairs)                        ...     -0.000923959
E(CORR)(corrected)                         ...     -0.969600655
E(TOT)                                     ...   -228.615263567
E(CCSD(T))                                 ...   -228.653580833
FINAL SINGLE POINT ENERGY      -228.653580833223

DIPOLE MOMENT
-------------
                                X             Y             Z
Electronic contribution:     -1.55337      -0.28442      -3.81233
Nuclear contribution   :      1.33202       0.27544       2.83701
                        -----------------------------------------
Total Dipole Moment    :     -0.22135      -0.00898      -0.97532
                        -----------------------------------------
Magnitude (a.u.)       :      1.00017
Magnitude (Debye)      :      2.54222

Rotational constants in cm-1:     0.258570     0.126296     0.098869
Rotational constants in MHz :  7751.748523  3786.267300  2964.011691

                             ****ORCA TERMINATED NORMALLY****
TOTAL RUN TIME: 0 days 0 hours 6 minutes 23 seconds 746 msec
