                         Program Version 5.0.0 -  RELEASE  -
|  1> !DLPNO-CCSD(T) aug-cc-pVTZ aug-cc-pVTZ/C TightSCF TightPNO RIJCOSX def2/J
|  2>
|  3> *xyzfile 0 1 B.xyz
|  4>
|  5> %MaxCore 64000
|  6>
|  7> %pal nprocs 18
|  8> end
|  9>
| 10> %scf
| 11>   MaxIter 150
| 12> end
| 13>
| 14>
| 15>                          ****END OF INPUT****

CARTESIAN COORDINATES (ANGSTROEM)
---------------------------------
  C     -0.461293    2.234686   -4.989619
  C      0.848883    2.667967   -4.302351
  C      2.093434    1.861037   -4.656845
  H      2.444814    2.041567   -5.674990
  H      2.901748    2.137864   -3.980338
  S      1.879644    0.078594   -4.462965
  C     -0.423841    2.398772   -6.474317
  N     -0.959467    3.492647   -7.007401
  N      0.145585    1.486891   -7.203987
  H      0.565371    0.696807   -6.723858
  H      0.220682    1.581768   -8.207520
  H     -1.406243    4.181507   -6.403261
  H     -0.934215    3.681601   -7.999468
  O      3.207574   -0.466111   -4.420259
  O      1.075064   -0.056160   -3.268758
  O      1.131661   -0.319960   -5.679031
  H      0.668432    2.559427   -3.232850
  H      1.034074    3.729426   -4.497081
  H     -1.288884    2.826737   -4.594997
  H     -0.651696    1.186343   -4.756552

 Total Charge           Charge          ....    0
 Multiplicity           Mult            ....    1
 Number of Electrons    NEL             ....   88
 Basis Dimension        Dim             ....  694

ORBITAL ENERGIES
----------------

  NO   OCC          E(Eh)            E(eV)
   0   2.0000     -92.134378     -2507.1039
   1   2.0000     -20.489290      -557.5419
   2   2.0000     -20.475784      -557.1744
   3   2.0000     -20.473786      -557.1200
   4   2.0000     -15.674236      -426.5176
   5   2.0000     -15.639967      -425.5851
   6   2.0000     -11.424170      -310.8675
   7   2.0000     -11.281011      -306.9719
   8   2.0000     -11.260997      -306.4273
   9   2.0000     -11.239029      -305.8295
  10   2.0000      -9.097644      -247.5595
  11   2.0000      -6.783995      -184.6019
  12   2.0000      -6.782903      -184.5722
  13   2.0000      -6.781994      -184.5474
  14   2.0000      -1.427655       -38.8485
  15   2.0000      -1.379570       -37.5400
  16   2.0000      -1.281585       -34.8737
  17   2.0000      -1.275826       -34.7170
  18   2.0000      -1.257777       -34.2259
  19   2.0000      -1.113974       -30.3128
  20   2.0000      -1.015412       -27.6308
  21   2.0000      -0.918763       -25.0008
  22   2.0000      -0.866470       -23.5779
  23   2.0000      -0.818505       -22.2726
  24   2.0000      -0.805943       -21.9308
  25   2.0000      -0.754954       -20.5433
  26   2.0000      -0.718076       -19.5398
  27   2.0000      -0.686452       -18.6793
  28   2.0000      -0.658982       -17.9318
  29   2.0000      -0.640785       -17.4366
  30   2.0000      -0.619989       -16.8708
  31   2.0000      -0.608912       -16.5693
  32   2.0000      -0.593931       -16.1617
  33   2.0000      -0.590727       -16.0745
  34   2.0000      -0.546377       -14.8677
  35   2.0000      -0.524473       -14.2716
  36   2.0000      -0.510291       -13.8857
  37   2.0000      -0.483954       -13.1691
  38   2.0000      -0.476880       -12.9766
  39   2.0000      -0.470721       -12.8090
  40   2.0000      -0.432641       -11.7728
  41   2.0000      -0.423530       -11.5248
  42   2.0000      -0.395203       -10.7540
  43   2.0000      -0.385531       -10.4908
  44   0.0000      -0.007671        -0.2087
  45   0.0000       0.012738         0.3466
  46   0.0000       0.024772         0.6741
  47   0.0000       0.028220         0.7679
  48   0.0000       0.045655         1.2423

MULLIKEN ATOMIC CHARGES
-----------------------
   0 C :    0.015324
   1 C :   -0.435606
   2 C :   -0.525922
   3 H :    0.170150
   4 H :    0.226329
   5 S :    2.261733
   6 C :    0.618241
   7 N :   -0.552094
   8 N :   -0.447768
   9 H :    0.280045
  10 H :    0.112546
  11 H :    0.089642
  12 H :    0.118155
  13 O :   -1.035660
  14 O :   -1.048019
  15 O :   -0.960220
  16 H :    0.278861
  17 H :    0.234186
  18 H :    0.321771
  19 H :    0.278307
Sum of atomic charges:    0.0000000

LOEWDIN ATOMIC CHARGES
----------------------
   0 C :    0.331186
   1 C :    0.260863
   2 C :    0.176358
   3 H :   -0.195843
   4 H :   -0.189677
   5 S :   -0.246186
   6 C :   -0.227849
   7 N :    0.922128
   8 N :    0.939260
   9 H :   -0.652913
  10 H :   -0.218544
  11 H :   -0.244824
  12 H :   -0.247484
  13 O :    0.002791
  14 O :    0.015667
  15 O :    0.186652
  16 H :   -0.155615
  17 H :   -0.143576
  18 H :   -0.138785
  19 H :   -0.173607

  Mayer bond orders larger than 0.100000
B(  0-C ,  1-C ) :   0.8095 B(  0-C ,  2-C ) :   0.1056 B(  0-C ,  6-C ) :   0.3089
B(  0-C , 18-H ) :   0.9283 B(  0-C , 19-H ) :   1.0069 B(  1-C ,  2-C ) :   0.8762
B(  1-C ,  5-S ) :   0.1055 B(  1-C ,  6-C ) :   0.1792 B(  1-C , 16-H ) :   0.9846
B(  1-C , 17-H ) :   0.9286 B(  2-C ,  3-H ) :   1.0300 B(  2-C ,  4-H ) :   0.9255
B(  2-C ,  5-S ) :   0.7547 B(  5-S , 13-O ) :   1.2168 B(  5-S , 14-O ) :   1.3839
B(  5-S , 15-O ) :   1.2420 B(  6-C ,  7-N ) :   0.7198 B(  6-C ,  8-N ) :   0.9401
B(  6-C , 10-H ) :  -0.1236 B(  6-C , 18-H ) :  -0.1140 B(  6-C , 19-H ) :   0.1025
B(  7-N , 11-H ) :   1.1412 B(  7-N , 12-H ) :   1.1229 B(  8-N ,  9-H ) :   0.8954
B(  8-N , 10-H ) :   1.1005 B(  9-H , 15-O ) :   0.1239

E(0)                                       ...   -888.492442552
E(0)                                       ...   -888.492442552
E(CORR)(strong-pairs)                      ...     -2.062809655
E(CORR)(weak-pairs)                        ...     -0.002846389
E(CORR)(corrected)                         ...     -2.065656044
E(TOT)                                     ...   -890.558098597
E(CCSD(T))                                 ...   -890.647848049
FINAL SINGLE POINT ENERGY      -890.647848049029

DIPOLE MOMENT
-------------
                                X             Y             Z
Electronic contribution:      3.00246      -7.41275       1.04121
Nuclear contribution   :     -5.91573      12.15027      -4.18945
                        -----------------------------------------
Total Dipole Moment    :     -2.91327       4.73752      -3.14825
                        -----------------------------------------
Magnitude (a.u.)       :      6.39083
Magnitude (Debye)      :     16.24420

Rotational constants in cm-1:     0.082044     0.024757     0.022371
Rotational constants in MHz :  2459.631375   742.181961   670.660570

                             ****ORCA TERMINATED NORMALLY****
TOTAL RUN TIME: 0 days 1 hours 3 minutes 14 seconds 384 msec
