                         Program Version 5.0.0 -  RELEASE  -
|  1> !DLPNO-CCSD(T) aug-cc-pVTZ aug-cc-pVTZ/C TightSCF TightPNO RIJCOSX def2/J
|  2> *xyz 0 1
|  3> C          0.84888        2.66797       -4.30235
|  4> C          2.09343        1.86104       -4.65684
|  5> H          2.44481        2.04157       -5.67499
|  6> H          2.90175        2.13786       -3.98034
|  7> S          1.87964        0.07859       -4.46297
|  8> F          3.20757       -0.46611       -4.42026
|  9> O          1.07506       -0.05616       -3.26876
| 10> O          1.13166       -0.31996       -5.67903
| 11> H          0.05064        2.40112       -4.96303
| 12> H          1.06043        3.71210       -4.40203
| 13> H          0.56237        2.45684       -3.29327
| 14> *
| 15>
| 16> %MaxCore 64000
| 17>
| 18> %pal nprocs 18
| 19> end
| 20>
| 21> %scf
| 22>   MaxIter 150
| 23> end
| 24>
| 25>
| 26>                          ****END OF INPUT****

CARTESIAN COORDINATES (ANGSTROEM)
---------------------------------
  C      0.848880    2.667970   -4.302350
  C      2.093430    1.861040   -4.656840
  H      2.444810    2.041570   -5.674990
  H      2.901750    2.137860   -3.980340
  S      1.879640    0.078590   -4.462970
  F      3.207570   -0.466110   -4.420260
  O      1.075060   -0.056160   -3.268760
  O      1.131660   -0.319960   -5.679030
  H      0.050640    2.401120   -4.963030
  H      1.060430    3.712100   -4.402030
  H      0.562370    2.456840   -3.293270

 Total Charge           Charge          ....    0
 Multiplicity           Mult            ....    1
 Number of Electrons    NEL             ....   58
 Basis Dimension        Dim             ....  395

ORBITAL ENERGIES
----------------

  NO   OCC          E(Eh)            E(eV)
   0   2.0000     -92.251080     -2510.2795
   1   2.0000     -26.439013      -719.4421
   2   2.0000     -20.568897      -559.7081
   3   2.0000     -20.555956      -559.3560
   4   2.0000     -11.293402      -307.3091
   5   2.0000     -11.242147      -305.9144
   6   2.0000      -9.214678      -250.7441
   7   2.0000      -6.902141      -187.8168
   8   2.0000      -6.898364      -187.7140
   9   2.0000      -6.897462      -187.6895
  10   2.0000      -1.809672       -49.2437
  11   2.0000      -1.452101       -39.5137
  12   2.0000      -1.340634       -36.4805
  13   2.0000      -1.095630       -29.8136
  14   2.0000      -0.994741       -27.0683
  15   2.0000      -0.911689       -24.8083
  16   2.0000      -0.836073       -22.7507
  17   2.0000      -0.826912       -22.5014
  18   2.0000      -0.765737       -20.8368
  19   2.0000      -0.671430       -18.2706
  20   2.0000      -0.668662       -18.1952
  21   2.0000      -0.624011       -16.9802
  22   2.0000      -0.593368       -16.1464
  23   2.0000      -0.562537       -15.3074
  24   2.0000      -0.550974       -14.9928
  25   2.0000      -0.539801       -14.6887
  26   2.0000      -0.499807       -13.6004
  27   2.0000      -0.475637       -12.9427
  28   2.0000      -0.471461       -12.8291
  29   0.0000       0.023272         0.6333
  30   0.0000       0.037411         1.0180
  31   0.0000       0.040075         1.0905
  32   0.0000       0.050379         1.3709
  33   0.0000       0.064482         1.7547

MULLIKEN ATOMIC CHARGES
-----------------------
   0 C :   -0.918390
   1 C :   -0.543459
   2 H :    0.317614
   3 H :    0.288787
   4 S :    2.128110
   5 F :   -0.497831
   6 O :   -0.887859
   7 O :   -0.873326
   8 H :    0.323744
   9 H :    0.321236
  10 H :    0.341374
Sum of atomic charges:    0.0000000

LOEWDIN ATOMIC CHARGES
----------------------
   0 C :    0.571369
   1 C :    0.168414
   2 H :   -0.188759
   3 H :   -0.204065
   4 S :   -0.115860
   5 F :    0.290843
   6 O :    0.038208
   7 O :    0.003942
   8 H :   -0.183644
   9 H :   -0.179007
  10 H :   -0.201442

  Mayer bond orders larger than 0.100000
B(  0-C ,  1-C ) :   0.9002 B(  0-C ,  8-H ) :   0.9058 B(  0-C ,  9-H ) :   0.9237
B(  0-C , 10-H ) :   0.9070 B(  1-C ,  2-H ) :   0.8888 B(  1-C ,  3-H ) :   0.9092
B(  1-C ,  4-S ) :   0.8591 B(  4-S ,  5-F ) :   0.5491 B(  4-S ,  6-O ) :   1.5697
B(  4-S ,  7-O ) :   1.5231 B(  6-O ,  7-O ) :   0.1003

E(0)                                       ...   -725.418162918
E(0)                                       ...   -725.418162918
E(CORR)(strong-pairs)                      ...     -1.307183497
E(CORR)(weak-pairs)                        ...     -0.001272782
E(CORR)(corrected)                         ...     -1.308456279
E(TOT)                                     ...   -726.726619197
E(CCSD(T))                                 ...   -726.779795958
FINAL SINGLE POINT ENERGY      -726.779795958363

DIPOLE MOMENT
-------------
                                X             Y             Z
Electronic contribution:      4.29205      -9.19709       0.11083
Nuclear contribution   :     -3.08754      10.54185      -0.04092
                        -----------------------------------------
Total Dipole Moment    :      1.20451       1.34477       0.06991
                        -----------------------------------------
Magnitude (a.u.)       :      1.80669
Magnitude (Debye)      :      4.59224

Rotational constants in cm-1:     0.158925     0.081210     0.079022
Rotational constants in MHz :  4764.450166  2434.603461  2369.014434

                             ****ORCA TERMINATED NORMALLY****
TOTAL RUN TIME: 0 days 0 hours 6 minutes 33 seconds 349 msec
