                         Program Version 5.0.0 -  RELEASE  -
|  1> !DLPNO-CCSD(T) aug-cc-pVTZ aug-cc-pVTZ/C TightSCF TightPNO RIJCOSX def2/J
|  2> *xyz 0 1
|  3> C         -0.46129        2.23469       -4.98962
|  4> C          0.84888        2.66797       -4.30235
|  5> C         -0.42384        2.39877       -6.47432
|  6> C         -0.95947        3.49265       -7.00740
|  7> N          0.14558        1.48689       -7.20399
|  8> H          0.56537        0.69681       -6.72386
|  9> H          0.22068        1.58177       -8.20752
| 10> H         -1.40624        4.18151       -6.40326
| 11> H         -0.93421        3.68160       -7.99947
| 12> H         -1.28888        2.82674       -4.59500
| 13> H         -0.65170        1.18634       -4.75655
| 14> H          1.66208        2.08894       -4.68750
| 15> H          0.76716        2.51042       -3.24717
| 16> H          1.02677        3.70527       -4.49537
| 17> *
| 18>
| 19> %MaxCore 64000
| 20>
| 21> %pal nprocs 18
| 22> end
| 23>
| 24> %scf
| 25>   MaxIter 150
| 26> end
| 27>
| 28>
| 29>                          ****END OF INPUT****

CARTESIAN COORDINATES (ANGSTROEM)
---------------------------------
  C     -0.461290    2.234690   -4.989620
  C      0.848880    2.667970   -4.302350
  C     -0.423840    2.398770   -6.474320
  C     -0.959470    3.492650   -7.007400
  N      0.145580    1.486890   -7.203990
  H      0.565370    0.696810   -6.723860
  H      0.220680    1.581770   -8.207520
  H     -1.406240    4.181510   -6.403260
  H     -0.934210    3.681600   -7.999470
  H     -1.288880    2.826740   -4.595000
  H     -0.651700    1.186340   -4.756550
  H      1.662080    2.088940   -4.687500
  H      0.767160    2.510420   -3.247170
  H      1.026770    3.705270   -4.495370

 Total Charge           Charge          ....    0
 Multiplicity           Mult            ....    1
 Number of Electrons    NEL             ....   40
 Basis Dimension        Dim             ....  437

ORBITAL ENERGIES
----------------

  NO   OCC          E(Eh)            E(eV)
   0   2.0000     -15.562579      -423.4793
   1   2.0000     -11.254089      -306.2393
   2   2.0000     -11.225053      -305.4492
   3   2.0000     -11.209659      -305.0303
   4   2.0000     -11.149976      -303.4063
   5   2.0000      -1.246881       -33.9294
   6   2.0000      -1.051421       -28.6106
   7   2.0000      -0.974050       -26.5052
   8   2.0000      -0.867817       -23.6145
   9   2.0000      -0.770392       -20.9634
  10   2.0000      -0.709937       -19.3184
  11   2.0000      -0.657073       -17.8799
  12   2.0000      -0.601737       -16.3741
  13   2.0000      -0.582541       -15.8517
  14   2.0000      -0.551328       -15.0024
  15   2.0000      -0.535587       -14.5741
  16   2.0000      -0.501105       -13.6358
  17   2.0000      -0.481389       -13.0993
  18   2.0000      -0.476890       -12.9768
  19   2.0000      -0.286496        -7.7960
  20   0.0000       0.026752         0.7280
  21   0.0000       0.035609         0.9690
  22   0.0000       0.040411         1.0996
  23   0.0000       0.043643         1.1876
  24   0.0000       0.055877         1.5205

MULLIKEN ATOMIC CHARGES
-----------------------
   0 C :   -0.133556
   1 C :   -0.973743
   2 C :    0.856062
   3 C :   -1.346468
   4 N :   -0.608978
   5 H :    0.050168
   6 H :    0.019951
   7 H :    0.182553
   8 H :    0.545627
   9 H :    0.271418
  10 H :    0.251549
  11 H :    0.284058
  12 H :    0.299345
  13 H :    0.302013
Sum of atomic charges:   -0.0000000

LOEWDIN ATOMIC CHARGES
----------------------
   0 C :    0.274870
   1 C :    0.615220
   2 C :   -0.322070
   3 C :    0.560374
   4 N :    0.835605
   5 H :   -0.271353
   6 H :   -0.257294
   7 H :   -0.292531
   8 H :   -0.292053
   9 H :   -0.152055
  10 H :   -0.150046
  11 H :   -0.185338
  12 H :   -0.183731
  13 H :   -0.179598

  Mayer bond orders larger than 0.100000
B(  0-C ,  1-C ) :   0.8233 B(  0-C ,  2-C ) :   0.6225 B(  0-C ,  9-H ) :   0.9923
B(  0-C , 10-H ) :   0.9789 B(  1-C ,  2-C ) :   0.1073 B(  1-C , 11-H ) :   0.9565
B(  1-C , 12-H ) :   0.9524 B(  1-C , 13-H ) :   0.9342 B(  2-C ,  3-C ) :   1.0661
B(  2-C ,  4-N ) :   0.7707 B(  3-C ,  4-N ) :  -0.2281 B(  3-C ,  7-H ) :   1.3750
B(  3-C ,  8-H ) :   0.5691 B(  4-N ,  5-H ) :   1.1805 B(  4-N ,  6-H ) :   1.1908

E(0)                                       ...   -211.206896464
E(0)                                       ...   -211.206896464
E(CORR)(strong-pairs)                      ...     -0.949412089
E(CORR)(weak-pairs)                        ...     -0.000917766
E(CORR)(corrected)                         ...     -0.950329854
E(TOT)                                     ...   -212.157226319
E(CCSD(T))                                 ...   -212.195808996
FINAL SINGLE POINT ENERGY      -212.195808996239

DIPOLE MOMENT
-------------
                                X             Y             Z
Electronic contribution:     -0.70210      -1.18753      -2.52563
Nuclear contribution   :      1.14741       0.51394       2.60761
                        -----------------------------------------
Total Dipole Moment    :      0.44531      -0.67359       0.08198
                        -----------------------------------------
Magnitude (a.u.)       :      0.81163
Magnitude (Debye)      :      2.06299

Rotational constants in cm-1:     0.269157     0.129188     0.102123
Rotational constants in MHz :  8069.118715  3872.945231  3061.580645

                             ****ORCA TERMINATED NORMALLY****
TOTAL RUN TIME: 0 days 0 hours 7 minutes 31 seconds 595 msec
