                         Program Version 5.0.0 -  RELEASE  -
|  1> !DLPNO-CCSD(T) aug-cc-pVTZ aug-cc-pVTZ/C TightSCF TightPNO RIJCOSX def2/J
|  2> *xyz 0 1
|  3> C          0.84888        2.66797       -4.30235
|  4> C          2.09343        1.86104       -4.65684
|  5> H          2.44481        2.04157       -5.67499
|  6> H          2.90175        2.13786       -3.98034
|  7> S          1.87964        0.07859       -4.46297
|  8> O          3.20757       -0.46611       -4.42026
|  9> F          1.07506       -0.05616       -3.26876
| 10> O          1.13166       -0.31996       -5.67903
| 11> H          0.05064        2.40112       -4.96303
| 12> H          1.06043        3.71210       -4.40203
| 13> H          0.56237        2.45684       -3.29327
| 14> *
| 15>
| 16> %MaxCore 64000
| 17>
| 18> %pal nprocs 18
| 19> end
| 20>
| 21> %scf
| 22>   MaxIter 150
| 23> end
| 24>
| 25>
| 26>                          ****END OF INPUT****

CARTESIAN COORDINATES (ANGSTROEM)
---------------------------------
  C      0.848880    2.667970   -4.302350
  C      2.093430    1.861040   -4.656840
  H      2.444810    2.041570   -5.674990
  H      2.901750    2.137860   -3.980340
  S      1.879640    0.078590   -4.462970
  O      3.207570   -0.466110   -4.420260
  F      1.075060   -0.056160   -3.268760
  O      1.131660   -0.319960   -5.679030
  H      0.050640    2.401120   -4.963030
  H      1.060430    3.712100   -4.402030
  H      0.562370    2.456840   -3.293270

 Total Charge           Charge          ....    0
 Multiplicity           Mult            ....    1
 Number of Electrons    NEL             ....   58
 Basis Dimension        Dim             ....  395

ORBITAL ENERGIES
----------------

  NO   OCC          E(Eh)            E(eV)
   0   2.0000     -92.250609     -2510.2667
   1   2.0000     -26.432739      -719.2714
   2   2.0000     -20.573094      -559.8223
   3   2.0000     -20.555838      -559.3528
   4   2.0000     -11.293323      -307.3069
   5   2.0000     -11.250141      -306.1319
   6   2.0000      -9.214156      -250.7299
   7   2.0000      -6.901857      -187.8091
   8   2.0000      -6.897689      -187.6957
   9   2.0000      -6.896906      -187.6743
  10   2.0000      -1.800064       -48.9822
  11   2.0000      -1.457019       -39.6475
  12   2.0000      -1.344015       -36.5725
  13   2.0000      -1.101869       -29.9834
  14   2.0000      -0.987030       -26.8585
  15   2.0000      -0.914149       -24.8752
  16   2.0000      -0.833955       -22.6931
  17   2.0000      -0.828061       -22.5327
  18   2.0000      -0.757443       -20.6111
  19   2.0000      -0.673167       -18.3178
  20   2.0000      -0.662817       -18.0362
  21   2.0000      -0.632825       -17.2200
  22   2.0000      -0.606528       -16.5045
  23   2.0000      -0.573951       -15.6180
  24   2.0000      -0.554549       -15.0900
  25   2.0000      -0.545353       -14.8398
  26   2.0000      -0.498905       -13.5759
  27   2.0000      -0.478325       -13.0159
  28   2.0000      -0.473222       -12.8770
  29   0.0000       0.022358         0.6084
  30   0.0000       0.036325         0.9885
  31   0.0000       0.039142         1.0651
  32   0.0000       0.047714         1.2984
  33   0.0000       0.061695         1.6788

MULLIKEN ATOMIC CHARGES
-----------------------
   0 C :   -0.938026
   1 C :   -0.516170
   2 H :    0.332197
   3 H :    0.283262
   4 S :    2.136888
   5 O :   -0.874319
   6 F :   -0.510411
   7 O :   -0.877991
   8 H :    0.317904
   9 H :    0.324095
  10 H :    0.322572
Sum of atomic charges:   -0.0000000

LOEWDIN ATOMIC CHARGES
----------------------
   0 C :    0.563376
   1 C :    0.171936
   2 H :   -0.172105
   3 H :   -0.201306
   4 S :   -0.121451
   5 O :    0.032048
   6 F :    0.290780
   7 O :    0.004237
   8 H :   -0.188233
   9 H :   -0.178872
  10 H :   -0.200412

  Mayer bond orders larger than 0.100000
B(  0-C ,  1-C ) :   0.8959 B(  0-C ,  8-H ) :   0.9031 B(  0-C ,  9-H ) :   0.9377
B(  0-C , 10-H ) :   0.9194 B(  1-C ,  2-H ) :   0.8729 B(  1-C ,  3-H ) :   0.9281
B(  1-C ,  4-S ) :   0.8750 B(  4-S ,  5-O ) :   1.5549 B(  4-S ,  6-F ) :   0.5917
B(  4-S ,  7-O ) :   1.5153

E(0)                                       ...   -725.423130080
E(0)                                       ...   -725.423130080
E(CORR)(strong-pairs)                      ...     -1.306608737
E(CORR)(weak-pairs)                        ...     -0.001264306
E(CORR)(corrected)                         ...     -1.307873043
E(TOT)                                     ...   -726.731003123
E(CCSD(T))                                 ...   -726.784004749
FINAL SINGLE POINT ENERGY      -726.784004749419

DIPOLE MOMENT
-------------
                                X             Y             Z
Electronic contribution:      0.52427      -8.44079       2.12792
Nuclear contribution   :     -0.86540      10.11467      -1.24082
                        -----------------------------------------
Total Dipole Moment    :     -0.34113       1.67389       0.88710
                        -----------------------------------------
Magnitude (a.u.)       :      1.92489
Magnitude (Debye)      :      4.89269

Rotational constants in cm-1:     0.154065     0.083345     0.080357
Rotational constants in MHz :  4618.752213  2498.631937  2409.037217

                             ****ORCA TERMINATED NORMALLY****
TOTAL RUN TIME: 0 days 0 hours 6 minutes 19 seconds 264 msec
