                         Program Version 5.0.0 -  RELEASE  -
|  1> !DLPNO-CCSD(T) aug-cc-pVTZ aug-cc-pVTZ/C TightSCF TightPNO RIJCOSX def2/J
|  2> *xyz 0 1
|  3> C         -0.46129        2.23469       -4.98962
|  4> C          0.84888        2.66797       -4.30235
|  5> C         -0.42384        2.39877       -6.47432
|  6> N         -0.95947        3.49265       -7.00740
|  7> C          0.14558        1.48689       -7.20399
|  8> H          0.56537        0.69681       -6.72386
|  9> H          0.22068        1.58177       -8.20752
| 10> H         -1.40624        4.18151       -6.40326
| 11> H         -0.93421        3.68160       -7.99947
| 12> H         -1.28888        2.82674       -4.59500
| 13> H         -0.65170        1.18634       -4.75655
| 14> H          1.66208        2.08894       -4.68750
| 15> H          0.76716        2.51042       -3.24717
| 16> H          1.02677        3.70527       -4.49537
| 17> *
| 18>
| 19> %MaxCore 64000
| 20>
| 21> %pal nprocs 18
| 22> end
| 23>
| 24> %scf
| 25>   MaxIter 150
| 26> end
| 27>
| 28>
| 29>                          ****END OF INPUT****

CARTESIAN COORDINATES (ANGSTROEM)
---------------------------------
  C     -0.461290    2.234690   -4.989620
  C      0.848880    2.667970   -4.302350
  C     -0.423840    2.398770   -6.474320
  N     -0.959470    3.492650   -7.007400
  C      0.145580    1.486890   -7.203990
  H      0.565370    0.696810   -6.723860
  H      0.220680    1.581770   -8.207520
  H     -1.406240    4.181510   -6.403260
  H     -0.934210    3.681600   -7.999470
  H     -1.288880    2.826740   -4.595000
  H     -0.651700    1.186340   -4.756550
  H      1.662080    2.088940   -4.687500
  H      0.767160    2.510420   -3.247170
  H      1.026770    3.705270   -4.495370

 Total Charge           Charge          ....    0
 Multiplicity           Mult            ....    1
 Number of Electrons    NEL             ....   40
 Basis Dimension        Dim             ....  437

ORBITAL ENERGIES
----------------

  NO   OCC          E(Eh)            E(eV)
   0   2.0000     -15.558789      -423.3762
   1   2.0000     -11.250538      -306.1427
   2   2.0000     -11.224329      -305.4295
   3   2.0000     -11.207992      -304.9850
   4   2.0000     -11.148409      -303.3636
   5   2.0000      -1.231554       -33.5123
   6   2.0000      -1.053494       -28.6670
   7   2.0000      -0.979384       -26.6504
   8   2.0000      -0.868876       -23.6433
   9   2.0000      -0.762874       -20.7589
  10   2.0000      -0.697504       -18.9800
  11   2.0000      -0.659739       -17.9524
  12   2.0000      -0.602943       -16.4069
  13   2.0000      -0.578308       -15.7366
  14   2.0000      -0.552869       -15.0443
  15   2.0000      -0.533568       -14.5191
  16   2.0000      -0.498034       -13.5522
  17   2.0000      -0.484401       -13.1812
  18   2.0000      -0.472816       -12.8660
  19   2.0000      -0.293424        -7.9845
  20   0.0000       0.027276         0.7422
  21   0.0000       0.035877         0.9763
  22   0.0000       0.040147         1.0925
  23   0.0000       0.044144         1.2012
  24   0.0000       0.056153         1.5280

MULLIKEN ATOMIC CHARGES
-----------------------
   0 C :   -0.126508
   1 C :   -0.974110
   2 C :    0.917361
   3 N :   -0.601678
   4 C :   -1.460202
   5 H :    0.193482
   6 H :    0.517486
   7 H :    0.083146
   8 H :    0.036947
   9 H :    0.231534
  10 H :    0.298209
  11 H :    0.309490
  12 H :    0.290344
  13 H :    0.284500
Sum of atomic charges:    0.0000000

LOEWDIN ATOMIC CHARGES
----------------------
   0 C :    0.276019
   1 C :    0.615357
   2 C :   -0.316361
   3 N :    0.840509
   4 C :    0.548814
   5 H :   -0.287320
   6 H :   -0.280880
   7 H :   -0.276234
   8 H :   -0.269837
   9 H :   -0.155689
  10 H :   -0.146322
  11 H :   -0.183701
  12 H :   -0.184123
  13 H :   -0.180232

  Mayer bond orders larger than 0.100000
B(  0-C ,  1-C ) :   0.8218 B(  0-C ,  2-C ) :   0.6313 B(  0-C ,  9-H ) :   0.9902
B(  0-C , 10-H ) :   0.9773 B(  1-C ,  2-C ) :   0.1252 B(  1-C , 11-H ) :   0.9328
B(  1-C , 12-H ) :   0.9534 B(  1-C , 13-H ) :   0.9642 B(  2-C ,  3-N ) :   0.7459
B(  2-C ,  4-C ) :   1.0485 B(  3-N ,  4-C ) :  -0.1994 B(  3-N ,  7-H ) :   1.1216
B(  3-N ,  8-H ) :   1.1822 B(  4-C ,  5-H ) :   1.3788 B(  4-C ,  6-H ) :   0.6239

E(0)                                       ...   -211.207375050
E(0)                                       ...   -211.207375050
E(CORR)(strong-pairs)                      ...     -0.949290804
E(CORR)(weak-pairs)                        ...     -0.000909750
E(CORR)(corrected)                         ...     -0.950200553
E(TOT)                                     ...   -212.157575603
E(CCSD(T))                                 ...   -212.196037019
FINAL SINGLE POINT ENERGY      -212.196037018681

DIPOLE MOMENT
-------------
                                X             Y             Z
Electronic contribution:     -1.68833       0.57404      -2.35740
Nuclear contribution   :      1.40335       0.04939       2.56207
                        -----------------------------------------
Total Dipole Moment    :     -0.28498       0.62343       0.20468
                        -----------------------------------------
Magnitude (a.u.)       :      0.71538
Magnitude (Debye)      :      1.81836

Rotational constants in cm-1:     0.271383     0.128194     0.101873
Rotational constants in MHz :  8135.853259  3843.152748  3054.074278

                             ****ORCA TERMINATED NORMALLY****
TOTAL RUN TIME: 0 days 0 hours 7 minutes 17 seconds 525 msec
