                         Program Version 5.0.0 -  RELEASE  -
|  1> !DLPNO-CCSD(T) aug-cc-pVTZ aug-cc-pVTZ/C TightSCF TightPNO RIJCOSX def2/J
|  2> *xyz 0 1
|  3> C          0.84888        2.66797       -4.30235
|  4> C          2.09343        1.86104       -4.65684
|  5> H          2.44481        2.04157       -5.67499
|  6> H          2.90175        2.13786       -3.98034
|  7> S          1.87964        0.07859       -4.46297
|  8> O          3.20757       -0.46611       -4.42026
|  9> O          1.07506       -0.05616       -3.26876
| 10> F          1.13166       -0.31996       -5.67903
| 11> H          0.05064        2.40112       -4.96303
| 12> H          1.06043        3.71210       -4.40203
| 13> H          0.56237        2.45684       -3.29327
| 14> *
| 15>
| 16> %MaxCore 64000
| 17>
| 18> %pal nprocs 18
| 19> end
| 20>
| 21> %scf
| 22>   MaxIter 150
| 23> end
| 24>
| 25>
| 26>                          ****END OF INPUT****

CARTESIAN COORDINATES (ANGSTROEM)
---------------------------------
  C      0.848880    2.667970   -4.302350
  C      2.093430    1.861040   -4.656840
  H      2.444810    2.041570   -5.674990
  H      2.901750    2.137860   -3.980340
  S      1.879640    0.078590   -4.462970
  O      3.207570   -0.466110   -4.420260
  O      1.075060   -0.056160   -3.268760
  F      1.131660   -0.319960   -5.679030
  H      0.050640    2.401120   -4.963030
  H      1.060430    3.712100   -4.402030
  H      0.562370    2.456840   -3.293270

 Total Charge           Charge          ....    0
 Multiplicity           Mult            ....    1
 Number of Electrons    NEL             ....   58
 Basis Dimension        Dim             ....  395

ORBITAL ENERGIES
----------------

  NO   OCC          E(Eh)            E(eV)
   0   2.0000     -92.249744     -2510.2432
   1   2.0000     -26.413641      -718.7517
   2   2.0000     -20.572629      -559.8097
   3   2.0000     -20.568506      -559.6975
   4   2.0000     -11.292376      -307.2812
   5   2.0000     -11.243918      -305.9626
   6   2.0000      -9.213029      -250.6993
   7   2.0000      -6.900669      -187.7768
   8   2.0000      -6.896830      -187.6723
   9   2.0000      -6.895813      -187.6446
  10   2.0000      -1.767057       -48.0841
  11   2.0000      -1.467441       -39.9311
  12   2.0000      -1.365718       -37.1631
  13   2.0000      -1.097048       -29.8522
  14   2.0000      -0.973192       -26.4819
  15   2.0000      -0.904108       -24.6020
  16   2.0000      -0.809149       -22.0181
  17   2.0000      -0.804715       -21.8974
  18   2.0000      -0.760328       -20.6896
  19   2.0000      -0.679442       -18.4886
  20   2.0000      -0.659128       -17.9358
  21   2.0000      -0.647459       -17.6183
  22   2.0000      -0.597511       -16.2591
  23   2.0000      -0.572934       -15.5903
  24   2.0000      -0.557496       -15.1702
  25   2.0000      -0.540126       -14.6976
  26   2.0000      -0.509543       -13.8654
  27   2.0000      -0.491677       -13.3792
  28   2.0000      -0.480814       -13.0836
  29   0.0000       0.023436         0.6377
  30   0.0000       0.038085         1.0363
  31   0.0000       0.038745         1.0543
  32   0.0000       0.048716         1.3256
  33   0.0000       0.062625         1.7041

MULLIKEN ATOMIC CHARGES
-----------------------
   0 C :   -0.934094
   1 C :   -0.537661
   2 H :    0.313681
   3 H :    0.302062
   4 S :    2.176480
   5 O :   -0.886529
   6 O :   -0.889108
   7 F :   -0.509255
   8 H :    0.300191
   9 H :    0.319935
  10 H :    0.344298
Sum of atomic charges:    0.0000000

LOEWDIN ATOMIC CHARGES
----------------------
   0 C :    0.560890
   1 C :    0.173320
   2 H :   -0.188863
   3 H :   -0.187327
   4 S :   -0.112777
   5 O :    0.032100
   6 O :    0.040201
   7 F :    0.255429
   8 H :   -0.189407
   9 H :   -0.180872
  10 H :   -0.202692

  Mayer bond orders larger than 0.100000
B(  0-C ,  1-C ) :   0.9055 B(  0-C ,  8-H ) :   0.9221 B(  0-C ,  9-H ) :   0.9317
B(  0-C , 10-H ) :   0.9062 B(  1-C ,  2-H ) :   0.8847 B(  1-C ,  3-H ) :   0.9107
B(  1-C ,  4-S ) :   0.8629 B(  4-S ,  5-O ) :   1.5494 B(  4-S ,  6-O ) :   1.5593
B(  4-S ,  7-F ) :   0.5704

E(0)                                       ...   -725.438827948
E(0)                                       ...   -725.438827948
E(CORR)(strong-pairs)                      ...     -1.306032503
E(CORR)(weak-pairs)                        ...     -0.001269430
E(CORR)(corrected)                         ...     -1.307301933
E(TOT)                                     ...   -726.746129880
E(CCSD(T))                                 ...   -726.798965676
FINAL SINGLE POINT ENERGY      -726.798965675668

DIPOLE MOMENT
-------------
                                X             Y             Z
Electronic contribution:      0.60776      -8.93990      -2.14232
Nuclear contribution   :     -0.92438      10.38956       1.27076
                        -----------------------------------------
Total Dipole Moment    :     -0.31662       1.44967      -0.87156
                        -----------------------------------------
Magnitude (a.u.)       :      1.72087
Magnitude (Debye)      :      4.37411

Rotational constants in cm-1:     0.154243     0.082247     0.080562
Rotational constants in MHz :  4624.087322  2465.703680  2415.175852

                             ****ORCA TERMINATED NORMALLY****
TOTAL RUN TIME: 0 days 0 hours 5 minutes 40 seconds 570 msec
