                         Program Version 5.0.0 -  RELEASE  -
|  1> !DLPNO-CCSD(T) aug-cc-pVTZ aug-cc-pVTZ/C TightSCF TightPNO RIJCOSX def2/J
|  2>
|  3> *xyzfile 0 1 D1.xyz
|  4>
|  5> %MaxCore 64000
|  6>
|  7> %pal nprocs 18
|  8> end
|  9>
| 10> %scf
| 11>   MaxIter 150
| 12> end
| 13>
| 14>
| 15>                          ****END OF INPUT****

CARTESIAN COORDINATES (ANGSTROEM)
---------------------------------
  C     -0.461293    2.234686   -4.989619
  C      0.848883    2.667967   -4.302351
  C      2.093434    1.861037   -4.656845
  H      2.444814    2.041567   -5.674990
  H      2.901748    2.137864   -3.980338
  S      1.879644    0.078594   -4.462965
  C     -0.423841    2.398772   -6.474317
  C     -0.959467    3.492647   -7.007401
  N      0.145585    1.486891   -7.203987
  H      0.565371    0.696807   -6.723858
  H      0.220682    1.581768   -8.207520
  H     -1.406243    4.181507   -6.403261
  H     -0.934215    3.681601   -7.999468
  F      3.207574   -0.466111   -4.420259
  O      1.075064   -0.056160   -3.268758
  O      1.131661   -0.319960   -5.679031
  H      0.668432    2.559427   -3.232850
  H      1.034074    3.729426   -4.497081
  H     -1.288884    2.826737   -4.594997
  H     -0.651696    1.186343   -4.756552

 Total Charge           Charge          ....    0
 Multiplicity           Mult            ....    1
 Number of Electrons    NEL             ....   88
 Basis Dimension        Dim             ....  694

ORBITAL ENERGIES
----------------

  NO   OCC          E(Eh)            E(eV)
   0   2.0000     -92.271542     -2510.8363
   1   2.0000     -26.455132      -719.8807
   2   2.0000     -20.585958      -560.1724
   3   2.0000     -20.580864      -560.0338
   4   2.0000     -15.530317      -422.6014
   5   2.0000     -11.300591      -307.5047
   6   2.0000     -11.256881      -306.3153
   7   2.0000     -11.247263      -306.0536
   8   2.0000     -11.227638      -305.5195
   9   2.0000     -11.142685      -303.2079
  10   2.0000      -9.235178      -251.3020
  11   2.0000      -6.922505      -188.3709
  12   2.0000      -6.918794      -188.2700
  13   2.0000      -6.918156      -188.2526
  14   2.0000      -1.825672       -49.6791
  15   2.0000      -1.475738       -40.1569
  16   2.0000      -1.370510       -37.2935
  17   2.0000      -1.230449       -33.4822
  18   2.0000      -1.115644       -30.3582
  19   2.0000      -1.036596       -28.2072
  20   2.0000      -0.997598       -27.1460
  21   2.0000      -0.945569       -25.7302
  22   2.0000      -0.879482       -23.9319
  23   2.0000      -0.853479       -23.2244
  24   2.0000      -0.832562       -22.6552
  25   2.0000      -0.789534       -21.4843
  26   2.0000      -0.760756       -20.7012
  27   2.0000      -0.712637       -19.3918
  28   2.0000      -0.683725       -18.6051
  29   2.0000      -0.675082       -18.3699
  30   2.0000      -0.655096       -17.8261
  31   2.0000      -0.631776       -17.1915
  32   2.0000      -0.614163       -16.7122
  33   2.0000      -0.583094       -15.8668
  34   2.0000      -0.560619       -15.2552
  35   2.0000      -0.546842       -14.8803
  36   2.0000      -0.543078       -14.7779
  37   2.0000      -0.515372       -14.0240
  38   2.0000      -0.514689       -14.0054
  39   2.0000      -0.497996       -13.5512
  40   2.0000      -0.497088       -13.5264
  41   2.0000      -0.474145       -12.9021
  42   2.0000      -0.462980       -12.5983
  43   2.0000      -0.275952        -7.5090
  44   0.0000       0.021695         0.5904
  45   0.0000       0.034246         0.9319
  46   0.0000       0.038034         1.0350
  47   0.0000       0.042493         1.1563
  48   0.0000       0.051430         1.3995

MULLIKEN ATOMIC CHARGES
-----------------------
   0 C :    0.058775
   1 C :   -0.400107
   2 C :   -0.535662
   3 H :    0.265957
   4 H :    0.266456
   5 S :    2.126567
   6 C :    0.880205
   7 C :   -1.679277
   8 N :   -0.722595
   9 H :    0.276031
  10 H :   -0.024246
  11 H :    0.181446
  12 H :    0.478183
  13 F :   -0.486045
  14 O :   -0.928856
  15 O :   -0.843291
  16 H :    0.247725
  17 H :    0.258965
  18 H :    0.390001
  19 H :    0.189771
Sum of atomic charges:   -0.0000000

LOEWDIN ATOMIC CHARGES
----------------------
   0 C :    0.285366
   1 C :    0.273604
   2 C :    0.213608
   3 H :   -0.181987
   4 H :   -0.191182
   5 S :    0.017654
   6 C :   -0.310620
   7 C :    0.557864
   8 N :    0.845725
   9 H :   -0.668340
  10 H :   -0.245605
  11 H :   -0.297666
  12 H :   -0.293391
  13 F :    0.307384
  14 O :    0.072642
  15 O :    0.232875
  16 H :   -0.163308
  17 H :   -0.129618
  18 H :   -0.140037
  19 H :   -0.184968

  Mayer bond orders larger than 0.100000
B(  0-C ,  1-C ) :   0.7824 B(  0-C ,  6-C ) :   0.4101 B(  0-C , 18-H ) :   0.9516
B(  0-C , 19-H ) :   1.0456 B(  1-C ,  2-C ) :   0.8791 B(  1-C ,  5-S ) :   0.1078
B(  1-C ,  6-C ) :   0.1844 B(  1-C , 16-H ) :   1.0091 B(  1-C , 17-H ) :   0.9061
B(  2-C ,  3-H ) :   0.9542 B(  2-C ,  4-H ) :   0.9003 B(  2-C ,  5-S ) :   0.8460
B(  5-S , 13-F ) :   0.4277 B(  5-S , 14-O ) :   1.5751 B(  5-S , 15-O ) :   1.5240
B(  6-C ,  7-C ) :   0.6993 B(  6-C ,  8-N ) :   0.5207 B(  6-C , 10-H ) :  -0.1640
B(  6-C , 11-H ) :  -0.1281 B(  6-C , 18-H ) :  -0.1489 B(  6-C , 19-H ) :   0.1364
B(  7-C ,  8-N ) :  -0.1413 B(  7-C , 11-H ) :   1.4591 B(  7-C , 12-H ) :   0.6525
B(  8-N ,  9-H ) :   0.9441 B(  8-N , 10-H ) :   1.2799

E(0)                                       ...   -896.400539093
E(0)                                       ...   -896.400539093
E(CORR)(strong-pairs)                      ...     -2.047181931
E(CORR)(weak-pairs)                        ...     -0.002836855
E(CORR)(corrected)                         ...     -2.050018786
E(TOT)                                     ...   -898.450557879
E(CCSD(T))                                 ...   -898.537907638
FINAL SINGLE POINT ENERGY      -898.537907638096

DIPOLE MOMENT
-------------
                                X             Y             Z
Electronic contribution:     10.30468     -13.85990       5.51702
Nuclear contribution   :     -8.53047      14.15581      -5.17613
                        -----------------------------------------
Total Dipole Moment    :      1.77421       0.29591       0.34089
                        -----------------------------------------
Magnitude (a.u.)       :      1.83073
Magnitude (Debye)      :      4.65335

Rotational constants in cm-1:     0.081196     0.024861     0.022477
Rotational constants in MHz :  2434.181666   745.320670   673.846846

                             ****ORCA TERMINATED NORMALLY****
TOTAL RUN TIME: 0 days 1 hours 19 minutes 49 seconds 263 msec
