                         Program Version 5.0.0 -  RELEASE  -
|  1> !DLPNO-CCSD(T) aug-cc-pVTZ aug-cc-pVTZ/C TightSCF TightPNO RIJCOSX def2/J
|  2>
|  3> *xyzfile 0 1 D2.xyz
|  4>
|  5> %MaxCore 64000
|  6>
|  7> %pal nprocs 18
|  8> end
|  9>
| 10> %scf
| 11>   MaxIter 150
| 12> end
| 13>
| 14>
| 15>                          ****END OF INPUT****

CARTESIAN COORDINATES (ANGSTROEM)
---------------------------------
  C     -0.461293    2.234686   -4.989619
  C      0.848883    2.667967   -4.302351
  C      2.093434    1.861037   -4.656845
  H      2.444814    2.041567   -5.674990
  H      2.901748    2.137864   -3.980338
  S      1.879644    0.078594   -4.462965
  C     -0.423841    2.398772   -6.474317
  N     -0.959467    3.492647   -7.007401
  C      0.145585    1.486891   -7.203987
  H      0.565371    0.696807   -6.723858
  H      0.220682    1.581768   -8.207520
  H     -1.406243    4.181507   -6.403261
  H     -0.934215    3.681601   -7.999468
  F      3.207574   -0.466111   -4.420259
  O      1.075064   -0.056160   -3.268758
  O      1.131661   -0.319960   -5.679031
  H      0.668432    2.559427   -3.232850
  H      1.034074    3.729426   -4.497081
  H     -1.288884    2.826737   -4.594997
  H     -0.651696    1.186343   -4.756552

 Total Charge           Charge          ....    0
 Multiplicity           Mult            ....    1
 Number of Electrons    NEL             ....   88
 Basis Dimension        Dim             ....  694

ORBITAL ENERGIES
----------------

  NO   OCC          E(Eh)            E(eV)
   0   2.0000     -92.253813     -2510.3539
   1   2.0000     -26.440076      -719.4710
   2   2.0000     -20.571205      -559.7710
   3   2.0000     -20.556972      -559.3836
   4   2.0000     -15.551594      -423.1804
   5   2.0000     -11.289227      -307.1955
   6   2.0000     -11.253825      -306.2322
   7   2.0000     -11.238704      -305.8207
   8   2.0000     -11.226500      -305.4886
   9   2.0000     -11.122770      -302.6660
  10   2.0000      -9.217491      -250.8207
  11   2.0000      -6.904905      -187.8920
  12   2.0000      -6.901093      -187.7883
  13   2.0000      -6.900392      -187.7692
  14   2.0000      -1.810897       -49.2770
  15   2.0000      -1.458016       -39.6746
  16   2.0000      -1.350357       -36.7451
  17   2.0000      -1.224993       -33.3338
  18   2.0000      -1.108109       -30.1532
  19   2.0000      -1.034907       -28.1613
  20   2.0000      -0.983362       -26.7587
  21   2.0000      -0.951293       -25.8860
  22   2.0000      -0.869677       -23.6651
  23   2.0000      -0.838625       -22.8201
  24   2.0000      -0.821803       -22.3624
  25   2.0000      -0.770545       -20.9676
  26   2.0000      -0.762026       -20.7358
  27   2.0000      -0.692949       -18.8561
  28   2.0000      -0.679009       -18.4768
  29   2.0000      -0.664964       -18.0946
  30   2.0000      -0.650566       -17.7028
  31   2.0000      -0.633349       -17.2343
  32   2.0000      -0.610127       -16.6024
  33   2.0000      -0.573395       -15.6029
  34   2.0000      -0.558143       -15.1878
  35   2.0000      -0.544122       -14.8063
  36   2.0000      -0.537465       -14.6252
  37   2.0000      -0.512080       -13.9344
  38   2.0000      -0.494643       -13.4599
  39   2.0000      -0.484689       -13.1891
  40   2.0000      -0.479664       -13.0523
  41   2.0000      -0.465670       -12.6715
  42   2.0000      -0.446787       -12.1577
  43   2.0000      -0.282158        -7.6779
  44   0.0000       0.022482         0.6118
  45   0.0000       0.030466         0.8290
  46   0.0000       0.034888         0.9494
  47   0.0000       0.043904         1.1947
  48   0.0000       0.051722         1.4074

MULLIKEN ATOMIC CHARGES
-----------------------
   0 C :    0.020426
   1 C :   -0.443727
   2 C :   -0.572761
   3 H :    0.275483
   4 H :    0.271419
   5 S :    2.116209
   6 C :    0.734440
   7 N :   -0.779576
   8 C :   -1.452721
   9 H :    0.592263
  10 H :    0.445917
  11 H :   -0.007526
  12 H :    0.019509
  13 F :   -0.495220
  14 O :   -0.946298
  15 O :   -0.864630
  16 H :    0.250653
  17 H :    0.266523
  18 H :    0.330477
  19 H :    0.239140
Sum of atomic charges:    0.0000000

LOEWDIN ATOMIC CHARGES
----------------------
   0 C :    0.288365
   1 C :    0.272076
   2 C :    0.211333
   3 H :   -0.186537
   4 H :   -0.193796
   5 S :    0.013832
   6 C :   -0.296167
   7 N :    0.836509
   8 C :    0.545435
   9 H :   -0.654122
  10 H :   -0.261909
  11 H :   -0.280472
  12 H :   -0.271778
  13 F :    0.303236
  14 O :    0.065018
  15 O :    0.228868
  16 H :   -0.164891
  17 H :   -0.130299
  18 H :   -0.143270
  19 H :   -0.181432

  Mayer bond orders larger than 0.100000
B(  0-C ,  1-C ) :   0.8033 B(  0-C ,  6-C ) :   0.4883 B(  0-C ,  7-N ) :  -0.1410
B(  0-C , 18-H ) :   0.9350 B(  0-C , 19-H ) :   1.0917 B(  1-C ,  2-C ) :   0.8865
B(  1-C ,  5-S ) :   0.1045 B(  1-C ,  6-C ) :   0.1718 B(  1-C , 16-H ) :   0.9999
B(  1-C , 17-H ) :   0.9278 B(  2-C ,  3-H ) :   0.9611 B(  2-C ,  4-H ) :   0.8994
B(  2-C ,  5-S ) :   0.8409 B(  5-S , 13-F ) :   0.4177 B(  5-S , 14-O ) :   1.5501
B(  5-S , 15-O ) :   1.5911 B(  6-C ,  7-N ) :   0.5621 B(  6-C ,  8-C ) :   1.1407
B(  6-C , 11-H ) :  -0.1196 B(  6-C , 18-H ) :  -0.1259 B(  7-N ,  8-C ) :  -0.3461
B(  7-N , 11-H ) :   1.2923 B(  7-N , 12-H ) :   1.2289 B(  8-C ,  9-H ) :   0.8469
B(  8-C , 10-H ) :   0.7980 B(  9-H , 15-O ) :  -0.1227 B( 14-O , 19-H ) :  -0.1026

E(0)                                       ...   -896.378859624
E(0)                                       ...   -896.378859624
E(CORR)(strong-pairs)                      ...     -2.049796424
E(CORR)(weak-pairs)                        ...     -0.002840703
E(CORR)(corrected)                         ...     -2.052637128
E(TOT)                                     ...   -898.431496751
E(CCSD(T))                                 ...   -898.519049733
FINAL SINGLE POINT ENERGY      -898.519049732746

DIPOLE MOMENT
-------------
                                X             Y             Z
Electronic contribution:      9.40977     -12.38821       5.45438
Nuclear contribution   :     -8.42493      13.96425      -5.19491
                        -----------------------------------------
Total Dipole Moment    :      0.98484       1.57604       0.25947
                        -----------------------------------------
Magnitude (a.u.)       :      1.87647
Magnitude (Debye)      :      4.76961

Rotational constants in cm-1:     0.082815     0.024151     0.022015
Rotational constants in MHz :  2482.732265   724.035221   660.002136

                             ****ORCA TERMINATED NORMALLY****
TOTAL RUN TIME: 0 days 1 hours 48 minutes 11 seconds 787 msec
