                         Program Version 5.0.0 -  RELEASE  -
|  1> !DLPNO-CCSD(T) aug-cc-pVTZ aug-cc-pVTZ/C TightSCF TightPNO RIJCOSX def2/J
|  2>
|  3> *xyzfile 0 1 D4.xyz
|  4>
|  5> %MaxCore 64000
|  6>
|  7> %pal nprocs 18
|  8> end
|  9>
| 10> %scf
| 11>   MaxIter 150
| 12> end
| 13>
| 14>
| 15>                          ****END OF INPUT****

CARTESIAN COORDINATES (ANGSTROEM)
---------------------------------
  C     -0.461293    2.234686   -4.989619
  C      0.848883    2.667967   -4.302351
  C      2.093434    1.861037   -4.656845
  H      2.444814    2.041567   -5.674990
  H      2.901748    2.137864   -3.980338
  S      1.879644    0.078594   -4.462965
  C     -0.423841    2.398772   -6.474317
  N     -0.959467    3.492647   -7.007401
  C      0.145585    1.486891   -7.203987
  H      0.565371    0.696807   -6.723858
  H      0.220682    1.581768   -8.207520
  H     -1.406243    4.181507   -6.403261
  H     -0.934215    3.681601   -7.999468
  O      3.207574   -0.466111   -4.420259
  F      1.075064   -0.056160   -3.268758
  O      1.131661   -0.319960   -5.679031
  H      0.668432    2.559427   -3.232850
  H      1.034074    3.729426   -4.497081
  H     -1.288884    2.826737   -4.594997
  H     -0.651696    1.186343   -4.756552

 Total Charge           Charge          ....    0
 Multiplicity           Mult            ....    1
 Number of Electrons    NEL             ....   88
 Basis Dimension        Dim             ....  694

ORBITAL ENERGIES
----------------

  NO   OCC          E(Eh)            E(eV)
   0   2.0000     -92.252747     -2510.3249
   1   2.0000     -26.434444      -719.3178
   2   2.0000     -20.573832      -559.8424
   3   2.0000     -20.555481      -559.3431
   4   2.0000     -15.555928      -423.2983
   5   2.0000     -11.288832      -307.1847
   6   2.0000     -11.260663      -306.4182
   7   2.0000     -11.244134      -305.9684
   8   2.0000     -11.239011      -305.8290
   9   2.0000     -11.127505      -302.7948
  10   2.0000      -9.216334      -250.7892
  11   2.0000      -6.904080      -187.8696
  12   2.0000      -6.899748      -187.7517
  13   2.0000      -6.899128      -187.7348
  14   2.0000      -1.802223       -49.0410
  15   2.0000      -1.460772       -39.7496
  16   2.0000      -1.353051       -36.8184
  17   2.0000      -1.230031       -33.4708
  18   2.0000      -1.116134       -30.3715
  19   2.0000      -1.035445       -28.1759
  20   2.0000      -0.981692       -26.7132
  21   2.0000      -0.955547       -26.0018
  22   2.0000      -0.869406       -23.6577
  23   2.0000      -0.833430       -22.6788
  24   2.0000      -0.832041       -22.6410
  25   2.0000      -0.769593       -20.9417
  26   2.0000      -0.761997       -20.7350
  27   2.0000      -0.697321       -18.9751
  28   2.0000      -0.675309       -18.3761
  29   2.0000      -0.665877       -18.1194
  30   2.0000      -0.650659       -17.7053
  31   2.0000      -0.644671       -17.5424
  32   2.0000      -0.613559       -16.6958
  33   2.0000      -0.578070       -15.7301
  34   2.0000      -0.562839       -15.3156
  35   2.0000      -0.558716       -15.2034
  36   2.0000      -0.540135       -14.6978
  37   2.0000      -0.529074       -14.3968
  38   2.0000      -0.493813       -13.4373
  39   2.0000      -0.489665       -13.3245
  40   2.0000      -0.481088       -13.0911
  41   2.0000      -0.472078       -12.8459
  42   2.0000      -0.446116       -12.1394
  43   2.0000      -0.286720        -7.8021
  44   0.0000       0.019947         0.5428
  45   0.0000       0.030673         0.8347
  46   0.0000       0.032678         0.8892
  47   0.0000       0.041149         1.1197
  48   0.0000       0.050939         1.3861

MULLIKEN ATOMIC CHARGES
-----------------------
   0 C :    0.048990
   1 C :   -0.466651
   2 C :   -0.516340
   3 H :    0.271217
   4 H :    0.260404
   5 S :    2.195351
   6 C :    0.726476
   7 N :   -0.778928
   8 C :   -1.445081
   9 H :    0.586744
  10 H :    0.441240
  11 H :   -0.006025
  12 H :    0.020214
  13 O :   -0.955201
  14 F :   -0.527835
  15 O :   -0.861477
  16 H :    0.239523
  17 H :    0.247357
  18 H :    0.317821
  19 H :    0.202201
Sum of atomic charges:    0.0000000

LOEWDIN ATOMIC CHARGES
----------------------
   0 C :    0.283288
   1 C :    0.263488
   2 C :    0.214456
   3 H :   -0.170644
   4 H :   -0.191002
   5 S :    0.005541
   6 C :   -0.295126
   7 N :    0.836549
   8 C :    0.548834
   9 H :   -0.652780
  10 H :   -0.258848
  11 H :   -0.280461
  12 H :   -0.270621
  13 O :    0.047732
  14 F :    0.310188
  15 O :    0.230255
  16 H :   -0.165600
  17 H :   -0.130379
  18 H :   -0.144420
  19 H :   -0.180452

  Mayer bond orders larger than 0.100000
B(  0-C ,  1-C ) :   0.7897 B(  0-C ,  6-C ) :   0.4834 B(  0-C ,  7-N ) :  -0.1439
B(  0-C , 18-H ) :   0.9515 B(  0-C , 19-H ) :   1.0958 B(  1-C ,  2-C ) :   0.8588
B(  1-C ,  5-S ) :   0.1002 B(  1-C ,  6-C ) :   0.1755 B(  1-C , 16-H ) :   1.0072
B(  1-C , 17-H ) :   0.9567 B(  2-C ,  3-H ) :   0.9687 B(  2-C ,  4-H ) :   0.9181
B(  2-C ,  5-S ) :   0.8499 B(  2-C , 14-F ) :   0.1270 B(  5-S , 13-O ) :   1.3498
B(  5-S , 14-F ) :   0.5561 B(  5-S , 15-O ) :   1.5774 B(  6-C ,  7-N ) :   0.5580
B(  6-C ,  8-C ) :   1.1440 B(  6-C , 11-H ) :  -0.1180 B(  6-C , 18-H ) :  -0.1317
B(  7-N ,  8-C ) :  -0.3364 B(  7-N , 11-H ) :   1.2880 B(  7-N , 12-H ) :   1.2292
B(  8-C ,  9-H ) :   0.8472 B(  8-C , 10-H ) :   0.8031 B(  9-H , 15-O ) :  -0.1146

E(0)                                       ...   -896.382666143
E(0)                                       ...   -896.382666143
E(CORR)(strong-pairs)                      ...     -2.049090778
E(CORR)(weak-pairs)                        ...     -0.002770922
E(CORR)(corrected)                         ...     -2.051861701
E(TOT)                                     ...   -898.434527844
E(CCSD(T))                                 ...   -898.521863608
FINAL SINGLE POINT ENERGY      -898.521863607757

DIPOLE MOMENT
-------------
                                X             Y             Z
Electronic contribution:      5.54365     -11.59195       7.45298
Nuclear contribution   :     -6.09390      13.51614      -6.45360
                        -----------------------------------------
Total Dipole Moment    :     -0.55025       1.92418       0.99937
                        -----------------------------------------
Magnitude (a.u.)       :      2.23696
Magnitude (Debye)      :      5.68591

Rotational constants in cm-1:     0.081469     0.024519     0.022336
Rotational constants in MHz :  2442.393231   735.066768   669.628729

                             ****ORCA TERMINATED NORMALLY****
TOTAL RUN TIME: 0 days 1 hours 47 minutes 50 seconds 423 msec
