                         Program Version 5.0.0 -  RELEASE  -
|  1> !wB97X-D3 RIJCOSX def2-SVPD def2/J TightSCF CPCM(Water)
|  2> *xyz -1 1
|  3> C         -5.57236       -5.80780       -0.81644
|  4> S         -6.90318       -4.61903       -0.52846
|  5> O         -8.11485       -5.25093       -0.95701
|  6> O         -6.53271       -3.42684       -1.31485
|  7> O         -6.86563       -4.29496        0.91412
|  8> H         -5.55376       -6.07856       -1.85145
|  9> H         -5.73990       -6.68165       -0.22212
| 10> H         -4.63562       -5.36690       -0.54622
| 11> *
| 12> %MaxCore 64000
| 13>
| 14> %pal nprocs 18
| 15> end
| 16>
| 17> %scf
| 18>   MaxIter 150
| 19> end
| 20>
| 21>                          ****END OF INPUT****

CARTESIAN COORDINATES (ANGSTROEM)
---------------------------------
  C     -5.572360   -5.807800   -0.816440
  S     -6.903180   -4.619030   -0.528460
  O     -8.114850   -5.250930   -0.957010
  O     -6.532710   -3.426840   -1.314850
  O     -6.865630   -4.294960    0.914120
  H     -5.553760   -6.078560   -1.851450
  H     -5.739900   -6.681650   -0.222120
  H     -4.635620   -5.366900   -0.546220

 Total Charge           Charge          ....   -1
 Multiplicity           Mult            ....    1
 Number of Electrons    NEL             ....   50
 Basis Dimension        Dim             ....  140

ORBITAL ENERGIES
----------------

  NO   OCC          E(Eh)            E(eV)
   0   2.0000     -89.157213     -2426.0911
   1   2.0000     -19.212529      -522.7995
   2   2.0000     -19.202374      -522.5232
   3   2.0000     -19.201350      -522.4953
   4   2.0000     -10.292431      -280.0713
   5   2.0000      -8.231170      -223.9815
   6   2.0000      -6.190957      -168.4645
   7   2.0000      -6.190947      -168.4642
   8   2.0000      -6.189522      -168.4255
   9   2.0000      -1.229658       -33.4607
  10   2.0000      -1.087727       -29.5986
  11   2.0000      -1.065341       -28.9894
  12   2.0000      -0.848125       -23.0787
  13   2.0000      -0.667325       -18.1588
  14   2.0000      -0.584424       -15.9030
  15   2.0000      -0.563166       -15.3245
  16   2.0000      -0.561447       -15.2778
  17   2.0000      -0.510981       -13.9045
  18   2.0000      -0.509298       -13.8587
  19   2.0000      -0.437699       -11.9104
  20   2.0000      -0.436673       -11.8825
  21   2.0000      -0.393757       -10.7147
  22   2.0000      -0.382586       -10.4107
  23   2.0000      -0.380505       -10.3541
  24   2.0000      -0.346641        -9.4326
  25   0.0000       0.079773         2.1707
  26   0.0000       0.103118         2.8060
  27   0.0000       0.103962         2.8289
  28   0.0000       0.104358         2.8397
  29   0.0000       0.152434         4.1479

MULLIKEN ATOMIC CHARGES
-----------------------
   0 C :    0.369355
   1 S :    1.061194
   2 O :   -0.765984
   3 O :   -0.820981
   4 O :   -0.822569
   5 H :   -0.003817
   6 H :   -0.009155
   7 H :   -0.008044
Sum of atomic charges:   -1.0000000

LOEWDIN ATOMIC CHARGES
----------------------
   0 C :    0.085836
   1 S :    0.835199
   2 O :   -0.601293
   3 O :   -0.633967
   4 O :   -0.633395
   5 H :   -0.017049
   6 H :   -0.017659
   7 H :   -0.017671

  Mayer bond orders larger than 0.100000
B(  0-C ,  1-S ) :   0.9664 B(  0-C ,  5-H ) :   0.9316 B(  0-C ,  6-H ) :   0.9346
B(  0-C ,  7-H ) :   0.9354 B(  1-S ,  2-O ) :   1.3551 B(  1-S ,  3-O ) :   1.3023
B(  1-S ,  4-O ) :   1.2978 B(  1-S ,  5-H ) :   0.1005 B(  1-S ,  7-H ) :   0.1074

Dispersion correction           -0.001521546
FINAL SINGLE POINT ENERGY      -663.519408193169

DIPOLE MOMENT
-------------
                                X             Y             Z
Electronic contribution:     -2.76223       2.20252       0.49488
Nuclear contribution   :      4.23639      -3.86101      -0.94151
                        -----------------------------------------
Total Dipole Moment    :      1.47416      -1.65849      -0.44663
                        -----------------------------------------
Magnitude (a.u.)       :      2.26345
Magnitude (Debye)      :      5.75324

Rotational constants in cm-1:     0.172406     0.155169     0.153146
Rotational constants in MHz :  5168.590738  4651.861875  4591.214998

                             ****ORCA TERMINATED NORMALLY****
TOTAL RUN TIME: 0 days 0 hours 0 minutes 6 seconds 894 msec
