                         Program Version 5.0.0 -  RELEASE  -
|  1> !wB97X-D3 RIJCOSX def2-SVPD def2/J TightSCF CPCM(Water)
|  2> *xyz 1 1
|  3> C         -4.38262       -1.67089        1.21620
|  4> N         -5.76354       -1.91517        0.70501
|  5> H         -5.84081       -2.11520       -0.30065
|  6> H         -6.40882       -1.14866        0.93612
|  7> H         -6.17478       -2.79061        1.05143
|  8> H         -4.01369       -0.74796        0.81997
|  9> H         -3.74223       -2.47168        0.91037
| 10> H         -4.40201       -1.61791        2.28471
| 11> *
| 12> %MaxCore 64000
| 13>
| 14> %pal nprocs 18
| 15> end
| 16>
| 17> %scf
| 18>   MaxIter 150
| 19> end
| 20>
| 21>                          ****END OF INPUT****

CARTESIAN COORDINATES (ANGSTROEM)
---------------------------------
  C     -4.382620   -1.670890    1.216200
  N     -5.763540   -1.915170    0.705010
  H     -5.840810   -2.115200   -0.300650
  H     -6.408820   -1.148660    0.936120
  H     -6.174780   -2.790610    1.051430
  H     -4.013690   -0.747960    0.819970
  H     -3.742230   -2.471680    0.910370
  H     -4.402010   -1.617910    2.284710

 Total Charge           Charge          ....    1
 Multiplicity           Mult            ....    1
 Number of Electrons    NEL             ....   18
 Basis Dimension        Dim             ....   88

ORBITAL ENERGIES
----------------

  NO   OCC          E(Eh)            E(eV)
   0   2.0000     -14.558858      -396.1667
   1   2.0000     -10.344281      -281.4822
   2   2.0000      -1.106005       -30.0959
   3   2.0000      -0.839773       -22.8514
   4   2.0000      -0.689070       -18.7506
   5   2.0000      -0.665765       -18.1164
   6   2.0000      -0.604701       -16.4548
   7   2.0000      -0.519680       -14.1412
   8   2.0000      -0.515724       -14.0336
   9   0.0000       0.085702         2.3321
  10   0.0000       0.120152         3.2695
  11   0.0000       0.158888         4.3235
  12   0.0000       0.159049         4.3279
  13   0.0000       0.196943         5.3591

MULLIKEN ATOMIC CHARGES
-----------------------
   0 C :    0.783996
   1 N :   -0.966935
   2 H :    0.400155
   3 H :    0.435168
   4 H :    0.405722
   5 H :   -0.022419
   6 H :   -0.022025
   7 H :   -0.013661
Sum of atomic charges:    1.0000000

LOEWDIN ATOMIC CHARGES
----------------------
   0 C :    0.276549
   1 N :    0.324341
   2 H :    0.116933
   3 H :    0.118157
   4 H :    0.114472
   5 H :    0.015861
   6 H :    0.016636
   7 H :    0.017052

  Mayer bond orders larger than 0.100000
B(  0-C ,  1-N ) :   0.6987 B(  0-C ,  5-H ) :   0.9235 B(  0-C ,  6-H ) :   0.9247
B(  0-C ,  7-H ) :   0.9148 B(  1-N ,  2-H ) :   0.7647 B(  1-N ,  3-H ) :   0.7076
B(  1-N ,  4-H ) :   0.7630

Dispersion correction           -0.000533427
FINAL SINGLE POINT ENERGY       -96.239442712309

DIPOLE MOMENT
-------------
                                X             Y             Z
Electronic contribution:     -1.18428      -0.18676      -0.43800
Nuclear contribution   :      0.12888      -0.05969       0.04130
                        -----------------------------------------
Total Dipole Moment    :     -1.05540      -0.24646      -0.39670
                        -----------------------------------------
Magnitude (a.u.)       :      1.15411
Magnitude (Debye)      :      2.93352

Rotational constants in cm-1:     2.932748     0.676653     0.669753
Rotational constants in MHz : 87921.559023 20285.538082 20078.692306

                             ****ORCA TERMINATED NORMALLY****
TOTAL RUN TIME: 0 days 0 hours 0 minutes 3 seconds 868 msec
