                         Program Version 5.0.0 -  RELEASE  -
|  1> !wB97X-D3 RIJCOSX def2-SVPD def2/J TightSCF CPCM(Water)
|  2> *xyz 0 1
|  3> C         -5.57236       -5.80780       -0.81644
|  4> S         -6.90318       -4.61903       -0.52846
|  5> F         -8.11485       -5.25093       -0.95701
|  6> O         -6.53271       -3.42684       -1.31485
|  7> O         -6.86563       -4.29496        0.91412
|  8> H         -5.55376       -6.07856       -1.85145
|  9> H         -5.73990       -6.68165       -0.22212
| 10> H         -4.63562       -5.36690       -0.54622
| 11> *
| 12> %MaxCore 64000
| 13>
| 14> %pal nprocs 18
| 15> end
| 16>
| 17> %scf
| 18>   MaxIter 150
| 19> end
| 20>
| 21>                          ****END OF INPUT****

CARTESIAN COORDINATES (ANGSTROEM)
---------------------------------
  C     -5.572360   -5.807800   -0.816440
  S     -6.903180   -4.619030   -0.528460
  F     -8.114850   -5.250930   -0.957010
  O     -6.532710   -3.426840   -1.314850
  O     -6.865630   -4.294960    0.914120
  H     -5.553760   -6.078560   -1.851450
  H     -5.739900   -6.681650   -0.222120
  H     -4.635620   -5.366900   -0.546220

 Total Charge           Charge          ....    0
 Multiplicity           Mult            ....    1
 Number of Electrons    NEL             ....   50
 Basis Dimension        Dim             ....  140

ORBITAL ENERGIES
----------------

  NO   OCC          E(Eh)            E(eV)
   0   2.0000     -89.246903     -2428.5317
   1   2.0000     -24.924593      -678.2327
   2   2.0000     -19.263136      -524.1766
   3   2.0000     -19.262181      -524.1506
   4   2.0000     -10.334154      -281.2066
   5   2.0000      -8.320723      -226.4184
   6   2.0000      -6.284479      -171.0094
   7   2.0000      -6.278311      -170.8415
   8   2.0000      -6.276420      -170.7901
   9   2.0000      -1.501511       -40.8582
  10   2.0000      -1.225189       -33.3391
  11   2.0000      -1.122547       -30.5461
  12   2.0000      -0.905571       -24.6418
  13   2.0000      -0.826899       -22.5011
  14   2.0000      -0.710135       -19.3237
  15   2.0000      -0.700978       -19.0746
  16   2.0000      -0.668025       -18.1779
  17   2.0000      -0.578320       -15.7369
  18   2.0000      -0.572222       -15.5710
  19   2.0000      -0.551480       -15.0065
  20   2.0000      -0.536061       -14.5870
  21   2.0000      -0.492267       -13.3953
  22   2.0000      -0.437360       -11.9012
  23   2.0000      -0.435470       -11.8497
  24   2.0000      -0.412676       -11.2295
  25   0.0000       0.068152         1.8545
  26   0.0000       0.098942         2.6923
  27   0.0000       0.099553         2.7090
  28   0.0000       0.102251         2.7824
  29   0.0000       0.123488         3.3603

MULLIKEN ATOMIC CHARGES
-----------------------
   0 C :    0.274669
   1 S :    1.287093
   2 F :   -0.353535
   3 O :   -0.705041
   4 O :   -0.706413
   5 H :    0.072939
   6 H :    0.067439
   7 H :    0.062849
Sum of atomic charges:   -0.0000000

LOEWDIN ATOMIC CHARGES
----------------------
   0 C :    0.147220
   1 S :    1.125271
   2 F :   -0.236298
   3 O :   -0.525733
   4 O :   -0.524768
   5 H :    0.002560
   6 H :    0.001700
   7 H :    0.010048

  Mayer bond orders larger than 0.100000
B(  0-C ,  1-S ) :   1.0118 B(  0-C ,  5-H ) :   0.9252 B(  0-C ,  6-H ) :   0.9289
B(  0-C ,  7-H ) :   0.9289 B(  1-S ,  2-F ) :   0.7327 B(  1-S ,  3-O ) :   1.4840
B(  1-S ,  4-O ) :   1.4776 B(  1-S ,  7-H ) :   0.1053

Dispersion correction           -0.001530103
FINAL SINGLE POINT ENERGY      -687.908127841667

DIPOLE MOMENT
-------------
                                X             Y             Z
Electronic contribution:     -5.14893       1.09650      -0.28949
Nuclear contribution   :      5.53040      -3.27628      -0.52239
                        -----------------------------------------
Total Dipole Moment    :      0.38147      -2.17978      -0.81188
                        -----------------------------------------
Magnitude (a.u.)       :      2.35714
Magnitude (Debye)      :      5.99137

Rotational constants in cm-1:     0.163239     0.153903     0.144751
Rotational constants in MHz :  4893.777363  4613.882823  4339.513182

                             ****ORCA TERMINATED NORMALLY****
TOTAL RUN TIME: 0 days 0 hours 0 minutes 7 seconds 334 msec
