                         Program Version 5.0.0 -  RELEASE  -
|  1> !wB97X-D3 RIJCOSX def2-SVPD def2/J TightSCF CPCM(Water)
|  2> *xyz 0 1
|  3> C         -4.38262       -1.67089        1.21620
|  4> C         -5.76354       -1.91517        0.70501
|  5> H         -5.84081       -2.11520       -0.30065
|  6> H         -6.40882       -1.14866        0.93612
|  7> H         -6.17478       -2.79061        1.05143
|  8> H         -4.01369       -0.74796        0.81997
|  9> H         -3.74223       -2.47168        0.91037
| 10> H         -4.40201       -1.61791        2.28471
| 11> *
| 12> %MaxCore 64000
| 13>
| 14> %pal nprocs 18
| 15> end
| 16>
| 17> %scf
| 18>   MaxIter 150
| 19> end
| 20>
| 21>                          ****END OF INPUT****

CARTESIAN COORDINATES (ANGSTROEM)
---------------------------------
  C     -4.382620   -1.670890    1.216200
  C     -5.763540   -1.915170    0.705010
  H     -5.840810   -2.115200   -0.300650
  H     -6.408820   -1.148660    0.936120
  H     -6.174780   -2.790610    1.051430
  H     -4.013690   -0.747960    0.819970
  H     -3.742230   -2.471680    0.910370
  H     -4.402010   -1.617910    2.284710

 Total Charge           Charge          ....    0
 Multiplicity           Mult            ....    1
 Number of Electrons    NEL             ....   18
 Basis Dimension        Dim             ....   88

ORBITAL ENERGIES
----------------

  NO   OCC          E(Eh)            E(eV)
   0   2.0000     -10.264440      -279.3096
   1   2.0000     -10.248838      -278.8851
   2   2.0000      -0.873186       -23.7606
   3   2.0000      -0.729602       -19.8535
   4   2.0000      -0.547921       -14.9097
   5   2.0000      -0.534739       -14.5510
   6   2.0000      -0.468460       -12.7474
   7   2.0000      -0.441350       -12.0097
   8   2.0000      -0.427861       -11.6427
   9   0.0000       0.102521         2.7897
  10   0.0000       0.130210         3.5432
  11   0.0000       0.185841         5.0570
  12   0.0000       0.188214         5.1216
  13   0.0000       0.207463         5.6454

MULLIKEN ATOMIC CHARGES
-----------------------
   0 C :    0.188190
   1 C :    0.408645
   2 H :   -0.190452
   3 H :   -0.146267
   4 H :   -0.181322
   5 H :   -0.034674
   6 H :   -0.019139
   7 H :   -0.024980
Sum of atomic charges:    0.0000000

LOEWDIN ATOMIC CHARGES
----------------------
   0 C :    0.080044
   1 C :    0.072362
   2 H :   -0.036063
   3 H :   -0.031689
   4 H :   -0.037532
   5 H :   -0.016561
   6 H :   -0.015530
   7 H :   -0.015030

  Mayer bond orders larger than 0.100000
B(  0-C ,  1-C ) :   1.4075 B(  0-C ,  2-H ) :   0.1182 B(  0-C ,  3-H ) :   0.1435
B(  0-C ,  4-H ) :   0.1292 B(  0-C ,  5-H ) :   0.8804 B(  0-C ,  6-H ) :   0.8881
B(  0-C ,  7-H ) :   0.8664 B(  1-C ,  2-H ) :   0.7972 B(  1-C ,  3-H ) :   0.8229
B(  1-C ,  4-H ) :   0.7899 B(  1-C ,  5-H ) :   0.1351 B(  1-C ,  6-H ) :   0.1329
B(  1-C ,  7-H ) :   0.1404 B(  2-H ,  4-H ) :   0.2292

Dispersion correction           -0.000522348
FINAL SINGLE POINT ENERGY       -79.735363819996

DIPOLE MOMENT
-------------
                                X             Y             Z
Electronic contribution:      0.06882       0.06627       0.02772
Nuclear contribution   :     -0.10782      -0.10031      -0.04623
                        -----------------------------------------
Total Dipole Moment    :     -0.03900      -0.03404      -0.01851
                        -----------------------------------------
Magnitude (a.u.)       :      0.05498
Magnitude (Debye)      :      0.13974

Rotational constants in cm-1:     2.932831     0.705715     0.698218
Rotational constants in MHz : 87924.050302 21156.813368 20932.044240

                             ****ORCA TERMINATED NORMALLY****
TOTAL RUN TIME: 0 days 0 hours 0 minutes 4 seconds 67 msec
