                         Program Version 5.0.0 -  RELEASE  -
|  1> !wB97X-D3 RIJCOSX def2-SVPD def2/J TightSCF CPCM(Water)
|  2> *xyz 0 1
|  3> C         -5.57236       -5.80780       -0.81644
|  4> S         -6.90318       -4.61903       -0.52846
|  5> O         -8.11485       -5.25093       -0.95701
|  6> F         -6.53271       -3.42684       -1.31485
|  7> O         -6.86563       -4.29496        0.91412
|  8> H         -5.55376       -6.07856       -1.85145
|  9> H         -5.73990       -6.68165       -0.22212
| 10> H         -4.63562       -5.36690       -0.54622
| 11> *
| 12> %MaxCore 64000
| 13>
| 14> %pal nprocs 18
| 15> end
| 16>
| 17> %scf
| 18>   MaxIter 150
| 19> end
| 20>
| 21>                          ****END OF INPUT****

CARTESIAN COORDINATES (ANGSTROEM)
---------------------------------
  C     -5.572360   -5.807800   -0.816440
  S     -6.903180   -4.619030   -0.528460
  O     -8.114850   -5.250930   -0.957010
  F     -6.532710   -3.426840   -1.314850
  O     -6.865630   -4.294960    0.914120
  H     -5.553760   -6.078560   -1.851450
  H     -5.739900   -6.681650   -0.222120
  H     -4.635620   -5.366900   -0.546220

 Total Charge           Charge          ....    0
 Multiplicity           Mult            ....    1
 Number of Electrons    NEL             ....   50
 Basis Dimension        Dim             ....  140

ORBITAL ENERGIES
----------------

  NO   OCC          E(Eh)            E(eV)
   0   2.0000     -89.243780     -2428.4467
   1   2.0000     -24.905155      -677.7037
   2   2.0000     -19.273576      -524.4607
   3   2.0000     -19.262457      -524.1581
   4   2.0000     -10.333098      -281.1779
   5   2.0000      -8.317625      -226.3341
   6   2.0000      -6.281184      -170.9197
   7   2.0000      -6.275375      -170.7616
   8   2.0000      -6.273518      -170.7111
   9   2.0000      -1.466520       -39.9060
  10   2.0000      -1.239978       -33.7415
  11   2.0000      -1.137300       -30.9475
  12   2.0000      -0.902414       -24.5559
  13   2.0000      -0.811434       -22.0802
  14   2.0000      -0.693530       -18.8719
  15   2.0000      -0.677926       -18.4473
  16   2.0000      -0.665322       -18.1043
  17   2.0000      -0.581647       -15.8274
  18   2.0000      -0.574702       -15.6384
  19   2.0000      -0.550033       -14.9672
  20   2.0000      -0.539588       -14.6829
  21   2.0000      -0.498768       -13.5722
  22   2.0000      -0.448911       -12.2155
  23   2.0000      -0.436886       -11.8883
  24   2.0000      -0.423640       -11.5278
  25   0.0000       0.068850         1.8735
  26   0.0000       0.099615         2.7106
  27   0.0000       0.099703         2.7131
  28   0.0000       0.102262         2.7827
  29   0.0000       0.120260         3.2724

MULLIKEN ATOMIC CHARGES
-----------------------
   0 C :    0.273922
   1 S :    1.284619
   2 O :   -0.660703
   3 F :   -0.380751
   4 O :   -0.716930
   5 H :    0.071315
   6 H :    0.062578
   7 H :    0.065950
Sum of atomic charges:   -0.0000000

LOEWDIN ATOMIC CHARGES
----------------------
   0 C :    0.147197
   1 S :    1.120136
   2 O :   -0.495058
   3 F :   -0.261015
   4 O :   -0.525012
   5 H :    0.002291
   6 H :    0.009801
   7 H :    0.001660

  Mayer bond orders larger than 0.100000
B(  0-C ,  1-S ) :   1.0116 B(  0-C ,  5-H ) :   0.9275 B(  0-C ,  6-H ) :   0.9257
B(  0-C ,  7-H ) :   0.9305 B(  1-S ,  2-O ) :   1.5301 B(  1-S ,  3-F ) :   0.6832
B(  1-S ,  4-O ) :   1.4752 B(  1-S ,  6-H ) :   0.1008

Dispersion correction           -0.001529238
FINAL SINGLE POINT ENERGY      -687.924247812460

DIPOLE MOMENT
-------------
                                X             Y             Z
Electronic contribution:     -2.18396       4.53573      -0.98320
Nuclear contribution   :      3.94974      -5.09866      -0.16489
                        -----------------------------------------
Total Dipole Moment    :      1.76578      -0.56294      -1.14809
                        -----------------------------------------
Magnitude (a.u.)       :      2.18013
Magnitude (Debye)      :      5.54146

Rotational constants in cm-1:     0.163657     0.151977     0.145976
Rotational constants in MHz :  4906.325390  4556.144033  4376.262759

                             ****ORCA TERMINATED NORMALLY****
TOTAL RUN TIME: 0 days 0 hours 0 minutes 7 seconds 249 msec
