                         Program Version 5.0.0 -  RELEASE  -
|  1> !wB97X-D3 RIJCOSX def2-SVPD def2/J TightSCF CPCM(Water)
|  2> *xyz 0 1
|  3> C         -5.57236       -5.80780       -0.81644
|  4> S         -6.90318       -4.61903       -0.52846
|  5> O         -8.11485       -5.25093       -0.95701
|  6> O         -6.53271       -3.42684       -1.31485
|  7> F         -6.86563       -4.29496        0.91412
|  8> H         -5.55376       -6.07856       -1.85145
|  9> H         -5.73990       -6.68165       -0.22212
| 10> H         -4.63562       -5.36690       -0.54622
| 11> *
| 12> %MaxCore 64000
| 13>
| 14> %pal nprocs 18
| 15> end
| 16>
| 17> %scf
| 18>   MaxIter 150
| 19> end
| 20>
| 21>                          ****END OF INPUT****

CARTESIAN COORDINATES (ANGSTROEM)
---------------------------------
  C     -5.572360   -5.807800   -0.816440
  S     -6.903180   -4.619030   -0.528460
  O     -8.114850   -5.250930   -0.957010
  O     -6.532710   -3.426840   -1.314850
  F     -6.865630   -4.294960    0.914120
  H     -5.553760   -6.078560   -1.851450
  H     -5.739900   -6.681650   -0.222120
  H     -4.635620   -5.366900   -0.546220

 Total Charge           Charge          ....    0
 Multiplicity           Mult            ....    1
 Number of Electrons    NEL             ....   50
 Basis Dimension        Dim             ....  140

ORBITAL ENERGIES
----------------

  NO   OCC          E(Eh)            E(eV)
   0   2.0000     -89.243508     -2428.4393
   1   2.0000     -24.905251      -677.7063
   2   2.0000     -19.273587      -524.4610
   3   2.0000     -19.261504      -524.1322
   4   2.0000     -10.333289      -281.1831
   5   2.0000      -8.317384      -226.3275
   6   2.0000      -6.280907      -170.9122
   7   2.0000      -6.275128      -170.7549
   8   2.0000      -6.273305      -170.7053
   9   2.0000      -1.464759       -39.8581
  10   2.0000      -1.240687       -33.7608
  11   2.0000      -1.138016       -30.9670
  12   2.0000      -0.901799       -24.5392
  13   2.0000      -0.811366       -22.0784
  14   2.0000      -0.693040       -18.8586
  15   2.0000      -0.676884       -18.4190
  16   2.0000      -0.664820       -18.0907
  17   2.0000      -0.581447       -15.8220
  18   2.0000      -0.574987       -15.6462
  19   2.0000      -0.550964       -14.9925
  20   2.0000      -0.539770       -14.6879
  21   2.0000      -0.498728       -13.5711
  22   2.0000      -0.449034       -12.2188
  23   2.0000      -0.436024       -11.8648
  24   2.0000      -0.423604       -11.5268
  25   0.0000       0.068251         1.8572
  26   0.0000       0.099401         2.7048
  27   0.0000       0.099667         2.7121
  28   0.0000       0.102181         2.7805
  29   0.0000       0.116953         3.1825

MULLIKEN ATOMIC CHARGES
-----------------------
   0 C :    0.275197
   1 S :    1.285000
   2 O :   -0.660387
   3 O :   -0.715653
   4 F :   -0.383210
   5 H :    0.066914
   6 H :    0.066206
   7 H :    0.065933
Sum of atomic charges:    0.0000000

LOEWDIN ATOMIC CHARGES
----------------------
   0 C :    0.147139
   1 S :    1.120589
   2 O :   -0.494780
   3 O :   -0.525523
   4 F :   -0.260904
   5 H :    0.010426
   6 H :    0.001456
   7 H :    0.001596

  Mayer bond orders larger than 0.100000
B(  0-C ,  1-S ) :   1.0112 B(  0-C ,  5-H ) :   0.9232 B(  0-C ,  6-H ) :   0.9296
B(  0-C ,  7-H ) :   0.9312 B(  1-S ,  2-O ) :   1.5295 B(  1-S ,  3-O ) :   1.4798
B(  1-S ,  4-F ) :   0.6772 B(  1-S ,  5-H ) :   0.1010

Dispersion correction           -0.001528000
FINAL SINGLE POINT ENERGY      -687.923787318313

DIPOLE MOMENT
-------------
                                X             Y             Z
Electronic contribution:     -2.81543       2.88560       3.24171
Nuclear contribution   :      4.28235      -4.23136      -2.39177
                        -----------------------------------------
Total Dipole Moment    :      1.46692      -1.34575       0.84993
                        -----------------------------------------
Magnitude (a.u.)       :      2.16455
Magnitude (Debye)      :      5.50186

Rotational constants in cm-1:     0.164456     0.151338     0.145749
Rotational constants in MHz :  4930.268698  4537.002642  4369.437533

                             ****ORCA TERMINATED NORMALLY****
TOTAL RUN TIME: 0 days 0 hours 0 minutes 7 seconds 449 msec
