                         Program Version 5.0.0 -  RELEASE  -
|  1> !wB97X-D3 RIJCOSX def2-SVPD def2/J TightSCF CPCM(Water) xyzfile
|  2>
|  3> *xyzfile 0 1 D3.xyz
|  4>
|  5> %MaxCore 64000
|  6>
|  7> %pal nprocs 18
|  8> end
|  9>
| 10> %scf
| 11>   MaxIter 150
| 12> end
| 13>
| 14>
| 15>                          ****END OF INPUT****

CARTESIAN COORDINATES (ANGSTROEM)
---------------------------------
  C     -4.382623   -1.670889    1.216201
  C     -5.763539   -1.915170    0.705012
  C     -3.281728   -2.191272    0.294361
  C     -5.572364   -5.807798   -0.816445
  S     -6.903179   -4.619033   -0.528458
  H     -5.840812   -2.115205   -0.300646
  H     -6.408823   -1.148656    0.936124
  H     -6.174781   -2.790606    1.051433
  O     -8.114853   -5.250932   -0.957007
  O     -6.532715   -3.426838   -1.314848
  H     -4.328618   -2.139223    2.198103
  H     -4.261583   -0.597399    1.357248
  F     -6.865632   -4.294957    0.914118
  C     -3.474641   -3.605898   -0.259608
  H     -2.354548   -2.127602    0.871433
  H     -3.166611   -1.499693   -0.545037
  C     -3.827078   -4.661097    0.786174
  H     -2.560559   -3.889391   -0.788050
  H     -4.255932   -3.570040   -1.019300
  C     -4.457800   -5.941875    0.229195
  H     -5.177347   -5.542575   -1.797714
  H     -6.074202   -6.768894   -0.921272
  H     -4.530506   -4.253640    1.511979
  H     -2.933400   -4.932302    1.356825
  H     -3.681064   -6.562236   -0.229885
  H     -4.843942   -6.512728    1.075805

 Total Charge           Charge          ....    0
 Multiplicity           Mult            ....    1
 Number of Electrons    NEL             ....   98
 Basis Dimension        Dim             ....  356

ORBITAL ENERGIES
----------------

  NO   OCC          E(Eh)            E(eV)
   0   2.0000     -89.241965     -2428.3973
   1   2.0000     -24.906199      -677.7321
   2   2.0000     -19.274399      -524.4830
   3   2.0000     -19.257730      -524.0295
   4   2.0000     -10.340040      -281.3668
   5   2.0000     -10.303379      -280.3692
   6   2.0000     -10.284539      -279.8565
   7   2.0000     -10.275324      -279.6058
   8   2.0000     -10.273210      -279.5483
   9   2.0000     -10.266182      -279.3570
  10   2.0000     -10.221482      -278.1407
  11   2.0000      -8.315125      -226.2661
  12   2.0000      -6.278849      -170.8562
  13   2.0000      -6.272942      -170.6954
  14   2.0000      -6.270780      -170.6366
  15   2.0000      -1.469994       -40.0006
  16   2.0000      -1.241415       -33.7806
  17   2.0000      -1.140022       -31.0216
  18   2.0000      -0.940731       -25.5986
  19   2.0000      -0.910146       -24.7663
  20   2.0000      -0.860236       -23.4082
  21   2.0000      -0.835180       -22.7264
  22   2.0000      -0.798468       -21.7274
  23   2.0000      -0.757647       -20.6166
  24   2.0000      -0.722230       -19.6529
  25   2.0000      -0.690911       -18.8007
  26   2.0000      -0.682880       -18.5821
  27   2.0000      -0.655690       -17.8422
  28   2.0000      -0.645248       -17.5581
  29   2.0000      -0.589442       -16.0395
  30   2.0000      -0.584271       -15.8988
  31   2.0000      -0.575843       -15.6695
  32   2.0000      -0.564361       -15.3570
  33   2.0000      -0.548687       -14.9305
  34   2.0000      -0.540214       -14.7000
  35   2.0000      -0.521189       -14.1823
  36   2.0000      -0.504149       -13.7186
  37   2.0000      -0.485579       -13.2133
  38   2.0000      -0.483809       -13.1651
  39   2.0000      -0.481315       -13.0972
  40   2.0000      -0.453062       -12.3285
  41   2.0000      -0.449043       -12.2191
  42   2.0000      -0.439322       -11.9546
  43   2.0000      -0.425358       -11.5746
  44   2.0000      -0.421362       -11.4658
  45   2.0000      -0.411407       -11.1950
  46   2.0000      -0.395160       -10.7528
  47   2.0000      -0.392883       -10.6909
  48   2.0000      -0.382442       -10.4068
  49   0.0000       0.070731         1.9247
  50   0.0000       0.092903         2.5280
  51   0.0000       0.094515         2.5719
  52   0.0000       0.100211         2.7269
  53   0.0000       0.111771         3.0414

MULLIKEN ATOMIC CHARGES
-----------------------
   0 C :   -0.100209
   1 C :    1.821202
   2 C :    0.402814
   3 C :    0.056837
   4 S :    1.498257
   5 H :   -0.415553
   6 H :   -0.349999
   7 H :   -0.866981
   8 O :   -0.751013
   9 O :   -0.675983
  10 H :    0.142715
  11 H :   -0.349832
  12 F :   -0.501137
  13 C :    0.089714
  14 H :   -0.037553
  15 H :    0.072839
  16 C :   -0.001341
  17 H :   -0.291534
  18 H :   -0.047899
  19 C :    0.367999
  20 H :    0.238678
  21 H :   -0.150313
  22 H :   -0.031646
  23 H :   -0.190570
  24 H :    0.044753
  25 H :    0.025752
Sum of atomic charges:    0.0000000

LOEWDIN ATOMIC CHARGES
----------------------
   0 C :   -0.047915
   1 C :    0.132934
   2 C :   -0.026951
   3 C :   -0.009326
   4 S :    1.178754
   5 H :   -0.101970
   6 H :   -0.018000
   7 H :   -0.105962
   8 O :   -0.475301
   9 O :   -0.490321
  10 H :    0.016941
  11 H :    0.017363
  12 F :   -0.262444
  13 C :   -0.010998
  14 H :    0.018241
  15 H :    0.026103
  16 C :   -0.012482
  17 H :    0.029250
  18 H :   -0.018328
  19 C :   -0.016662
  20 H :    0.039092
  21 H :    0.028357
  22 H :   -0.003408
  23 H :    0.035945
  24 H :    0.041812
  25 H :    0.035276

  Mayer bond orders larger than 0.100000
B(  0-C ,  1-C ) :   1.0920 B(  0-C ,  2-C ) :   1.1550 B(  0-C ,  5-H ) :   0.3289
B(  0-C ,  7-H ) :   0.3379 B(  0-C , 10-H ) :   0.6984 B(  0-C , 11-H ) :   1.0530
B(  0-C , 14-H ) :   0.1625 B(  0-C , 15-H ) :   0.1502 B(  1-C ,  2-C ) :   0.1405
B(  1-C ,  6-H ) :   0.6099 B(  1-C ,  7-H ) :  -0.5141 B(  1-C , 10-H ) :   0.2005
B(  1-C , 17-H ) :   0.1002 B(  2-C , 10-H ) :   0.1160 B(  2-C , 13-C ) :   1.2716
B(  2-C , 14-H ) :   0.7835 B(  2-C , 15-H ) :   0.6813 B(  3-C ,  4-S ) :   0.9443
B(  3-C , 19-C ) :   1.2387 B(  3-C , 20-H ) :   0.8456 B(  3-C , 21-H ) :   0.9586
B(  3-C , 24-H ) :   0.1201 B(  3-C , 25-H ) :   0.1175 B(  4-S ,  8-O ) :   1.5768
B(  4-S ,  9-O ) :   1.3961 B(  4-S , 12-F ) :   0.6095 B(  5-H ,  6-H ) :  -0.1059
B(  5-H ,  7-H ) :   0.9681 B(  5-H ,  9-O ) :   0.1806 B(  5-H , 11-H ) :   0.1515
B(  5-H , 18-H ) :   0.1459 B(  6-H , 11-H ) :  -0.1328 B(  6-H , 17-H ) :   0.1022
B(  6-H , 18-H ) :  -0.1337 B(  7-H , 10-H ) :  -0.1131 B(  7-H , 11-H ) :   0.1004
B(  7-H , 12-F ) :   0.1475 B(  7-H , 17-H ) :  -0.1032 B(  9-O , 12-F ) :   0.1094
B( 10-H , 11-H ) :  -0.1944 B( 10-H , 22-H ) :   0.1334 B( 11-H , 14-H ) :   0.1005
B( 13-C , 14-H ) :   0.1625 B( 13-C , 15-H ) :   0.2343 B( 13-C , 16-C ) :   1.1718
B( 13-C , 17-H ) :   0.8858 B( 13-C , 18-H ) :   0.8402 B( 13-C , 23-H ) :   0.1752
B( 16-C , 17-H ) :   0.1866 B( 16-C , 18-H ) :   0.1564 B( 16-C , 19-C ) :   1.2697
B( 16-C , 22-H ) :   0.8696 B( 16-C , 23-H ) :   0.8802 B( 16-C , 24-H ) :   0.1353
B( 16-C , 25-H ) :   0.2315 B( 19-C , 21-H ) :   0.2016 B( 19-C , 24-H ) :   0.7830
B( 19-C , 25-H ) :   0.7176

Dispersion correction           -0.012917554
FINAL SINGLE POINT ENERGY      -923.537901153428

DIPOLE MOMENT
-------------
                                X             Y             Z
Electronic contribution:    -16.16291      -7.32882      -3.21602
Nuclear contribution   :     17.63907       5.79106       3.97609
                        -----------------------------------------
Total Dipole Moment    :      1.47616      -1.53776       0.76008
                        -----------------------------------------
Magnitude (a.u.)       :      2.26307
Magnitude (Debye)      :      5.75226

Rotational constants in cm-1:     0.048663     0.025472     0.020259
Rotational constants in MHz :  1458.892793   763.621130   607.350055

                             ****ORCA TERMINATED NORMALLY****
TOTAL RUN TIME: 0 days 0 hours 0 minutes 44 seconds 520 msec
