                         Program Version 5.0.0 -  RELEASE  -
|  1> !wB97X-D3 RIJCOSX def2-TZVP def2/J TightSCF
|  2> *xyz -1 1
|  3> C          4.90646       -3.10282       -5.95484
|  4> C          3.51177       -2.80621       -6.49228
|  5> H          2.73604       -3.37345       -5.97374
|  6> H          3.44490       -3.04083       -7.55528
|  7> S          3.00462       -1.09621       -6.38926
|  8> O          4.12886       -0.32965       -6.95372
|  9> O          1.78128       -1.00078       -7.13640
| 10> O          2.85155       -0.78368       -4.95679
| 11> H          5.62703       -2.52424       -6.49422
| 12> H          5.12164       -4.14387       -6.07654
| 13> H          4.95004       -2.84862       -4.91639
| 14> *
| 15>
| 16> %MaxCore 64000
| 17>
| 18> %pal nprocs 4
| 19> end
| 20>
| 21> %scf
| 22>   MaxIter 150
| 23> end
| 24>
| 25>
| 26>                          ****END OF INPUT****

CARTESIAN COORDINATES (ANGSTROEM)
---------------------------------
  C      4.906460   -3.102820   -5.954840
  C      3.511770   -2.806210   -6.492280
  H      2.736040   -3.373450   -5.973740
  H      3.444900   -3.040830   -7.555280
  S      3.004620   -1.096210   -6.389260
  O      4.128860   -0.329650   -6.953720
  O      1.781280   -1.000780   -7.136400
  O      2.851550   -0.783680   -4.956790
  H      5.627030   -2.524240   -6.494220
  H      5.121640   -4.143870   -6.076540
  H      4.950040   -2.848620   -4.916390

 Total Charge           Charge          ....   -1
 Multiplicity           Mult            ....    1
 Number of Electrons    NEL             ....   58
 Basis Dimension        Dim             ....  222

ORBITAL ENERGIES
----------------

  NO   OCC          E(Eh)            E(eV)
   0   2.0000     -88.927798     -2419.8484
   1   2.0000     -19.005226      -517.1585
   2   2.0000     -18.992848      -516.8217
   3   2.0000     -18.992319      -516.8073
   4   2.0000     -10.135551      -275.8024
   5   2.0000     -10.127647      -275.5873
   6   2.0000      -7.990518      -217.4331
   7   2.0000      -5.944703      -161.7636
   8   2.0000      -5.943573      -161.7329
   9   2.0000      -5.943249      -161.7240
  10   2.0000      -1.031540       -28.0696
  11   2.0000      -0.897587       -24.4246
  12   2.0000      -0.877169       -23.8690
  13   2.0000      -0.748891       -20.3784
  14   2.0000      -0.619463       -16.8564
  15   2.0000      -0.483435       -13.1549
  16   2.0000      -0.419540       -11.4163
  17   2.0000      -0.412154       -11.2153
  18   2.0000      -0.372034       -10.1236
  19   2.0000      -0.356652        -9.7050
  20   2.0000      -0.348417        -9.4809
  21   2.0000      -0.323190        -8.7944
  22   2.0000      -0.306614        -8.3434
  23   2.0000      -0.241502        -6.5716
  24   2.0000      -0.241119        -6.5612
  25   2.0000      -0.203632        -5.5411
  26   2.0000      -0.193893        -5.2761
  27   2.0000      -0.190181        -5.1751
  28   2.0000      -0.150436        -4.0936
  29   0.0000       0.253456         6.8969
  30   0.0000       0.296452         8.0669
  31   0.0000       0.312563         8.5053
  32   0.0000       0.317716         8.6455
  33   0.0000       0.345698         9.4069

MULLIKEN ATOMIC CHARGES
-----------------------
   0 C :   -0.324182
   1 C :   -0.235047
   2 H :    0.081392
   3 H :    0.082398
   4 S :    0.857390
   5 O :   -0.600445
   6 O :   -0.554847
   7 O :   -0.599386
   8 H :    0.117844
   9 H :    0.064607
  10 H :    0.110276
Sum of atomic charges:   -1.0000000

LOEWDIN ATOMIC CHARGES
----------------------
   0 C :   -0.338461
   1 C :   -0.430336
   2 H :    0.118026
   3 H :    0.119392
   4 S :    0.419688
   5 O :   -0.419504
   6 O :   -0.373529
   7 O :   -0.424401
   8 H :    0.115686
   9 H :    0.098778
  10 H :    0.114661

  Mayer bond orders larger than 0.100000
B(  0-C ,  1-C ) :   0.9672 B(  0-C ,  8-H ) :   0.9752 B(  0-C ,  9-H ) :   0.9709
B(  0-C , 10-H ) :   0.9769 B(  1-C ,  2-H ) :   0.9639 B(  1-C ,  3-H ) :   0.9622
B(  1-C ,  4-S ) :   0.8825 B(  4-S ,  5-O ) :   1.7278 B(  4-S ,  6-O ) :   1.8269
B(  4-S ,  7-O ) :   1.7517

Dispersion correction           -0.002914523
FINAL SINGLE POINT ENERGY      -703.218761605275

DIPOLE MOMENT
-------------
                                X             Y             Z
Electronic contribution:     -4.37361       6.40158      -0.66554
Nuclear contribution   :      5.05690      -8.21735       0.57889
                        -----------------------------------------
Total Dipole Moment    :      0.68329      -1.81577      -0.08665
                        -----------------------------------------
Magnitude (a.u.)       :      1.94201
Magnitude (Debye)      :      4.93621

Rotational constants in cm-1:     0.162547     0.083494     0.081672
Rotational constants in MHz :  4873.033504  2503.090885  2448.458543

                             ****ORCA TERMINATED NORMALLY****
TOTAL RUN TIME: 0 days 0 hours 0 minutes 40 seconds 153 msec
