                         Program Version 5.0.0 -  RELEASE  -
|  1> !wB97X-D3 RIJCOSX def2-TZVP def2/J TightSCF
|  2> *xyz 1 1
|  3> C          4.49059        1.15590       -2.46929
|  4> N          4.30539        1.22276       -3.90832
|  5> C          4.63192        2.24637       -4.67096
|  6> N          4.54169        2.14399       -5.98714
|  7> N          5.08409        3.39358       -4.11855
|  8> H          4.92067        3.57050       -3.13587
|  9> H          5.25465        4.19739       -4.70696
| 10> H          3.82453        0.44911       -4.35093
| 11> H          4.34337        1.24932       -6.41665
| 12> H          4.67671        2.95662       -6.57411
| 13> C          5.94213        0.93950       -2.03689
| 14> H          3.86431        0.32853       -2.13661
| 15> H          4.07623        2.04999       -1.98901
| 16> H          6.32982        0.06401       -2.51451
| 17> H          5.98308        0.81426       -0.97504
| 18> H          6.52865        1.78889       -2.31873
| 19> *
| 20>
| 21> %MaxCore 64000
| 22>
| 23> %pal nprocs 4
| 24> end
| 25>
| 26> %scf
| 27>   MaxIter 150
| 28> end
| 29>
| 30>
| 31>                          ****END OF INPUT****

CARTESIAN COORDINATES (ANGSTROEM)
---------------------------------
  C      4.490590    1.155900   -2.469290
  N      4.305390    1.222760   -3.908320
  C      4.631920    2.246370   -4.670960
  N      4.541690    2.143990   -5.987140
  N      5.084090    3.393580   -4.118550
  H      4.920670    3.570500   -3.135870
  H      5.254650    4.197390   -4.706960
  H      3.824530    0.449110   -4.350930
  H      4.343370    1.249320   -6.416650
  H      4.676710    2.956620   -6.574110
  C      5.942130    0.939500   -2.036890
  H      3.864310    0.328530   -2.136610
  H      4.076230    2.049990   -1.989010
  H      6.329820    0.064010   -2.514510
  H      5.983080    0.814260   -0.975040
  H      6.528650    1.788890   -2.318730

 Total Charge           Charge          ....    1
 Multiplicity           Mult            ....    1
 Number of Electrons    NEL             ....   48
 Basis Dimension        Dim             ....  246

ORBITAL ENERGIES
----------------

  NO   OCC          E(Eh)            E(eV)
   0   2.0000     -14.645581      -398.5265
   1   2.0000     -14.644371      -398.4936
   2   2.0000     -14.641819      -398.4242
   3   2.0000     -10.612874      -288.7910
   4   2.0000     -10.481682      -285.2211
   5   2.0000     -10.406287      -283.1695
   6   2.0000      -1.334293       -36.3080
   7   2.0000      -1.222127       -33.2558
   8   2.0000      -1.206042       -32.8181
   9   2.0000      -1.044754       -28.4292
  10   2.0000      -0.954418       -25.9710
  11   2.0000      -0.908404       -24.7189
  12   2.0000      -0.889918       -24.2159
  13   2.0000      -0.846418       -23.0322
  14   2.0000      -0.791476       -21.5372
  15   2.0000      -0.787548       -21.4303
  16   2.0000      -0.760093       -20.6832
  17   2.0000      -0.725599       -19.7446
  18   2.0000      -0.702726       -19.1221
  19   2.0000      -0.654593       -17.8124
  20   2.0000      -0.626305       -17.0426
  21   2.0000      -0.605460       -16.4754
  22   2.0000      -0.570089       -15.5129
  23   2.0000      -0.541439       -14.7333
  24   0.0000      -0.080533        -2.1914
  25   0.0000      -0.068359        -1.8602
  26   0.0000      -0.034516        -0.9392
  27   0.0000      -0.027150        -0.7388
  28   0.0000      -0.004344        -0.1182

MULLIKEN ATOMIC CHARGES
-----------------------
   0 C :   -0.204170
   1 N :   -0.290117
   2 C :    0.502829
   3 N :   -0.453338
   4 N :   -0.456097
   5 H :    0.299647
   6 H :    0.289737
   7 H :    0.275877
   8 H :    0.301629
   9 H :    0.301083
  10 C :   -0.311009
  11 H :    0.164571
  12 H :    0.148448
  13 H :    0.139082
  14 H :    0.164558
  15 H :    0.127271
Sum of atomic charges:    1.0000000

LOEWDIN ATOMIC CHARGES
----------------------
   0 C :   -0.285642
   1 N :    0.167356
   2 C :   -0.394807
   3 N :    0.066230
   4 N :    0.052035
   5 H :    0.195591
   6 H :    0.195816
   7 H :    0.213699
   8 H :    0.200774
   9 H :    0.200261
  10 C :   -0.281122
  11 H :    0.151151
  12 H :    0.136619
  13 H :    0.126991
  14 H :    0.135600
  15 H :    0.119447

  Mayer bond orders larger than 0.100000
B(  0-C ,  1-N ) :   0.8764 B(  0-C , 10-C ) :   0.9699 B(  0-C , 11-H ) :   0.9505
B(  0-C , 12-H ) :   0.9853 B(  1-N ,  2-C ) :   1.3908 B(  1-N ,  7-H ) :   0.8984
B(  2-C ,  3-N ) :   1.3349 B(  2-C ,  4-N ) :   1.3109 B(  3-N ,  8-H ) :   0.8919
B(  3-N ,  9-H ) :   0.8899 B(  4-N ,  5-H ) :   0.8827 B(  4-N ,  6-H ) :   0.8977
B( 10-C , 13-H ) :   0.9643 B( 10-C , 14-H ) :   0.9672 B( 10-C , 15-H ) :   0.9684

Dispersion correction           -0.003828055
FINAL SINGLE POINT ENERGY      -284.431152791327

DIPOLE MOMENT
-------------
                                X             Y             Z
Electronic contribution:     -1.82660       1.58591      -4.49479
Nuclear contribution   :      1.34333      -1.11039       3.43667
                        -----------------------------------------
Total Dipole Moment    :     -0.48327       0.47551      -1.05813
                        -----------------------------------------
Magnitude (a.u.)       :      1.25670
Magnitude (Debye)      :      3.19428

Rotational constants in cm-1:     0.227161     0.075356     0.065003
Rotational constants in MHz :  6810.114531  2259.122204  1948.738523

                             ****ORCA TERMINATED NORMALLY****
TOTAL RUN TIME: 0 days 0 hours 0 minutes 52 seconds 152 msec
