                         Program Version 5.0.0 -  RELEASE  -
|  1> !wB97X-D3 RIJCOSX def2-TZVP def2/J TightSCF
|  2> *xyz 0 1
|  3> C          4.90646       -3.10282       -5.95484
|  4> C          3.51177       -2.80621       -6.49228
|  5> H          2.73604       -3.37345       -5.97374
|  6> H          3.44490       -3.04083       -7.55528
|  7> S          3.00462       -1.09621       -6.38926
|  8> F          4.12886       -0.32965       -6.95372
|  9> O          1.78128       -1.00078       -7.13640
| 10> O          2.85155       -0.78368       -4.95679
| 11> H          5.62703       -2.52424       -6.49422
| 12> H          5.12164       -4.14387       -6.07654
| 13> H          4.95004       -2.84862       -4.91639
| 14> *
| 15>
| 16> %MaxCore 64000
| 17>
| 18> %pal nprocs 4
| 19> end
| 20>
| 21> %scf
| 22>   MaxIter 150
| 23> end
| 24>
| 25>
| 26>                          ****END OF INPUT****

CARTESIAN COORDINATES (ANGSTROEM)
---------------------------------
  C      4.906460   -3.102820   -5.954840
  C      3.511770   -2.806210   -6.492280
  H      2.736040   -3.373450   -5.973740
  H      3.444900   -3.040830   -7.555280
  S      3.004620   -1.096210   -6.389260
  F      4.128860   -0.329650   -6.953720
  O      1.781280   -1.000780   -7.136400
  O      2.851550   -0.783680   -4.956790
  H      5.627030   -2.524240   -6.494220
  H      5.121640   -4.143870   -6.076540
  H      4.950040   -2.848620   -4.916390

 Total Charge           Charge          ....    0
 Multiplicity           Mult            ....    1
 Number of Electrons    NEL             ....   58
 Basis Dimension        Dim             ....  222

ORBITAL ENERGIES
----------------

  NO   OCC          E(Eh)            E(eV)
   0   2.0000     -89.193375     -2427.0751
   1   2.0000     -24.891927      -677.3438
   2   2.0000     -19.244702      -523.6750
   3   2.0000     -19.232355      -523.3390
   4   2.0000     -10.339807      -281.3605
   5   2.0000     -10.297791      -280.2171
   6   2.0000      -8.256742      -224.6774
   7   2.0000      -6.214276      -169.0990
   8   2.0000      -6.207695      -168.9200
   9   2.0000      -6.207293      -168.9090
  10   2.0000      -1.475520       -40.1509
  11   2.0000      -1.224413       -33.3180
  12   2.0000      -1.124962       -30.6118
  13   2.0000      -0.946234       -25.7483
  14   2.0000      -0.837187       -22.7810
  15   2.0000      -0.786755       -21.4087
  16   2.0000      -0.690628       -18.7929
  17   2.0000      -0.674055       -18.3420
  18   2.0000      -0.650114       -17.6905
  19   2.0000      -0.599192       -16.3048
  20   2.0000      -0.577907       -15.7256
  21   2.0000      -0.554097       -15.0777
  22   2.0000      -0.535906       -14.5828
  23   2.0000      -0.509740       -13.8707
  24   2.0000      -0.497333       -13.5331
  25   2.0000      -0.478727       -13.0268
  26   2.0000      -0.432487       -11.7686
  27   2.0000      -0.421010       -11.4563
  28   2.0000      -0.406442       -11.0599
  29   0.0000       0.094099         2.5606
  30   0.0000       0.129540         3.5250
  31   0.0000       0.145213         3.9515
  32   0.0000       0.154000         4.1906
  33   0.0000       0.159366         4.3366

MULLIKEN ATOMIC CHARGES
-----------------------
   0 C :   -0.356710
   1 C :   -0.251324
   2 H :    0.166944
   3 H :    0.148022
   4 S :    0.878221
   5 F :   -0.124071
   6 O :   -0.413271
   7 O :   -0.457594
   8 H :    0.126473
   9 H :    0.133116
  10 H :    0.150194
Sum of atomic charges:    0.0000000

LOEWDIN ATOMIC CHARGES
----------------------
   0 C :   -0.312524
   1 C :   -0.391679
   2 H :    0.151259
   3 H :    0.140311
   4 S :    0.546486
   5 F :    0.063053
   6 O :   -0.260183
   7 O :   -0.308638
   8 H :    0.119754
   9 H :    0.125254
  10 H :    0.126908

  Mayer bond orders larger than 0.100000
B(  0-C ,  1-C ) :   0.9725 B(  0-C ,  8-H ) :   0.9720 B(  0-C ,  9-H ) :   0.9656
B(  0-C , 10-H ) :   0.9672 B(  1-C ,  2-H ) :   0.9414 B(  1-C ,  3-H ) :   0.9446
B(  1-C ,  4-S ) :   0.9133 B(  4-S ,  5-F ) :   1.1073 B(  4-S ,  6-O ) :   1.9525
B(  4-S ,  7-O ) :   1.8859

Dispersion correction           -0.002892604
FINAL SINGLE POINT ENERGY      -727.751354294730

DIPOLE MOMENT
-------------
                                X             Y             Z
Electronic contribution:     -2.97428       8.19333      -1.76264
Nuclear contribution   :      4.18919      -9.36357       1.23251
                        -----------------------------------------
Total Dipole Moment    :      1.21491      -1.17024      -0.53013
                        -----------------------------------------
Magnitude (a.u.)       :      1.76819
Magnitude (Debye)      :      4.49439

Rotational constants in cm-1:     0.153152     0.082513     0.079874
Rotational constants in MHz :  4591.373714  2473.673397  2394.575279

                             ****ORCA TERMINATED NORMALLY****
TOTAL RUN TIME: 0 days 0 hours 0 minutes 36 seconds 222 msec
