                         Program Version 5.0.0 -  RELEASE  -
|  1> !wB97X-D3 RIJCOSX def2-TZVP def2/J TightSCF
|  2> *xyz 0 1
|  3> C          4.49059        1.15590       -2.46929
|  4> C          4.30539        1.22276       -3.90832
|  5> C          4.63192        2.24637       -4.67096
|  6> N          4.54169        2.14399       -5.98714
|  7> N          5.08409        3.39358       -4.11855
|  8> H          4.92067        3.57050       -3.13587
|  9> H          5.25465        4.19739       -4.70696
| 10> H          3.82453        0.44911       -4.35093
| 11> H          4.34337        1.24932       -6.41665
| 12> H          4.67671        2.95662       -6.57411
| 13> C          5.94213        0.93950       -2.03689
| 14> H          3.86431        0.32853       -2.13661
| 15> H          4.07623        2.04999       -1.98901
| 16> H          6.32982        0.06401       -2.51451
| 17> H          5.98308        0.81426       -0.97504
| 18> H          6.52865        1.78889       -2.31873
| 19> *
| 20>
| 21> %MaxCore 64000
| 22>
| 23> %pal nprocs 4
| 24> end
| 25>
| 26> %scf
| 27>   MaxIter 150
| 28> end
| 29>
| 30>
| 31>                          ****END OF INPUT****

CARTESIAN COORDINATES (ANGSTROEM)
---------------------------------
  C      4.490590    1.155900   -2.469290
  C      4.305390    1.222760   -3.908320
  C      4.631920    2.246370   -4.670960
  N      4.541690    2.143990   -5.987140
  N      5.084090    3.393580   -4.118550
  H      4.920670    3.570500   -3.135870
  H      5.254650    4.197390   -4.706960
  H      3.824530    0.449110   -4.350930
  H      4.343370    1.249320   -6.416650
  H      4.676710    2.956620   -6.574110
  C      5.942130    0.939500   -2.036890
  H      3.864310    0.328530   -2.136610
  H      4.076230    2.049990   -1.989010
  H      6.329820    0.064010   -2.514510
  H      5.983080    0.814260   -0.975040
  H      6.528650    1.788890   -2.318730

 Total Charge           Charge          ....    0
 Multiplicity           Mult            ....    1
 Number of Electrons    NEL             ....   48
 Basis Dimension        Dim             ....  246

ORBITAL ENERGIES
----------------

  NO   OCC          E(Eh)            E(eV)
   0   2.0000     -14.419396      -392.3717
   1   2.0000     -14.416842      -392.3022
   2   2.0000     -10.316503      -280.7263
   3   2.0000     -10.245710      -278.7999
   4   2.0000     -10.233098      -278.4568
   5   2.0000     -10.189128      -277.2603
   6   2.0000      -1.075488       -29.2655
   7   2.0000      -0.983325       -26.7576
   8   2.0000      -0.886278       -24.1169
   9   2.0000      -0.805615       -21.9219
  10   2.0000      -0.725739       -19.7484
  11   2.0000      -0.680637       -18.5211
  12   2.0000      -0.642139       -17.4735
  13   2.0000      -0.609607       -16.5882
  14   2.0000      -0.571079       -15.5398
  15   2.0000      -0.534255       -14.5378
  16   2.0000      -0.519397       -14.1335
  17   2.0000      -0.485729       -13.2174
  18   2.0000      -0.481804       -13.1106
  19   2.0000      -0.442997       -12.0546
  20   2.0000      -0.419572       -11.4171
  21   2.0000      -0.407661       -11.0930
  22   2.0000      -0.357699        -9.7335
  23   2.0000      -0.243405        -6.6234
  24   0.0000       0.102647         2.7932
  25   0.0000       0.131248         3.5714
  26   0.0000       0.145233         3.9520
  27   0.0000       0.159933         4.3520
  28   0.0000       0.168383         4.5819

MULLIKEN ATOMIC CHARGES
-----------------------
   0 C :   -0.201261
   1 C :   -0.346909
   2 C :    0.370439
   3 N :   -0.516009
   4 N :   -0.528241
   5 H :    0.253049
   6 H :    0.223869
   7 H :    0.095404
   8 H :    0.256573
   9 H :    0.226714
  10 C :   -0.294118
  11 H :    0.089592
  12 H :    0.068149
  13 H :    0.103469
  14 H :    0.098246
  15 H :    0.101034
Sum of atomic charges:   -0.0000000

LOEWDIN ATOMIC CHARGES
----------------------
   0 C :   -0.308256
   1 C :   -0.288136
   2 C :   -0.450628
   3 N :   -0.015711
   4 N :   -0.025176
   5 H :    0.174101
   6 H :    0.160934
   7 H :    0.119227
   8 H :    0.179636
   9 H :    0.162440
  10 C :   -0.301601
  11 H :    0.139021
  12 H :    0.122234
  13 H :    0.113991
  14 H :    0.107256
  15 H :    0.110668

  Mayer bond orders larger than 0.100000
B(  0-C ,  1-C ) :   1.0022 B(  0-C , 10-C ) :   0.9570 B(  0-C , 11-H ) :   0.9840
B(  0-C , 12-H ) :   0.9920 B(  1-C ,  2-C ) :   1.6820 B(  1-C ,  7-H ) :   0.9951
B(  2-C ,  3-N ) :   1.1388 B(  2-C ,  4-N ) :   1.1272 B(  3-N ,  8-H ) :   0.9185
B(  3-N ,  9-H ) :   0.9236 B(  4-N ,  5-H ) :   0.9113 B(  4-N ,  6-H ) :   0.9292
B( 10-C , 13-H ) :   0.9816 B( 10-C , 14-H ) :   0.9831 B( 10-C , 15-H ) :   0.9793

Dispersion correction           -0.003822244
FINAL SINGLE POINT ENERGY      -267.944353310837

DIPOLE MOMENT
-------------
                                X             Y             Z
Electronic contribution:     -1.25625       2.03501      -4.17923
Nuclear contribution   :      1.23062      -1.24683       3.43056
                        -----------------------------------------
Total Dipole Moment    :     -0.02564       0.78818      -0.74867
                        -----------------------------------------
Magnitude (a.u.)       :      1.08737
Magnitude (Debye)      :      2.76388

Rotational constants in cm-1:     0.231477     0.075416     0.065327
Rotational constants in MHz :  6939.497385  2260.912204  1958.442932

                             ****ORCA TERMINATED NORMALLY****
TOTAL RUN TIME: 0 days 0 hours 0 minutes 51 seconds 872 msec
