                         Program Version 5.0.0 -  RELEASE  -
|  1> !wB97X-D3 RIJCOSX def2-TZVP def2/J TightSCF
|  2> *xyz 0 1
|  3> C          4.90646       -3.10282       -5.95484
|  4> C          3.51177       -2.80621       -6.49228
|  5> H          2.73604       -3.37345       -5.97374
|  6> H          3.44490       -3.04083       -7.55528
|  7> S          3.00462       -1.09621       -6.38926
|  8> O          4.12886       -0.32965       -6.95372
|  9> F          1.78128       -1.00078       -7.13640
| 10> O          2.85155       -0.78368       -4.95679
| 11> H          5.62703       -2.52424       -6.49422
| 12> H          5.12164       -4.14387       -6.07654
| 13> H          4.95004       -2.84862       -4.91639
| 14> *
| 15>
| 16> %MaxCore 64000
| 17>
| 18> %pal nprocs 4
| 19> end
| 20>
| 21> %scf
| 22>   MaxIter 150
| 23> end
| 24>
| 25>
| 26>                          ****END OF INPUT****

CARTESIAN COORDINATES (ANGSTROEM)
---------------------------------
  C      4.906460   -3.102820   -5.954840
  C      3.511770   -2.806210   -6.492280
  H      2.736040   -3.373450   -5.973740
  H      3.444900   -3.040830   -7.555280
  S      3.004620   -1.096210   -6.389260
  O      4.128860   -0.329650   -6.953720
  F      1.781280   -1.000780   -7.136400
  O      2.851550   -0.783680   -4.956790
  H      5.627030   -2.524240   -6.494220
  H      5.121640   -4.143870   -6.076540
  H      4.950040   -2.848620   -4.916390

 Total Charge           Charge          ....    0
 Multiplicity           Mult            ....    1
 Number of Electrons    NEL             ....   58
 Basis Dimension        Dim             ....  222

ORBITAL ENERGIES
----------------

  NO   OCC          E(Eh)            E(eV)
   0   2.0000     -89.195350     -2427.1289
   1   2.0000     -24.911214      -677.8686
   2   2.0000     -19.232436      -523.3412
   3   2.0000     -19.232364      -523.3392
   4   2.0000     -10.340481      -281.3788
   5   2.0000     -10.292906      -280.0842
   6   2.0000      -8.258699      -224.7306
   7   2.0000      -6.215997      -169.1459
   8   2.0000      -6.209641      -168.9729
   9   2.0000      -6.209361      -168.9653
  10   2.0000      -1.506519       -40.9945
  11   2.0000      -1.210586       -32.9417
  12   2.0000      -1.111426       -30.2434
  13   2.0000      -0.942913       -25.6580
  14   2.0000      -0.851613       -23.1736
  15   2.0000      -0.788260       -21.4496
  16   2.0000      -0.696922       -18.9642
  17   2.0000      -0.695511       -18.9258
  18   2.0000      -0.660758       -17.9801
  19   2.0000      -0.599903       -16.3242
  20   2.0000      -0.580545       -15.7974
  21   2.0000      -0.537134       -14.6162
  22   2.0000      -0.529270       -14.4022
  23   2.0000      -0.506951       -13.7948
  24   2.0000      -0.486011       -13.2250
  25   2.0000      -0.476453       -12.9650
  26   2.0000      -0.420737       -11.4488
  27   2.0000      -0.418886       -11.3985
  28   2.0000      -0.394939       -10.7468
  29   0.0000       0.106477         2.8974
  30   0.0000       0.115123         3.1326
  31   0.0000       0.146039         3.9739
  32   0.0000       0.149394         4.0652
  33   0.0000       0.160095         4.3564

MULLIKEN ATOMIC CHARGES
-----------------------
   0 C :   -0.354703
   1 C :   -0.239449
   2 H :    0.145517
   3 H :    0.138014
   4 S :    0.877021
   5 O :   -0.451810
   6 F :   -0.092544
   7 O :   -0.449998
   8 H :    0.150313
   9 H :    0.130448
  10 H :    0.147191
Sum of atomic charges:    0.0000000

LOEWDIN ATOMIC CHARGES
----------------------
   0 C :   -0.298370
   1 C :   -0.398175
   2 H :    0.138553
   3 H :    0.137190
   4 S :    0.540776
   5 O :   -0.302409
   6 F :    0.106851
   7 O :   -0.305832
   8 H :    0.128263
   9 H :    0.124907
  10 H :    0.128244

  Mayer bond orders larger than 0.100000
B(  0-C ,  1-C ) :   0.9854 B(  0-C ,  8-H ) :   0.9674 B(  0-C ,  9-H ) :   0.9625
B(  0-C , 10-H ) :   0.9687 B(  1-C ,  2-H ) :   0.9392 B(  1-C ,  3-H ) :   0.9386
B(  1-C ,  4-S ) :   0.9201 B(  4-S ,  5-O ) :   1.8756 B(  4-S ,  6-F ) :   1.1563
B(  4-S ,  7-O ) :   1.8909

Dispersion correction           -0.002915770
FINAL SINGLE POINT ENERGY      -727.735855414743

DIPOLE MOMENT
-------------
                                X             Y             Z
Electronic contribution:     -6.99075       7.06643      -2.07364
Nuclear contribution   :      6.63544      -8.66423       1.42287
                        -----------------------------------------
Total Dipole Moment    :     -0.35531      -1.59780      -0.65077
                        -----------------------------------------
Magnitude (a.u.)       :      1.76145
Magnitude (Debye)      :      4.47724

Rotational constants in cm-1:     0.158118     0.080978     0.078216
Rotational constants in MHz :  4740.271775  2427.649826  2344.849020

                             ****ORCA TERMINATED NORMALLY****
TOTAL RUN TIME: 0 days 0 hours 0 minutes 36 seconds 515 msec
