                         Program Version 5.0.0 -  RELEASE  -
|  1> !wB97X-D3 RIJCOSX def2-TZVP def2/J TightSCF
|  2> *xyz 0 1
|  3> C          4.49059        1.15590       -2.46929
|  4> N          4.30539        1.22276       -3.90832
|  5> C          4.63192        2.24637       -4.67096
|  6> C          4.54169        2.14399       -5.98714
|  7> N          5.08409        3.39358       -4.11855
|  8> H          4.92067        3.57050       -3.13587
|  9> H          5.25465        4.19739       -4.70696
| 10> H          3.82453        0.44911       -4.35093
| 11> H          4.34337        1.24932       -6.41665
| 12> H          4.67671        2.95662       -6.57411
| 13> C          5.94213        0.93950       -2.03689
| 14> H          3.86431        0.32853       -2.13661
| 15> H          4.07623        2.04999       -1.98901
| 16> H          6.32982        0.06401       -2.51451
| 17> H          5.98308        0.81426       -0.97504
| 18> H          6.52865        1.78889       -2.31873
| 19> *
| 20>
| 21> %MaxCore 64000
| 22>
| 23> %pal nprocs 4
| 24> end
| 25>
| 26> %scf
| 27>   MaxIter 150
| 28> end
| 29>
| 30>
| 31>                          ****END OF INPUT****

CARTESIAN COORDINATES (ANGSTROEM)
---------------------------------
  C      4.490590    1.155900   -2.469290
  N      4.305390    1.222760   -3.908320
  C      4.631920    2.246370   -4.670960
  C      4.541690    2.143990   -5.987140
  N      5.084090    3.393580   -4.118550
  H      4.920670    3.570500   -3.135870
  H      5.254650    4.197390   -4.706960
  H      3.824530    0.449110   -4.350930
  H      4.343370    1.249320   -6.416650
  H      4.676710    2.956620   -6.574110
  C      5.942130    0.939500   -2.036890
  H      3.864310    0.328530   -2.136610
  H      4.076230    2.049990   -1.989010
  H      6.329820    0.064010   -2.514510
  H      5.983080    0.814260   -0.975040
  H      6.528650    1.788890   -2.318730

 Total Charge           Charge          ....    0
 Multiplicity           Mult            ....    1
 Number of Electrons    NEL             ....   48
 Basis Dimension        Dim             ....  246

ORBITAL ENERGIES
----------------

  NO   OCC          E(Eh)            E(eV)
   0   2.0000     -14.420173      -392.3929
   1   2.0000     -14.418021      -392.3343
   2   2.0000     -10.319594      -280.8104
   3   2.0000     -10.315358      -280.6952
   4   2.0000     -10.260430      -279.2005
   5   2.0000     -10.179642      -277.0021
   6   2.0000      -1.084703       -29.5163
   7   2.0000      -0.995990       -27.1023
   8   2.0000      -0.885869       -24.1057
   9   2.0000      -0.814552       -22.1651
  10   2.0000      -0.740419       -20.1478
  11   2.0000      -0.702448       -19.1146
  12   2.0000      -0.637346       -17.3431
  13   2.0000      -0.598969       -16.2988
  14   2.0000      -0.577728       -15.7208
  15   2.0000      -0.547591       -14.9007
  16   2.0000      -0.522570       -14.2199
  17   2.0000      -0.499791       -13.6000
  18   2.0000      -0.477240       -12.9864
  19   2.0000      -0.468880       -12.7589
  20   2.0000      -0.454611       -12.3706
  21   2.0000      -0.447578       -12.1792
  22   2.0000      -0.346714        -9.4346
  23   2.0000      -0.247545        -6.7361
  24   0.0000       0.102818         2.7978
  25   0.0000       0.129273         3.5177
  26   0.0000       0.141366         3.8468
  27   0.0000       0.154602         4.2069
  28   0.0000       0.172554         4.6954

MULLIKEN ATOMIC CHARGES
-----------------------
   0 C :   -0.171016
   1 N :   -0.346078
   2 C :    0.432626
   3 C :   -0.575726
   4 N :   -0.525361
   5 H :    0.232629
   6 H :    0.249572
   7 H :    0.236679
   8 H :    0.100094
   9 H :    0.094428
  10 C :   -0.274005
  11 H :    0.111960
  12 H :    0.101958
  13 H :    0.108401
  14 H :    0.108256
  15 H :    0.115581
Sum of atomic charges:   -0.0000000

LOEWDIN ATOMIC CHARGES
----------------------
   0 C :   -0.316067
   1 N :    0.115799
   2 C :   -0.455293
   3 C :   -0.343204
   4 N :   -0.023092
   5 H :    0.160565
   6 H :    0.176317
   7 H :    0.196473
   8 H :    0.095958
   9 H :    0.095235
  10 C :   -0.302096
  11 H :    0.131727
  12 H :    0.120370
  13 H :    0.116933
  14 H :    0.114878
  15 H :    0.115498

  Mayer bond orders larger than 0.100000
B(  0-C ,  1-N ) :   0.9566 B(  0-C , 10-C ) :   0.9526 B(  0-C , 11-H ) :   0.9733
B(  0-C , 12-H ) :   0.9941 B(  1-N ,  2-C ) :   1.1896 B(  1-N ,  7-H ) :   0.9243
B(  2-C ,  3-C ) :   1.5872 B(  2-C ,  4-N ) :   1.1157 B(  3-C ,  8-H ) :   1.0214
B(  3-C ,  9-H ) :   1.0105 B(  4-N ,  5-H ) :   0.9171 B(  4-N ,  6-H ) :   0.9225
B( 10-C , 13-H ) :   0.9736 B( 10-C , 14-H ) :   0.9730 B( 10-C , 15-H ) :   0.9732

Dispersion correction           -0.003854416
FINAL SINGLE POINT ENERGY      -267.937413791756

DIPOLE MOMENT
-------------
                                X             Y             Z
Electronic contribution:     -1.42647       1.08952      -1.91363
Nuclear contribution   :      1.28075      -1.05140       2.98955
                        -----------------------------------------
Total Dipole Moment    :     -0.14572       0.03813       1.07593
                        -----------------------------------------
Magnitude (a.u.)       :      1.08642
Magnitude (Debye)      :      2.76146

Rotational constants in cm-1:     0.229858     0.078444     0.067377
Rotational constants in MHz :  6890.979812  2351.691803  2019.910665

                             ****ORCA TERMINATED NORMALLY****
TOTAL RUN TIME: 0 days 0 hours 0 minutes 51 seconds 358 msec
