                         Program Version 5.0.0 -  RELEASE  -
|  1> !wB97X-D3 RIJCOSX def2-TZVP def2/J TightSCF
|  2> *xyz 0 1
|  3> C          4.90646       -3.10282       -5.95484
|  4> C          3.51177       -2.80621       -6.49228
|  5> H          2.73604       -3.37345       -5.97374
|  6> H          3.44490       -3.04083       -7.55528
|  7> S          3.00462       -1.09621       -6.38926
|  8> O          4.12886       -0.32965       -6.95372
|  9> O          1.78128       -1.00078       -7.13640
| 10> F          2.85155       -0.78368       -4.95679
| 11> H          5.62703       -2.52424       -6.49422
| 12> H          5.12164       -4.14387       -6.07654
| 13> H          4.95004       -2.84862       -4.91639
| 14> *
| 15>
| 16> %MaxCore 64000
| 17>
| 18> %pal nprocs 4
| 19> end
| 20>
| 21> %scf
| 22>   MaxIter 150
| 23> end
| 24>
| 25>
| 26>                          ****END OF INPUT****

CARTESIAN COORDINATES (ANGSTROEM)
---------------------------------
  C      4.906460   -3.102820   -5.954840
  C      3.511770   -2.806210   -6.492280
  H      2.736040   -3.373450   -5.973740
  H      3.444900   -3.040830   -7.555280
  S      3.004620   -1.096210   -6.389260
  O      4.128860   -0.329650   -6.953720
  O      1.781280   -1.000780   -7.136400
  F      2.851550   -0.783680   -4.956790
  H      5.627030   -2.524240   -6.494220
  H      5.121640   -4.143870   -6.076540
  H      4.950040   -2.848620   -4.916390

 Total Charge           Charge          ....    0
 Multiplicity           Mult            ....    1
 Number of Electrons    NEL             ....   58
 Basis Dimension        Dim             ....  222

ORBITAL ENERGIES
----------------

  NO   OCC          E(Eh)            E(eV)
   0   2.0000     -89.193491     -2427.0783
   1   2.0000     -24.891667      -677.3367
   2   2.0000     -19.244931      -523.6812
   3   2.0000     -19.232800      -523.3511
   4   2.0000     -10.339642      -281.3560
   5   2.0000     -10.294638      -280.1313
   6   2.0000      -8.256851      -224.6803
   7   2.0000      -6.214330      -169.1005
   8   2.0000      -6.207928      -168.9263
   9   2.0000      -6.207335      -168.9102
  10   2.0000      -1.474645       -40.1271
  11   2.0000      -1.224648       -33.3244
  12   2.0000      -1.126649       -30.6577
  13   2.0000      -0.943861       -25.6838
  14   2.0000      -0.836587       -22.7647
  15   2.0000      -0.785547       -21.3758
  16   2.0000      -0.687825       -18.7167
  17   2.0000      -0.673016       -18.3137
  18   2.0000      -0.652056       -17.7434
  19   2.0000      -0.597623       -16.2621
  20   2.0000      -0.580641       -15.8001
  21   2.0000      -0.555174       -15.1070
  22   2.0000      -0.531741       -14.4694
  23   2.0000      -0.505790       -13.7632
  24   2.0000      -0.497844       -13.5470
  25   2.0000      -0.476134       -12.9563
  26   2.0000      -0.432867       -11.7789
  27   2.0000      -0.421527       -11.4703
  28   2.0000      -0.408041       -11.1034
  29   0.0000       0.095450         2.5973
  30   0.0000       0.125619         3.4183
  31   0.0000       0.142909         3.8887
  32   0.0000       0.155783         4.2391
  33   0.0000       0.163461         4.4480

MULLIKEN ATOMIC CHARGES
-----------------------
   0 C :   -0.351329
   1 C :   -0.254546
   2 H :    0.144377
   3 H :    0.166469
   4 S :    0.880560
   5 O :   -0.459272
   6 O :   -0.414968
   7 F :   -0.122246
   8 H :    0.155809
   9 H :    0.131026
  10 H :    0.124122
Sum of atomic charges:    0.0000000

LOEWDIN ATOMIC CHARGES
----------------------
   0 C :   -0.311074
   1 C :   -0.393389
   2 H :    0.137772
   3 H :    0.152222
   4 S :    0.547350
   5 O :   -0.304835
   6 O :   -0.260773
   7 F :    0.060123
   8 H :    0.127893
   9 H :    0.124314
  10 H :    0.120397

  Mayer bond orders larger than 0.100000
B(  0-C ,  1-C ) :   0.9719 B(  0-C ,  8-H ) :   0.9664 B(  0-C ,  9-H ) :   0.9645
B(  0-C , 10-H ) :   0.9724 B(  1-C ,  2-H ) :   0.9459 B(  1-C ,  3-H ) :   0.9403
B(  1-C ,  4-S ) :   0.9150 B(  4-S ,  5-O ) :   1.8713 B(  4-S ,  6-O ) :   1.9512
B(  4-S ,  7-F ) :   1.1130

Dispersion correction           -0.002874431
FINAL SINGLE POINT ENERGY      -727.751709556338

DIPOLE MOMENT
-------------
                                X             Y             Z
Electronic contribution:     -5.16770       7.42963       1.66266
Nuclear contribution   :      5.52019      -8.89046      -0.84835
                        -----------------------------------------
Total Dipole Moment    :      0.35249      -1.46082       0.81431
                        -----------------------------------------
Magnitude (a.u.)       :      1.70920
Magnitude (Debye)      :      4.34443

Rotational constants in cm-1:     0.153332     0.082132     0.079755
Rotational constants in MHz :  4596.775407  2462.251277  2391.008596

                             ****ORCA TERMINATED NORMALLY****
TOTAL RUN TIME: 0 days 0 hours 0 minutes 36 seconds 341 msec
