                         Program Version 5.0.0 -  RELEASE  -
|  1> !wB97X-D3 RIJCOSX def2-TZVP def2/J TightSCF
|  2> *xyz 0 1
|  3> C          4.49059        1.15590       -2.46929
|  4> N          4.30539        1.22276       -3.90832
|  5> C          4.63192        2.24637       -4.67096
|  6> N          4.54169        2.14399       -5.98714
|  7> C          5.08409        3.39358       -4.11855
|  8> H          4.92067        3.57050       -3.13587
|  9> H          5.25465        4.19739       -4.70696
| 10> H          3.82453        0.44911       -4.35093
| 11> H          4.34337        1.24932       -6.41665
| 12> H          4.67671        2.95662       -6.57411
| 13> C          5.94213        0.93950       -2.03689
| 14> H          3.86431        0.32853       -2.13661
| 15> H          4.07623        2.04999       -1.98901
| 16> H          6.32982        0.06401       -2.51451
| 17> H          5.98308        0.81426       -0.97504
| 18> H          6.52865        1.78889       -2.31873
| 19> *
| 20>
| 21> %MaxCore 64000
| 22>
| 23> %pal nprocs 4
| 24> end
| 25>
| 26> %scf
| 27>   MaxIter 150
| 28> end
| 29>
| 30>
| 31>                          ****END OF INPUT****

CARTESIAN COORDINATES (ANGSTROEM)
---------------------------------
  C      4.490590    1.155900   -2.469290
  N      4.305390    1.222760   -3.908320
  C      4.631920    2.246370   -4.670960
  N      4.541690    2.143990   -5.987140
  C      5.084090    3.393580   -4.118550
  H      4.920670    3.570500   -3.135870
  H      5.254650    4.197390   -4.706960
  H      3.824530    0.449110   -4.350930
  H      4.343370    1.249320   -6.416650
  H      4.676710    2.956620   -6.574110
  C      5.942130    0.939500   -2.036890
  H      3.864310    0.328530   -2.136610
  H      4.076230    2.049990   -1.989010
  H      6.329820    0.064010   -2.514510
  H      5.983080    0.814260   -0.975040
  H      6.528650    1.788890   -2.318730

 Total Charge           Charge          ....    0
 Multiplicity           Mult            ....    1
 Number of Electrons    NEL             ....   48
 Basis Dimension        Dim             ....  246

ORBITAL ENERGIES
----------------

  NO   OCC          E(Eh)            E(eV)
   0   2.0000     -14.423904      -392.4944
   1   2.0000     -14.420202      -392.3936
   2   2.0000     -10.322339      -280.8851
   3   2.0000     -10.306753      -280.4610
   4   2.0000     -10.249794      -278.9111
   5   2.0000     -10.179586      -277.0006
   6   2.0000      -1.088575       -29.6216
   7   2.0000      -1.003049       -27.2944
   8   2.0000      -0.866292       -23.5730
   9   2.0000      -0.818854       -22.2822
  10   2.0000      -0.749412       -20.3925
  11   2.0000      -0.666906       -18.1474
  12   2.0000      -0.654076       -17.7983
  13   2.0000      -0.622668       -16.9437
  14   2.0000      -0.569306       -15.4916
  15   2.0000      -0.537689       -14.6312
  16   2.0000      -0.510845       -13.9008
  17   2.0000      -0.492396       -13.3988
  18   2.0000      -0.475579       -12.9412
  19   2.0000      -0.458388       -12.4734
  20   2.0000      -0.456987       -12.4353
  21   2.0000      -0.438280       -11.9262
  22   2.0000      -0.341865        -9.3026
  23   2.0000      -0.248125        -6.7518
  24   0.0000       0.103663         2.8208
  25   0.0000       0.131586         3.5806
  26   0.0000       0.141903         3.8614
  27   0.0000       0.156724         4.2647
  28   0.0000       0.172877         4.7042

MULLIKEN ATOMIC CHARGES
-----------------------
   0 C :   -0.119551
   1 N :   -0.357224
   2 C :    0.411787
   3 N :   -0.520437
   4 C :   -0.561019
   5 H :    0.102926
   6 H :    0.079932
   7 H :    0.207344
   8 H :    0.227979
   9 H :    0.260059
  10 C :   -0.297969
  11 H :    0.104153
  12 H :    0.114624
  13 H :    0.094219
  14 H :    0.107489
  15 H :    0.145687
Sum of atomic charges:    0.0000000

LOEWDIN ATOMIC CHARGES
----------------------
   0 C :   -0.299200
   1 N :    0.113021
   2 C :   -0.462774
   3 N :   -0.010955
   4 C :   -0.359249
   5 H :    0.095827
   6 H :    0.091548
   7 H :    0.179795
   8 H :    0.162956
   9 H :    0.180528
  10 C :   -0.299813
  11 H :    0.128269
  12 H :    0.129522
  13 H :    0.112793
  14 H :    0.114948
  15 H :    0.122785

  Mayer bond orders larger than 0.100000
B(  0-C ,  1-N ) :   0.9513 B(  0-C , 10-C ) :   0.9657 B(  0-C , 11-H ) :   0.9717
B(  0-C , 12-H ) :   0.9852 B(  1-N ,  2-C ) :   1.1770 B(  1-N ,  7-H ) :   0.9287
B(  2-C ,  3-N ) :   1.1381 B(  2-C ,  4-C ) :   1.5927 B(  3-N ,  8-H ) :   0.9253
B(  3-N ,  9-H ) :   0.9162 B(  4-C ,  5-H ) :   1.0025 B(  4-C ,  6-H ) :   1.0090
B( 10-C , 13-H ) :   0.9749 B( 10-C , 14-H ) :   0.9754 B( 10-C , 15-H ) :   0.9737

Dispersion correction           -0.003801789
FINAL SINGLE POINT ENERGY      -267.936243229604

DIPOLE MOMENT
-------------
                                X             Y             Z
Electronic contribution:     -1.92862      -0.19285      -3.88540
Nuclear contribution   :      1.39581      -0.78630       3.38596
                        -----------------------------------------
Total Dipole Moment    :     -0.53281      -0.97916      -0.49943
                        -----------------------------------------
Magnitude (a.u.)       :      1.22150
Magnitude (Debye)      :      3.10481

Rotational constants in cm-1:     0.239249     0.075811     0.066261
Rotational constants in MHz :  7172.504830  2272.756282  1986.457543

                             ****ORCA TERMINATED NORMALLY****
TOTAL RUN TIME: 0 days 0 hours 0 minutes 50 seconds 345 msec
