                         Program Version 5.0.0 -  RELEASE  -
|  1> !wB97X-D3 RIJCOSX def2-TZVP def2/J TightSCF xyzfile
|  2>
|  3> *xyzfile 0 1 D4.xyz
|  4>
|  5> %MaxCore 64000
|  6>
|  7> %pal nprocs 18
|  8> end
|  9>
| 10> %scf
| 11>   MaxIter 150
| 12> end
| 13>
| 14>
| 15>                          ****END OF INPUT****

CARTESIAN COORDINATES (ANGSTROEM)
---------------------------------
  C      4.490588    1.155899   -2.469290
  C      4.305394    1.222762   -3.908317
  C      4.906458   -3.102816   -5.954844
  C      3.511771   -2.806215   -6.492283
  H      2.736044   -3.373445   -5.973736
  H      3.444904   -3.040831   -7.555281
  S      3.004618   -1.096206   -6.389259
  C      4.631918    2.246365   -4.670958
  N      4.541686    2.143990   -5.987139
  N      5.084086    3.393584   -4.118545
  H      4.920675    3.570501   -3.135870
  H      5.254652    4.197390   -4.706956
  H      3.824530    0.449113   -4.350926
  H      4.343373    1.249318   -6.416646
  H      4.676712    2.956624   -6.574113
  O      4.128856   -0.329647   -6.953717
  F      1.781285   -1.000779   -7.136399
  C      5.942129    0.939500   -2.036893
  H      3.864305    0.328532   -2.136611
  H      4.076233    2.049994   -1.989010
  C      6.462677   -3.117775   -3.944671
  C      5.024977   -3.025679   -4.437625
  H      4.423321   -3.818693   -3.977648
  H      4.579350   -2.087131   -4.108727
  H      5.201533   -4.100207   -6.296905
  H      5.605922   -2.397822   -6.413368
  C      6.559957   -0.356290   -2.559086
  H      5.967976    0.952567   -0.942444
  H      6.547184    1.788331   -2.368849
  C      6.006283   -1.615917   -1.899301
  H      7.642360   -0.318000   -2.402059
  H      6.414855   -0.403433   -3.642587
  C      6.608718   -2.917014   -2.435655
  H      6.190324   -1.561115   -0.820948
  H      4.919250   -1.651245   -2.016586
  H      7.066975   -2.374258   -4.475514
  H      6.887808   -4.089747   -4.215332
  H      6.135197   -3.755573   -1.915159
  H      7.671142   -2.955503   -2.172291
  O      2.851546   -0.783683   -4.956789

 Total Charge           Charge          ....    0
 Multiplicity           Mult            ....    1
 Number of Electrons    NEL             ....  144
 Basis Dimension        Dim             ....  671

ORBITAL ENERGIES
----------------

  NO   OCC          E(Eh)            E(eV)
   0   2.0000     -89.211263     -2427.5619
   1   2.0000     -24.922963      -678.1883
   2   2.0000     -19.254477      -523.9410
   3   2.0000     -19.244873      -523.6796
   4   2.0000     -14.395013      -391.7082
   5   2.0000     -14.374846      -391.1594
   6   2.0000     -10.344851      -281.4977
   7   2.0000     -10.302201      -280.3371
   8   2.0000     -10.286222      -279.9023
   9   2.0000     -10.269952      -279.4596
  10   2.0000     -10.264438      -279.3096
  11   2.0000     -10.258131      -279.1379
  12   2.0000     -10.247848      -278.8581
  13   2.0000     -10.238521      -278.6043
  14   2.0000     -10.232801      -278.4487
  15   2.0000     -10.224818      -278.2314
  16   2.0000     -10.149520      -276.1825
  17   2.0000      -8.274822      -225.1694
  18   2.0000      -6.232071      -169.5833
  19   2.0000      -6.225798      -169.4126
  20   2.0000      -6.225474      -169.4038
  21   2.0000      -1.518367       -41.3169
  22   2.0000      -1.231994       -33.5243
  23   2.0000      -1.133611       -30.8471
  24   2.0000      -1.045433       -28.4477
  25   2.0000      -0.960917       -26.1479
  26   2.0000      -0.952840       -25.9281
  27   2.0000      -0.919669       -25.0255
  28   2.0000      -0.889394       -24.2016
  29   2.0000      -0.867633       -23.6095
  30   2.0000      -0.836788       -22.7702
  31   2.0000      -0.810379       -22.0515
  32   2.0000      -0.775883       -21.1128
  33   2.0000      -0.746367       -20.3097
  34   2.0000      -0.723240       -19.6804
  35   2.0000      -0.710941       -19.3457
  36   2.0000      -0.697377       -18.9766
  37   2.0000      -0.690898       -18.8003
  38   2.0000      -0.676836       -18.4177
  39   2.0000      -0.655373       -17.8336
  40   2.0000      -0.640094       -17.4179
  41   2.0000      -0.619294       -16.8518
  42   2.0000      -0.604686       -16.4544
  43   2.0000      -0.597375       -16.2554
  44   2.0000      -0.579480       -15.7684
  45   2.0000      -0.568828       -15.4786
  46   2.0000      -0.564679       -15.3657
  47   2.0000      -0.552022       -15.0213
  48   2.0000      -0.544657       -14.8209
  49   2.0000      -0.528553       -14.3826
  50   2.0000      -0.521155       -14.1814
  51   2.0000      -0.509957       -13.8766
  52   2.0000      -0.508428       -13.8350
  53   2.0000      -0.502504       -13.6738
  54   2.0000      -0.478397       -13.0178
  55   2.0000      -0.473735       -12.8910
  56   2.0000      -0.469289       -12.7700
  57   2.0000      -0.460523       -12.5315
  58   2.0000      -0.450174       -12.2499
  59   2.0000      -0.443040       -12.0557
  60   2.0000      -0.437731       -11.9113
  61   2.0000      -0.428364       -11.6564
  62   2.0000      -0.422187       -11.4883
  63   2.0000      -0.413690       -11.2571
  64   2.0000      -0.409970       -11.1559
  65   2.0000      -0.406697       -11.0668
  66   2.0000      -0.393206       -10.6997
  67   2.0000      -0.384007       -10.4493
  68   2.0000      -0.375644       -10.2218
  69   2.0000      -0.360398        -9.8069
  70   2.0000      -0.328320        -8.9340
  71   2.0000      -0.214019        -5.8238
  72   0.0000       0.098285         2.6745
  73   0.0000       0.102213         2.7814
  74   0.0000       0.123231         3.3533
  75   0.0000       0.127475         3.4688
  76   0.0000       0.131538         3.5793

MULLIKEN ATOMIC CHARGES
-----------------------
   0 C :   -0.296191
   1 C :   -0.335442
   2 C :   -0.201153
   3 C :   -0.232656
   4 H :    0.154236
   5 H :    0.159592
   6 S :    0.906009
   7 C :    0.338570
   8 N :   -0.515510
   9 N :   -0.529718
  10 H :    0.246349
  11 H :    0.215725
  12 H :    0.122903
  13 H :    0.258485
  14 H :    0.206181
  15 O :   -0.477494
  16 F :   -0.089693
  17 C :   -0.106139
  18 H :    0.104026
  19 H :    0.083108
  20 C :   -0.213570
  21 C :   -0.298135
  22 H :    0.097163
  23 H :    0.145496
  24 H :    0.124521
  25 H :    0.148629
  26 C :   -0.195075
  27 H :    0.070796
  28 H :    0.097097
  29 C :   -0.257990
  30 H :    0.090852
  31 H :    0.120085
  32 C :   -0.150159
  33 H :    0.099124
  34 H :    0.116976
  35 H :    0.122026
  36 H :    0.099837
  37 H :    0.095928
  38 H :    0.101762
  39 O :   -0.426548
Sum of atomic charges:   -0.0000000

LOEWDIN ATOMIC CHARGES
----------------------
   0 C :   -0.288569
   1 C :   -0.292276
   2 C :   -0.273427
   3 C :   -0.364674
   4 H :    0.144399
   5 H :    0.141159
   6 S :    0.567764
   7 C :   -0.458544
   8 N :   -0.024030
   9 N :   -0.032571
  10 H :    0.170315
  11 H :    0.156534
  12 H :    0.109924
  13 H :    0.146771
  14 H :    0.154009
  15 O :   -0.279754
  16 F :    0.113521
  17 C :   -0.264644
  18 H :    0.139149
  19 H :    0.123102
  20 C :   -0.269528
  21 C :   -0.269525
  22 H :    0.135934
  23 H :    0.144961
  24 H :    0.146308
  25 H :    0.150409
  26 C :   -0.266522
  27 H :    0.126350
  28 H :    0.132140
  29 C :   -0.269838
  30 H :    0.131498
  31 H :    0.138369
  32 C :   -0.267767
  33 H :    0.134337
  34 H :    0.132927
  35 H :    0.137881
  36 H :    0.132657
  37 H :    0.133404
  38 H :    0.135378
  39 O :   -0.257529

  Mayer bond orders larger than 0.100000
B(  0-C ,  1-C ) :   0.9500 B(  0-C , 17-C ) :   0.9403 B(  0-C , 18-H ) :   1.0123
B(  0-C , 19-H ) :   0.9978 B(  1-C ,  7-C ) :   1.6694 B(  1-C , 12-H ) :   0.9779
B(  2-C ,  3-C ) :   0.9724 B(  2-C , 21-C ) :   0.9793 B(  2-C , 24-H ) :   0.9587
B(  2-C , 25-H ) :   0.9670 B(  3-C ,  4-H ) :   0.9402 B(  3-C ,  5-H ) :   0.9450
B(  3-C ,  6-S ) :   0.9246 B(  6-S , 15-O ) :   1.7721 B(  6-S , 16-F ) :   1.1615
B(  6-S , 39-O ) :   1.8507 B(  7-C ,  8-N ) :   1.1887 B(  7-C ,  9-N ) :   1.1341
B(  8-N , 13-H ) :   0.8670 B(  8-N , 14-H ) :   0.9320 B(  9-N , 10-H ) :   0.9129
B(  9-N , 11-H ) :   0.9316 B( 17-C , 26-C ) :   0.9908 B( 17-C , 27-H ) :   0.9819
B( 17-C , 28-H ) :   0.9707 B( 20-C , 21-C ) :   0.9707 B( 20-C , 32-C ) :   0.9765
B( 20-C , 35-H ) :   0.9838 B( 20-C , 36-H ) :   0.9743 B( 21-C , 22-H ) :   0.9671
B( 21-C , 23-H ) :   0.9731 B( 26-C , 29-C ) :   0.9484 B( 26-C , 30-H ) :   0.9748
B( 26-C , 31-H ) :   0.9675 B( 29-C , 32-C ) :   0.9690 B( 29-C , 33-H ) :   0.9719
B( 29-C , 34-H ) :   0.9902 B( 32-C , 37-H ) :   0.9850 B( 32-C , 38-H ) :   0.9799

Dispersion correction           -0.021960216
FINAL SINGLE POINT ENERGY     -1191.055778243501

DIPOLE MOMENT
-------------
                                X             Y             Z
Electronic contribution:    -20.61384       3.58102     -22.06700
Nuclear contribution   :     19.99734      -4.67125      20.55522
                        -----------------------------------------
Total Dipole Moment    :     -0.61650      -1.09023      -1.51178
                        -----------------------------------------
Magnitude (a.u.)       :      1.96320
Magnitude (Debye)      :      4.99006

Rotational constants in cm-1:     0.014213     0.012058     0.007367
Rotational constants in MHz :   426.102180   361.491761   220.844824

                             ****ORCA TERMINATED NORMALLY****
TOTAL RUN TIME: 0 days 0 hours 2 minutes 43 seconds 684 msec
