                         Program Version 5.0.0 -  RELEASE  -
|  1> !wB97X-D3 RIJCOSX def2-TZVP def2/J TightSCF xyzfile
|  2>
|  3> *xyzfile 0 1 D6.xyz
|  4>
|  5> %MaxCore 64000
|  6>
|  7> %pal nprocs 18
|  8> end
|  9>
| 10> %scf
| 11>   MaxIter 150
| 12> end
| 13>
| 14>
| 15>                          ****END OF INPUT****

CARTESIAN COORDINATES (ANGSTROEM)
---------------------------------
  C      4.490588    1.155899   -2.469290
  N      4.305394    1.222762   -3.908317
  C      4.906458   -3.102816   -5.954844
  C      3.511771   -2.806215   -6.492283
  H      2.736044   -3.373445   -5.973736
  H      3.444904   -3.040831   -7.555281
  S      3.004618   -1.096206   -6.389259
  C      4.631918    2.246365   -4.670958
  N      4.541686    2.143990   -5.987139
  C      5.084086    3.393584   -4.118545
  H      4.920675    3.570501   -3.135870
  H      5.254652    4.197390   -4.706956
  H      3.824530    0.449113   -4.350926
  H      4.343373    1.249318   -6.416646
  H      4.676712    2.956624   -6.574113
  O      4.128856   -0.329647   -6.953717
  F      1.781285   -1.000779   -7.136399
  C      5.942129    0.939500   -2.036893
  H      3.864305    0.328532   -2.136611
  H      4.076233    2.049994   -1.989010
  C      6.462677   -3.117775   -3.944671
  C      5.024977   -3.025679   -4.437625
  H      4.423321   -3.818693   -3.977648
  H      4.579350   -2.087131   -4.108727
  H      5.201533   -4.100207   -6.296905
  H      5.605922   -2.397822   -6.413368
  C      6.559957   -0.356290   -2.559086
  H      5.967976    0.952567   -0.942444
  H      6.547184    1.788331   -2.368849
  C      6.006283   -1.615917   -1.899301
  H      7.642360   -0.318000   -2.402059
  H      6.414855   -0.403433   -3.642587
  C      6.608718   -2.917014   -2.435655
  H      6.190324   -1.561115   -0.820948
  H      4.919250   -1.651245   -2.016586
  H      7.066975   -2.374258   -4.475514
  H      6.887808   -4.089747   -4.215332
  H      6.135197   -3.755573   -1.915159
  H      7.671142   -2.955503   -2.172291
  O      2.851546   -0.783683   -4.956789

 Total Charge           Charge          ....    0
 Multiplicity           Mult            ....    1
 Number of Electrons    NEL             ....  144
 Basis Dimension        Dim             ....  671

ORBITAL ENERGIES
----------------

  NO   OCC          E(Eh)            E(eV)
   0   2.0000     -89.231388     -2428.1095
   1   2.0000     -24.939796      -678.6463
   2   2.0000     -19.271206      -524.3962
   3   2.0000     -19.270630      -524.3805
   4   2.0000     -14.382168      -391.3587
   5   2.0000     -14.376122      -391.1942
   6   2.0000     -10.359906      -281.9074
   7   2.0000     -10.315110      -280.6884
   8   2.0000     -10.290683      -280.0237
   9   2.0000     -10.283591      -279.8307
  10   2.0000     -10.281613      -279.7769
  11   2.0000     -10.275496      -279.6105
  12   2.0000     -10.268719      -279.4261
  13   2.0000     -10.260358      -279.1985
  14   2.0000     -10.252025      -278.9718
  15   2.0000     -10.245604      -278.7971
  16   2.0000     -10.151133      -276.2264
  17   2.0000      -8.294949      -225.7170
  18   2.0000      -6.252115      -170.1287
  19   2.0000      -6.246081      -169.9645
  20   2.0000      -6.245535      -169.9496
  21   2.0000      -1.535038       -41.7705
  22   2.0000      -1.252851       -34.0918
  23   2.0000      -1.155091       -31.4316
  24   2.0000      -1.053727       -28.6734
  25   2.0000      -0.975157       -26.5354
  26   2.0000      -0.968909       -26.3654
  27   2.0000      -0.931092       -25.3363
  28   2.0000      -0.898433       -24.4476
  29   2.0000      -0.870636       -23.6912
  30   2.0000      -0.841297       -22.8929
  31   2.0000      -0.804888       -21.9021
  32   2.0000      -0.789875       -21.4936
  33   2.0000      -0.766691       -20.8627
  34   2.0000      -0.740055       -20.1379
  35   2.0000      -0.728128       -19.8134
  36   2.0000      -0.712529       -19.3889
  37   2.0000      -0.698961       -19.0197
  38   2.0000      -0.695338       -18.9211
  39   2.0000      -0.663333       -18.0502
  40   2.0000      -0.638953       -17.3868
  41   2.0000      -0.628342       -17.0981
  42   2.0000      -0.619765       -16.8647
  43   2.0000      -0.604704       -16.4548
  44   2.0000      -0.597108       -16.2481
  45   2.0000      -0.579867       -15.7790
  46   2.0000      -0.574597       -15.6356
  47   2.0000      -0.561198       -15.2710
  48   2.0000      -0.550828       -14.9888
  49   2.0000      -0.536875       -14.6091
  50   2.0000      -0.529617       -14.4116
  51   2.0000      -0.526939       -14.3387
  52   2.0000      -0.517124       -14.0717
  53   2.0000      -0.501942       -13.6585
  54   2.0000      -0.487734       -13.2719
  55   2.0000      -0.481628       -13.1058
  56   2.0000      -0.478485       -13.0202
  57   2.0000      -0.467166       -12.7122
  58   2.0000      -0.460501       -12.5309
  59   2.0000      -0.453462       -12.3393
  60   2.0000      -0.447202       -12.1690
  61   2.0000      -0.442140       -12.0312
  62   2.0000      -0.435561       -11.8522
  63   2.0000      -0.431117       -11.7313
  64   2.0000      -0.425822       -11.5872
  65   2.0000      -0.422410       -11.4944
  66   2.0000      -0.414086       -11.2679
  67   2.0000      -0.399477       -10.8703
  68   2.0000      -0.397492       -10.8163
  69   2.0000      -0.388146       -10.5620
  70   2.0000      -0.306922        -8.3518
  71   2.0000      -0.218959        -5.9582
  72   0.0000       0.081477         2.2171
  73   0.0000       0.090168         2.4536
  74   0.0000       0.114705         3.1213
  75   0.0000       0.118458         3.2234
  76   0.0000       0.121549         3.3075

MULLIKEN ATOMIC CHARGES
-----------------------
   0 C :   -0.207063
   1 N :   -0.324824
   2 C :   -0.208602
   3 C :   -0.232013
   4 H :    0.159483
   5 H :    0.167473
   6 S :    0.920888
   7 C :    0.410190
   8 N :   -0.531390
   9 C :   -0.591069
  10 H :    0.095972
  11 H :    0.070206
  12 H :    0.206401
  13 H :    0.242596
  14 H :    0.239321
  15 O :   -0.467720
  16 F :   -0.082482
  17 C :   -0.110801
  18 H :    0.128891
  19 H :    0.123150
  20 C :   -0.218369
  21 C :   -0.289180
  22 H :    0.103183
  23 H :    0.121445
  24 H :    0.130642
  25 H :    0.153840
  26 C :   -0.239417
  27 H :    0.083971
  28 H :    0.140966
  29 C :   -0.249292
  30 H :    0.102683
  31 H :    0.115148
  32 C :   -0.155276
  33 H :    0.105146
  34 H :    0.109975
  35 H :    0.126265
  36 H :    0.105202
  37 H :    0.099931
  38 H :    0.107675
  39 O :   -0.463146
Sum of atomic charges:   -0.0000000

LOEWDIN ATOMIC CHARGES
----------------------
   0 C :   -0.279302
   1 N :    0.115727
   2 C :   -0.272273
   3 C :   -0.361844
   4 H :    0.145866
   5 H :    0.144185
   6 S :    0.574194
   7 C :   -0.465115
   8 N :   -0.019245
   9 C :   -0.380853
  10 H :    0.092172
  11 H :    0.087364
  12 H :    0.156429
  13 H :    0.136206
  14 H :    0.171868
  15 O :   -0.274566
  16 F :    0.120138
  17 C :   -0.266072
  18 H :    0.129012
  19 H :    0.130513
  20 C :   -0.268764
  21 C :   -0.270464
  22 H :    0.137344
  23 H :    0.140048
  24 H :    0.148661
  25 H :    0.151433
  26 C :   -0.268487
  27 H :    0.133609
  28 H :    0.144616
  29 C :   -0.271518
  30 H :    0.135714
  31 H :    0.135831
  32 C :   -0.266596
  33 H :    0.136023
  34 H :    0.130490
  35 H :    0.138632
  36 H :    0.134444
  37 H :    0.134505
  38 H :    0.137230
  39 O :   -0.277152

  Mayer bond orders larger than 0.100000
B(  0-C ,  1-N ) :   0.9418 B(  0-C , 17-C ) :   0.9408 B(  0-C , 18-H ) :   0.9937
B(  0-C , 19-H ) :   0.9821 B(  1-N ,  7-C ) :   1.1814 B(  1-N , 12-H ) :   0.8900
B(  2-C ,  3-C ) :   0.9704 B(  2-C , 21-C ) :   0.9779 B(  2-C , 24-H ) :   0.9570
B(  2-C , 25-H ) :   0.9673 B(  3-C ,  4-H ) :   0.9381 B(  3-C ,  5-H ) :   0.9436
B(  3-C ,  6-S ) :   0.9259 B(  6-S , 15-O ) :   1.7864 B(  6-S , 16-F ) :   1.1751
B(  6-S , 39-O ) :   1.7871 B(  7-C ,  8-N ) :   1.1554 B(  7-C ,  9-C ) :   1.5800
B(  8-N , 13-H ) :   0.8759 B(  8-N , 14-H ) :   0.9264 B(  9-C , 10-H ) :   1.0074
B(  9-C , 11-H ) :   1.0094 B( 17-C , 26-C ) :   0.9797 B( 17-C , 27-H ) :   0.9807
B( 17-C , 28-H ) :   0.9624 B( 20-C , 21-C ) :   0.9700 B( 20-C , 32-C ) :   0.9725
B( 20-C , 35-H ) :   0.9848 B( 20-C , 36-H ) :   0.9736 B( 21-C , 22-H ) :   0.9663
B( 21-C , 23-H ) :   0.9764 B( 26-C , 29-C ) :   0.9460 B( 26-C , 30-H ) :   0.9726
B( 26-C , 31-H ) :   0.9711 B( 29-C , 32-C ) :   0.9705 B( 29-C , 33-H ) :   0.9713
B( 29-C , 34-H ) :   0.9899 B( 32-C , 37-H ) :   0.9850 B( 32-C , 38-H ) :   0.9799

Dispersion correction           -0.021911189
FINAL SINGLE POINT ENERGY     -1191.062787063719

DIPOLE MOMENT
-------------
                                X             Y             Z
Electronic contribution:    -21.19614       1.26389     -21.94677
Nuclear contribution   :     20.11362      -4.34709      20.52383
                        -----------------------------------------
Total Dipole Moment    :     -1.08252      -3.08319      -1.42294
                        -----------------------------------------
Magnitude (a.u.)       :      3.56408
Magnitude (Debye)      :      9.05918

Rotational constants in cm-1:     0.014449     0.012108     0.007447
Rotational constants in MHz :   433.168496   362.988632   223.260798

                             ****ORCA TERMINATED NORMALLY****
TOTAL RUN TIME: 0 days 0 hours 2 minutes 51 seconds 470 msec
