                         Program Version 5.0.0 -  RELEASE  -
|  1> !M062X D3Zero RIJCOSX def2-TZVPD def2/J TightSCF
|  2> *xyz -1 1
|  3> C          3.76678       -2.26611       -6.51175
|  4> C          2.49670       -1.84416       -5.73570
|  5> H          1.62642       -2.21743       -6.30895
|  6> H          2.48182       -2.45607       -4.79341
|  7> O          2.45973       -0.50920       -5.50576
|  8> H          3.82914       -1.70941       -7.42340
|  9> H          3.71764       -3.31144       -6.73483
| 10> H          4.63199       -2.06931       -5.91377
| 11> *
| 12>
| 13> %MaxCore 64000
| 14>
| 15> %pal nprocs 4
| 16> end
| 17>
| 18> %scf
| 19>   MaxIter 150
| 20> end
| 21>
| 22>
| 23>                          ****END OF INPUT****

CARTESIAN COORDINATES (ANGSTROEM)
---------------------------------
  C      3.766780   -2.266110   -6.511750
  C      2.496700   -1.844160   -5.735700
  H      1.626420   -2.217430   -6.308950
  H      2.481820   -2.456070   -4.793410
  O      2.459730   -0.509200   -5.505760
  H      3.829140   -1.709410   -7.423400
  H      3.717640   -3.311440   -6.734830
  H      4.631990   -2.069310   -5.913770

 Total Charge           Charge          ....   -1
 Multiplicity           Mult            ....    1
 Number of Electrons    NEL             ....   26
 Basis Dimension        Dim             ....  159

ORBITAL ENERGIES
----------------

  NO   OCC          E(Eh)            E(eV)
   0   2.0000     -19.288631      -524.8703
   1   2.0000     -10.346759      -281.5496
   2   2.0000     -10.320502      -280.8351
   3   2.0000      -0.798542       -21.7294
   4   2.0000      -0.617125       -16.7928
   5   2.0000      -0.453849       -12.3498
   6   2.0000      -0.315880        -8.5955
   7   2.0000      -0.292603        -7.9621
   8   2.0000      -0.234241        -6.3740
   9   2.0000      -0.218909        -5.9568
  10   2.0000      -0.181577        -4.9410
  11   2.0000      -0.034954        -0.9511
  12   2.0000      -0.034091        -0.9277
  13   0.0000       0.168818         4.5938
  14   0.0000       0.187233         5.0949
  15   0.0000       0.218187         5.9372
  16   0.0000       0.218745         5.9524
  17   0.0000       0.240774         6.5518

MULLIKEN ATOMIC CHARGES
-----------------------
   0 C :   -0.997243
   1 C :   -0.275887
   2 H :    0.219280
   3 H :    0.216561
   4 O :   -0.970051
   5 H :    0.247911
   6 H :    0.309576
   7 H :    0.249853
Sum of atomic charges:   -1.0000000

LOEWDIN ATOMIC CHARGES
----------------------
   0 C :   -0.173009
   1 C :   -0.634373
   2 H :    0.057628
   3 H :    0.064070
   4 O :   -0.421091
   5 H :    0.040022
   6 H :    0.027748
   7 H :    0.039004

  Mayer bond orders larger than 0.100000
B(  0-C ,  1-C ) :   0.7086 B(  0-C ,  4-O ) :   0.3526 B(  0-C ,  5-H ) :   1.0096
B(  0-C ,  6-H ) :   0.9777 B(  0-C ,  7-H ) :   1.0068 B(  1-C ,  2-H ) :   1.0519
B(  1-C ,  3-H ) :   1.0424 B(  1-C ,  4-O ) :   0.8125

Dispersion correction           -0.000014695
FINAL SINGLE POINT ENERGY      -154.409973236512

DIPOLE MOMENT
-------------
                                X             Y             Z
Electronic contribution:     -1.07460       2.47858       0.94902
Nuclear contribution   :      1.63615      -3.79938      -1.48621
                        -----------------------------------------
Total Dipole Moment    :      0.56155      -1.32080      -0.53719
                        -----------------------------------------
Magnitude (a.u.)       :      1.53246
Magnitude (Debye)      :      3.89520

Rotational constants in cm-1:     1.265582     0.329289     0.289024
Rotational constants in MHz : 37941.194363  9871.829581  8664.719106

                             ****ORCA TERMINATED NORMALLY****
TOTAL RUN TIME: 0 days 0 hours 0 minutes 24 seconds 451 msec
