                         Program Version 5.0.0 -  RELEASE  -
|  1> !M062X D3Zero RIJCOSX def2-TZVPD def2/J TightSCF
|  2> *xyz 1 1
|  3> C          4.99986       -1.59613       -5.92488
|  4> N          5.28156       -1.97413       -4.53576
|  5> C          3.76678       -2.26611       -6.51175
|  6> C          4.79250       -1.36132       -3.45730
|  7> N          3.93990       -0.37492       -3.55736
|  8> N          5.25986       -1.75422       -2.23913
|  9> H          5.92282       -2.52145       -2.18672
| 10> H          4.65468       -1.64040       -1.44202
| 11> H          5.70914       -2.87560       -4.38702
| 12> H          3.33010       -0.31764       -4.36125
| 13> H          3.69849        0.11447       -2.70833
| 14> H          4.84333       -0.51793       -5.94302
| 15> H          5.90170       -1.82250       -6.49647
| 16> H          3.63046       -1.94025       -7.52177
| 17> H          2.90710       -2.00116       -5.93240
| 18> H          3.89538       -3.32820       -6.49392
| 19> *
| 20>
| 21> %MaxCore 64000
| 22>
| 23> %pal nprocs 4
| 24> end
| 25>
| 26> %scf
| 27>   MaxIter 150
| 28> end
| 29>
| 30>
| 31>                          ****END OF INPUT****

CARTESIAN COORDINATES (ANGSTROEM)
---------------------------------
  C      4.999860   -1.596130   -5.924880
  N      5.281560   -1.974130   -4.535760
  C      3.766780   -2.266110   -6.511750
  C      4.792500   -1.361320   -3.457300
  N      3.939900   -0.374920   -3.557360
  N      5.259860   -1.754220   -2.239130
  H      5.922820   -2.521450   -2.186720
  H      4.654680   -1.640400   -1.442020
  H      5.709140   -2.875600   -4.387020
  H      3.330100   -0.317640   -4.361250
  H      3.698490    0.114470   -2.708330
  H      4.843330   -0.517930   -5.943020
  H      5.901700   -1.822500   -6.496470
  H      3.630460   -1.940250   -7.521770
  H      2.907100   -2.001160   -5.932400
  H      3.895380   -3.328200   -6.493920

 Total Charge           Charge          ....    1
 Multiplicity           Mult            ....    1
 Number of Electrons    NEL             ....   48
 Basis Dimension        Dim             ....  312

ORBITAL ENERGIES
----------------

  NO   OCC          E(Eh)            E(eV)
   0   2.0000     -14.977092      -407.5474
   1   2.0000     -14.972853      -407.4321
   2   2.0000     -14.966520      -407.2597
   3   2.0000     -10.878663      -296.0235
   4   2.0000     -10.743083      -292.3342
   5   2.0000     -10.673921      -290.4522
   6   2.0000      -1.329897       -36.1883
   7   2.0000      -1.212664       -32.9983
   8   2.0000      -1.196222       -32.5509
   9   2.0000      -1.028301       -27.9815
  10   2.0000      -0.928974       -25.2787
  11   2.0000      -0.887849       -24.1596
  12   2.0000      -0.866624       -23.5820
  13   2.0000      -0.815690       -22.1960
  14   2.0000      -0.767830       -20.8937
  15   2.0000      -0.762023       -20.7357
  16   2.0000      -0.710182       -19.3250
  17   2.0000      -0.706806       -19.2332
  18   2.0000      -0.675985       -18.3945
  19   2.0000      -0.628460       -17.1013
  20   2.0000      -0.599035       -16.3006
  21   2.0000      -0.578876       -15.7520
  22   2.0000      -0.546263       -14.8646
  23   2.0000      -0.512925       -13.9574
  24   0.0000      -0.147753        -4.0206
  25   0.0000      -0.133374        -3.6293
  26   0.0000      -0.112043        -3.0488
  27   0.0000      -0.103032        -2.8037
  28   0.0000      -0.079949        -2.1755

MULLIKEN ATOMIC CHARGES
-----------------------
   0 C :   -0.665318
   1 N :   -0.316910
   2 C :   -0.945153
   3 C :    1.010096
   4 N :   -0.529797
   5 N :   -0.633979
   6 H :    0.269731
   7 H :    0.274019
   8 H :    0.291105
   9 H :    0.290454
  10 H :    0.275845
  11 H :    0.404410
  12 H :    0.313800
  13 H :    0.321067
  14 H :    0.312410
  15 H :    0.328220
Sum of atomic charges:    1.0000000

LOEWDIN ATOMIC CHARGES
----------------------
   0 C :   -0.203857
   1 N :    0.081677
   2 C :   -0.062547
   3 C :   -0.430404
   4 N :    0.224161
   5 N :    0.188532
   6 H :    0.136068
   7 H :    0.130126
   8 H :    0.165646
   9 H :    0.135551
  10 H :    0.147552
  11 H :    0.121246
  12 H :    0.132758
  13 H :    0.085690
  14 H :    0.067725
  15 H :    0.080077

  Mayer bond orders larger than 0.100000
B(  0-C ,  1-N ) :   0.7812 B(  0-C ,  2-C ) :   0.5568 B(  0-C ,  3-C ) :  -0.1279
B(  0-C ,  4-N ) :   0.1457 B(  0-C , 11-H ) :   0.8836 B(  0-C , 12-H ) :   0.9435
B(  1-N ,  3-C ) :   1.1651 B(  1-N ,  8-H ) :   0.9482 B(  2-C , 13-H ) :   1.0075
B(  2-C , 14-H ) :   0.9115 B(  2-C , 15-H ) :   0.9803 B(  3-C ,  4-N ) :   1.1185
B(  3-C ,  5-N ) :   0.9307 B(  4-N ,  9-H ) :   0.9015 B(  4-N , 10-H ) :   0.9541
B(  5-N ,  6-H ) :   0.9336 B(  5-N ,  7-H ) :   0.9670

Dispersion correction           -0.000310223
FINAL SINGLE POINT ENERGY      -284.370940261624

DIPOLE MOMENT
-------------
                                X             Y             Z
Electronic contribution:      1.74114       1.09808       4.70646
Nuclear contribution   :     -1.95709      -1.20097      -3.70214
                        -----------------------------------------
Total Dipole Moment    :     -0.21595      -0.10289       1.00433
                        -----------------------------------------
Magnitude (a.u.)       :      1.03242
Magnitude (Debye)      :      2.62420

Rotational constants in cm-1:     0.241661     0.071598     0.061743
Rotational constants in MHz :  7244.800091  2146.442409  1851.001864

                             ****ORCA TERMINATED NORMALLY****
TOTAL RUN TIME: 0 days 0 hours 1 minutes 2 seconds 553 msec
