                         Program Version 5.0.0 -  RELEASE  -
|  1> !M062X D3Zero RIJCOSX def2-TZVPD def2/J TightSCF xyzfile
|  2>
|  3> *xyzfile 0 1 B.xyz
|  4>
|  5> %MaxCore 64000
|  6>
|  7> %pal nprocs 4
|  8> end
|  9>
| 10> %scf
| 11>   MaxIter 150
| 12> end
| 13>
| 14>
| 15>                          ****END OF INPUT****

CARTESIAN COORDINATES (ANGSTROEM)
---------------------------------
  C      4.999862   -1.596133   -5.924876
  N      5.281560   -1.974132   -4.535764
  C      3.766779   -2.266110   -6.511752
  C      2.496702   -1.844161   -5.735704
  H      1.626416   -2.217434   -6.308950
  H      2.481824   -2.456069   -4.793414
  O      2.459729   -0.509204   -5.505757
  C      4.792500   -1.361316   -3.457295
  N      3.939898   -0.374925   -3.557359
  N      5.259860   -1.754224   -2.239133
  H      5.922824   -2.521451   -2.186720
  H      4.654678   -1.640404   -1.442016
  H      5.709139   -2.875599   -4.387021
  H      3.330101   -0.317639   -4.361247
  H      3.698494    0.114468   -2.708333
  H      4.843333   -0.517930   -5.943019
  H      5.901695   -1.822503   -6.496467
  H      3.886191   -3.357076   -6.533604
  H      3.685602   -1.922168   -7.547128

 Total Charge           Charge          ....    0
 Multiplicity           Mult            ....    1
 Number of Electrons    NEL             ....   64
 Basis Dimension        Dim             ....  398

ORBITAL ENERGIES
----------------

  NO   OCC          E(Eh)            E(eV)
   0   2.0000     -19.478205      -530.0289
   1   2.0000     -14.812599      -403.0713
   2   2.0000     -14.805728      -402.8843
   3   2.0000     -14.763208      -401.7273
   4   2.0000     -10.702328      -291.2251
   5   2.0000     -10.570181      -287.6292
   6   2.0000     -10.518067      -286.2112
   7   2.0000     -10.503309      -285.8096
   8   2.0000      -1.156219       -31.4623
   9   2.0000      -1.042251       -28.3611
  10   2.0000      -1.027074       -27.9481
  11   2.0000      -0.996236       -27.1090
  12   2.0000      -0.853370       -23.2214
  13   2.0000      -0.766221       -20.8499
  14   2.0000      -0.717971       -19.5370
  15   2.0000      -0.689909       -18.7734
  16   2.0000      -0.663787       -18.0626
  17   2.0000      -0.622784       -16.9468
  18   2.0000      -0.591016       -16.0823
  19   2.0000      -0.579319       -15.7641
  20   2.0000      -0.540059       -14.6957
  21   2.0000      -0.534392       -14.5415
  22   2.0000      -0.504486       -13.7278
  23   2.0000      -0.473473       -12.8838
  24   2.0000      -0.428425       -11.6580
  25   2.0000      -0.409042       -11.1306
  26   2.0000      -0.396364       -10.7856
  27   2.0000      -0.375051       -10.2057
  28   2.0000      -0.364077        -9.9070
  29   2.0000      -0.338226        -9.2036
  30   2.0000      -0.234573        -6.3831
  31   2.0000      -0.230442        -6.2707
  32   0.0000      -0.017618        -0.4794
  33   0.0000       0.014911         0.4057
  34   0.0000       0.025328         0.6892
  35   0.0000       0.030262         0.8235
  36   0.0000       0.048165         1.3106

MULLIKEN ATOMIC CHARGES
-----------------------
   0 C :   -0.646728
   1 N :   -0.351321
   2 C :   -0.471126
   3 C :   -0.494557
   4 H :    0.338888
   5 H :    0.210139
   6 O :   -1.025166
   7 C :    0.908641
   8 N :   -0.520841
   9 N :   -0.690157
  10 H :    0.238873
  11 H :    0.248210
  12 H :    0.296046
  13 H :    0.384003
  14 H :    0.244007
  15 H :    0.310878
  16 H :    0.338350
  17 H :    0.347165
  18 H :    0.334697
Sum of atomic charges:   -0.0000000

LOEWDIN ATOMIC CHARGES
----------------------
   0 C :   -0.178990
   1 N :    0.075354
   2 C :   -0.188247
   3 C :   -0.453041
   4 H :    0.099217
   5 H :    0.096301
   6 O :   -0.309731
   7 C :   -0.454458
   8 N :    0.214954
   9 N :    0.147731
  10 H :    0.114327
  11 H :    0.113264
  12 H :    0.150706
  13 H :   -0.014285
  14 H :    0.132701
  15 H :    0.122996
  16 H :    0.116760
  17 H :    0.103589
  18 H :    0.110850

  Mayer bond orders larger than 0.100000
B(  0-C ,  1-N ) :   0.8298 B(  0-C ,  2-C ) :   0.7161 B(  0-C ,  7-C ) :  -0.1167
B(  0-C , 15-H ) :   0.9267 B(  0-C , 16-H ) :   0.9131 B(  1-N ,  7-C ) :   1.1257
B(  1-N , 12-H ) :   0.9190 B(  2-C ,  3-C ) :   0.7529 B(  2-C , 17-H ) :   0.9758
B(  2-C , 18-H ) :   0.9305 B(  3-C ,  4-H ) :   0.9943 B(  3-C ,  5-H ) :   1.0454
B(  3-C ,  6-O ) :   0.8226 B(  6-O ,  8-N ) :  -0.1313 B(  6-O , 13-H ) :   0.1853
B(  7-C ,  8-N ) :   1.2585 B(  7-C ,  9-N ) :   0.8108 B(  8-N , 13-H ) :   0.6217
B(  8-N , 14-H ) :   0.9869 B(  9-N , 10-H ) :   0.9670 B(  9-N , 11-H ) :   0.9886

Dispersion correction           -0.000509596
FINAL SINGLE POINT ENERGY      -398.475678888759

DIPOLE MOMENT
-------------
                                X             Y             Z
Electronic contribution:      1.89417       1.94036       3.66937
Nuclear contribution   :      0.51577      -3.31768      -1.36804
                        -----------------------------------------
Total Dipole Moment    :      2.40993      -1.37732       2.30134
                        -----------------------------------------
Magnitude (a.u.)       :      3.60568
Magnitude (Debye)      :      9.16492

Rotational constants in cm-1:     0.111492     0.050787     0.040163
Rotational constants in MHz :  3342.457536  1522.560798  1204.057148

                             ****ORCA TERMINATED NORMALLY****
TOTAL RUN TIME: 0 days 0 hours 2 minutes 2 seconds 993 msec
