                         Program Version 5.0.0 -  RELEASE  -
|  1> !M062X D3Zero RIJCOSX def2-TZVPD def2/J TightSCF
|  2> *xyz 0 1
|  3> C          3.76678       -2.26611       -6.51175
|  4> C          2.49670       -1.84416       -5.73570
|  5> H          1.62642       -2.21743       -6.30895
|  6> H          2.48182       -2.45607       -4.79341
|  7> F          2.45973       -0.50920       -5.50576
|  8> H          3.82914       -1.70941       -7.42340
|  9> H          3.71764       -3.31144       -6.73483
| 10> H          4.63199       -2.06931       -5.91377
| 11> *
| 12>
| 13> %MaxCore 64000
| 14>
| 15> %pal nprocs 4
| 16> end
| 17>
| 18> %scf
| 19>   MaxIter 150
| 20> end
| 21>
| 22>
| 23>                          ****END OF INPUT****

CARTESIAN COORDINATES (ANGSTROEM)
---------------------------------
  C      3.766780   -2.266110   -6.511750
  C      2.496700   -1.844160   -5.735700
  H      1.626420   -2.217430   -6.308950
  H      2.481820   -2.456070   -4.793410
  F      2.459730   -0.509200   -5.505760
  H      3.829140   -1.709410   -7.423400
  H      3.717640   -3.311440   -6.734830
  H      4.631990   -2.069310   -5.913770

 Total Charge           Charge          ....    0
 Multiplicity           Mult            ....    1
 Number of Electrons    NEL             ....   26
 Basis Dimension        Dim             ....  159

ORBITAL ENERGIES
----------------

  NO   OCC          E(Eh)            E(eV)
   0   2.0000     -25.235688      -686.6980
   1   2.0000     -10.615491      -288.8622
   2   2.0000     -10.527877      -286.4781
   3   2.0000      -1.350182       -36.7403
   4   2.0000      -0.860537       -23.4164
   5   2.0000      -0.723799       -19.6956
   6   2.0000      -0.594628       -16.1806
   7   2.0000      -0.584366       -15.9014
   8   2.0000      -0.549849       -14.9622
   9   2.0000      -0.482435       -13.1277
  10   2.0000      -0.467792       -12.7293
  11   2.0000      -0.403120       -10.9694
  12   2.0000      -0.398382       -10.8405
  13   0.0000       0.019773         0.5381
  14   0.0000       0.043043         1.1713
  15   0.0000       0.065010         1.7690
  16   0.0000       0.066022         1.7965
  17   0.0000       0.094851         2.5810

MULLIKEN ATOMIC CHARGES
-----------------------
   0 C :   -0.989120
   1 C :   -0.106111
   2 H :    0.253098
   3 H :    0.246687
   4 F :   -0.308274
   5 H :    0.296794
   6 H :    0.318798
   7 H :    0.288127
Sum of atomic charges:   -0.0000000

LOEWDIN ATOMIC CHARGES
----------------------
   0 C :   -0.084582
   1 C :   -0.294535
   2 H :    0.110751
   3 H :    0.118854
   4 F :   -0.045192
   5 H :    0.064901
   6 H :    0.065882
   7 H :    0.063921

  Mayer bond orders larger than 0.100000
B(  0-C ,  1-C ) :   0.7022 B(  0-C ,  4-F ) :   0.1114 B(  0-C ,  5-H ) :   0.9532
B(  0-C ,  6-H ) :   0.9489 B(  0-C ,  7-H ) :   0.9599 B(  1-C ,  2-H ) :   0.9816
B(  1-C ,  3-H ) :   0.9801 B(  1-C ,  4-F ) :   0.7015

Dispersion correction           -0.000018643
FINAL SINGLE POINT ENERGY      -179.051136526742

DIPOLE MOMENT
-------------
                                X             Y             Z
Electronic contribution:     -2.07959       4.32749       1.81153
Nuclear contribution   :      2.16248      -5.01128      -1.96962
                        -----------------------------------------
Total Dipole Moment    :      0.08288      -0.68380      -0.15809
                        -----------------------------------------
Magnitude (a.u.)       :      0.70671
Magnitude (Debye)      :      1.79631

Rotational constants in cm-1:     1.244010     0.306580     0.270375
Rotational constants in MHz : 37294.476802  9191.037795  8105.639967

                             ****ORCA TERMINATED NORMALLY****
TOTAL RUN TIME: 0 days 0 hours 0 minutes 18 seconds 624 msec
