                         Program Version 5.0.0 -  RELEASE  -
|  1> !M062X D3Zero RIJCOSX def2-TZVPD def2/J TightSCF
|  2> *xyz 0 1
|  3> C          4.99986       -1.59613       -5.92488
|  4> C          5.28156       -1.97413       -4.53576
|  5> C          3.76678       -2.26611       -6.51175
|  6> C          4.79250       -1.36132       -3.45730
|  7> N          3.93990       -0.37492       -3.55736
|  8> N          5.25986       -1.75422       -2.23913
|  9> H          5.92282       -2.52145       -2.18672
| 10> H          4.65468       -1.64040       -1.44202
| 11> H          5.70914       -2.87560       -4.38702
| 12> H          3.33010       -0.31764       -4.36125
| 13> H          3.69849        0.11447       -2.70833
| 14> H          4.84333       -0.51793       -5.94302
| 15> H          5.90170       -1.82250       -6.49647
| 16> H          3.63046       -1.94025       -7.52177
| 17> H          2.90710       -2.00116       -5.93240
| 18> H          3.89538       -3.32820       -6.49392
| 19> *
| 20>
| 21> %MaxCore 64000
| 22>
| 23> %pal nprocs 4
| 24> end
| 25>
| 26> %scf
| 27>   MaxIter 150
| 28> end
| 29>
| 30>
| 31>                          ****END OF INPUT****

CARTESIAN COORDINATES (ANGSTROEM)
---------------------------------
  C      4.999860   -1.596130   -5.924880
  C      5.281560   -1.974130   -4.535760
  C      3.766780   -2.266110   -6.511750
  C      4.792500   -1.361320   -3.457300
  N      3.939900   -0.374920   -3.557360
  N      5.259860   -1.754220   -2.239130
  H      5.922820   -2.521450   -2.186720
  H      4.654680   -1.640400   -1.442020
  H      5.709140   -2.875600   -4.387020
  H      3.330100   -0.317640   -4.361250
  H      3.698490    0.114470   -2.708330
  H      4.843330   -0.517930   -5.943020
  H      5.901700   -1.822500   -6.496470
  H      3.630460   -1.940250   -7.521770
  H      2.907100   -2.001160   -5.932400
  H      3.895380   -3.328200   -6.493920

 Total Charge           Charge          ....    0
 Multiplicity           Mult            ....    1
 Number of Electrons    NEL             ....   48
 Basis Dimension        Dim             ....  312

ORBITAL ENERGIES
----------------

  NO   OCC          E(Eh)            E(eV)
   0   2.0000     -14.752593      -401.4385
   1   2.0000     -14.743999      -401.2046
   2   2.0000     -10.581802      -287.9455
   3   2.0000     -10.507479      -285.9230
   4   2.0000     -10.501919      -285.7717
   5   2.0000     -10.461284      -284.6660
   6   2.0000      -1.074707       -29.2443
   7   2.0000      -0.975932       -26.5565
   8   2.0000      -0.872749       -23.7487
   9   2.0000      -0.788278       -21.4501
  10   2.0000      -0.701113       -19.0783
  11   2.0000      -0.657159       -17.8822
  12   2.0000      -0.621418       -16.9096
  13   2.0000      -0.578615       -15.7449
  14   2.0000      -0.546823       -14.8798
  15   2.0000      -0.513083       -13.9617
  16   2.0000      -0.483137       -13.1468
  17   2.0000      -0.466658       -12.6984
  18   2.0000      -0.450763       -12.2659
  19   2.0000      -0.415851       -11.3159
  20   2.0000      -0.388209       -10.5637
  21   2.0000      -0.381097       -10.3702
  22   2.0000      -0.332744        -9.0544
  23   2.0000      -0.215915        -5.8753
  24   0.0000       0.011363         0.3092
  25   0.0000       0.035733         0.9723
  26   0.0000       0.041221         1.1217
  27   0.0000       0.052531         1.4294
  28   0.0000       0.064989         1.7684

MULLIKEN ATOMIC CHARGES
-----------------------
   0 C :   -0.760317
   1 C :   -0.551515
   2 C :   -1.015693
   3 C :    0.964483
   4 N :   -0.591579
   5 N :   -0.713704
   6 H :    0.234459
   7 H :    0.226547
   8 H :    0.167410
   9 H :    0.248293
  10 H :    0.252854
  11 H :    0.353323
  12 H :    0.285618
  13 H :    0.268643
  14 H :    0.311719
  15 H :    0.319459
Sum of atomic charges:   -0.0000000

LOEWDIN ATOMIC CHARGES
----------------------
   0 C :   -0.289197
   1 C :   -0.134936
   2 C :   -0.112636
   3 C :   -0.548343
   4 N :    0.126866
   5 N :    0.089943
   6 H :    0.106546
   7 H :    0.088862
   8 H :    0.062534
   9 H :    0.108633
  10 H :    0.109211
  11 H :    0.099764
  12 H :    0.104951
  13 H :    0.060565
  14 H :    0.059311
  15 H :    0.067927

  Mayer bond orders larger than 0.100000
B(  0-C ,  1-C ) :   0.4839 B(  0-C ,  2-C ) :   0.4441 B(  0-C ,  3-C ) :   0.1323
B(  0-C ,  4-N ) :   0.1118 B(  0-C ,  8-H ) :  -0.1054 B(  0-C , 11-H ) :   0.9657
B(  0-C , 12-H ) :   1.0296 B(  1-C ,  3-C ) :   1.3183 B(  1-C ,  4-N ) :   0.1039
B(  1-C ,  5-N ) :   0.1663 B(  1-C ,  8-H ) :   1.2325 B(  1-C , 11-H ) :  -0.1098
B(  2-C , 13-H ) :   1.0129 B(  2-C , 14-H ) :   0.9583 B(  2-C , 15-H ) :   1.0022
B(  3-C ,  4-N ) :   0.8746 B(  3-C ,  5-N ) :   0.6711 B(  3-C ,  8-H ) :  -0.2495
B(  4-N ,  9-H ) :   0.9481 B(  4-N , 10-H ) :   0.9710 B(  5-N ,  6-H ) :   0.9710
B(  5-N ,  7-H ) :   1.0209

Dispersion correction           -0.000308397
FINAL SINGLE POINT ENERGY      -267.892637003413

DIPOLE MOMENT
-------------
                                X             Y             Z
Electronic contribution:      1.23334       1.37638       4.46838
Nuclear contribution   :     -1.82485      -1.28952      -3.74132
                        -----------------------------------------
Total Dipole Moment    :     -0.59151       0.08686       0.72707
                        -----------------------------------------
Magnitude (a.u.)       :      0.94131
Magnitude (Debye)      :      2.39262

Rotational constants in cm-1:     0.245790     0.071632     0.062004
Rotational constants in MHz :  7368.599517  2147.482078  1858.844841

                             ****ORCA TERMINATED NORMALLY****
TOTAL RUN TIME: 0 days 0 hours 1 minutes 3 seconds 78 msec
