                         Program Version 5.0.0 -  RELEASE  -
|  1> !M062X D3Zero RIJCOSX def2-TZVPD def2/J TightSCF
|  2> *xyz 0 1
|  3> C          4.99986       -1.59613       -5.92488
|  4> N          5.28156       -1.97413       -4.53576
|  5> C          3.76678       -2.26611       -6.51175
|  6> C          4.79250       -1.36132       -3.45730
|  7> C          3.93990       -0.37492       -3.55736
|  8> N          5.25986       -1.75422       -2.23913
|  9> H          5.92282       -2.52145       -2.18672
| 10> H          4.65468       -1.64040       -1.44202
| 11> H          5.70914       -2.87560       -4.38702
| 12> H          3.33010       -0.31764       -4.36125
| 13> H          3.69849        0.11447       -2.70833
| 14> H          4.84333       -0.51793       -5.94302
| 15> H          5.90170       -1.82250       -6.49647
| 16> H          3.63046       -1.94025       -7.52177
| 17> H          2.90710       -2.00116       -5.93240
| 18> H          3.89538       -3.32820       -6.49392
| 19> *
| 20>
| 21> %MaxCore 64000
| 22>
| 23> %pal nprocs 4
| 24> end
| 25>
| 26> %scf
| 27>   MaxIter 150
| 28> end
| 29>
| 30>
| 31>                          ****END OF INPUT****

CARTESIAN COORDINATES (ANGSTROEM)
---------------------------------
  C      4.999860   -1.596130   -5.924880
  N      5.281560   -1.974130   -4.535760
  C      3.766780   -2.266110   -6.511750
  C      4.792500   -1.361320   -3.457300
  C      3.939900   -0.374920   -3.557360
  N      5.259860   -1.754220   -2.239130
  H      5.922820   -2.521450   -2.186720
  H      4.654680   -1.640400   -1.442020
  H      5.709140   -2.875600   -4.387020
  H      3.330100   -0.317640   -4.361250
  H      3.698490    0.114470   -2.708330
  H      4.843330   -0.517930   -5.943020
  H      5.901700   -1.822500   -6.496470
  H      3.630460   -1.940250   -7.521770
  H      2.907100   -2.001160   -5.932400
  H      3.895380   -3.328200   -6.493920

 Total Charge           Charge          ....    0
 Multiplicity           Mult            ....    1
 Number of Electrons    NEL             ....   48
 Basis Dimension        Dim             ....  312

ORBITAL ENERGIES
----------------

  NO   OCC          E(Eh)            E(eV)
   0   2.0000     -14.749169      -401.3453
   1   2.0000     -14.744782      -401.2259
   2   2.0000     -10.583345      -287.9875
   3   2.0000     -10.567014      -287.5431
   4   2.0000     -10.518250      -286.2161
   5   2.0000     -10.450392      -284.3696
   6   2.0000      -1.073718       -29.2174
   7   2.0000      -0.984117       -26.7792
   8   2.0000      -0.852904       -23.2087
   9   2.0000      -0.812275       -22.1031
  10   2.0000      -0.723796       -19.6955
  11   2.0000      -0.643891       -17.5212
  12   2.0000      -0.617323       -16.7982
  13   2.0000      -0.585676       -15.9371
  14   2.0000      -0.524722       -14.2784
  15   2.0000      -0.514922       -14.0117
  16   2.0000      -0.497273       -13.5315
  17   2.0000      -0.465263       -12.6604
  18   2.0000      -0.450687       -12.2638
  19   2.0000      -0.435351       -11.8465
  20   2.0000      -0.419775       -11.4226
  21   2.0000      -0.410609       -11.1733
  22   2.0000      -0.314562        -8.5597
  23   2.0000      -0.228099        -6.2069
  24   0.0000       0.012775         0.3476
  25   0.0000       0.032771         0.8917
  26   0.0000       0.040312         1.0969
  27   0.0000       0.046183         1.2567
  28   0.0000       0.067426         1.8348

MULLIKEN ATOMIC CHARGES
-----------------------
   0 C :   -0.690047
   1 N :   -0.355610
   2 C :   -0.963531
   3 C :    0.868957
   4 C :   -1.015176
   5 N :   -0.662000
   6 H :    0.234315
   7 H :    0.251585
   8 H :    0.280028
   9 H :    0.206516
  10 H :    0.237567
  11 H :    0.403847
  12 H :    0.296985
  13 H :    0.309850
  14 H :    0.296325
  15 H :    0.300391
Sum of atomic charges:    0.0000000

LOEWDIN ATOMIC CHARGES
----------------------
   0 C :   -0.240529
   1 N :    0.001995
   2 C :   -0.089296
   3 C :   -0.558280
   4 C :    0.009950
   5 N :    0.096898
   6 H :    0.096822
   7 H :    0.101145
   8 H :    0.134763
   9 H :    0.010475
  10 H :    0.016380
  11 H :    0.110820
  12 H :    0.112342
  13 H :    0.066910
  14 H :    0.064148
  15 H :    0.065456

  Mayer bond orders larger than 0.100000
B(  0-C ,  1-N ) :   0.7894 B(  0-C ,  2-C ) :   0.5328 B(  0-C ,  4-C ) :   0.2160
B(  0-C , 11-H ) :   0.9105 B(  0-C , 12-H ) :   0.9390 B(  1-N ,  3-C ) :   0.9446
B(  1-N ,  8-H ) :   0.9510 B(  2-C , 13-H ) :   0.9999 B(  2-C , 14-H ) :   0.9582
B(  2-C , 15-H ) :   0.9830 B(  3-C ,  4-C ) :   1.3551 B(  3-C ,  5-N ) :   0.7528
B(  3-C , 10-H ) :  -0.1202 B(  4-C ,  9-H ) :   0.9955 B(  4-C , 10-H ) :   1.1132
B(  5-N ,  6-H ) :   0.9743 B(  5-N ,  7-H ) :   0.9770

Dispersion correction           -0.000305731
FINAL SINGLE POINT ENERGY      -267.886885209533

DIPOLE MOMENT
-------------
                                X             Y             Z
Electronic contribution:      2.38267      -0.06187       3.46842
Nuclear contribution   :     -2.10948      -0.95026      -3.53375
                        -----------------------------------------
Total Dipole Moment    :      0.27319      -1.01213      -0.06533
                        -----------------------------------------
Magnitude (a.u.)       :      1.05039
Magnitude (Debye)      :      2.66987

Rotational constants in cm-1:     0.255209     0.072067     0.062929
Rotational constants in MHz :  7650.964615  2160.525743  1886.569524

                             ****ORCA TERMINATED NORMALLY****
TOTAL RUN TIME: 0 days 0 hours 1 minutes 3 seconds 196 msec
