                         Program Version 5.0.0 -  RELEASE  -
|  1> !M062X D3Zero RIJCOSX def2-TZVPD def2/J TightSCF
|  2> *xyz 0 1
|  3> C          4.99986       -1.59613       -5.92488
|  4> N          5.28156       -1.97413       -4.53576
|  5> C          3.76678       -2.26611       -6.51175
|  6> C          4.79250       -1.36132       -3.45730
|  7> N          3.93990       -0.37492       -3.55736
|  8> C          5.25986       -1.75422       -2.23913
|  9> H          5.92282       -2.52145       -2.18672
| 10> H          4.65468       -1.64040       -1.44202
| 11> H          5.70914       -2.87560       -4.38702
| 12> H          3.33010       -0.31764       -4.36125
| 13> H          3.69849        0.11447       -2.70833
| 14> H          4.84333       -0.51793       -5.94302
| 15> H          5.90170       -1.82250       -6.49647
| 16> H          3.63046       -1.94025       -7.52177
| 17> H          2.90710       -2.00116       -5.93240
| 18> H          3.89538       -3.32820       -6.49392
| 19> *
| 20>
| 21> %MaxCore 64000
| 22>
| 23> %pal nprocs 4
| 24> end
| 25>
| 26> %scf
| 27>   MaxIter 150
| 28> end
| 29>
| 30>
| 31>                          ****END OF INPUT****

CARTESIAN COORDINATES (ANGSTROEM)
---------------------------------
  C      4.999860   -1.596130   -5.924880
  N      5.281560   -1.974130   -4.535760
  C      3.766780   -2.266110   -6.511750
  C      4.792500   -1.361320   -3.457300
  N      3.939900   -0.374920   -3.557360
  C      5.259860   -1.754220   -2.239130
  H      5.922820   -2.521450   -2.186720
  H      4.654680   -1.640400   -1.442020
  H      5.709140   -2.875600   -4.387020
  H      3.330100   -0.317640   -4.361250
  H      3.698490    0.114470   -2.708330
  H      4.843330   -0.517930   -5.943020
  H      5.901700   -1.822500   -6.496470
  H      3.630460   -1.940250   -7.521770
  H      2.907100   -2.001160   -5.932400
  H      3.895380   -3.328200   -6.493920

 Total Charge           Charge          ....    0
 Multiplicity           Mult            ....    1
 Number of Electrons    NEL             ....   48
 Basis Dimension        Dim             ....  312

ORBITAL ENERGIES
----------------

  NO   OCC          E(Eh)            E(eV)
   0   2.0000     -14.753080      -401.4517
   1   2.0000     -14.749422      -401.3522
   2   2.0000     -10.588208      -288.1198
   3   2.0000     -10.575659      -287.7783
   4   2.0000     -10.528998      -286.5086
   5   2.0000     -10.445756      -284.2435
   6   2.0000      -1.085031       -29.5252
   7   2.0000      -0.995808       -27.0973
   8   2.0000      -0.870528       -23.6883
   9   2.0000      -0.790621       -21.5139
  10   2.0000      -0.715327       -19.4650
  11   2.0000      -0.684561       -18.6278
  12   2.0000      -0.622117       -16.9287
  13   2.0000      -0.572319       -15.5736
  14   2.0000      -0.552897       -15.0451
  15   2.0000      -0.514384       -13.9971
  16   2.0000      -0.501334       -13.6420
  17   2.0000      -0.472718       -12.8633
  18   2.0000      -0.454839       -12.3768
  19   2.0000      -0.430162       -11.7053
  20   2.0000      -0.427869       -11.6429
  21   2.0000      -0.414037       -11.2665
  22   2.0000      -0.321302        -8.7431
  23   2.0000      -0.212885        -5.7929
  24   0.0000       0.009303         0.2531
  25   0.0000       0.036165         0.9841
  26   0.0000       0.037247         1.0135
  27   0.0000       0.041808         1.1377
  28   0.0000       0.068301         1.8586

MULLIKEN ATOMIC CHARGES
-----------------------
   0 C :   -0.703325
   1 N :   -0.335442
   2 C :   -0.950690
   3 C :    0.835890
   4 N :   -0.596147
   5 C :   -1.095557
   6 H :    0.208527
   7 H :    0.222618
   8 H :    0.277233
   9 H :    0.262399
  10 H :    0.257669
  11 H :    0.404631
  12 H :    0.306302
  13 H :    0.314979
  14 H :    0.300371
  15 H :    0.290543
Sum of atomic charges:    0.0000000

LOEWDIN ATOMIC CHARGES
----------------------
   0 C :   -0.242748
   1 N :    0.012572
   2 C :   -0.092307
   3 C :   -0.572159
   4 N :    0.123644
   5 C :   -0.004078
   6 H :   -0.000163
   7 H :   -0.005646
   8 H :    0.143408
   9 H :    0.100254
  10 H :    0.119311
  11 H :    0.108552
  12 H :    0.113390
  13 H :    0.066670
  14 H :    0.061098
  15 H :    0.068201

  Mayer bond orders larger than 0.100000
B(  0-C ,  1-N ) :   0.7768 B(  0-C ,  2-C ) :   0.5165 B(  0-C ,  3-C ) :  -0.1273
B(  0-C ,  4-N ) :   0.1699 B(  0-C , 11-H ) :   0.9022 B(  0-C , 12-H ) :   0.9694
B(  1-N ,  3-C ) :   0.9808 B(  1-N ,  8-H ) :   0.9413 B(  2-C , 13-H ) :   1.0069
B(  2-C , 14-H ) :   0.9464 B(  2-C , 15-H ) :   1.0070 B(  3-C ,  4-N ) :   0.9464
B(  3-C ,  5-C ) :   1.2064 B(  3-C ,  7-H ) :  -0.1350 B(  4-N ,  5-C ) :   0.1327
B(  4-N ,  9-H ) :   0.9379 B(  4-N , 10-H ) :   0.9642 B(  5-C ,  6-H ) :   1.0555
B(  5-C ,  7-H ) :   1.1287

Dispersion correction           -0.000305321
FINAL SINGLE POINT ENERGY      -267.879923215323

DIPOLE MOMENT
-------------
                                X             Y             Z
Electronic contribution:      1.15244       1.24364       2.13206
Nuclear contribution   :     -1.82946      -1.24287      -3.25410
                        -----------------------------------------
Total Dipole Moment    :     -0.67702       0.00077      -1.12204
                        -----------------------------------------
Magnitude (a.u.)       :      1.31047
Magnitude (Debye)      :      3.33095

Rotational constants in cm-1:     0.244672     0.074506     0.064043
Rotational constants in MHz :  7335.067153  2233.624025  1919.970379

                             ****ORCA TERMINATED NORMALLY****
TOTAL RUN TIME: 0 days 0 hours 1 minutes 3 seconds 228 msec
