                         Program Version 5.0.0 -  RELEASE  -
|  1> !M062X D3Zero RIJCOSX def2-TZVPD def2/J TightSCF xyzfile
|  2>
|  3> *xyzfile 0 1 D1.xyz
|  4>
|  5> %MaxCore 64000
|  6>
|  7> %pal nprocs 4
|  8> end
|  9>
| 10> %scf
| 11>   MaxIter 150
| 12> end
| 13>
| 14>
| 15>                          ****END OF INPUT****

CARTESIAN COORDINATES (ANGSTROEM)
---------------------------------
  C      4.999862   -1.596133   -5.924876
  C      5.281560   -1.974132   -4.535764
  C      3.766779   -2.266110   -6.511752
  C      2.496702   -1.844161   -5.735704
  H      1.626416   -2.217434   -6.308950
  H      2.481824   -2.456069   -4.793414
  F      2.459729   -0.509204   -5.505757
  C      4.792500   -1.361316   -3.457295
  N      3.939898   -0.374925   -3.557359
  N      5.259860   -1.754224   -2.239133
  H      5.922824   -2.521451   -2.186720
  H      4.654678   -1.640404   -1.442016
  H      5.709139   -2.875599   -4.387021
  H      3.330101   -0.317639   -4.361247
  H      3.698494    0.114468   -2.708333
  H      4.843333   -0.517930   -5.943019
  H      5.901695   -1.822503   -6.496467
  H      3.886191   -3.357076   -6.533604
  H      3.685602   -1.922168   -7.547128

 Total Charge           Charge          ....    0
 Multiplicity           Mult            ....    1
 Number of Electrons    NEL             ....   64
 Basis Dimension        Dim             ....  398

ORBITAL ENERGIES
----------------

  NO   OCC          E(Eh)            E(eV)
   0   2.0000     -25.268384      -687.5877
   1   2.0000     -14.738820      -401.0637
   2   2.0000     -14.724906      -400.6851
   3   2.0000     -10.619281      -288.9653
   4   2.0000     -10.576190      -287.7928
   5   2.0000     -10.530361      -286.5457
   6   2.0000     -10.510277      -285.9992
   7   2.0000     -10.457211      -284.5552
   8   2.0000      -1.391919       -37.8760
   9   2.0000      -1.063587       -28.9417
  10   2.0000      -0.966240       -26.2927
  11   2.0000      -0.896053       -24.3828
  12   2.0000      -0.821640       -22.3580
  13   2.0000      -0.765250       -20.8235
  14   2.0000      -0.688465       -18.7341
  15   2.0000      -0.673700       -18.3323
  16   2.0000      -0.627929       -17.0868
  17   2.0000      -0.611411       -16.6373
  18   2.0000      -0.596736       -16.2380
  19   2.0000      -0.575043       -15.6477
  20   2.0000      -0.571715       -15.5572
  21   2.0000      -0.524408       -14.2699
  22   2.0000      -0.496714       -13.5163
  23   2.0000      -0.482601       -13.1323
  24   2.0000      -0.463526       -12.6132
  25   2.0000      -0.440665       -11.9911
  26   2.0000      -0.420727       -11.4486
  27   2.0000      -0.400601       -10.9009
  28   2.0000      -0.386807       -10.5256
  29   2.0000      -0.377253       -10.2656
  30   2.0000      -0.321065        -8.7366
  31   2.0000      -0.212117        -5.7720
  32   0.0000       0.014467         0.3937
  33   0.0000       0.029309         0.7975
  34   0.0000       0.037354         1.0165
  35   0.0000       0.041176         1.1205
  36   0.0000       0.056674         1.5422

MULLIKEN ATOMIC CHARGES
-----------------------
   0 C :   -0.712926
   1 C :   -0.809292
   2 C :   -0.540510
   3 C :   -0.386341
   4 H :    0.336701
   5 H :    0.260269
   6 F :   -0.412603
   7 C :    1.092104
   8 N :   -0.649158
   9 N :   -0.743933
  10 H :    0.230521
  11 H :    0.222448
  12 H :    0.160679
  13 H :    0.381642
  14 H :    0.224262
  15 H :    0.297930
  16 H :    0.333599
  17 H :    0.389905
  18 H :    0.324699
Sum of atomic charges:    0.0000000

LOEWDIN ATOMIC CHARGES
----------------------
   0 C :   -0.236352
   1 C :   -0.128138
   2 C :   -0.177651
   3 C :   -0.216960
   4 H :    0.121068
   5 H :    0.133580
   6 F :   -0.039245
   7 C :   -0.544569
   8 N :    0.143893
   9 N :    0.093125
  10 H :    0.104630
  11 H :    0.088656
  12 H :    0.062207
  13 H :    0.033942
  14 H :    0.112944
  15 H :    0.111021
  16 H :    0.110826
  17 H :    0.120928
  18 H :    0.106096

  Mayer bond orders larger than 0.100000
B(  0-C ,  1-C ) :   0.5400 B(  0-C ,  2-C ) :   0.5656 B(  0-C , 15-H ) :   1.0018
B(  0-C , 16-H ) :   1.0098 B(  1-C ,  3-C ) :   0.1207 B(  1-C ,  7-C ) :   1.2375
B(  1-C ,  8-N ) :   0.1309 B(  1-C ,  9-N ) :   0.1394 B(  1-C , 12-H ) :   1.2695
B(  1-C , 15-H ) :  -0.1211 B(  2-C ,  3-C ) :   0.8497 B(  2-C , 17-H ) :   0.9439
B(  2-C , 18-H ) :   0.9300 B(  3-C ,  4-H ) :   0.9415 B(  3-C ,  5-H ) :   1.0213
B(  3-C ,  6-F ) :   0.6517 B(  7-C ,  8-N ) :   0.8505 B(  7-C ,  9-N ) :   0.6062
B(  7-C , 12-H ) :  -0.2709 B(  8-N , 13-H ) :   0.8063 B(  8-N , 14-H ) :   0.9991
B(  9-N , 10-H ) :   0.9804 B(  9-N , 11-H ) :   1.0265

Dispersion correction           -0.000506597
FINAL SINGLE POINT ENERGY      -406.437751227919

DIPOLE MOMENT
-------------
                                X             Y             Z
Electronic contribution:     -3.32793       3.97491       0.75065
Nuclear contribution   :      2.63975      -4.51113      -0.34926
                        -----------------------------------------
Total Dipole Moment    :     -0.68819      -0.53622       0.40139
                        -----------------------------------------
Magnitude (a.u.)       :      0.96034
Magnitude (Debye)      :      2.44099

Rotational constants in cm-1:     0.109429     0.049838     0.039337
Rotational constants in MHz :  3280.611039  1494.113088  1179.280063

                             ****ORCA TERMINATED NORMALLY****
TOTAL RUN TIME: 0 days 0 hours 1 minutes 53 seconds 704 msec
