                         Program Version 5.0.0 -  RELEASE  -
|  1> !M062X D3Zero RIJCOSX def2-TZVPD def2/J TightSCF xyzfile
|  2>
|  3> *xyzfile 0 1 D2.xyz
|  4>
|  5> %MaxCore 64000
|  6>
|  7> %pal nprocs 4
|  8> end
|  9>
| 10> %scf
| 11>   MaxIter 150
| 12> end
| 13>
| 14>
| 15>                          ****END OF INPUT****

CARTESIAN COORDINATES (ANGSTROEM)
---------------------------------
  C      4.999862   -1.596133   -5.924876
  N      5.281560   -1.974132   -4.535764
  C      3.766779   -2.266110   -6.511752
  C      2.496702   -1.844161   -5.735704
  H      1.626416   -2.217434   -6.308950
  H      2.481824   -2.456069   -4.793414
  F      2.459729   -0.509204   -5.505757
  C      4.792500   -1.361316   -3.457295
  C      3.939898   -0.374925   -3.557359
  N      5.259860   -1.754224   -2.239133
  H      5.922824   -2.521451   -2.186720
  H      4.654678   -1.640404   -1.442016
  H      5.709139   -2.875599   -4.387021
  H      3.330101   -0.317639   -4.361247
  H      3.698494    0.114468   -2.708333
  H      4.843333   -0.517930   -5.943019
  H      5.901695   -1.822503   -6.496467
  H      3.886191   -3.357076   -6.533604
  H      3.685602   -1.922168   -7.547128

 Total Charge           Charge          ....    0
 Multiplicity           Mult            ....    1
 Number of Electrons    NEL             ....   64
 Basis Dimension        Dim             ....  398

ORBITAL ENERGIES
----------------

  NO   OCC          E(Eh)            E(eV)
   0   2.0000     -25.245834      -686.9741
   1   2.0000     -14.746686      -401.2777
   2   2.0000     -14.737042      -401.0153
   3   2.0000     -10.618608      -288.9470
   4   2.0000     -10.571959      -287.6776
   5   2.0000     -10.570051      -287.6257
   6   2.0000     -10.545348      -286.9535
   7   2.0000     -10.424701      -283.6705
   8   2.0000      -1.371877       -37.3307
   9   2.0000      -1.069140       -29.0928
  10   2.0000      -0.980577       -26.6829
  11   2.0000      -0.884049       -24.0562
  12   2.0000      -0.807612       -21.9762
  13   2.0000      -0.787274       -21.4228
  14   2.0000      -0.700699       -19.0670
  15   2.0000      -0.652586       -17.7578
  16   2.0000      -0.629436       -17.1278
  17   2.0000      -0.601314       -16.3626
  18   2.0000      -0.596328       -16.2269
  19   2.0000      -0.572875       -15.5887
  20   2.0000      -0.566474       -15.4145
  21   2.0000      -0.527421       -14.3519
  22   2.0000      -0.500880       -13.6296
  23   2.0000      -0.482560       -13.1311
  24   2.0000      -0.455215       -12.3870
  25   2.0000      -0.445740       -12.1292
  26   2.0000      -0.423531       -11.5249
  27   2.0000      -0.409378       -11.1398
  28   2.0000      -0.400378       -10.8948
  29   2.0000      -0.378231       -10.2922
  30   2.0000      -0.311422        -8.4742
  31   2.0000      -0.217133        -5.9085
  32   0.0000       0.009026         0.2456
  33   0.0000       0.028321         0.7707
  34   0.0000       0.033550         0.9130
  35   0.0000       0.039803         1.0831
  36   0.0000       0.055750         1.5170

MULLIKEN ATOMIC CHARGES
-----------------------
   0 C :   -0.840647
   1 N :   -0.364739
   2 C :   -0.409022
   3 C :   -0.427499
   4 H :    0.330072
   5 H :    0.289988
   6 F :   -0.360833
   7 C :    0.981740
   8 C :   -1.028904
   9 N :   -0.709665
  10 H :    0.227370
  11 H :    0.242994
  12 H :    0.276630
  13 H :    0.166808
  14 H :    0.235819
  15 H :    0.376039
  16 H :    0.331931
  17 H :    0.356889
  18 H :    0.325029
Sum of atomic charges:   -0.0000000

LOEWDIN ATOMIC CHARGES
----------------------
   0 C :   -0.187350
   1 N :    0.014371
   2 C :   -0.160768
   3 C :   -0.220122
   4 H :    0.120919
   5 H :    0.133287
   6 F :   -0.058098
   7 C :   -0.553827
   8 C :    0.029734
   9 N :    0.094471
  10 H :    0.093289
  11 H :    0.099618
  12 H :    0.134654
  13 H :   -0.035922
  14 H :    0.027033
  15 H :    0.122808
  16 H :    0.118118
  17 H :    0.117143
  18 H :    0.110640

  Mayer bond orders larger than 0.100000
B(  0-C ,  1-N ) :   0.8559 B(  0-C ,  2-C ) :   0.6161 B(  0-C , 15-H ) :   0.9054
B(  0-C , 16-H ) :   0.9504 B(  1-N ,  7-C ) :   0.8630 B(  1-N , 12-H ) :   0.9458
B(  2-C ,  3-C ) :   0.8200 B(  2-C , 17-H ) :   0.9381 B(  2-C , 18-H ) :   0.9575
B(  3-C ,  4-H ) :   0.9419 B(  3-C ,  5-H ) :   0.9957 B(  3-C ,  6-F ) :   0.6977
B(  6-F , 13-H ) :  -0.2875 B(  7-C ,  8-C ) :   1.1451 B(  7-C ,  9-N ) :   0.6557
B(  7-C , 13-H ) :  -0.1638 B(  7-C , 14-H ) :  -0.1394 B(  8-C , 13-H ) :   1.1868
B(  8-C , 14-H ) :   1.1993 B(  9-N , 10-H ) :   0.9862 B(  9-N , 11-H ) :   0.9878

Dispersion correction           -0.000505021
FINAL SINGLE POINT ENERGY      -406.407664866648

DIPOLE MOMENT
-------------
                                X             Y             Z
Electronic contribution:     -2.29597       2.71677      -0.17264
Nuclear contribution   :      2.43398      -4.26587      -0.19921
                        -----------------------------------------
Total Dipole Moment    :      0.13802      -1.54910      -0.37185
                        -----------------------------------------
Magnitude (a.u.)       :      1.59907
Magnitude (Debye)      :      4.06451

Rotational constants in cm-1:     0.110089     0.049944     0.039407
Rotational constants in MHz :  3300.378855  1497.273856  1181.385913

                             ****ORCA TERMINATED NORMALLY****
TOTAL RUN TIME: 0 days 0 hours 1 minutes 58 seconds 70 msec
