                         Program Version 5.0.0 -  RELEASE  -
|  1> !M062X D3Zero RIJCOSX def2-TZVPD def2/J TightSCF xyzfile
|  2>
|  3> *xyzfile 0 1 D3.xyz
|  4>
|  5> %MaxCore 64000
|  6>
|  7> %pal nprocs 4
|  8> end
|  9>
| 10> %scf
| 11>   MaxIter 150
| 12> end
| 13>
| 14>
| 15>                          ****END OF INPUT****

CARTESIAN COORDINATES (ANGSTROEM)
---------------------------------
  C      4.999862   -1.596133   -5.924876
  N      5.281560   -1.974132   -4.535764
  C      3.766779   -2.266110   -6.511752
  C      2.496702   -1.844161   -5.735704
  H      1.626416   -2.217434   -6.308950
  H      2.481824   -2.456069   -4.793414
  F      2.459729   -0.509204   -5.505757
  C      4.792500   -1.361316   -3.457295
  N      3.939898   -0.374925   -3.557359
  C      5.259860   -1.754224   -2.239133
  H      5.922824   -2.521451   -2.186720
  H      4.654678   -1.640404   -1.442016
  H      5.709139   -2.875599   -4.387021
  H      3.330101   -0.317639   -4.361247
  H      3.698494    0.114468   -2.708333
  H      4.843333   -0.517930   -5.943019
  H      5.901695   -1.822503   -6.496467
  H      3.886191   -3.357076   -6.533604
  H      3.685602   -1.922168   -7.547128

 Total Charge           Charge          ....    0
 Multiplicity           Mult            ....    1
 Number of Electrons    NEL             ....   64
 Basis Dimension        Dim             ....  398

ORBITAL ENERGIES
----------------

  NO   OCC          E(Eh)            E(eV)
   0   2.0000     -25.282594      -687.9743
   1   2.0000     -14.747764      -401.3071
   2   2.0000     -14.723370      -400.6433
   3   2.0000     -10.638404      -289.4857
   4   2.0000     -10.579038      -287.8703
   5   2.0000     -10.578571      -287.8575
   6   2.0000     -10.557144      -287.2745
   7   2.0000     -10.436882      -284.0020
   8   2.0000      -1.406459       -38.2717
   9   2.0000      -1.076640       -29.2969
  10   2.0000      -0.987526       -26.8719
  11   2.0000      -0.899972       -24.4895
  12   2.0000      -0.825667       -22.4676
  13   2.0000      -0.765260       -20.8238
  14   2.0000      -0.708096       -19.2683
  15   2.0000      -0.678678       -18.4678
  16   2.0000      -0.665973       -18.1220
  17   2.0000      -0.630195       -17.1485
  18   2.0000      -0.601489       -16.3673
  19   2.0000      -0.580453       -15.7949
  20   2.0000      -0.549614       -14.9558
  21   2.0000      -0.541810       -14.7434
  22   2.0000      -0.511457       -13.9175
  23   2.0000      -0.499373       -13.5886
  24   2.0000      -0.458618       -12.4796
  25   2.0000      -0.445413       -12.1203
  26   2.0000      -0.436560       -11.8794
  27   2.0000      -0.421920       -11.4810
  28   2.0000      -0.409279       -11.1371
  29   2.0000      -0.408316       -11.1108
  30   2.0000      -0.312308        -8.4983
  31   2.0000      -0.204646        -5.5687
  32   0.0000       0.006312         0.1717
  33   0.0000       0.027348         0.7442
  34   0.0000       0.029606         0.8056
  35   0.0000       0.034440         0.9371
  36   0.0000       0.057077         1.5531

MULLIKEN ATOMIC CHARGES
-----------------------
   0 C :   -0.825744
   1 N :   -0.353285
   2 C :   -0.430186
   3 C :   -0.405087
   4 H :    0.330309
   5 H :    0.280114
   6 F :   -0.404556
   7 C :    0.750748
   8 N :   -0.645373
   9 C :   -1.126347
  10 H :    0.229336
  11 H :    0.225728
  12 H :    0.283521
  13 H :    0.438944
  14 H :    0.227672
  15 H :    0.380983
  16 H :    0.349586
  17 H :    0.355645
  18 H :    0.337994
Sum of atomic charges:   -0.0000000

LOEWDIN ATOMIC CHARGES
----------------------
   0 C :   -0.189458
   1 N :    0.025026
   2 C :   -0.161085
   3 C :   -0.212776
   4 H :    0.124395
   5 H :    0.138061
   6 F :   -0.038550
   7 C :   -0.573875
   8 N :    0.141388
   9 C :   -0.008656
  10 H :   -0.004493
  11 H :   -0.007740
  12 H :    0.144055
  13 H :    0.030036
  14 H :    0.122752
  15 H :    0.119613
  16 H :    0.119266
  17 H :    0.120604
  18 H :    0.111438

  Mayer bond orders larger than 0.100000
B(  0-C ,  1-N ) :   0.7946 B(  0-C ,  2-C ) :   0.6097 B(  0-C ,  7-C ) :  -0.1234
B(  0-C , 15-H ) :   0.8963 B(  0-C , 16-H ) :   0.9531 B(  1-N ,  7-C ) :   0.9039
B(  1-N ,  9-C ) :   0.1171 B(  1-N , 12-H ) :   0.9257 B(  2-C ,  3-C ) :   0.8136
B(  2-C , 17-H ) :   0.9441 B(  2-C , 18-H ) :   0.9598 B(  3-C ,  4-H ) :   0.9451
B(  3-C ,  5-H ) :   1.0017 B(  3-C ,  6-F ) :   0.6667 B(  7-C ,  8-N ) :   0.9420
B(  7-C ,  9-C ) :   1.2462 B(  7-C , 11-H ) :  -0.1163 B(  8-N ,  9-C ) :   0.1109
B(  8-N , 13-H ) :   0.7399 B(  8-N , 14-H ) :   0.9914 B(  9-C , 10-H ) :   1.0432
B(  9-C , 11-H ) :   1.1126

Dispersion correction           -0.000501375
FINAL SINGLE POINT ENERGY      -406.420839170822

DIPOLE MOMENT
-------------
                                X             Y             Z
Electronic contribution:     -3.48408       3.85865      -1.51399
Nuclear contribution   :      2.63642      -4.47741       0.00296
                        -----------------------------------------
Total Dipole Moment    :     -0.84766      -0.61875      -1.51103
                        -----------------------------------------
Magnitude (a.u.)       :      1.83973
Magnitude (Debye)      :      4.67622

Rotational constants in cm-1:     0.108041     0.051979     0.040387
Rotational constants in MHz :  3238.993235  1558.297571  1210.782552

                             ****ORCA TERMINATED NORMALLY****
TOTAL RUN TIME: 0 days 0 hours 2 minutes 4 seconds 340 msec
