                         Program Version 5.0.0 -  RELEASE  -
|  1> !PBE0 D3BJ RIJCOSX def2-SVP def2/J TightSCF
|  2> *xyz -1 1
|  3> C         -0.87096        0.24804       -2.66280
|  4> C         -0.47749        0.60819       -4.10105
|  5> H          0.20677        1.45830       -4.11875
|  6> H         -1.36844        0.92942       -4.64785
|  7> C          0.18467       -0.50664       -4.91676
|  8> O         -0.15869       -1.70109       -4.65798
|  9> O          1.05594       -0.17441       -5.74037
| 10> H         -1.54056       -0.58646       -2.67455
| 11> H         -1.35339        1.08600       -2.20455
| 12> H          0.00660       -0.00662       -2.10609
| 13> *
| 14>
| 15> %MaxCore 64000
| 16>
| 17> %pal nprocs 4
| 18> end
| 19>
| 20> %scf
| 21>   MaxIter 150
| 22> end
| 23>
| 24>
| 25>                          ****END OF INPUT****

CARTESIAN COORDINATES (ANGSTROEM)
---------------------------------
  C     -0.870960    0.248040   -2.662800
  C     -0.477490    0.608190   -4.101050
  H      0.206770    1.458300   -4.118750
  H     -1.368440    0.929420   -4.647850
  C      0.184670   -0.506640   -4.916760
  O     -0.158690   -1.701090   -4.657980
  O      1.055940   -0.174410   -5.740370
  H     -1.540560   -0.586460   -2.674550
  H     -1.353390    1.086000   -2.204550
  H      0.006600   -0.006620   -2.106090

 Total Charge           Charge          ....   -1
 Multiplicity           Mult            ....    1
 Number of Electrons    NEL             ....   40
 Basis Dimension        Dim             ....   95

ORBITAL ENERGIES
----------------

  NO   OCC          E(Eh)            E(eV)
   0   2.0000     -18.912290      -514.6296
   1   2.0000     -18.909731      -514.5599
   2   2.0000     -10.083399      -274.3832
   3   2.0000     -10.058883      -273.7161
   4   2.0000     -10.041883      -273.2535
   5   2.0000      -0.804995       -21.9050
   6   2.0000      -0.708458       -19.2781
   7   2.0000      -0.606008       -16.4903
   8   2.0000      -0.474437       -12.9101
   9   2.0000      -0.312528        -8.5043
  10   2.0000      -0.293579        -7.9887
  11   2.0000      -0.252750        -6.8777
  12   2.0000      -0.222997        -6.0681
  13   2.0000      -0.210409        -5.7255
  14   2.0000      -0.197159        -5.3650
  15   2.0000      -0.165710        -4.5092
  16   2.0000      -0.148809        -4.0493
  17   2.0000      -0.025813        -0.7024
  18   2.0000      -0.023041        -0.6270
  19   2.0000      -0.006999        -0.1905
  20   0.0000       0.226196         6.1551
  21   0.0000       0.274661         7.4739
  22   0.0000       0.280215         7.6250
  23   0.0000       0.292725         7.9655
  24   0.0000       0.300082         8.1656

MULLIKEN ATOMIC CHARGES
-----------------------
   0 C :   -0.021414
   1 C :   -0.099876
   2 H :   -0.022622
   3 H :   -0.010261
   4 C :    0.088711
   5 O :   -0.474108
   6 O :   -0.443107
   7 H :    0.012266
   8 H :   -0.034958
   9 H :    0.005369
Sum of atomic charges:   -1.0000000

LOEWDIN ATOMIC CHARGES
----------------------
   0 C :   -0.074633
   1 C :   -0.106418
   2 H :    0.002470
   3 H :    0.010811
   4 C :   -0.048535
   5 O :   -0.417541
   6 O :   -0.386369
   7 H :    0.013233
   8 H :   -0.005765
   9 H :    0.012748

  Mayer bond orders larger than 0.100000
B(  0-C ,  1-C ) :   1.0706 B(  0-C ,  7-H ) :   0.9613 B(  0-C ,  8-H ) :   0.9602
B(  0-C ,  9-H ) :   0.9765 B(  1-C ,  2-H ) :   0.9455 B(  1-C ,  3-H ) :   0.9402
B(  1-C ,  4-C ) :   0.9064 B(  4-C ,  5-O ) :   1.8103 B(  4-C ,  6-O ) :   1.8573
B(  5-O ,  6-O ) :   0.1145

Dispersion correction           -0.005423886
FINAL SINGLE POINT ENERGY      -267.323144841083

DIPOLE MOMENT
-------------
                                X             Y             Z
Electronic contribution:      2.71329      -3.05029      -4.70353
Nuclear contribution   :     -3.54611       4.15440       5.90446
                        -----------------------------------------
Total Dipole Moment    :     -0.83282       1.10411       1.20093
                        -----------------------------------------
Magnitude (a.u.)       :      1.83164
Magnitude (Debye)      :      4.65565

Rotational constants in cm-1:     0.332789     0.132085     0.101080
Rotational constants in MHz :  9976.755824  3959.803182  3030.288811

                             ****ORCA TERMINATED NORMALLY****
TOTAL RUN TIME: 0 days 0 hours 0 minutes 10 seconds 893 msec
