                         Program Version 5.0.0 -  RELEASE  -
|  1> !PBE0 D3BJ RIJCOSX def2-SVP def2/J TightSCF
|  2> *xyz 1 1
|  3> C          2.48645       -2.67712       -2.56345
|  4> C          3.03764       -2.36672       -3.92351
|  5> N          2.28036       -2.45441       -4.96769
|  6> N          4.32174       -2.01793       -4.01664
|  7> H          4.87994       -1.91167       -3.17382
|  8> H          4.71015       -1.67088       -4.88356
|  9> H          1.27042       -2.41265       -4.86614
| 10> H          2.58183       -2.05528       -5.84688
| 11> C          2.49799       -1.46946       -1.61030
| 12> H          1.47259       -3.05153       -2.69437
| 13> H          3.08320       -3.49064       -2.14147
| 14> H          1.91240       -0.67831       -2.02991
| 15> H          3.50450       -1.13364       -1.47227
| 16> H          2.08509       -1.75655       -0.66585
| 17> *
| 18>
| 19> %MaxCore 64000
| 20>
| 21> %pal nprocs 4
| 22> end
| 23>
| 24> %scf
| 25>   MaxIter 150
| 26> end
| 27>
| 28>
| 29>                          ****END OF INPUT****

CARTESIAN COORDINATES (ANGSTROEM)
---------------------------------
  C      2.486450   -2.677120   -2.563450
  C      3.037640   -2.366720   -3.923510
  N      2.280360   -2.454410   -4.967690
  N      4.321740   -2.017930   -4.016640
  H      4.879940   -1.911670   -3.173820
  H      4.710150   -1.670880   -4.883560
  H      1.270420   -2.412650   -4.866140
  H      2.581830   -2.055280   -5.846880
  C      2.497990   -1.469460   -1.610300
  H      1.472590   -3.051530   -2.694370
  H      3.083200   -3.490640   -2.141470
  H      1.912400   -0.678310   -2.029910
  H      3.504500   -1.133640   -1.472270
  H      2.085090   -1.756550   -0.665850

 Total Charge           Charge          ....    1
 Multiplicity           Mult            ....    1
 Number of Electrons    NEL             ....   40
 Basis Dimension        Dim             ....  115

ORBITAL ENERGIES
----------------

  NO   OCC          E(Eh)            E(eV)
   0   2.0000     -14.644883      -398.5075
   1   2.0000     -14.639687      -398.3661
   2   2.0000     -10.555796      -287.2378
   3   2.0000     -10.430967      -283.8411
   4   2.0000     -10.390716      -282.7458
   5   2.0000      -1.227688       -33.4071
   6   2.0000      -1.128365       -30.7044
   7   2.0000      -0.986789       -26.8519
   8   2.0000      -0.881466       -23.9859
   9   2.0000      -0.831751       -22.6331
  10   2.0000      -0.793068       -21.5805
  11   2.0000      -0.764511       -20.8034
  12   2.0000      -0.717431       -19.5223
  13   2.0000      -0.667269       -18.1573
  14   2.0000      -0.637443       -17.3457
  15   2.0000      -0.623135       -16.9564
  16   2.0000      -0.562585       -15.3087
  17   2.0000      -0.550579       -14.9820
  18   2.0000      -0.540083       -14.6964
  19   2.0000      -0.508640       -13.8408
  20   0.0000      -0.204497        -5.5646
  21   0.0000      -0.132960        -3.6180
  22   0.0000      -0.091599        -2.4925
  23   0.0000      -0.088365        -2.4045
  24   0.0000      -0.059142        -1.6093

MULLIKEN ATOMIC CHARGES
-----------------------
   0 C :   -0.073486
   1 C :   -0.016055
   2 N :   -0.000006
   3 N :   -0.045689
   4 H :    0.194106
   5 H :    0.183385
   6 H :    0.197191
   7 H :    0.177580
   8 C :   -0.048498
   9 H :    0.078955
  10 H :    0.121758
  11 H :    0.070431
  12 H :    0.058040
  13 H :    0.102288
Sum of atomic charges:    1.0000000

LOEWDIN ATOMIC CHARGES
----------------------
   0 C :   -0.040772
   1 C :    0.148823
   2 N :    0.107279
   3 N :    0.084914
   4 H :    0.121537
   5 H :    0.112215
   6 H :    0.126728
   7 H :    0.113852
   8 C :   -0.031797
   9 H :    0.054463
  10 H :    0.072355
  11 H :    0.040926
  12 H :    0.031977
  13 H :    0.057500

  Mayer bond orders larger than 0.100000
B(  0-C ,  1-C ) :   1.0169 B(  0-C ,  8-C ) :   1.0640 B(  0-C ,  9-H ) :   0.9286
B(  0-C , 10-H ) :   0.9187 B(  1-C ,  2-N ) :   1.5258 B(  1-C ,  3-N ) :   1.4844
B(  2-N ,  6-H ) :   0.9167 B(  2-N ,  7-H ) :   0.9309 B(  3-N ,  4-H ) :   0.9216
B(  3-N ,  5-H ) :   0.9297 B(  8-C , 11-H ) :   0.9699 B(  8-C , 12-H ) :   0.9715
B(  8-C , 13-H ) :   0.9612

Dispersion correction           -0.008508074
FINAL SINGLE POINT ENERGY      -228.601869041401

DIPOLE MOMENT
-------------
                                X             Y             Z
Electronic contribution:      1.07227      -1.05063      -3.95939
Nuclear contribution   :     -0.84604       1.34287       2.92710
                        -----------------------------------------
Total Dipole Moment    :      0.22623       0.29224      -1.03229
                        -----------------------------------------
Magnitude (a.u.)       :      1.09646
Magnitude (Debye)      :      2.78697

Rotational constants in cm-1:     0.265816     0.126189     0.097583
Rotational constants in MHz :  7968.948902  3783.040103  2925.457702

                             ****ORCA TERMINATED NORMALLY****
TOTAL RUN TIME: 0 days 0 hours 0 minutes 13 seconds 819 msec
