                         Program Version 5.0.0 -  RELEASE  -
|  1> !PBE0 D3BJ RIJCOSX def2-TZVP def2/J TightSCF xyzfile
|  2>
|  3> *xyzfile 0 1 B.xyz
|  4>
|  5> %MaxCore 64000
|  6>
|  7> %pal nprocs 18
|  8> end
|  9>
| 10> %scf
| 11>   MaxIter 150
| 12> end
| 13>
| 14>
| 15>                          ****END OF INPUT****

CARTESIAN COORDINATES (ANGSTROEM)
---------------------------------
  C      2.486452   -2.677121   -2.563447
  C     -0.870963    0.248043   -2.662804
  C     -0.477492    0.608191   -4.101052
  H      0.206773    1.458299   -4.118748
  H     -1.368442    0.929419   -4.647855
  C      0.184673   -0.506640   -4.916760
  C      3.037640   -2.366715   -3.923509
  N      2.280360   -2.454408   -4.967692
  N      4.321736   -2.017932   -4.016641
  H      4.879940   -1.911668   -3.173823
  H      4.710148   -1.670882   -4.883561
  H      1.270423   -2.412650   -4.866143
  H      2.581829   -2.055282   -5.846878
  O     -0.158685   -1.701088   -4.657981
  O      1.055938   -0.174410   -5.740373
  C      2.497991   -1.469464   -1.610303
  C      1.582841   -0.321986   -2.042619
  H      2.193083   -1.833912   -0.625420
  H      3.523356   -1.103982   -1.490392
  C      0.100160   -0.673551   -1.915815
  H      1.822311   -0.040361   -3.072834
  H      1.813180    0.557019   -1.433266
  H     -0.063284   -1.679120   -2.301112
  H     -0.168820   -0.691680   -0.853831
  H     -1.001048    1.181040   -2.104071
  H     -1.844645   -0.246592   -2.663281
  H      1.472592   -3.051527   -2.694366
  H      3.083201   -3.490638   -2.141472

 Total Charge           Charge          ....    0
 Multiplicity           Mult            ....    1
 Number of Electrons    NEL             ....   94
 Basis Dimension        Dim             ....  468

ORBITAL ENERGIES
----------------

  NO   OCC          E(Eh)            E(eV)
   0   2.0000     -19.114316      -520.1270
   1   2.0000     -19.106017      -519.9011
   2   2.0000     -14.465039      -393.6137
   3   2.0000     -14.428238      -392.6123
   4   2.0000     -10.368856      -282.1509
   5   2.0000     -10.266220      -279.3580
   6   2.0000     -10.265860      -279.3482
   7   2.0000     -10.248135      -278.8659
   8   2.0000     -10.217242      -278.0253
   9   2.0000     -10.199143      -277.5328
  10   2.0000     -10.194435      -277.4047
  11   2.0000     -10.181572      -277.0547
  12   2.0000      -1.059107       -28.8198
  13   2.0000      -1.024986       -27.8913
  14   2.0000      -0.959069       -26.0976
  15   2.0000      -0.929281       -25.2870
  16   2.0000      -0.854668       -23.2567
  17   2.0000      -0.800283       -21.7768
  18   2.0000      -0.754916       -20.5423
  19   2.0000      -0.698906       -19.0182
  20   2.0000      -0.678230       -18.4556
  21   2.0000      -0.633914       -17.2497
  22   2.0000      -0.622702       -16.9446
  23   2.0000      -0.595553       -16.2058
  24   2.0000      -0.572923       -15.5900
  25   2.0000      -0.537858       -14.6359
  26   2.0000      -0.513082       -13.9617
  27   2.0000      -0.493960       -13.4413
  28   2.0000      -0.472349       -12.8533
  29   2.0000      -0.465708       -12.6725
  30   2.0000      -0.458573       -12.4784
  31   2.0000      -0.435510       -11.8508
  32   2.0000      -0.424571       -11.5532
  33   2.0000      -0.421002       -11.4560
  34   2.0000      -0.403857       -10.9895
  35   2.0000      -0.392720       -10.6864
  36   2.0000      -0.380332       -10.3494
  37   2.0000      -0.368517       -10.0279
  38   2.0000      -0.362488        -9.8638
  39   2.0000      -0.346164        -9.4196
  40   2.0000      -0.334159        -9.0929
  41   2.0000      -0.324500        -8.8301
  42   2.0000      -0.316000        -8.5988
  43   2.0000      -0.306530        -8.3411
  44   2.0000      -0.236254        -6.4288
  45   2.0000      -0.223504        -6.0818
  46   2.0000      -0.211624        -5.7586
  47   0.0000      -0.036685        -0.9983
  48   0.0000      -0.004961        -0.1350
  49   0.0000       0.036121         0.9829
  50   0.0000       0.056400         1.5347
  51   0.0000       0.063373         1.7245

MULLIKEN ATOMIC CHARGES
-----------------------
   0 C :   -0.250237
   1 C :   -0.161725
   2 C :   -0.208986
   3 H :    0.105433
   4 H :    0.106445
   5 C :    0.246730
   6 C :    0.245766
   7 N :   -0.264399
   8 N :   -0.401595
   9 H :    0.268121
  10 H :    0.265414
  11 H :    0.281414
  12 H :    0.251629
  13 O :   -0.542167
  14 O :   -0.496582
  15 C :   -0.181526
  16 C :   -0.236837
  17 H :    0.115512
  18 H :    0.101207
  19 C :   -0.193161
  20 H :    0.145650
  21 H :    0.096004
  22 H :    0.118110
  23 H :    0.091870
  24 H :    0.087450
  25 H :    0.093501
  26 H :    0.166842
  27 H :    0.150116
Sum of atomic charges:   -0.0000000

LOEWDIN ATOMIC CHARGES
----------------------
   0 C :   -0.209301
   1 C :   -0.268102
   2 C :   -0.254733
   3 H :    0.139952
   4 H :    0.146469
   5 C :   -0.661677
   6 C :   -0.323641
   7 N :    0.150724
   8 N :    0.055425
   9 H :    0.189372
  10 H :    0.184832
  11 H :    0.161897
  12 H :    0.186510
  13 O :   -0.078068
  14 O :   -0.056060
  15 C :   -0.258349
  16 C :   -0.261067
  17 H :    0.146581
  18 H :    0.130396
  19 C :   -0.274914
  20 H :    0.150956
  21 H :    0.137525
  22 H :    0.140868
  23 H :    0.131596
  24 H :    0.132090
  25 H :    0.140395
  26 H :    0.163417
  27 H :    0.156908

  Mayer bond orders larger than 0.100000
B(  0-C ,  6-C ) :   0.9922 B(  0-C , 15-C ) :   0.9826 B(  0-C , 26-H ) :   0.9613
B(  0-C , 27-H ) :   0.9432 B(  1-C ,  2-C ) :   0.9937 B(  1-C , 19-C ) :   1.0168
B(  1-C , 24-H ) :   0.9578 B(  1-C , 25-H ) :   0.9508 B(  2-C ,  3-H ) :   0.9611
B(  2-C ,  4-H ) :   0.9351 B(  2-C ,  5-C ) :   0.9807 B(  5-C , 13-O ) :   1.6187
B(  5-C , 14-O ) :   1.8273 B(  6-C ,  7-N ) :   1.6377 B(  6-C ,  8-N ) :   1.3209
B(  7-N , 11-H ) :   0.7347 B(  7-N , 12-H ) :   0.8876 B(  8-N ,  9-H ) :   0.8974
B(  8-N , 10-H ) :   0.8969 B( 11-H , 13-O ) :   0.2438 B( 15-C , 16-C ) :   0.9764
B( 15-C , 17-H ) :   0.9463 B( 15-C , 18-H ) :   0.9660 B( 16-C , 19-C ) :   0.9792
B( 16-C , 20-H ) :   0.9634 B( 16-C , 21-H ) :   0.9457 B( 19-C , 22-H ) :   0.9636
B( 19-C , 23-H ) :   0.9444

Dispersion correction           -0.027346108
FINAL SINGLE POINT ENERGY      -574.039078635737

DIPOLE MOMENT
-------------
                                X             Y             Z
Electronic contribution:      1.73115      -2.91512      -8.85444
Nuclear contribution   :      1.39386       1.90489      10.36520
                        -----------------------------------------
Total Dipole Moment    :      3.12501      -1.01022       1.51077
                        -----------------------------------------
Magnitude (a.u.)       :      3.61506
Magnitude (Debye)      :      9.18875

Rotational constants in cm-1:     0.041165     0.025922     0.019001
Rotational constants in MHz :  1234.086888   777.109255   569.639629

                             ****ORCA TERMINATED NORMALLY****
TOTAL RUN TIME: 0 days 0 hours 0 minutes 50 seconds 827 msec
