                         Program Version 5.0.0 -  RELEASE  -
|  1> !PBE0 D3BJ RIJCOSX def2-SVP def2/J TightSCF
|  2> *xyz 0 1
|  3> C         -0.87096        0.24804       -2.66280
|  4> C         -0.47749        0.60819       -4.10105
|  5> H          0.20677        1.45830       -4.11875
|  6> H         -1.36844        0.92942       -4.64785
|  7> C          0.18467       -0.50664       -4.91676
|  8> F         -0.15869       -1.70109       -4.65798
|  9> O          1.05594       -0.17441       -5.74037
| 10> H         -1.54056       -0.58646       -2.67455
| 11> H         -1.35339        1.08600       -2.20455
| 12> H          0.00660       -0.00662       -2.10609
| 13> *
| 14>
| 15> %MaxCore 64000
| 16>
| 17> %pal nprocs 4
| 18> end
| 19>
| 20> %scf
| 21>   MaxIter 150
| 22> end
| 23>
| 24>
| 25>                          ****END OF INPUT****

CARTESIAN COORDINATES (ANGSTROEM)
---------------------------------
  C     -0.870960    0.248040   -2.662800
  C     -0.477490    0.608190   -4.101050
  H      0.206770    1.458300   -4.118750
  H     -1.368440    0.929420   -4.647850
  C      0.184670   -0.506640   -4.916760
  F     -0.158690   -1.701090   -4.657980
  O      1.055940   -0.174410   -5.740370
  H     -1.540560   -0.586460   -2.674550
  H     -1.353390    1.086000   -2.204550
  H      0.006600   -0.006620   -2.106090

 Total Charge           Charge          ....    0
 Multiplicity           Mult            ....    1
 Number of Electrons    NEL             ....   40
 Basis Dimension        Dim             ....   95

ORBITAL ENERGIES
----------------

  NO   OCC          E(Eh)            E(eV)
   0   2.0000     -24.835701      -675.8138
   1   2.0000     -19.212614      -522.8018
   2   2.0000     -10.402104      -283.0556
   3   2.0000     -10.260999      -279.2160
   4   2.0000     -10.239267      -278.6246
   5   2.0000      -1.319696       -35.9108
   6   2.0000      -1.051179       -28.6040
   7   2.0000      -0.816343       -22.2138
   8   2.0000      -0.695729       -18.9317
   9   2.0000      -0.652829       -17.7644
  10   2.0000      -0.557718       -15.1763
  11   2.0000      -0.550370       -14.9763
  12   2.0000      -0.504711       -13.7339
  13   2.0000      -0.477814       -13.0020
  14   2.0000      -0.443994       -12.0817
  15   2.0000      -0.413193       -11.2435
  16   2.0000      -0.396989       -10.8026
  17   2.0000      -0.388371       -10.5681
  18   2.0000      -0.357812        -9.7366
  19   2.0000      -0.299827        -8.1587
  20   0.0000      -0.013329        -0.3627
  21   0.0000       0.063195         1.7196
  22   0.0000       0.113153         3.0791
  23   0.0000       0.123713         3.3664
  24   0.0000       0.137516         3.7420

MULLIKEN ATOMIC CHARGES
-----------------------
   0 C :   -0.062924
   1 C :   -0.173899
   2 H :    0.079952
   3 H :    0.081482
   4 C :    0.290866
   5 F :   -0.104333
   6 O :   -0.261993
   7 H :    0.050383
   8 H :    0.048419
   9 H :    0.052047
Sum of atomic charges:   -0.0000000

LOEWDIN ATOMIC CHARGES
----------------------
   0 C :   -0.060802
   1 C :   -0.083288
   2 H :    0.050681
   3 H :    0.052677
   4 C :    0.110595
   5 F :    0.023984
   6 O :   -0.186091
   7 H :    0.028429
   8 H :    0.033615
   9 H :    0.030202

  Mayer bond orders larger than 0.100000
B(  0-C ,  1-C ) :   1.0603 B(  0-C ,  7-H ) :   0.9720 B(  0-C ,  8-H ) :   0.9663
B(  0-C ,  9-H ) :   0.9790 B(  1-C ,  2-H ) :   0.9498 B(  1-C ,  3-H ) :   0.9294
B(  1-C ,  4-C ) :   0.9965 B(  4-C ,  5-F ) :   1.1616 B(  4-C ,  6-O ) :   2.0796

Dispersion correction           -0.005105651
FINAL SINGLE POINT ENERGY      -291.866626793337

DIPOLE MOMENT
-------------
                                X             Y             Z
Electronic contribution:      2.65066      -5.39085      -5.36273
Nuclear contribution   :     -3.42837       5.66737       6.17046
                        -----------------------------------------
Total Dipole Moment    :     -0.77771       0.27652       0.80773
                        -----------------------------------------
Magnitude (a.u.)       :      1.15487
Magnitude (Debye)      :      2.93544

Rotational constants in cm-1:     0.304660     0.130969     0.097716
Rotational constants in MHz :  9133.464515  3926.366384  2929.457090

                             ****ORCA TERMINATED NORMALLY****
TOTAL RUN TIME: 0 days 0 hours 0 minutes 10 seconds 612 msec
