                         Program Version 5.0.0 -  RELEASE  -
|  1> !PBE0 D3BJ RIJCOSX def2-SVP def2/J TightSCF
|  2> *xyz 0 1
|  3> C          2.48645       -2.67712       -2.56345
|  4> C          3.03764       -2.36672       -3.92351
|  5> C          2.28036       -2.45441       -4.96769
|  6> N          4.32174       -2.01793       -4.01664
|  7> H          4.87994       -1.91167       -3.17382
|  8> H          4.71015       -1.67088       -4.88356
|  9> H          1.27042       -2.41265       -4.86614
| 10> H          2.58183       -2.05528       -5.84688
| 11> C          2.49799       -1.46946       -1.61030
| 12> H          1.47259       -3.05153       -2.69437
| 13> H          3.08320       -3.49064       -2.14147
| 14> H          1.91240       -0.67831       -2.02991
| 15> H          3.50450       -1.13364       -1.47227
| 16> H          2.08509       -1.75655       -0.66585
| 17> *
| 18>
| 19> %MaxCore 64000
| 20>
| 21> %pal nprocs 4
| 22> end
| 23>
| 24> %scf
| 25>   MaxIter 150
| 26> end
| 27>
| 28>
| 29>                          ****END OF INPUT****

CARTESIAN COORDINATES (ANGSTROEM)
---------------------------------
  C      2.486450   -2.677120   -2.563450
  C      3.037640   -2.366720   -3.923510
  C      2.280360   -2.454410   -4.967690
  N      4.321740   -2.017930   -4.016640
  H      4.879940   -1.911670   -3.173820
  H      4.710150   -1.670880   -4.883560
  H      1.270420   -2.412650   -4.866140
  H      2.581830   -2.055280   -5.846880
  C      2.497990   -1.469460   -1.610300
  H      1.472590   -3.051530   -2.694370
  H      3.083200   -3.490640   -2.141470
  H      1.912400   -0.678310   -2.029910
  H      3.504500   -1.133640   -1.472270
  H      2.085090   -1.756550   -0.665850

 Total Charge           Charge          ....    0
 Multiplicity           Mult            ....    1
 Number of Electrons    NEL             ....   40
 Basis Dimension        Dim             ....  115

ORBITAL ENERGIES
----------------

  NO   OCC          E(Eh)            E(eV)
   0   2.0000     -14.389088      -391.5470
   1   2.0000     -10.246399      -278.8187
   2   2.0000     -10.228520      -278.3322
   3   2.0000     -10.220595      -278.1165
   4   2.0000     -10.157922      -276.4111
   5   2.0000      -0.936499       -25.4834
   6   2.0000      -0.792247       -21.5581
   7   2.0000      -0.735935       -20.0258
   8   2.0000      -0.646384       -17.5890
   9   2.0000      -0.577079       -15.7031
  10   2.0000      -0.534273       -14.5383
  11   2.0000      -0.487415       -13.2632
  12   2.0000      -0.447254       -12.1704
  13   2.0000      -0.441594       -12.0164
  14   2.0000      -0.397034       -10.8039
  15   2.0000      -0.391936       -10.6651
  16   2.0000      -0.363628        -9.8948
  17   2.0000      -0.342138        -9.3101
  18   2.0000      -0.333054        -9.0629
  19   2.0000      -0.200000        -5.4423
  20   0.0000       0.057284         1.5588
  21   0.0000       0.065440         1.7807
  22   0.0000       0.108756         2.9594
  23   0.0000       0.111938         3.0460
  24   0.0000       0.130295         3.5455

MULLIKEN ATOMIC CHARGES
-----------------------
   0 C :   -0.018402
   1 C :   -0.104264
   2 C :   -0.072915
   3 N :   -0.132033
   4 H :    0.118897
   5 H :    0.126410
   6 H :   -0.013216
   7 H :   -0.032417
   8 C :   -0.040410
   9 H :    0.030868
  10 H :    0.038987
  11 H :    0.039426
  12 H :    0.019852
  13 H :    0.039216
Sum of atomic charges:    0.0000000

LOEWDIN ATOMIC CHARGES
----------------------
   0 C :   -0.037403
   1 C :    0.005775
   2 C :   -0.181032
   3 N :   -0.018287
   4 H :    0.070754
   5 H :    0.077561
   6 H :    0.005694
   7 H :   -0.003790
   8 C :   -0.057324
   9 H :    0.036532
  10 H :    0.029619
  11 H :    0.028195
  12 H :    0.016706
  13 H :    0.027000

  Mayer bond orders larger than 0.100000
B(  0-C ,  1-C ) :   1.0240 B(  0-C ,  8-C ) :   1.0785 B(  0-C ,  9-H ) :   0.9378
B(  0-C , 10-H ) :   0.9358 B(  1-C ,  2-C ) :   1.8817 B(  1-C ,  3-N ) :   1.2445
B(  2-C ,  6-H ) :   0.9390 B(  2-C ,  7-H ) :   0.9559 B(  3-N ,  4-H ) :   0.9529
B(  3-N ,  5-H ) :   0.9491 B(  8-C , 11-H ) :   0.9710 B(  8-C , 12-H ) :   0.9723
B(  8-C , 13-H ) :   0.9701

Dispersion correction           -0.008847865
FINAL SINGLE POINT ENERGY      -212.151057026254

DIPOLE MOMENT
-------------
                                X             Y             Z
Electronic contribution:      1.60736      -0.86494      -2.12309
Nuclear contribution   :     -0.99743       1.27863       2.57190
                        -----------------------------------------
Total Dipole Moment    :      0.60992       0.41368       0.44881
                        -----------------------------------------
Magnitude (a.u.)       :      0.86288
Magnitude (Debye)      :      2.19327

Rotational constants in cm-1:     0.274050     0.130114     0.100964
Rotational constants in MHz :  8215.815505  3900.722919  3026.834930

                             ****ORCA TERMINATED NORMALLY****
TOTAL RUN TIME: 0 days 0 hours 0 minutes 12 seconds 895 msec
