                         Program Version 5.0.0 -  RELEASE  -
|  1> !PBE0 D3BJ RIJCOSX def2-SVP def2/J TightSCF
|  2> *xyz 0 1
|  3> C         -0.87096        0.24804       -2.66280
|  4> C         -0.47749        0.60819       -4.10105
|  5> H          0.20677        1.45830       -4.11875
|  6> H         -1.36844        0.92942       -4.64785
|  7> C          0.18467       -0.50664       -4.91676
|  8> O         -0.15869       -1.70109       -4.65798
|  9> F          1.05594       -0.17441       -5.74037
| 10> H         -1.54056       -0.58646       -2.67455
| 11> H         -1.35339        1.08600       -2.20455
| 12> H          0.00660       -0.00662       -2.10609
| 13> *
| 14>
| 15> %MaxCore 64000
| 16>
| 17> %pal nprocs 4
| 18> end
| 19>
| 20> %scf
| 21>   MaxIter 150
| 22> end
| 23>
| 24>
| 25>                          ****END OF INPUT****

CARTESIAN COORDINATES (ANGSTROEM)
---------------------------------
  C     -0.870960    0.248040   -2.662800
  C     -0.477490    0.608190   -4.101050
  H      0.206770    1.458300   -4.118750
  H     -1.368440    0.929420   -4.647850
  C      0.184670   -0.506640   -4.916760
  O     -0.158690   -1.701090   -4.657980
  F      1.055940   -0.174410   -5.740370
  H     -1.540560   -0.586460   -2.674550
  H     -1.353390    1.086000   -2.204550
  H      0.006600   -0.006620   -2.106090

 Total Charge           Charge          ....    0
 Multiplicity           Mult            ....    1
 Number of Electrons    NEL             ....   40
 Basis Dimension        Dim             ....   95

ORBITAL ENERGIES
----------------

  NO   OCC          E(Eh)            E(eV)
   0   2.0000     -24.844782      -676.0609
   1   2.0000     -19.209690      -522.7222
   2   2.0000     -10.404412      -283.1184
   3   2.0000     -10.262348      -279.2527
   4   2.0000     -10.233392      -278.4647
   5   2.0000      -1.338765       -36.4297
   6   2.0000      -1.036054       -28.1925
   7   2.0000      -0.812343       -22.1050
   8   2.0000      -0.705819       -19.2063
   9   2.0000      -0.652182       -17.7468
  10   2.0000      -0.565874       -15.3982
  11   2.0000      -0.551162       -14.9979
  12   2.0000      -0.516348       -14.0505
  13   2.0000      -0.477066       -12.9816
  14   2.0000      -0.440903       -11.9976
  15   2.0000      -0.406336       -11.0570
  16   2.0000      -0.385128       -10.4799
  17   2.0000      -0.383390       -10.4326
  18   2.0000      -0.352688        -9.5971
  19   2.0000      -0.297137        -8.0855
  20   0.0000      -0.016308        -0.4438
  21   0.0000       0.068700         1.8694
  22   0.0000       0.114166         3.1066
  23   0.0000       0.122903         3.3444
  24   0.0000       0.137923         3.7531

MULLIKEN ATOMIC CHARGES
-----------------------
   0 C :   -0.036447
   1 C :   -0.176299
   2 H :    0.054178
   3 H :    0.082441
   4 C :    0.285987
   5 O :   -0.291557
   6 F :   -0.071176
   7 H :    0.063499
   8 H :    0.041056
   9 H :    0.048319
Sum of atomic charges:    0.0000000

LOEWDIN ATOMIC CHARGES
----------------------
   0 C :   -0.047869
   1 C :   -0.086184
   2 H :    0.034473
   3 H :    0.054486
   4 C :    0.106419
   5 O :   -0.214735
   6 F :    0.056355
   7 H :    0.035393
   8 H :    0.030578
   9 H :    0.031084

  Mayer bond orders larger than 0.100000
B(  0-C ,  1-C ) :   1.0875 B(  0-C ,  7-H ) :   0.9674 B(  0-C ,  8-H ) :   0.9659
B(  0-C ,  9-H ) :   0.9793 B(  1-C ,  2-H ) :   0.9408 B(  1-C ,  3-H ) :   0.9240
B(  1-C ,  4-C ) :   0.9948 B(  4-C ,  5-O ) :   2.0419 B(  4-C ,  6-F ) :   1.1985

Dispersion correction           -0.005147260
FINAL SINGLE POINT ENERGY      -291.859938752707

DIPOLE MOMENT
-------------
                                X             Y             Z
Electronic contribution:      4.65790      -2.89859      -7.16596
Nuclear contribution   :     -4.75269       4.00281       7.35060
                        -----------------------------------------
Total Dipole Moment    :     -0.09480       1.10422       0.18464
                        -----------------------------------------
Magnitude (a.u.)       :      1.12356
Magnitude (Debye)      :      2.85586

Rotational constants in cm-1:     0.323805     0.124913     0.096140
Rotational constants in MHz :  9707.430323  3744.789513  2882.191141

                             ****ORCA TERMINATED NORMALLY****
TOTAL RUN TIME: 0 days 0 hours 0 minutes 10 seconds 243 msec
