                         Program Version 5.0.0 -  RELEASE  -
|  1> !PBE0 D3BJ RIJCOSX def2-SVP def2/J TightSCF
|  2> *xyz 0 1
|  3> C          2.48645       -2.67712       -2.56345
|  4> C          3.03764       -2.36672       -3.92351
|  5> N          2.28036       -2.45441       -4.96769
|  6> C          4.32174       -2.01793       -4.01664
|  7> H          4.87994       -1.91167       -3.17382
|  8> H          4.71015       -1.67088       -4.88356
|  9> H          1.27042       -2.41265       -4.86614
| 10> H          2.58183       -2.05528       -5.84688
| 11> C          2.49799       -1.46946       -1.61030
| 12> H          1.47259       -3.05153       -2.69437
| 13> H          3.08320       -3.49064       -2.14147
| 14> H          1.91240       -0.67831       -2.02991
| 15> H          3.50450       -1.13364       -1.47227
| 16> H          2.08509       -1.75655       -0.66585
| 17> *
| 18>
| 19> %MaxCore 64000
| 20>
| 21> %pal nprocs 4
| 22> end
| 23>
| 24> %scf
| 25>   MaxIter 150
| 26> end
| 27>
| 28>
| 29>                          ****END OF INPUT****

CARTESIAN COORDINATES (ANGSTROEM)
---------------------------------
  C      2.486450   -2.677120   -2.563450
  C      3.037640   -2.366720   -3.923510
  N      2.280360   -2.454410   -4.967690
  C      4.321740   -2.017930   -4.016640
  H      4.879940   -1.911670   -3.173820
  H      4.710150   -1.670880   -4.883560
  H      1.270420   -2.412650   -4.866140
  H      2.581830   -2.055280   -5.846880
  C      2.497990   -1.469460   -1.610300
  H      1.472590   -3.051530   -2.694370
  H      3.083200   -3.490640   -2.141470
  H      1.912400   -0.678310   -2.029910
  H      3.504500   -1.133640   -1.472270
  H      2.085090   -1.756550   -0.665850

 Total Charge           Charge          ....    0
 Multiplicity           Mult            ....    1
 Number of Electrons    NEL             ....   40
 Basis Dimension        Dim             ....  115

ORBITAL ENERGIES
----------------

  NO   OCC          E(Eh)            E(eV)
   0   2.0000     -14.392695      -391.6451
   1   2.0000     -10.246850      -278.8310
   2   2.0000     -10.229319      -278.3539
   3   2.0000     -10.216204      -277.9970
   4   2.0000     -10.158522      -276.4274
   5   2.0000      -0.952164       -25.9097
   6   2.0000      -0.793650       -21.5963
   7   2.0000      -0.719651       -19.5827
   8   2.0000      -0.651551       -17.7296
   9   2.0000      -0.580879       -15.8065
  10   2.0000      -0.531202       -14.4548
  11   2.0000      -0.491527       -13.3751
  12   2.0000      -0.455548       -12.3961
  13   2.0000      -0.417987       -11.3740
  14   2.0000      -0.403827       -10.9887
  15   2.0000      -0.386912       -10.5284
  16   2.0000      -0.361708        -9.8426
  17   2.0000      -0.345270        -9.3953
  18   2.0000      -0.341983        -9.3058
  19   2.0000      -0.190388        -5.1807
  20   0.0000       0.060403         1.6437
  21   0.0000       0.061681         1.6784
  22   0.0000       0.106363         2.8943
  23   0.0000       0.111047         3.0217
  24   0.0000       0.133966         3.6454

MULLIKEN ATOMIC CHARGES
-----------------------
   0 C :   -0.020878
   1 C :   -0.158188
   2 N :   -0.084611
   3 C :   -0.068477
   4 H :   -0.016403
   5 H :   -0.029049
   6 H :    0.116990
   7 H :    0.120267
   8 C :   -0.033563
   9 H :    0.009287
  10 H :    0.058169
  11 H :    0.031256
  12 H :    0.042811
  13 H :    0.032388
Sum of atomic charges:   -0.0000000

LOEWDIN ATOMIC CHARGES
----------------------
   0 C :   -0.038030
   1 C :   -0.009658
   2 N :    0.005354
   3 C :   -0.186628
   4 H :    0.000628
   5 H :   -0.006163
   6 H :    0.071403
   7 H :    0.078121
   8 C :   -0.050488
   9 H :    0.018610
  10 H :    0.042429
  11 H :    0.024200
  12 H :    0.026954
  13 H :    0.023268

  Mayer bond orders larger than 0.100000
B(  0-C ,  1-C ) :   0.9985 B(  0-C ,  8-C ) :   1.0903 B(  0-C ,  9-H ) :   0.9417
B(  0-C , 10-H ) :   0.9398 B(  1-C ,  2-N ) :   1.2819 B(  1-C ,  3-C ) :   1.8380
B(  2-N ,  6-H ) :   0.9480 B(  2-N ,  7-H ) :   0.9502 B(  3-C ,  4-H ) :   0.9518
B(  3-C ,  5-H ) :   0.9565 B(  8-C , 11-H ) :   0.9716 B(  8-C , 12-H ) :   0.9739
B(  8-C , 13-H ) :   0.9680

Dispersion correction           -0.008866055
FINAL SINGLE POINT ENERGY      -212.151927137134

DIPOLE MOMENT
-------------
                                X             Y             Z
Electronic contribution:     -0.30461      -1.20444      -3.01343
Nuclear contribution   :     -0.52463       1.37972       2.79217
                        -----------------------------------------
Total Dipole Moment    :     -0.82925       0.17528      -0.22125
                        -----------------------------------------
Magnitude (a.u.)       :      0.87597
Magnitude (Debye)      :      2.22654

Rotational constants in cm-1:     0.281086     0.127387     0.100311
Rotational constants in MHz :  8426.743103  3818.969834  3007.238026

                             ****ORCA TERMINATED NORMALLY****
TOTAL RUN TIME: 0 days 0 hours 0 minutes 12 seconds 654 msec
