                         Program Version 5.0.0 -  RELEASE  -
|  1> !PBE0 D3BJ RIJCOSX def2-TZVP def2/J TightSCF xyzfile
|  2>
|  3> *xyzfile 0 1 D2.xyz
|  4>
|  5> %MaxCore 64000
|  6>
|  7> %pal nprocs 18
|  8> end
|  9>
| 10> %scf
| 11>   MaxIter 150
| 12> end
| 13>
| 14>
| 15>                          ****END OF INPUT****

CARTESIAN COORDINATES (ANGSTROEM)
---------------------------------
  C      2.486452   -2.677121   -2.563447
  C     -0.870963    0.248043   -2.662804
  C     -0.477492    0.608191   -4.101052
  H      0.206773    1.458299   -4.118748
  H     -1.368442    0.929419   -4.647855
  C      0.184673   -0.506640   -4.916760
  C      3.037640   -2.366715   -3.923509
  N      2.280360   -2.454408   -4.967692
  C      4.321736   -2.017932   -4.016641
  H      4.879940   -1.911668   -3.173823
  H      4.710148   -1.670882   -4.883561
  H      1.270423   -2.412650   -4.866143
  H      2.581829   -2.055282   -5.846878
  F     -0.158685   -1.701088   -4.657981
  O      1.055938   -0.174410   -5.740373
  C      2.497991   -1.469464   -1.610303
  C      1.582841   -0.321986   -2.042619
  H      2.193083   -1.833912   -0.625420
  H      3.523356   -1.103982   -1.490392
  C      0.100160   -0.673551   -1.915815
  H      1.822311   -0.040361   -3.072834
  H      1.813180    0.557019   -1.433266
  H     -0.063284   -1.679120   -2.301112
  H     -0.168820   -0.691680   -0.853831
  H     -1.001048    1.181040   -2.104071
  H     -1.844645   -0.246592   -2.663281
  H      1.472592   -3.051527   -2.694366
  H      3.083201   -3.490638   -2.141472

 Total Charge           Charge          ....    0
 Multiplicity           Mult            ....    1
 Number of Electrons    NEL             ....   94
 Basis Dimension        Dim             ....  468

ORBITAL ENERGIES
----------------

  NO   OCC          E(Eh)            E(eV)
   0   2.0000     -24.866228      -676.6445
   1   2.0000     -19.228370      -523.2305
   2   2.0000     -14.359567      -390.7437
   3   2.0000     -10.414937      -283.4048
   4   2.0000     -10.261291      -279.2239
   5   2.0000     -10.242487      -278.7122
   6   2.0000     -10.228712      -278.3374
   7   2.0000     -10.228157      -278.3223
   8   2.0000     -10.220805      -278.1222
   9   2.0000     -10.217782      -278.0400
  10   2.0000     -10.214984      -277.9638
  11   2.0000     -10.136225      -275.8207
  12   2.0000      -1.376748       -37.4632
  13   2.0000      -1.086965       -29.5778
  14   2.0000      -0.949780       -25.8448
  15   2.0000      -0.858424       -23.3589
  16   2.0000      -0.817914       -22.2566
  17   2.0000      -0.776087       -21.1184
  18   2.0000      -0.730472       -19.8772
  19   2.0000      -0.710932       -19.3455
  20   2.0000      -0.686927       -18.6922
  21   2.0000      -0.644870       -17.5478
  22   2.0000      -0.609870       -16.5954
  23   2.0000      -0.602412       -16.3925
  24   2.0000      -0.584397       -15.9022
  25   2.0000      -0.556489       -15.1428
  26   2.0000      -0.528316       -14.3762
  27   2.0000      -0.512324       -13.9411
  28   2.0000      -0.496772       -13.5179
  29   2.0000      -0.491073       -13.3628
  30   2.0000      -0.485431       -13.2093
  31   2.0000      -0.458411       -12.4740
  32   2.0000      -0.441916       -12.0251
  33   2.0000      -0.433752       -11.8030
  34   2.0000      -0.421935       -11.4814
  35   2.0000      -0.405318       -11.0293
  36   2.0000      -0.399086       -10.8597
  37   2.0000      -0.389283       -10.5929
  38   2.0000      -0.378773       -10.3069
  39   2.0000      -0.368735       -10.0338
  40   2.0000      -0.357014        -9.7148
  41   2.0000      -0.350222        -9.5300
  42   2.0000      -0.335786        -9.1372
  43   2.0000      -0.334410        -9.0998
  44   2.0000      -0.325732        -8.8636
  45   2.0000      -0.314477        -8.5574
  46   2.0000      -0.182101        -4.9552
  47   0.0000      -0.038951        -1.0599
  48   0.0000       0.027008         0.7349
  49   0.0000       0.048629         1.3233
  50   0.0000       0.059876         1.6293
  51   0.0000       0.066217         1.8019

MULLIKEN ATOMIC CHARGES
-----------------------
   0 C :   -0.244595
   1 C :   -0.190941
   2 C :   -0.235992
   3 H :    0.159032
   4 H :    0.145976
   5 C :    0.314985
   6 C :    0.137806
   7 N :   -0.392909
   8 C :   -0.435312
   9 H :    0.096361
  10 H :    0.092847
  11 H :    0.220090
  12 H :    0.237951
  13 F :   -0.120879
  14 O :   -0.310001
  15 C :   -0.146172
  16 C :   -0.240056
  17 H :    0.088233
  18 H :    0.117201
  19 C :   -0.242355
  20 H :    0.153407
  21 H :    0.100504
  22 H :    0.110920
  23 H :    0.115227
  24 H :    0.115107
  25 H :    0.117252
  26 H :    0.104902
  27 H :    0.131412
Sum of atomic charges:    0.0000000

LOEWDIN ATOMIC CHARGES
----------------------
   0 C :   -0.217259
   1 C :   -0.268069
   2 C :   -0.236653
   3 H :    0.162280
   4 H :    0.159390
   5 C :   -0.504349
   6 C :   -0.391663
   7 N :    0.033358
   8 C :   -0.289903
   9 H :    0.102661
  10 H :    0.096061
  11 H :    0.146110
  12 H :    0.173502
  13 F :    0.318618
  14 O :    0.095638
  15 C :   -0.254940
  16 C :   -0.263848
  17 H :    0.136420
  18 H :    0.141611
  19 C :   -0.274719
  20 H :    0.148450
  21 H :    0.138076
  22 H :    0.135052
  23 H :    0.140987
  24 H :    0.143633
  25 H :    0.141368
  26 H :    0.133723
  27 H :    0.154465

  Mayer bond orders larger than 0.100000
B(  0-C ,  6-C ) :   0.9423 B(  0-C , 15-C ) :   0.9868 B(  0-C , 26-H ) :   0.9898
B(  0-C , 27-H ) :   0.9560 B(  1-C ,  2-C ) :   0.9827 B(  1-C , 19-C ) :   0.9904
B(  1-C , 24-H ) :   0.9532 B(  1-C , 25-H ) :   0.9643 B(  2-C ,  3-H ) :   0.9520
B(  2-C ,  4-H ) :   0.9282 B(  2-C ,  5-C ) :   1.0225 B(  5-C , 13-F ) :   1.0864
B(  5-C , 14-O ) :   2.0604 B(  6-C ,  7-N ) :   1.2576 B(  6-C ,  8-C ) :   1.7560
B(  7-N , 11-H ) :   0.9093 B(  7-N , 12-H ) :   0.9140 B(  8-C ,  9-H ) :   0.9834
B(  8-C , 10-H ) :   0.9792 B( 15-C , 16-C ) :   1.0010 B( 15-C , 17-H ) :   0.9492
B( 15-C , 18-H ) :   0.9516 B( 16-C , 19-C ) :   0.9780 B( 16-C , 20-H ) :   0.9519
B( 16-C , 21-H ) :   0.9475 B( 19-C , 22-H ) :   0.9771 B( 19-C , 23-H ) :   0.9520

Dispersion correction           -0.027109474
FINAL SINGLE POINT ENERGY      -581.942765676949

DIPOLE MOMENT
-------------
                                X             Y             Z
Electronic contribution:     -5.33997      -1.79879     -10.90179
Nuclear contribution   :      3.65024       2.44123      11.52670
                        -----------------------------------------
Total Dipole Moment    :     -1.68973       0.64245       0.62492
                        -----------------------------------------
Magnitude (a.u.)       :      1.91271
Magnitude (Debye)      :      4.86172

Rotational constants in cm-1:     0.040600     0.026409     0.019262
Rotational constants in MHz :  1217.142957   791.712481   577.449390

                             ****ORCA TERMINATED NORMALLY****
TOTAL RUN TIME: 0 days 0 hours 0 minutes 53 seconds 153 msec
