                         Program Version 5.0.0 -  RELEASE  -
|  1> !PBE0 D3BJ RIJCOSX def2-TZVP def2/J TightSCF xyzfile
|  2>
|  3> *xyzfile 0 1 D4.xyz
|  4>
|  5> %MaxCore 64000
|  6>
|  7> %pal nprocs 18
|  8> end
|  9>
| 10> %scf
| 11>   MaxIter 150
| 12> end
| 13>
| 14>
| 15>                          ****END OF INPUT****

CARTESIAN COORDINATES (ANGSTROEM)
---------------------------------
  C      2.486452   -2.677121   -2.563447
  C     -0.870963    0.248043   -2.662804
  C     -0.477492    0.608191   -4.101052
  H      0.206773    1.458299   -4.118748
  H     -1.368442    0.929419   -4.647855
  C      0.184673   -0.506640   -4.916760
  C      3.037640   -2.366715   -3.923509
  N      2.280360   -2.454408   -4.967692
  C      4.321736   -2.017932   -4.016641
  H      4.879940   -1.911668   -3.173823
  H      4.710148   -1.670882   -4.883561
  H      1.270423   -2.412650   -4.866143
  H      2.581829   -2.055282   -5.846878
  O     -0.158685   -1.701088   -4.657981
  F      1.055938   -0.174410   -5.740373
  C      2.497991   -1.469464   -1.610303
  C      1.582841   -0.321986   -2.042619
  H      2.193083   -1.833912   -0.625420
  H      3.523356   -1.103982   -1.490392
  C      0.100160   -0.673551   -1.915815
  H      1.822311   -0.040361   -3.072834
  H      1.813180    0.557019   -1.433266
  H     -0.063284   -1.679120   -2.301112
  H     -0.168820   -0.691680   -0.853831
  H     -1.001048    1.181040   -2.104071
  H     -1.844645   -0.246592   -2.663281
  H      1.472592   -3.051527   -2.694366
  H      3.083201   -3.490638   -2.141472

 Total Charge           Charge          ....    0
 Multiplicity           Mult            ....    1
 Number of Electrons    NEL             ....   94
 Basis Dimension        Dim             ....  468

ORBITAL ENERGIES
----------------

  NO   OCC          E(Eh)            E(eV)
   0   2.0000     -24.866803      -676.6601
   1   2.0000     -19.234717      -523.4032
   2   2.0000     -14.350591      -390.4994
   3   2.0000     -10.424781      -283.6727
   4   2.0000     -10.265514      -279.3388
   5   2.0000     -10.240701      -278.6636
   6   2.0000     -10.225638      -278.2538
   7   2.0000     -10.219896      -278.0975
   8   2.0000     -10.219326      -278.0820
   9   2.0000     -10.214435      -277.9489
  10   2.0000     -10.209072      -277.8030
  11   2.0000     -10.133855      -275.7562
  12   2.0000      -1.382593       -37.6223
  13   2.0000      -1.087996       -29.6059
  14   2.0000      -0.943872       -25.6841
  15   2.0000      -0.854426       -23.2501
  16   2.0000      -0.815715       -22.1967
  17   2.0000      -0.774315       -21.0702
  18   2.0000      -0.732839       -19.9416
  19   2.0000      -0.705821       -19.2064
  20   2.0000      -0.684143       -18.6165
  21   2.0000      -0.640642       -17.4327
  22   2.0000      -0.602192       -16.3865
  23   2.0000      -0.594171       -16.1682
  24   2.0000      -0.575145       -15.6505
  25   2.0000      -0.565976       -15.4010
  26   2.0000      -0.544612       -14.8196
  27   2.0000      -0.512326       -13.9411
  28   2.0000      -0.496427       -13.5085
  29   2.0000      -0.491213       -13.3666
  30   2.0000      -0.485199       -13.2029
  31   2.0000      -0.457792       -12.4571
  32   2.0000      -0.438917       -11.9435
  33   2.0000      -0.425957       -11.5909
  34   2.0000      -0.418971       -11.4008
  35   2.0000      -0.406482       -11.0609
  36   2.0000      -0.393373       -10.7042
  37   2.0000      -0.385220       -10.4824
  38   2.0000      -0.372859       -10.1460
  39   2.0000      -0.371621       -10.1123
  40   2.0000      -0.351802        -9.5730
  41   2.0000      -0.347001        -9.4424
  42   2.0000      -0.333632        -9.0786
  43   2.0000      -0.331858        -9.0303
  44   2.0000      -0.325374        -8.8539
  45   2.0000      -0.310543        -8.4503
  46   2.0000      -0.179519        -4.8850
  47   0.0000      -0.047984        -1.3057
  48   0.0000       0.031184         0.8486
  49   0.0000       0.050899         1.3850
  50   0.0000       0.061453         1.6722
  51   0.0000       0.064281         1.7492

MULLIKEN ATOMIC CHARGES
-----------------------
   0 C :   -0.235608
   1 C :   -0.169308
   2 C :   -0.254759
   3 H :    0.145600
   4 H :    0.149309
   5 C :    0.359654
   6 C :    0.120023
   7 N :   -0.411420
   8 C :   -0.431489
   9 H :    0.095949
  10 H :    0.083524
  11 H :    0.252435
  12 H :    0.212892
  13 O :   -0.368637
  14 F :   -0.081088
  15 C :   -0.147983
  16 C :   -0.224706
  17 H :    0.088991
  18 H :    0.113975
  19 C :   -0.233926
  20 H :    0.118024
  21 H :    0.098295
  22 H :    0.132162
  23 H :    0.110796
  24 H :    0.113768
  25 H :    0.115480
  26 H :    0.119514
  27 H :    0.128534
Sum of atomic charges:    0.0000000

LOEWDIN ATOMIC CHARGES
----------------------
   0 C :   -0.214721
   1 C :   -0.256881
   2 C :   -0.239407
   3 H :    0.151668
   4 H :    0.161841
   5 C :   -0.491432
   6 C :   -0.392131
   7 N :    0.027929
   8 C :   -0.298910
   9 H :    0.102078
  10 H :    0.093500
  11 H :    0.141960
  12 H :    0.164028
  13 O :    0.062570
  14 F :    0.358092
  15 C :   -0.254615
  16 C :   -0.262996
  17 H :    0.137083
  18 H :    0.140175
  19 C :   -0.271409
  20 H :    0.141286
  21 H :    0.136770
  22 H :    0.142748
  23 H :    0.139618
  24 H :    0.143125
  25 H :    0.145275
  26 H :    0.139338
  27 H :    0.153421

  Mayer bond orders larger than 0.100000
B(  0-C ,  6-C ) :   0.9390 B(  0-C , 15-C ) :   0.9860 B(  0-C , 26-H ) :   0.9875
B(  0-C , 27-H ) :   0.9564 B(  1-C ,  2-C ) :   1.0005 B(  1-C , 19-C ) :   1.0028
B(  1-C , 24-H ) :   0.9566 B(  1-C , 25-H ) :   0.9544 B(  2-C ,  3-H ) :   0.9474
B(  2-C ,  4-H ) :   0.9188 B(  2-C ,  5-C ) :   1.0285 B(  5-C , 13-O ) :   1.9167
B(  5-C , 14-F ) :   1.1795 B(  6-C ,  7-N ) :   1.2652 B(  6-C ,  8-C ) :   1.7546
B(  7-N , 11-H ) :   0.8528 B(  7-N , 12-H ) :   0.9224 B(  8-C ,  9-H ) :   0.9836
B(  8-C , 10-H ) :   0.9788 B( 11-H , 13-O ) :   0.1156 B( 15-C , 16-C ) :   1.0089
B( 15-C , 17-H ) :   0.9492 B( 15-C , 18-H ) :   0.9525 B( 16-C , 19-C ) :   0.9887
B( 16-C , 20-H ) :   0.9500 B( 16-C , 21-H ) :   0.9488 B( 19-C , 22-H ) :   0.9680
B( 19-C , 23-H ) :   0.9509

Dispersion correction           -0.027227985
FINAL SINGLE POINT ENERGY      -581.945027581664

DIPOLE MOMENT
-------------
                                X             Y             Z
Electronic contribution:     -3.44648       0.78785     -12.75909
Nuclear contribution   :      2.21030       0.63135      12.80988
                        -----------------------------------------
Total Dipole Moment    :     -1.23618       1.41920       0.05079
                        -----------------------------------------
Magnitude (a.u.)       :      1.88278
Magnitude (Debye)      :      4.78563

Rotational constants in cm-1:     0.039980     0.026547     0.019089
Rotational constants in MHz :  1198.568620   795.867393   572.288555

                             ****ORCA TERMINATED NORMALLY****
TOTAL RUN TIME: 0 days 0 hours 0 minutes 49 seconds 819 msec
