                         Program Version 5.0.0 -  RELEASE  -
|  1> !wB97X-D3 RIJCOSX def2-TZVP def2/J TightSCF
|  2> *xyz -1 1
|  3> C         -1.36353       -1.98134       -2.29361
|  4> O         -0.35039       -2.74969       -1.79601
|  5> H         -2.22523       -2.59288       -2.46214
|  6> H         -1.05452       -1.53818       -3.21720
|  7> H         -1.60477       -1.21086       -1.59143
|  8> *
|  9>
| 10> %MaxCore 64000
| 11> %pal nprocs 18
| 12> end
| 13>
| 14> %scf
| 15>   MaxIter 150
| 16> end
| 17>
| 18>
| 19>                          ****END OF INPUT****

CARTESIAN COORDINATES (ANGSTROEM)
---------------------------------
  C     -1.363530   -1.981340   -2.293610
  O     -0.350390   -2.749690   -1.796010
  H     -2.225230   -2.592880   -2.462140
  H     -1.054520   -1.538180   -3.217200
  H     -1.604770   -1.210860   -1.591430

 Total Charge           Charge          ....   -1
 Multiplicity           Mult            ....    1
 Number of Electrons    NEL             ....   18
 Basis Dimension        Dim             ....   80

ORBITAL ENERGIES
----------------

  NO   OCC          E(Eh)            E(eV)
   0   2.0000     -18.839025      -512.6359
   1   2.0000     -10.042889      -273.2809
   2   2.0000      -0.752122       -20.4663
   3   2.0000      -0.494680       -13.4609
   4   2.0000      -0.282849        -7.6967
   5   2.0000      -0.282828        -7.6961
   6   2.0000      -0.174408        -4.7459
   7   2.0000      -0.019300        -0.5252
   8   2.0000      -0.019292        -0.5250
   9   0.0000       0.330345         8.9891
  10   0.0000       0.403453        10.9785
  11   0.0000       0.403458        10.9786
  12   0.0000       0.408760        11.1229
  13   0.0000       0.513959        13.9855

MULLIKEN ATOMIC CHARGES
-----------------------
   0 C :   -0.006637
   1 O :   -0.870872
   2 H :   -0.040857
   3 H :   -0.040824
   4 H :   -0.040811
Sum of atomic charges:   -1.0000000

LOEWDIN ATOMIC CHARGES
----------------------
   0 C :   -0.571450
   1 O :   -0.523988
   2 H :    0.031811
   3 H :    0.031813
   4 H :    0.031814

  Mayer bond orders larger than 0.100000
B(  0-C ,  1-O ) :   1.4617 B(  0-C ,  2-H ) :   0.9547 B(  0-C ,  3-H ) :   0.9547
B(  0-C ,  4-H ) :   0.9547

Dispersion correction           -0.000089283
FINAL SINGLE POINT ENERGY      -115.095432335926

DIPOLE MOMENT
-------------
                                X             Y             Z
Electronic contribution:      1.46797      -1.11320       0.72102
Nuclear contribution   :     -2.13467       1.61890      -1.04844
                        -----------------------------------------
Total Dipole Moment    :     -0.66671       0.50570      -0.32742
                        -----------------------------------------
Magnitude (a.u.)       :      0.89857
Magnitude (Debye)      :      2.28399

Rotational constants in cm-1:     5.477725     0.944113     0.944112
Rotational constants in MHz : 164218.064700 28303.798445 28303.757130

                             ****ORCA TERMINATED NORMALLY****
TOTAL RUN TIME: 0 days 0 hours 0 minutes 4 seconds 327 msec
