                         Program Version 5.0.0 -  RELEASE  -
|  1> !wB97X-D3 RIJCOSX def2-TZVP def2/J TightSCF
|  2> *xyz 1 1
|  3> C          2.20996       -2.81239       -3.66571
|  4> C          2.48901       -1.66851       -2.73754
|  5> N          3.59631       -0.94761       -2.95225
|  6> N          1.66394       -1.41369       -1.77781
|  7> H          0.81164       -1.96318       -1.70275
|  8> H          1.84550       -0.63508       -1.15875
|  9> H          4.20535       -1.17600       -3.73383
| 10> H          3.81723       -0.12585       -2.40604
| 11> H          2.99011       -2.87840       -4.39503
| 12> H          1.27381       -2.65174       -4.15838
| 13> H          2.16680       -3.72339       -3.10614
| 14> *
| 15>
| 16> %MaxCore 64000
| 17> %pal nprocs 18
| 18> end
| 19>
| 20> %scf
| 21>   MaxIter 150
| 22> end
| 23>
| 24>
| 25>                          ****END OF INPUT****

CARTESIAN COORDINATES (ANGSTROEM)
---------------------------------
  C      2.209960   -2.812390   -3.665710
  C      2.489010   -1.668510   -2.737540
  N      3.596310   -0.947610   -2.952250
  N      1.663940   -1.413690   -1.777810
  H      0.811640   -1.963180   -1.702750
  H      1.845500   -0.635080   -1.158750
  H      4.205350   -1.176000   -3.733830
  H      3.817230   -0.125850   -2.406040
  H      2.990110   -2.878400   -4.395030
  H      1.273810   -2.651740   -4.158380
  H      2.166800   -3.723390   -3.106140

 Total Charge           Charge          ....    1
 Multiplicity           Mult            ....    1
 Number of Electrons    NEL             ....   32
 Basis Dimension        Dim             ....  166

ORBITAL ENERGIES
----------------

  NO   OCC          E(Eh)            E(eV)
   0   2.0000     -14.675996      -399.3541
   1   2.0000     -14.670011      -399.1913
   2   2.0000     -10.610009      -288.7130
   3   2.0000     -10.471573      -284.9460
   4   2.0000      -1.329213       -36.1697
   5   2.0000      -1.230903       -33.4946
   6   2.0000      -1.070209       -29.1219
   7   2.0000      -0.951125       -25.8814
   8   2.0000      -0.886205       -24.1149
   9   2.0000      -0.873599       -23.7719
  10   2.0000      -0.808027       -21.9875
  11   2.0000      -0.765477       -20.8297
  12   2.0000      -0.712373       -19.3847
  13   2.0000      -0.699790       -19.0422
  14   2.0000      -0.674887       -18.3646
  15   2.0000      -0.592536       -16.1237
  16   0.0000      -0.127727        -3.4756
  17   0.0000      -0.078996        -2.1496
  18   0.0000      -0.031693        -0.8624
  19   0.0000      -0.027341        -0.7440
  20   0.0000      -0.004046        -0.1101

MULLIKEN ATOMIC CHARGES
-----------------------
   0 C :   -0.345976
   1 C :    0.340400
   2 N :   -0.407720
   3 N :   -0.358976
   4 H :    0.323954
   5 H :    0.300453
   6 H :    0.316416
   7 H :    0.298526
   8 H :    0.144908
   9 H :    0.193293
  10 H :    0.194725
Sum of atomic charges:    1.0000000

LOEWDIN ATOMIC CHARGES
----------------------
   0 C :   -0.201096
   1 C :   -0.302417
   2 N :    0.091210
   3 N :    0.126166
   4 H :    0.219496
   5 H :    0.206487
   6 H :    0.209766
   7 H :    0.197290
   8 H :    0.143777
   9 H :    0.154561
  10 H :    0.154760

  Mayer bond orders larger than 0.100000
B(  0-C ,  1-C ) :   0.9822 B(  0-C ,  8-H ) :   0.9711 B(  0-C ,  9-H ) :   0.9380
B(  0-C , 10-H ) :   0.9405 B(  1-C ,  2-N ) :   1.4391 B(  1-C ,  3-N ) :   1.4895
B(  2-N ,  6-H ) :   0.8793 B(  2-N ,  7-H ) :   0.8874 B(  3-N ,  4-H ) :   0.8768
B(  3-N ,  5-H ) :   0.8830

Dispersion correction           -0.001668903
FINAL SINGLE POINT ENERGY      -189.737602505471

DIPOLE MOMENT
-------------
                                X             Y             Z
Electronic contribution:      0.31109       1.61874       1.44340
Nuclear contribution   :     -0.32363      -1.20411      -1.15396
                        -----------------------------------------
Total Dipole Moment    :     -0.01254       0.41463       0.28944
                        -----------------------------------------
Magnitude (a.u.)       :      0.50582
Magnitude (Debye)      :      1.28568

Rotational constants in cm-1:     0.327805     0.304052     0.162439
Rotational constants in MHz :  9827.347355  9115.244333  4869.808750

                             ****ORCA TERMINATED NORMALLY****
TOTAL RUN TIME: 0 days 0 hours 0 minutes 9 seconds 420 msec
