                         Program Version 5.0.0 -  RELEASE  -
|  1> !wB97X-D3 RIJCOSX def2-TZVP def2/J TightSCF
|  2> *xyz 0 1
|  3> C         -1.36353       -1.98134       -2.29361
|  4> F         -0.35039       -2.74969       -1.79601
|  5> H         -2.22523       -2.59288       -2.46214
|  6> H         -1.05452       -1.53818       -3.21720
|  7> H         -1.60477       -1.21086       -1.59143
|  8> *
|  9>
| 10> %MaxCore 64000
| 11> %pal nprocs 18
| 12> end
| 13>
| 14> %scf
| 15>   MaxIter 150
| 16> end
| 17>
| 18>
| 19>                          ****END OF INPUT****

CARTESIAN COORDINATES (ANGSTROEM)
---------------------------------
  C     -1.363530   -1.981340   -2.293610
  F     -0.350390   -2.749690   -1.796010
  H     -2.225230   -2.592880   -2.462140
  H     -1.054520   -1.538180   -3.217200
  H     -1.604770   -1.210860   -1.591430

 Total Charge           Charge          ....    0
 Multiplicity           Mult            ....    1
 Number of Electrons    NEL             ....   18
 Basis Dimension        Dim             ....   80

ORBITAL ENERGIES
----------------

  NO   OCC          E(Eh)            E(eV)
   0   2.0000     -24.763646      -673.8531
   1   2.0000     -10.337939      -281.3096
   2   2.0000      -1.310595       -35.6631
   3   2.0000      -0.819442       -22.2982
   4   2.0000      -0.594192       -16.1688
   5   2.0000      -0.591170       -16.0865
   6   2.0000      -0.591160       -16.0863
   7   2.0000      -0.445264       -12.1162
   8   2.0000      -0.445249       -12.1159
   9   0.0000       0.139361         3.7922
  10   0.0000       0.165343         4.4992
  11   0.0000       0.204228         5.5573
  12   0.0000       0.204233         5.5575
  13   0.0000       0.294986         8.0270

MULLIKEN ATOMIC CHARGES
-----------------------
   0 C :   -0.068278
   1 F :   -0.247489
   2 H :    0.105232
   3 H :    0.105272
   4 H :    0.105263
Sum of atomic charges:   -0.0000000

LOEWDIN ATOMIC CHARGES
----------------------
   0 C :   -0.349048
   1 F :    0.065960
   2 H :    0.094359
   3 H :    0.094369
   4 H :    0.094360

  Mayer bond orders larger than 0.100000
B(  0-C ,  1-F ) :   0.9802 B(  0-C ,  2-H ) :   0.9790 B(  0-C ,  3-H ) :   0.9790
B(  0-C ,  4-H ) :   0.9791

Dispersion correction           -0.000128134
FINAL SINGLE POINT ENERGY      -139.764695731370

DIPOLE MOMENT
-------------
                                X             Y             Z
Electronic contribution:      2.18140      -1.65432       1.07146
Nuclear contribution   :     -2.70693       2.05289      -1.32950
                        -----------------------------------------
Total Dipole Moment    :     -0.52553       0.39857      -0.25804
                        -----------------------------------------
Magnitude (a.u.)       :      0.70826
Magnitude (Debye)      :      1.80024

Rotational constants in cm-1:     5.477725     0.878859     0.878857
Rotational constants in MHz : 164218.064700 26347.517988 26347.482187

                             ****ORCA TERMINATED NORMALLY****
TOTAL RUN TIME: 0 days 0 hours 0 minutes 3 seconds 981 msec
