                         Program Version 5.0.0 -  RELEASE  -
|  1> !wB97X-D3 RIJCOSX def2-TZVP def2/J TightSCF
|  2> *xyz 0 1
|  3> C          2.20996       -2.81239       -3.66571
|  4> C          2.48901       -1.66851       -2.73754
|  5> C          3.59631       -0.94761       -2.95225
|  6> N          1.66394       -1.41369       -1.77781
|  7> H          0.81164       -1.96318       -1.70275
|  8> H          1.84550       -0.63508       -1.15875
|  9> H          4.20535       -1.17600       -3.73383
| 10> H          3.81723       -0.12585       -2.40604
| 11> H          2.99011       -2.87840       -4.39503
| 12> H          1.27381       -2.65174       -4.15838
| 13> H          2.16680       -3.72339       -3.10614
| 14> *
| 15>
| 16> %MaxCore 64000
| 17> %pal nprocs 18
| 18> end
| 19>
| 20> %scf
| 21>   MaxIter 150
| 22> end
| 23>
| 24>
| 25>                          ****END OF INPUT****

CARTESIAN COORDINATES (ANGSTROEM)
---------------------------------
  C      2.209960   -2.812390   -3.665710
  C      2.489010   -1.668510   -2.737540
  C      3.596310   -0.947610   -2.952250
  N      1.663940   -1.413690   -1.777810
  H      0.811640   -1.963180   -1.702750
  H      1.845500   -0.635080   -1.158750
  H      4.205350   -1.176000   -3.733830
  H      3.817230   -0.125850   -2.406040
  H      2.990110   -2.878400   -4.395030
  H      1.273810   -2.651740   -4.158380
  H      2.166800   -3.723390   -3.106140

 Total Charge           Charge          ....    0
 Multiplicity           Mult            ....    1
 Number of Electrons    NEL             ....   32
 Basis Dimension        Dim             ....  166

ORBITAL ENERGIES
----------------

  NO   OCC          E(Eh)            E(eV)
   0   2.0000     -14.423910      -392.4946
   1   2.0000     -10.298391      -280.2335
   2   2.0000     -10.262284      -279.2509
   3   2.0000     -10.201772      -277.6043
   4   2.0000      -1.055763       -28.7288
   5   2.0000      -0.870602       -23.6903
   6   2.0000      -0.797751       -21.7079
   7   2.0000      -0.681274       -18.5384
   8   2.0000      -0.636053       -17.3079
   9   2.0000      -0.573610       -15.6087
  10   2.0000      -0.534397       -14.5417
  11   2.0000      -0.493760       -13.4359
  12   2.0000      -0.486878       -13.2486
  13   2.0000      -0.442687       -12.0461
  14   2.0000      -0.437223       -11.8974
  15   2.0000      -0.273414        -7.4400
  16   0.0000       0.109404         2.9770
  17   0.0000       0.133703         3.6382
  18   0.0000       0.153432         4.1751
  19   0.0000       0.166522         4.5313
  20   0.0000       0.185834         5.0568

MULLIKEN ATOMIC CHARGES
-----------------------
   0 C :   -0.342288
   1 C :    0.226312
   2 C :   -0.455463
   3 N :   -0.477585
   4 H :    0.246240
   5 H :    0.247188
   6 H :    0.101418
   7 H :    0.096841
   8 H :    0.120066
   9 H :    0.118226
  10 H :    0.119043
Sum of atomic charges:    0.0000000

LOEWDIN ATOMIC CHARGES
----------------------
   0 C :   -0.244432
   1 C :   -0.394696
   2 C :   -0.294161
   3 N :    0.008153
   4 H :    0.177382
   5 H :    0.179496
   6 H :    0.102058
   7 H :    0.092900
   8 H :    0.131200
   9 H :    0.120997
  10 H :    0.121104

  Mayer bond orders larger than 0.100000
B(  0-C ,  1-C ) :   0.9448 B(  0-C ,  8-H ) :   0.9911 B(  0-C ,  9-H ) :   0.9698
B(  0-C , 10-H ) :   0.9724 B(  1-C ,  2-C ) :   1.7320 B(  1-C ,  3-N ) :   1.1949
B(  2-C ,  6-H ) :   0.9983 B(  2-C ,  7-H ) :   0.9988 B(  3-N ,  4-H ) :   0.9205
B(  3-N ,  5-H ) :   0.9160

Dispersion correction           -0.001680036
FINAL SINGLE POINT ENERGY      -173.267212844090

DIPOLE MOMENT
-------------
                                X             Y             Z
Electronic contribution:     -0.70328       0.84662       1.54869
Nuclear contribution   :     -0.07639      -1.03653      -1.19368
                        -----------------------------------------
Total Dipole Moment    :     -0.77967      -0.18991       0.35502
                        -----------------------------------------
Magnitude (a.u.)       :      0.87749
Magnitude (Debye)      :      2.23040

Rotational constants in cm-1:     0.347569     0.308531     0.168494
Rotational constants in MHz : 10419.863808  9249.512495  5051.317883

                             ****ORCA TERMINATED NORMALLY****
TOTAL RUN TIME: 0 days 0 hours 0 minutes 11 seconds 362 msec
