                         Program Version 5.0.0 -  RELEASE  -
|  1> !wB97X-D3 RIJCOSX def2-TZVP def2/J TightSCF
|  2> *xyz 0 1
|  3> C          2.20996       -2.81239       -3.66571
|  4> C          2.48901       -1.66851       -2.73754
|  5> N          3.59631       -0.94761       -2.95225
|  6> C          1.66394       -1.41369       -1.77781
|  7> H          0.81164       -1.96318       -1.70275
|  8> H          1.84550       -0.63508       -1.15875
|  9> H          4.20535       -1.17600       -3.73383
| 10> H          3.81723       -0.12585       -2.40604
| 11> H          2.99011       -2.87840       -4.39503
| 12> H          1.27381       -2.65174       -4.15838
| 13> H          2.16680       -3.72339       -3.10614
| 14> *
| 15>
| 16> %MaxCore 64000
| 17> %pal nprocs 18
| 18> end
| 19>
| 20> %scf
| 21>   MaxIter 150
| 22> end
| 23>
| 24>
| 25>                          ****END OF INPUT****

CARTESIAN COORDINATES (ANGSTROEM)
---------------------------------
  C      2.209960   -2.812390   -3.665710
  C      2.489010   -1.668510   -2.737540
  N      3.596310   -0.947610   -2.952250
  C      1.663940   -1.413690   -1.777810
  H      0.811640   -1.963180   -1.702750
  H      1.845500   -0.635080   -1.158750
  H      4.205350   -1.176000   -3.733830
  H      3.817230   -0.125850   -2.406040
  H      2.990110   -2.878400   -4.395030
  H      1.273810   -2.651740   -4.158380
  H      2.166800   -3.723390   -3.106140

 Total Charge           Charge          ....    0
 Multiplicity           Mult            ....    1
 Number of Electrons    NEL             ....   32
 Basis Dimension        Dim             ....  166

ORBITAL ENERGIES
----------------

  NO   OCC          E(Eh)            E(eV)
   0   2.0000     -14.418430      -392.3454
   1   2.0000     -10.294290      -280.1219
   2   2.0000     -10.261858      -279.2394
   3   2.0000     -10.198623      -277.5186
   4   2.0000      -1.036978       -28.2176
   5   2.0000      -0.875437       -23.8219
   6   2.0000      -0.803931       -21.8761
   7   2.0000      -0.672848       -18.3091
   8   2.0000      -0.622558       -16.9407
   9   2.0000      -0.575489       -15.6599
  10   2.0000      -0.530429       -14.4337
  11   2.0000      -0.495218       -13.4756
  12   2.0000      -0.489617       -13.3232
  13   2.0000      -0.446238       -12.1428
  14   2.0000      -0.429487       -11.6869
  15   2.0000      -0.279482        -7.6051
  16   0.0000       0.111785         3.0418
  17   0.0000       0.131831         3.5873
  18   0.0000       0.153609         4.1799
  19   0.0000       0.162248         4.4150
  20   0.0000       0.199847         5.4381

MULLIKEN ATOMIC CHARGES
-----------------------
   0 C :   -0.327295
   1 C :    0.232528
   2 N :   -0.514800
   3 C :   -0.431168
   4 H :    0.111024
   5 H :    0.095534
   6 H :    0.238109
   7 H :    0.241460
   8 H :    0.085909
   9 H :    0.133831
  10 H :    0.134867
Sum of atomic charges:    0.0000000

LOEWDIN ATOMIC CHARGES
----------------------
   0 C :   -0.241955
   1 C :   -0.382180
   2 N :   -0.024278
   3 C :   -0.275593
   4 H :    0.110395
   5 H :    0.101064
   6 H :    0.167518
   7 H :    0.169412
   8 H :    0.115035
   9 H :    0.130227
  10 H :    0.130354

  Mayer bond orders larger than 0.100000
B(  0-C ,  1-C ) :   0.9201 B(  0-C ,  8-H ) :   0.9907 B(  0-C ,  9-H ) :   0.9766
B(  0-C , 10-H ) :   0.9775 B(  1-C ,  2-N ) :   1.1438 B(  1-C ,  3-C ) :   1.7843
B(  2-N ,  6-H ) :   0.9230 B(  2-N ,  7-H ) :   0.9193 B(  3-C ,  4-H ) :   1.0015
B(  3-C ,  5-H ) :   0.9936

Dispersion correction           -0.001666506
FINAL SINGLE POINT ENERGY      -173.267228638887

DIPOLE MOMENT
-------------
                                X             Y             Z
Electronic contribution:      1.06602       1.25002       0.44770
Nuclear contribution   :     -0.50975      -1.14105      -0.93029
                        -----------------------------------------
Total Dipole Moment    :      0.55627       0.10897      -0.48259
                        -----------------------------------------
Magnitude (a.u.)       :      0.74445
Magnitude (Debye)      :      1.89224

Rotational constants in cm-1:     0.350603     0.305690     0.168346
Rotational constants in MHz : 10510.799277  9164.357607  5046.873498

                             ****ORCA TERMINATED NORMALLY****
TOTAL RUN TIME: 0 days 0 hours 0 minutes 10 seconds 482 msec
