                         Program Version 5.0.0 -  RELEASE  -
|  1> !CAM-B3LYP RIJCOSX def2-SVPD def2/J TightSCF
|  2> *xyz -1 1
|  3> C         -0.87096        0.24804       -2.66280
|  4> C         -0.47749        0.60819       -4.10105
|  5> H          0.20677        1.45830       -4.11875
|  6> H         -1.36844        0.92942       -4.64785
|  7> C          0.18467       -0.50664       -4.91676
|  8> O         -0.15869       -1.70109       -4.65798
|  9> O          1.05594       -0.17441       -5.74037
| 10> C          0.10016       -0.67355       -1.91581
| 11> H         -1.00105        1.18104       -2.10407
| 12> H         -1.84465       -0.24659       -2.66328
| 13> H          0.22336       -1.58297       -2.46597
| 14> H         -0.29270       -0.89423       -0.94532
| 15> H          1.04759       -0.18666       -1.81480
| 16> *
| 17>
| 18> %MaxCore 64000
| 19>
| 20> %pal nprocs 4
| 21> end
| 22>
| 23> %scf
| 24>   MaxIter 150
| 25> end
| 26>
| 27>
| 28>                          ****END OF INPUT****

CARTESIAN COORDINATES (ANGSTROEM)
---------------------------------
  C     -0.870960    0.248040   -2.662800
  C     -0.477490    0.608190   -4.101050
  H      0.206770    1.458300   -4.118750
  H     -1.368440    0.929420   -4.647850
  C      0.184670   -0.506640   -4.916760
  O     -0.158690   -1.701090   -4.657980
  O      1.055940   -0.174410   -5.740370
  C      0.100160   -0.673550   -1.915810
  H     -1.001050    1.181040   -2.104070
  H     -1.844650   -0.246590   -2.663280
  H      0.223360   -1.582970   -2.465970
  H     -0.292700   -0.894230   -0.945320
  H      1.047590   -0.186660   -1.814800

 Total Charge           Charge          ....   -1
 Multiplicity           Mult            ....    1
 Number of Electrons    NEL             ....   48
 Basis Dimension        Dim             ....  182

ORBITAL ENERGIES
----------------

  NO   OCC          E(Eh)            E(eV)
   0   2.0000     -18.957897      -515.8706
   1   2.0000     -18.953940      -515.7629
   2   2.0000     -10.152924      -276.2751
   3   2.0000     -10.109938      -275.1054
   4   2.0000     -10.093064      -274.6462
   5   2.0000     -10.088356      -274.5181
   6   2.0000      -0.899890       -24.4873
   7   2.0000      -0.803657       -21.8686
   8   2.0000      -0.709753       -19.3134
   9   2.0000      -0.616062       -16.7639
  10   2.0000      -0.517945       -14.0940
  11   2.0000      -0.392784       -10.6882
  12   2.0000      -0.375504       -10.2180
  13   2.0000      -0.362041        -9.8516
  14   2.0000      -0.325496        -8.8572
  15   2.0000      -0.301998        -8.2178
  16   2.0000      -0.284333        -7.7371
  17   2.0000      -0.272548        -7.4164
  18   2.0000      -0.259097        -7.0504
  19   2.0000      -0.245298        -6.6749
  20   2.0000      -0.229732        -6.2513
  21   2.0000      -0.118231        -3.2172
  22   2.0000      -0.114037        -3.1031
  23   2.0000      -0.101672        -2.7666
  24   0.0000       0.176318         4.7979
  25   0.0000       0.200362         5.4521
  26   0.0000       0.216889         5.9018
  27   0.0000       0.227348         6.1864
  28   0.0000       0.249723         6.7953

MULLIKEN ATOMIC CHARGES
-----------------------
   0 C :   -0.222620
   1 C :    0.279337
   2 H :   -0.029285
   3 H :   -0.116971
   4 C :    0.298378
   5 O :   -0.732559
   6 O :   -0.637532
   7 C :    0.904919
   8 H :   -0.223850
   9 H :   -0.098468
  10 H :   -0.165452
  11 H :   -0.134693
  12 H :   -0.121204
Sum of atomic charges:   -1.0000000

LOEWDIN ATOMIC CHARGES
----------------------
   0 C :   -0.083960
   1 C :    0.004094
   2 H :    0.002494
   3 H :    0.011317
   4 C :   -0.297430
   5 O :   -0.322211
   6 O :   -0.317310
   7 C :    0.111358
   8 H :   -0.003512
   9 H :    0.007680
  10 H :   -0.048420
  11 H :   -0.039105
  12 H :   -0.024995

  Mayer bond orders larger than 0.100000
B(  0-C ,  1-C ) :   1.1946 B(  0-C ,  2-H ) :   0.1344 B(  0-C ,  3-H ) :   0.1397
B(  0-C ,  7-C ) :   1.3101 B(  0-C ,  8-H ) :   0.8974 B(  0-C ,  9-H ) :   0.8597
B(  0-C , 10-H ) :   0.2155 B(  0-C , 11-H ) :   0.2557 B(  0-C , 12-H ) :   0.2119
B(  1-C ,  2-H ) :   0.8273 B(  1-C ,  3-H ) :   0.8063 B(  1-C ,  4-C ) :   1.0406
B(  1-C ,  8-H ) :   0.1257 B(  1-C ,  9-H ) :   0.1193 B(  2-H ,  4-C ) :   0.2284
B(  3-H ,  4-C ) :   0.1025 B(  4-C ,  5-O ) :   1.5010 B(  4-C ,  6-O ) :   1.4681
B(  7-C ,  8-H ) :   0.1055 B(  7-C ,  9-H ) :   0.1001 B(  7-C , 10-H ) :   0.8083
B(  7-C , 11-H ) :   0.6626 B(  7-C , 12-H ) :   0.7226

FINAL SINGLE POINT ENERGY      -306.805888272350

DIPOLE MOMENT
-------------
                                X             Y             Z
Electronic contribution:      1.78898      -1.97207      -6.68166
Nuclear contribution   :     -2.71698       3.10699       8.64748
                        -----------------------------------------
Total Dipole Moment    :     -0.92801       1.13492       1.96582
                        -----------------------------------------
Magnitude (a.u.)       :      2.45228
Magnitude (Debye)      :      6.23321

Rotational constants in cm-1:     0.212307     0.084237     0.072775
Rotational constants in MHz :  6364.813744  2525.362351  2181.751235

                             ****ORCA TERMINATED NORMALLY****
TOTAL RUN TIME: 0 days 0 hours 0 minutes 25 seconds 985 msec
