                         Program Version 5.0.0 -  RELEASE  -
|  1> !CAM-B3LYP RIJCOSX def2-SVPD def2/J TightSCF
|  2> *xyz 1 1
|  3> C          2.48645       -2.67712       -2.56345
|  4> C          3.03764       -2.36672       -3.92351
|  5> N          2.28036       -2.45441       -4.96769
|  6> N          4.32174       -2.01793       -4.01664
|  7> H          4.87994       -1.91167       -3.17382
|  8> H          4.71015       -1.67088       -4.88356
|  9> H          1.27042       -2.41265       -4.86614
| 10> H          2.58183       -2.05528       -5.84688
| 11> C          2.49799       -1.46946       -1.61030
| 12> C          1.58284       -0.32199       -2.04262
| 13> H          2.19308       -1.83391       -0.62542
| 14> H          3.52336       -1.10398       -1.49039
| 15> H          1.47259       -3.05153       -2.69437
| 16> H          3.08320       -3.49064       -2.14147
| 17> H          1.88480        0.03130       -3.00642
| 18> H          1.65140        0.47571       -1.33278
| 19> H          0.57235       -0.67052       -2.09099
| 20> *
| 21>
| 22> %MaxCore 64000
| 23>
| 24> %pal nprocs 4
| 25> end
| 26>
| 27> %scf
| 28>   MaxIter 150
| 29> end
| 30>
| 31>
| 32>                          ****END OF INPUT****

CARTESIAN COORDINATES (ANGSTROEM)
---------------------------------
  C      2.486450   -2.677120   -2.563450
  C      3.037640   -2.366720   -3.923510
  N      2.280360   -2.454410   -4.967690
  N      4.321740   -2.017930   -4.016640
  H      4.879940   -1.911670   -3.173820
  H      4.710150   -1.670880   -4.883560
  H      1.270420   -2.412650   -4.866140
  H      2.581830   -2.055280   -5.846880
  C      2.497990   -1.469460   -1.610300
  C      1.582840   -0.321990   -2.042620
  H      2.193080   -1.833910   -0.625420
  H      3.523360   -1.103980   -1.490390
  H      1.472590   -3.051530   -2.694370
  H      3.083200   -3.490640   -2.141470
  H      1.884800    0.031300   -3.006420
  H      1.651400    0.475710   -1.332780
  H      0.572350   -0.670520   -2.090990

 Total Charge           Charge          ....    1
 Multiplicity           Mult            ....    1
 Number of Electrons    NEL             ....   48
 Basis Dimension        Dim             ....  208

ORBITAL ENERGIES
----------------

  NO   OCC          E(Eh)            E(eV)
   0   2.0000     -14.653960      -398.7545
   1   2.0000     -14.648208      -398.5980
   2   2.0000     -10.585234      -288.0389
   3   2.0000     -10.452832      -284.4360
   4   2.0000     -10.422385      -283.6075
   5   2.0000     -10.387734      -282.6646
   6   2.0000      -1.282877       -34.9089
   7   2.0000      -1.183262       -32.1982
   8   2.0000      -1.051403       -28.6101
   9   2.0000      -0.965389       -26.2696
  10   2.0000      -0.910366       -24.7723
  11   2.0000      -0.855771       -23.2867
  12   2.0000      -0.844652       -22.9841
  13   2.0000      -0.806276       -21.9399
  14   2.0000      -0.769571       -20.9411
  15   2.0000      -0.726862       -19.7789
  16   2.0000      -0.698042       -18.9947
  17   2.0000      -0.662690       -18.0327
  18   2.0000      -0.644575       -17.5398
  19   2.0000      -0.631768       -17.1913
  20   2.0000      -0.571837       -15.5605
  21   2.0000      -0.567591       -15.4449
  22   2.0000      -0.563869       -15.3437
  23   2.0000      -0.556157       -15.1338
  24   0.0000      -0.166871        -4.5408
  25   0.0000      -0.122181        -3.3247
  26   0.0000      -0.084571        -2.3013
  27   0.0000      -0.078247        -2.1292
  28   0.0000      -0.052451        -1.4273

MULLIKEN ATOMIC CHARGES
-----------------------
   0 C :    0.271155
   1 C :    0.481022
   2 N :    0.235878
   3 N :    0.181194
   4 H :    0.007696
   5 H :   -0.166288
   6 H :    0.003099
   7 H :   -0.120829
   8 C :   -0.189080
   9 C :    0.952107
  10 H :   -0.131239
  11 H :   -0.127245
  12 H :   -0.000061
  13 H :   -0.062810
  14 H :   -0.168094
  15 H :   -0.134508
  16 H :   -0.031996
Sum of atomic charges:    1.0000000

LOEWDIN ATOMIC CHARGES
----------------------
   0 C :    0.046178
   1 C :   -0.050597
   2 N :    0.288157
   3 N :    0.291446
   4 H :    0.047640
   5 H :    0.044713
   6 H :    0.058713
   7 H :    0.051136
   8 C :   -0.045948
   9 C :    0.145036
  10 H :    0.040853
  11 H :    0.020103
  12 H :    0.037218
  13 H :    0.053388
  14 H :   -0.022401
  15 H :    0.000396
  16 H :   -0.006030

  Mayer bond orders larger than 0.100000
B(  0-C ,  1-C ) :   1.1573 B(  0-C ,  8-C ) :   1.1649 B(  0-C , 10-H ) :   0.1270
B(  0-C , 11-H ) :   0.1238 B(  0-C , 12-H ) :   0.7577 B(  0-C , 13-H ) :   0.8108
B(  1-C ,  2-N ) :   1.1293 B(  1-C ,  3-N ) :   1.1630 B(  1-C ,  5-H ) :  -0.1423
B(  1-C ,  7-H ) :  -0.1047 B(  1-C , 12-H ) :   0.2168 B(  1-C , 13-H ) :   0.1466
B(  2-N ,  3-N ) :   0.1443 B(  2-N ,  6-H ) :   1.0656 B(  2-N ,  7-H ) :   1.1777
B(  3-N ,  4-H ) :   1.1080 B(  3-N ,  5-H ) :   1.2843 B(  4-H ,  5-H ) :  -0.1847
B(  6-H ,  7-H ) :  -0.1339 B(  8-C ,  9-C ) :   1.3394 B(  8-C , 10-H ) :   0.9355
B(  8-C , 11-H ) :   0.8581 B(  8-C , 12-H ) :   0.1448 B(  8-C , 13-H ) :   0.1058
B(  8-C , 14-H ) :   0.2527 B(  8-C , 15-H ) :   0.2495 B(  8-C , 16-H ) :   0.2261
B(  9-C , 14-H ) :   0.7611 B(  9-C , 15-H ) :   0.7223 B(  9-C , 16-H ) :   0.7316

FINAL SINGLE POINT ENERGY      -268.017480007874

DIPOLE MOMENT
-------------
                                X             Y             Z
Electronic contribution:      2.37473      -2.81355      -4.28638
Nuclear contribution   :     -1.82438       2.64851       2.98450
                        -----------------------------------------
Total Dipole Moment    :      0.55034      -0.16503      -1.30188
                        -----------------------------------------
Magnitude (a.u.)       :      1.42303
Magnitude (Debye)      :      3.61704

Rotational constants in cm-1:     0.176712     0.077069     0.069669
Rotational constants in MHz :  5297.698588  2310.466480  2088.633881

                             ****ORCA TERMINATED NORMALLY****
TOTAL RUN TIME: 0 days 0 hours 0 minutes 37 seconds 427 msec
