                         Program Version 5.0.0 -  RELEASE  -
|  1> !CAM-B3LYP RIJCOSX def2-SVPD def2/J TightSCF
|  2> *xyz 0 1
|  3> C         -0.87096        0.24804       -2.66280
|  4> C         -0.47749        0.60819       -4.10105
|  5> H          0.20677        1.45830       -4.11875
|  6> H         -1.36844        0.92942       -4.64785
|  7> C          0.18467       -0.50664       -4.91676
|  8> F         -0.15869       -1.70109       -4.65798
|  9> O          1.05594       -0.17441       -5.74037
| 10> C          0.10016       -0.67355       -1.91581
| 11> H         -1.00105        1.18104       -2.10407
| 12> H         -1.84465       -0.24659       -2.66328
| 13> H          0.22336       -1.58297       -2.46597
| 14> H         -0.29270       -0.89423       -0.94532
| 15> H          1.04759       -0.18666       -1.81480
| 16> *
| 17>
| 18> %MaxCore 64000
| 19>
| 20> %pal nprocs 4
| 21> end
| 22>
| 23> %scf
| 24>   MaxIter 150
| 25> end
| 26>
| 27>
| 28>                          ****END OF INPUT****

CARTESIAN COORDINATES (ANGSTROEM)
---------------------------------
  C     -0.870960    0.248040   -2.662800
  C     -0.477490    0.608190   -4.101050
  H      0.206770    1.458300   -4.118750
  H     -1.368440    0.929420   -4.647850
  C      0.184670   -0.506640   -4.916760
  F     -0.158690   -1.701090   -4.657980
  O      1.055940   -0.174410   -5.740370
  C      0.100160   -0.673550   -1.915810
  H     -1.001050    1.181040   -2.104070
  H     -1.844650   -0.246590   -2.663280
  H      0.223360   -1.582970   -2.465970
  H     -0.292700   -0.894230   -0.945320
  H      1.047590   -0.186660   -1.814800

 Total Charge           Charge          ....    0
 Multiplicity           Mult            ....    1
 Number of Electrons    NEL             ....   48
 Basis Dimension        Dim             ....  182

ORBITAL ENERGIES
----------------

  NO   OCC          E(Eh)            E(eV)
   0   2.0000     -24.844161      -676.0440
   1   2.0000     -19.228448      -523.2327
   2   2.0000     -10.447101      -284.2801
   3   2.0000     -10.291904      -280.0569
   4   2.0000     -10.276995      -279.6513
   5   2.0000     -10.254769      -279.0464
   6   2.0000      -1.383392       -37.6440
   7   2.0000      -1.117160       -30.3995
   8   2.0000      -0.894958       -24.3531
   9   2.0000      -0.807170       -21.9642
  10   2.0000      -0.736711       -20.0469
  11   2.0000      -0.694222       -18.8907
  12   2.0000      -0.626857       -17.0577
  13   2.0000      -0.617188       -16.7945
  14   2.0000      -0.566628       -15.4187
  15   2.0000      -0.549191       -14.9443
  16   2.0000      -0.523272       -14.2390
  17   2.0000      -0.492306       -13.3963
  18   2.0000      -0.479710       -13.0536
  19   2.0000      -0.448516       -12.2047
  20   2.0000      -0.433555       -11.7976
  21   2.0000      -0.424837       -11.5604
  22   2.0000      -0.406944       -11.0735
  23   2.0000      -0.365133        -9.9358
  24   0.0000       0.016617         0.4522
  25   0.0000       0.039877         1.0851
  26   0.0000       0.071922         1.9571
  27   0.0000       0.074533         2.0281
  28   0.0000       0.087620         2.3843

MULLIKEN ATOMIC CHARGES
-----------------------
   0 C :   -0.173276
   1 C :    0.207991
   2 H :    0.003713
   3 H :   -0.059077
   4 C :    0.644755
   5 F :   -0.420612
   6 O :   -0.428280
   7 C :    0.927854
   8 H :   -0.205329
   9 H :   -0.087910
  10 H :   -0.198961
  11 H :   -0.114439
  12 H :   -0.096430
Sum of atomic charges:   -0.0000000

LOEWDIN ATOMIC CHARGES
----------------------
   0 C :   -0.063622
   1 C :    0.051216
   2 H :    0.036407
   3 H :    0.040247
   4 C :   -0.010838
   5 F :   -0.042659
   6 O :   -0.124433
   7 C :    0.131620
   8 H :    0.023070
   9 H :    0.020720
  10 H :   -0.037141
  11 H :   -0.014001
  12 H :   -0.010586

  Mayer bond orders larger than 0.100000
B(  0-C ,  1-C ) :   1.2203 B(  0-C ,  2-H ) :   0.1280 B(  0-C ,  3-H ) :   0.1311
B(  0-C ,  7-C ) :   1.3248 B(  0-C ,  8-H ) :   0.8939 B(  0-C ,  9-H ) :   0.8622
B(  0-C , 10-H ) :   0.2000 B(  0-C , 11-H ) :   0.2455 B(  0-C , 12-H ) :   0.2078
B(  1-C ,  2-H ) :   0.8487 B(  1-C ,  3-H ) :   0.8131 B(  1-C ,  4-C ) :   1.0600
B(  1-C ,  8-H ) :   0.1284 B(  1-C ,  9-H ) :   0.1142 B(  2-H ,  4-C ) :   0.1701
B(  4-C ,  5-F ) :   0.7171 B(  4-C ,  6-O ) :   1.8284 B(  5-F ,  6-O ) :   0.1113
B(  7-C , 10-H ) :   0.8017 B(  7-C , 11-H ) :   0.6783 B(  7-C , 12-H ) :   0.7302

FINAL SINGLE POINT ENERGY      -331.340666620935

DIPOLE MOMENT
-------------
                                X             Y             Z
Electronic contribution:      1.72013      -4.29741      -8.45676
Nuclear contribution   :     -2.55684       4.59749       9.38828
                        -----------------------------------------
Total Dipole Moment    :     -0.83671       0.30009       0.93151
                        -----------------------------------------
Magnitude (a.u.)       :      1.28758
Magnitude (Debye)      :      3.27276

Rotational constants in cm-1:     0.200184     0.083263     0.071070
Rotational constants in MHz :  6001.373539  2496.169674  2130.635527

                             ****ORCA TERMINATED NORMALLY****
TOTAL RUN TIME: 0 days 0 hours 0 minutes 29 seconds 303 msec
