                         Program Version 5.0.0 -  RELEASE  -
|  1> !CAM-B3LYP RIJCOSX def2-SVPD def2/J TightSCF
|  2> *xyz 0 1
|  3> C          2.48645       -2.67712       -2.56345
|  4> C          3.03764       -2.36672       -3.92351
|  5> C          2.28036       -2.45441       -4.96769
|  6> N          4.32174       -2.01793       -4.01664
|  7> H          4.87994       -1.91167       -3.17382
|  8> H          4.71015       -1.67088       -4.88356
|  9> H          1.27042       -2.41265       -4.86614
| 10> H          2.58183       -2.05528       -5.84688
| 11> C          2.49799       -1.46946       -1.61030
| 12> C          1.58284       -0.32199       -2.04262
| 13> H          2.19308       -1.83391       -0.62542
| 14> H          3.52336       -1.10398       -1.49039
| 15> H          1.47259       -3.05153       -2.69437
| 16> H          3.08320       -3.49064       -2.14147
| 17> H          1.88480        0.03130       -3.00642
| 18> H          1.65140        0.47571       -1.33278
| 19> H          0.57235       -0.67052       -2.09099
| 20> *
| 21>
| 22> %MaxCore 64000
| 23>
| 24> %pal nprocs 4
| 25> end
| 26>
| 27> %scf
| 28>   MaxIter 150
| 29> end
| 30>
| 31>
| 32>                          ****END OF INPUT****

CARTESIAN COORDINATES (ANGSTROEM)
---------------------------------
  C      2.486450   -2.677120   -2.563450
  C      3.037640   -2.366720   -3.923510
  C      2.280360   -2.454410   -4.967690
  N      4.321740   -2.017930   -4.016640
  H      4.879940   -1.911670   -3.173820
  H      4.710150   -1.670880   -4.883560
  H      1.270420   -2.412650   -4.866140
  H      2.581830   -2.055280   -5.846880
  C      2.497990   -1.469460   -1.610300
  C      1.582840   -0.321990   -2.042620
  H      2.193080   -1.833910   -0.625420
  H      3.523360   -1.103980   -1.490390
  H      1.472590   -3.051530   -2.694370
  H      3.083200   -3.490640   -2.141470
  H      1.884800    0.031300   -3.006420
  H      1.651400    0.475710   -1.332780
  H      0.572350   -0.670520   -2.090990

 Total Charge           Charge          ....    0
 Multiplicity           Mult            ....    1
 Number of Electrons    NEL             ....   48
 Basis Dimension        Dim             ....  208

ORBITAL ENERGIES
----------------

  NO   OCC          E(Eh)            E(eV)
   0   2.0000     -14.406481      -392.0203
   1   2.0000     -10.280620      -279.7499
   2   2.0000     -10.258378      -279.1447
   3   2.0000     -10.255824      -279.0752
   4   2.0000     -10.239838      -278.6402
   5   2.0000     -10.190141      -277.2878
   6   2.0000      -1.000950       -27.2372
   7   2.0000      -0.870312       -23.6824
   8   2.0000      -0.815143       -22.1812
   9   2.0000      -0.761104       -20.7107
  10   2.0000      -0.673077       -18.3154
  11   2.0000      -0.637997       -17.3608
  12   2.0000      -0.597074       -16.2472
  13   2.0000      -0.543665       -14.7939
  14   2.0000      -0.522859       -14.2277
  15   2.0000      -0.519488       -14.1360
  16   2.0000      -0.466543       -12.6953
  17   2.0000      -0.457628       -12.4527
  18   2.0000      -0.437726       -11.9111
  19   2.0000      -0.434011       -11.8101
  20   2.0000      -0.402399       -10.9498
  21   2.0000      -0.389726       -10.6050
  22   2.0000      -0.386522       -10.5178
  23   2.0000      -0.257690        -7.0121
  24   0.0000       0.046434         1.2635
  25   0.0000       0.070876         1.9286
  26   0.0000       0.074219         2.0196
  27   0.0000       0.081046         2.2054
  28   0.0000       0.103218         2.8087

MULLIKEN ATOMIC CHARGES
-----------------------
   0 C :    0.334384
   1 C :   -0.197712
   2 C :    0.555518
   3 N :    0.301106
   4 H :   -0.156193
   5 H :   -0.222978
   6 H :   -0.109021
   7 H :   -0.513147
   8 C :   -0.186780
   9 C :    0.952833
  10 H :   -0.185709
  11 H :   -0.125554
  12 H :    0.058390
  13 H :   -0.142195
  14 H :   -0.153843
  15 H :   -0.150146
  16 H :   -0.058954
Sum of atomic charges:   -0.0000000

LOEWDIN ATOMIC CHARGES
----------------------
   0 C :    0.005499
   1 C :   -0.263201
   2 C :    0.164076
   3 N :    0.182088
   4 H :   -0.005096
   5 H :    0.004031
   6 H :   -0.076084
   7 H :   -0.083392
   8 C :   -0.069526
   9 C :    0.127956
  10 H :    0.016899
  11 H :    0.007064
  12 H :    0.022754
  13 H :    0.024860
  14 H :   -0.021201
  15 H :   -0.020931
  16 H :   -0.015794

  Mayer bond orders larger than 0.100000
B(  0-C ,  1-C ) :   1.1935 B(  0-C ,  2-C ) :   0.1120 B(  0-C ,  8-C ) :   1.1261
B(  0-C , 10-H ) :   0.1726 B(  0-C , 11-H ) :   0.1548 B(  0-C , 12-H ) :   0.7575
B(  0-C , 13-H ) :   0.8564 B(  1-C ,  2-C ) :   2.0310 B(  1-C ,  3-N ) :   1.2186
B(  1-C ,  6-H ) :   0.1599 B(  1-C ,  7-H ) :   0.3054 B(  1-C ,  8-C ) :   0.1031
B(  1-C , 12-H ) :   0.1673 B(  1-C , 13-H ) :   0.1737 B(  2-C ,  3-N ) :   0.2752
B(  2-C ,  6-H ) :   0.8200 B(  2-C ,  7-H ) :   0.5265 B(  3-N ,  4-H ) :   1.1453
B(  3-N ,  5-H ) :   1.2011 B(  4-H ,  5-H ) :  -0.1594 B(  6-H ,  7-H ) :   0.1403
B(  8-C ,  9-C ) :   1.3100 B(  8-C , 10-H ) :   0.8978 B(  8-C , 11-H ) :   0.8436
B(  8-C , 12-H ) :   0.1523 B(  8-C , 14-H ) :   0.2617 B(  8-C , 15-H ) :   0.2539
B(  8-C , 16-H ) :   0.2314 B(  9-C , 14-H ) :   0.7784 B(  9-C , 15-H ) :   0.7044
B(  9-C , 16-H ) :   0.7341 B( 14-H , 16-H ) :   0.1038

FINAL SINGLE POINT ENERGY      -251.556925489443

DIPOLE MOMENT
-------------
                                X             Y             Z
Electronic contribution:      2.45376      -2.10242      -2.13164
Nuclear contribution   :     -1.92525       2.50924       2.56958
                        -----------------------------------------
Total Dipole Moment    :      0.52851       0.40682       0.43794
                        -----------------------------------------
Magnitude (a.u.)       :      0.79788
Magnitude (Debye)      :      2.02805

Rotational constants in cm-1:     0.181985     0.078726     0.071856
Rotational constants in MHz :  5455.785660  2360.157292  2154.177820

                             ****ORCA TERMINATED NORMALLY****
TOTAL RUN TIME: 0 days 0 hours 0 minutes 38 seconds 870 msec
