                         Program Version 5.0.0 -  RELEASE  -
|  1> !CAM-B3LYP RIJCOSX def2-SVPD def2/J TightSCF
|  2> *xyz 0 1
|  3> C         -0.87096        0.24804       -2.66280
|  4> C         -0.47749        0.60819       -4.10105
|  5> H          0.20677        1.45830       -4.11875
|  6> H         -1.36844        0.92942       -4.64785
|  7> C          0.18467       -0.50664       -4.91676
|  8> O         -0.15869       -1.70109       -4.65798
|  9> F          1.05594       -0.17441       -5.74037
| 10> C          0.10016       -0.67355       -1.91581
| 11> H         -1.00105        1.18104       -2.10407
| 12> H         -1.84465       -0.24659       -2.66328
| 13> H          0.22336       -1.58297       -2.46597
| 14> H         -0.29270       -0.89423       -0.94532
| 15> H          1.04759       -0.18666       -1.81480
| 16> *
| 17>
| 18> %MaxCore 64000
| 19>
| 20> %pal nprocs 4
| 21> end
| 22>
| 23> %scf
| 24>   MaxIter 150
| 25> end
| 26>
| 27>
| 28>                          ****END OF INPUT****

CARTESIAN COORDINATES (ANGSTROEM)
---------------------------------
  C     -0.870960    0.248040   -2.662800
  C     -0.477490    0.608190   -4.101050
  H      0.206770    1.458300   -4.118750
  H     -1.368440    0.929420   -4.647850
  C      0.184670   -0.506640   -4.916760
  O     -0.158690   -1.701090   -4.657980
  F      1.055940   -0.174410   -5.740370
  C      0.100160   -0.673550   -1.915810
  H     -1.001050    1.181040   -2.104070
  H     -1.844650   -0.246590   -2.663280
  H      0.223360   -1.582970   -2.465970
  H     -0.292700   -0.894230   -0.945320
  H      1.047590   -0.186660   -1.814800

 Total Charge           Charge          ....    0
 Multiplicity           Mult            ....    1
 Number of Electrons    NEL             ....   48
 Basis Dimension        Dim             ....  182

ORBITAL ENERGIES
----------------

  NO   OCC          E(Eh)            E(eV)
   0   2.0000     -24.853364      -676.2944
   1   2.0000     -19.225420      -523.1503
   2   2.0000     -10.449924      -284.3569
   3   2.0000     -10.293743      -280.1070
   4   2.0000     -10.271762      -279.5088
   5   2.0000     -10.241989      -278.6987
   6   2.0000      -1.401562       -38.1385
   7   2.0000      -1.103731       -30.0340
   8   2.0000      -0.888576       -24.1794
   9   2.0000      -0.807217       -21.9655
  10   2.0000      -0.743438       -20.2300
  11   2.0000      -0.688332       -18.7305
  12   2.0000      -0.635432       -17.2910
  13   2.0000      -0.611701       -16.6452
  14   2.0000      -0.583008       -15.8644
  15   2.0000      -0.543144       -14.7797
  16   2.0000      -0.525691       -14.3048
  17   2.0000      -0.486156       -13.2290
  18   2.0000      -0.470183       -12.7943
  19   2.0000      -0.432850       -11.7784
  20   2.0000      -0.425642       -11.5823
  21   2.0000      -0.412527       -11.2254
  22   2.0000      -0.407023       -11.0756
  23   2.0000      -0.362454        -9.8629
  24   0.0000       0.012674         0.3449
  25   0.0000       0.042315         1.1515
  26   0.0000       0.069686         1.8963
  27   0.0000       0.077619         2.1121
  28   0.0000       0.090903         2.4736

MULLIKEN ATOMIC CHARGES
-----------------------
   0 C :   -0.189864
   1 C :    0.186950
   2 H :    0.013187
   3 H :   -0.043892
   4 C :    0.639700
   5 O :   -0.518733
   6 F :   -0.335103
   7 C :    0.934279
   8 H :   -0.191102
   9 H :   -0.077915
  10 H :   -0.191964
  11 H :   -0.112502
  12 H :   -0.113040
Sum of atomic charges:   -0.0000000

LOEWDIN ATOMIC CHARGES
----------------------
   0 C :   -0.054418
   1 C :    0.044299
   2 H :    0.026131
   3 H :    0.040578
   4 C :   -0.003424
   5 O :   -0.138606
   6 F :   -0.021759
   7 C :    0.131900
   8 H :    0.022651
   9 H :    0.025379
  10 H :   -0.042548
  11 H :   -0.015240
  12 H :   -0.014943

  Mayer bond orders larger than 0.100000
B(  0-C ,  1-C ) :   1.2436 B(  0-C ,  2-H ) :   0.1311 B(  0-C ,  3-H ) :   0.1433
B(  0-C ,  7-C ) :   1.3337 B(  0-C ,  8-H ) :   0.8869 B(  0-C ,  9-H ) :   0.8547
B(  0-C , 10-H ) :   0.2011 B(  0-C , 11-H ) :   0.2433 B(  0-C , 12-H ) :   0.2023
B(  1-C ,  2-H ) :   0.8312 B(  1-C ,  3-H ) :   0.7931 B(  1-C ,  4-C ) :   1.1050
B(  1-C ,  8-H ) :   0.1227 B(  1-C ,  9-H ) :   0.1203 B(  2-H ,  4-C ) :   0.1353
B(  4-C ,  5-O ) :   1.8259 B(  4-C ,  6-F ) :   0.7597 B(  5-O ,  6-F ) :   0.1008
B(  7-C , 10-H ) :   0.8009 B(  7-C , 11-H ) :   0.6717 B(  7-C , 12-H ) :   0.7225

FINAL SINGLE POINT ENERGY      -331.333818212172

DIPOLE MOMENT
-------------
                                X             Y             Z
Electronic contribution:      3.79780      -1.73215     -10.36792
Nuclear contribution   :     -3.92885       2.87300      10.61091
                        -----------------------------------------
Total Dipole Moment    :     -0.13106       1.14084       0.24300
                        -----------------------------------------
Magnitude (a.u.)       :      1.17378
Magnitude (Debye)      :      2.98350

Rotational constants in cm-1:     0.209332     0.079487     0.069375
Rotational constants in MHz :  6275.605762  2382.960864  2079.805430

                             ****ORCA TERMINATED NORMALLY****
TOTAL RUN TIME: 0 days 0 hours 0 minutes 29 seconds 672 msec
