                         Program Version 5.0.0 -  RELEASE  -
|  1> !CAM-B3LYP RIJCOSX def2-SVPD def2/J TightSCF
|  2> *xyz 0 1
|  3> C          2.48645       -2.67712       -2.56345
|  4> C          3.03764       -2.36672       -3.92351
|  5> N          2.28036       -2.45441       -4.96769
|  6> C          4.32174       -2.01793       -4.01664
|  7> H          4.87994       -1.91167       -3.17382
|  8> H          4.71015       -1.67088       -4.88356
|  9> H          1.27042       -2.41265       -4.86614
| 10> H          2.58183       -2.05528       -5.84688
| 11> C          2.49799       -1.46946       -1.61030
| 12> C          1.58284       -0.32199       -2.04262
| 13> H          2.19308       -1.83391       -0.62542
| 14> H          3.52336       -1.10398       -1.49039
| 15> H          1.47259       -3.05153       -2.69437
| 16> H          3.08320       -3.49064       -2.14147
| 17> H          1.88480        0.03130       -3.00642
| 18> H          1.65140        0.47571       -1.33278
| 19> H          0.57235       -0.67052       -2.09099
| 20> *
| 21>
| 22> %MaxCore 64000
| 23>
| 24> %pal nprocs 4
| 25> end
| 26>
| 27> %scf
| 28>   MaxIter 150
| 29> end
| 30>
| 31>
| 32>                          ****END OF INPUT****

CARTESIAN COORDINATES (ANGSTROEM)
---------------------------------
  C      2.486450   -2.677120   -2.563450
  C      3.037640   -2.366720   -3.923510
  N      2.280360   -2.454410   -4.967690
  C      4.321740   -2.017930   -4.016640
  H      4.879940   -1.911670   -3.173820
  H      4.710150   -1.670880   -4.883560
  H      1.270420   -2.412650   -4.866140
  H      2.581830   -2.055280   -5.846880
  C      2.497990   -1.469460   -1.610300
  C      1.582840   -0.321990   -2.042620
  H      2.193080   -1.833910   -0.625420
  H      3.523360   -1.103980   -1.490390
  H      1.472590   -3.051530   -2.694370
  H      3.083200   -3.490640   -2.141470
  H      1.884800    0.031300   -3.006420
  H      1.651400    0.475710   -1.332780
  H      0.572350   -0.670520   -2.090990

 Total Charge           Charge          ....    0
 Multiplicity           Mult            ....    1
 Number of Electrons    NEL             ....   48
 Basis Dimension        Dim             ....  208

ORBITAL ENERGIES
----------------

  NO   OCC          E(Eh)            E(eV)
   0   2.0000     -14.410514      -392.1300
   1   2.0000     -10.281226      -279.7664
   2   2.0000     -10.256656      -279.0978
   3   2.0000     -10.254730      -279.0454
   4   2.0000     -10.241039      -278.6728
   5   2.0000     -10.190391      -277.2946
   6   2.0000      -1.016349       -27.6563
   7   2.0000      -0.871766       -23.7220
   8   2.0000      -0.806110       -21.9354
   9   2.0000      -0.756205       -20.5774
  10   2.0000      -0.683374       -18.5956
  11   2.0000      -0.636296       -17.3145
  12   2.0000      -0.591134       -16.0856
  13   2.0000      -0.558090       -15.1864
  14   2.0000      -0.524033       -14.2597
  15   2.0000      -0.503317       -13.6960
  16   2.0000      -0.470425       -12.8009
  17   2.0000      -0.461024       -12.5451
  18   2.0000      -0.439083       -11.9481
  19   2.0000      -0.426920       -11.6171
  20   2.0000      -0.402387       -10.9495
  21   2.0000      -0.395018       -10.7490
  22   2.0000      -0.391517       -10.6537
  23   2.0000      -0.247666        -6.7393
  24   0.0000       0.047501         1.2926
  25   0.0000       0.067185         1.8282
  26   0.0000       0.077064         2.0970
  27   0.0000       0.081672         2.2224
  28   0.0000       0.099653         2.7117

MULLIKEN ATOMIC CHARGES
-----------------------
   0 C :    0.572982
   1 C :   -0.165701
   2 N :    0.242996
   3 C :    0.562446
   4 H :   -0.210780
   5 H :   -0.580054
   6 H :   -0.082502
   7 H :   -0.150955
   8 C :   -0.282971
   9 C :    0.928279
  10 H :   -0.157247
  11 H :   -0.136203
  12 H :   -0.129426
  13 H :   -0.049547
  14 H :   -0.141884
  15 H :   -0.168178
  16 H :   -0.051255
Sum of atomic charges:    0.0000000

LOEWDIN ATOMIC CHARGES
----------------------
   0 C :    0.006384
   1 C :   -0.266055
   2 N :    0.172147
   3 C :    0.180062
   4 H :   -0.084348
   5 H :   -0.090964
   6 H :    0.003680
   7 H :    0.010791
   8 C :   -0.064996
   9 C :    0.124783
  10 H :    0.017096
  11 H :    0.014104
  12 H :    0.011593
  13 H :    0.029417
  14 H :   -0.022958
  15 H :   -0.020075
  16 H :   -0.020662

  Mayer bond orders larger than 0.100000
B(  0-C ,  1-C ) :   1.0625 B(  0-C ,  2-N ) :   0.1142 B(  0-C ,  3-C ) :   0.1504
B(  0-C ,  8-C ) :   1.1531 B(  0-C , 10-H ) :   0.1150 B(  0-C , 11-H ) :   0.1445
B(  0-C , 12-H ) :   0.5867 B(  0-C , 13-H ) :   0.7648 B(  1-C ,  2-N ) :   1.0296
B(  1-C ,  3-C ) :   1.7577 B(  1-C ,  4-H ) :   0.1044 B(  1-C ,  5-H ) :   0.1635
B(  1-C , 12-H ) :   0.3009 B(  1-C , 13-H ) :   0.1611 B(  2-N ,  3-C ) :   0.2907
B(  2-N ,  6-H ) :   1.0030 B(  2-N ,  7-H ) :   1.1090 B(  3-C ,  4-H ) :   0.7740
B(  3-C ,  5-H ) :   0.6946 B(  6-H ,  7-H ) :  -0.1231 B(  8-C ,  9-C ) :   1.3108
B(  8-C , 10-H ) :   0.9153 B(  8-C , 11-H ) :   0.9021 B(  8-C , 12-H ) :   0.2088
B(  8-C , 13-H ) :   0.1244 B(  8-C , 14-H ) :   0.2603 B(  8-C , 15-H ) :   0.2540
B(  8-C , 16-H ) :   0.2415 B(  9-C , 14-H ) :   0.7762 B(  9-C , 15-H ) :   0.7184
B(  9-C , 16-H ) :   0.7397

FINAL SINGLE POINT ENERGY      -251.557321747185

DIPOLE MOMENT
-------------
                                X             Y             Z
Electronic contribution:      0.70201      -2.41296      -2.94671
Nuclear contribution   :     -1.44240       2.61248       2.79453
                        -----------------------------------------
Total Dipole Moment    :     -0.74038       0.19952      -0.15218
                        -----------------------------------------
Magnitude (a.u.)       :      0.78175
Magnitude (Debye)      :      1.98705

Rotational constants in cm-1:     0.182540     0.078634     0.071436
Rotational constants in MHz :  5472.425685  2357.397154  2141.608207

                             ****ORCA TERMINATED NORMALLY****
TOTAL RUN TIME: 0 days 0 hours 0 minutes 37 seconds 348 msec
