                         Program Version 5.0.0 -  RELEASE  -
|  1> !CAM-B3LYP RIJCOSX def2-SVPD def2/J TightSCF xyzfile
|  2>
|  3> *xyzfile 0 1 D4.xyz
|  4>
|  5> %MaxCore 64000
|  6>
|  7> %pal nprocs 4
|  8> end
|  9>
| 10> %scf
| 11>   MaxIter 150
| 12> end
| 13>
| 14>
| 15>                          ****END OF INPUT****

CARTESIAN COORDINATES (ANGSTROEM)
---------------------------------
  C      2.486452   -2.677121   -2.563447
  C     -0.870963    0.248043   -2.662804
  C     -0.477492    0.608191   -4.101052
  H      0.206773    1.458299   -4.118748
  H     -1.368442    0.929419   -4.647855
  C      0.184673   -0.506640   -4.916760
  C      3.037640   -2.366715   -3.923509
  N      2.280360   -2.454408   -4.967692
  C      4.321736   -2.017932   -4.016641
  H      4.879940   -1.911668   -3.173823
  H      4.710148   -1.670882   -4.883561
  H      1.270423   -2.412650   -4.866143
  H      2.581829   -2.055282   -5.846878
  O     -0.158685   -1.701088   -4.657981
  F      1.055938   -0.174410   -5.740373
  C      2.497991   -1.469464   -1.610303
  C      1.582841   -0.321986   -2.042619
  H      2.193083   -1.833912   -0.625420
  H      3.523356   -1.103982   -1.490392
  C      0.100160   -0.673551   -1.915815
  H      1.822311   -0.040361   -3.072834
  H      1.813180    0.557019   -1.433266
  H     -0.063284   -1.679120   -2.301112
  H     -0.168820   -0.691680   -0.853831
  H     -1.001048    1.181040   -2.104071
  H     -1.844645   -0.246592   -2.663281
  H      1.472592   -3.051527   -2.694366
  H      3.083201   -3.490638   -2.141472

 Total Charge           Charge          ....    0
 Multiplicity           Mult            ....    1
 Number of Electrons    NEL             ....   94
 Basis Dimension        Dim             ....  374

ORBITAL ENERGIES
----------------

  NO   OCC          E(Eh)            E(eV)
   0   2.0000     -24.874535      -676.8705
   1   2.0000     -19.249320      -523.8006
   2   2.0000     -14.373563      -391.1245
   3   2.0000     -10.473931      -285.0102
   4   2.0000     -10.304875      -280.4099
   5   2.0000     -10.278390      -279.6892
   6   2.0000     -10.266198      -279.3574
   7   2.0000     -10.257378      -279.1174
   8   2.0000     -10.257238      -279.1136
   9   2.0000     -10.251766      -278.9647
  10   2.0000     -10.246413      -278.8191
  11   2.0000     -10.174607      -276.8651
  12   2.0000      -1.422718       -38.7141
  13   2.0000      -1.136192       -30.9174
  14   2.0000      -0.993441       -27.0329
  15   2.0000      -0.910196       -24.7677
  16   2.0000      -0.870559       -23.6891
  17   2.0000      -0.829047       -22.5595
  18   2.0000      -0.787077       -21.4175
  19   2.0000      -0.761313       -20.7164
  20   2.0000      -0.741159       -20.1680
  21   2.0000      -0.698025       -18.9942
  22   2.0000      -0.661794       -18.0083
  23   2.0000      -0.656430       -17.8624
  24   2.0000      -0.633771       -17.2458
  25   2.0000      -0.624840       -17.0028
  26   2.0000      -0.600830       -16.3494
  27   2.0000      -0.570031       -15.5113
  28   2.0000      -0.555524       -15.1166
  29   2.0000      -0.550126       -14.9697
  30   2.0000      -0.542614       -14.7653
  31   2.0000      -0.516721       -14.0607
  32   2.0000      -0.496507       -13.5107
  33   2.0000      -0.484562       -13.1856
  34   2.0000      -0.476410       -12.9638
  35   2.0000      -0.463895       -12.6232
  36   2.0000      -0.449544       -12.2327
  37   2.0000      -0.442511       -12.0413
  38   2.0000      -0.428819       -11.6688
  39   2.0000      -0.427026       -11.6200
  40   2.0000      -0.407439       -11.0870
  41   2.0000      -0.402648       -10.9566
  42   2.0000      -0.389232       -10.5915
  43   2.0000      -0.387345       -10.5402
  44   2.0000      -0.380133       -10.3439
  45   2.0000      -0.366258        -9.9664
  46   2.0000      -0.229334        -6.2405
  47   0.0000      -0.009539        -0.2596
  48   0.0000       0.035975         0.9789
  49   0.0000       0.057242         1.5576
  50   0.0000       0.064758         1.7622
  51   0.0000       0.066338         1.8052

MULLIKEN ATOMIC CHARGES
-----------------------
   0 C :    0.756723
   1 C :    0.675236
   2 C :    0.333380
   3 H :    0.184418
   4 H :   -0.333016
   5 C :    0.565898
   6 C :   -0.236484
   7 N :    0.465485
   8 C :    0.528845
   9 H :   -0.225661
  10 H :   -0.471158
  11 H :   -0.415907
  12 H :   -0.049962
  13 O :   -0.638138
  14 F :   -0.351805
  15 C :    0.368260
  16 C :    0.290819
  17 H :   -0.148071
  18 H :   -0.144080
  19 C :    0.183728
  20 H :   -0.195129
  21 H :   -0.300144
  22 H :   -0.063800
  23 H :   -0.285251
  24 H :   -0.182025
  25 H :   -0.011012
  26 H :   -0.177717
  27 H :   -0.123433
Sum of atomic charges:    0.0000000

LOEWDIN ATOMIC CHARGES
----------------------
   0 C :    0.026977
   1 C :   -0.004666
   2 C :    0.056179
   3 H :    0.031834
   4 H :    0.042230
   5 C :    0.023093
   6 C :   -0.245328
   7 N :    0.193557
   8 C :    0.170922
   9 H :   -0.091532
  10 H :   -0.095472
  11 H :   -0.118678
  12 H :    0.011232
  13 O :   -0.122719
  14 F :   -0.006471
  15 C :   -0.012996
  16 C :   -0.015216
  17 H :    0.022675
  18 H :    0.016322
  19 C :   -0.024440
  20 H :    0.003429
  21 H :    0.026282
  22 H :   -0.008387
  23 H :    0.029394
  24 H :    0.027308
  25 H :    0.028675
  26 H :    0.004897
  27 H :    0.030901

  Mayer bond orders larger than 0.100000
B(  0-C ,  6-C ) :   0.9723 B(  0-C ,  7-N ) :   0.1200 B(  0-C , 10-H ) :   0.1265
B(  0-C , 15-C ) :   1.1335 B(  0-C , 16-C ) :   0.1326 B(  0-C , 17-H ) :   0.1563
B(  0-C , 18-H ) :   0.1725 B(  0-C , 26-H ) :   0.5494 B(  0-C , 27-H ) :   0.6710
B(  1-C ,  2-C ) :   1.1761 B(  1-C ,  3-H ) :   0.1069 B(  1-C ,  4-H ) :   0.1544
B(  1-C , 19-C ) :   1.2609 B(  1-C , 24-H ) :   0.6941 B(  1-C , 25-H ) :   0.6222
B(  2-C ,  3-H ) :   0.7589 B(  2-C ,  4-H ) :   0.6700 B(  2-C ,  5-C ) :   1.2284
B(  2-C , 19-C ) :   0.1351 B(  2-C , 24-H ) :   0.1644 B(  3-H ,  4-H ) :  -0.1037
B(  3-H ,  5-C ) :   0.1812 B(  4-H ,  5-C ) :   0.3060 B(  5-C , 13-O ) :   1.6447
B(  5-C , 14-F ) :   0.7094 B(  6-C ,  7-N ) :   1.1105 B(  6-C ,  8-C ) :   1.7436
B(  6-C ,  9-H ) :   0.1574 B(  6-C , 10-H ) :   0.2099 B(  6-C , 26-H ) :   0.2858
B(  6-C , 27-H ) :   0.1736 B(  7-N ,  8-C ) :   0.2706 B(  7-N , 11-H ) :   0.8522
B(  7-N , 12-H ) :   0.9680 B(  8-C ,  9-H ) :   0.7816 B(  8-C , 10-H ) :   0.5877
B( 11-H , 12-H ) :  -0.1442 B( 11-H , 13-O ) :   0.1852 B( 15-C , 16-C ) :   1.2063
B( 15-C , 17-H ) :   0.8078 B( 15-C , 18-H ) :   0.6846 B( 15-C , 20-H ) :   0.1897
B( 15-C , 21-H ) :   0.1029 B( 15-C , 26-H ) :   0.2220 B( 15-C , 27-H ) :   0.1547
B( 16-C , 17-H ) :   0.1416 B( 16-C , 18-H ) :   0.2555 B( 16-C , 19-C ) :   1.1564
B( 16-C , 20-H ) :   0.7860 B( 16-C , 21-H ) :   0.8422 B( 16-C , 22-H ) :   0.1118
B( 16-C , 23-H ) :   0.2508 B( 16-C , 26-H ) :  -0.1036 B( 17-H , 18-H ) :  -0.1477
B( 19-C , 20-H ) :   0.1301 B( 19-C , 21-H ) :   0.1152 B( 19-C , 22-H ) :   0.8514
B( 19-C , 23-H ) :   0.7575 B( 19-C , 24-H ) :   0.2180 B( 19-C , 25-H ) :   0.2579
B( 22-H , 26-H ) :   0.1197 B( 24-H , 25-H ) :  -0.1268

FINAL SINGLE POINT ENERGY      -581.690894503304

DIPOLE MOMENT
-------------
                                X             Y             Z
Electronic contribution:     -3.44653       0.82088     -12.71905
Nuclear contribution   :      2.21030       0.63135      12.80988
                        -----------------------------------------
Total Dipole Moment    :     -1.23623       1.45223       0.09084
                        -----------------------------------------
Magnitude (a.u.)       :      1.90932
Magnitude (Debye)      :      4.85310

Rotational constants in cm-1:     0.039980     0.026547     0.019089
Rotational constants in MHz :  1198.568620   795.867393   572.288555

                             ****ORCA TERMINATED NORMALLY****
TOTAL RUN TIME: 0 days 0 hours 3 minutes 25 seconds 876 msec
