                         Program Version 5.0.0 -  RELEASE  -
|  1> !BLYP D3BJ RIJCOSX def2-SVPD def2/J TightSCF
|  2> *xyz -1 1
|  3> C          0.61188        1.65763       -4.50029
|  4> C          1.69499        1.54179       -5.57045
|  5> H          2.69733        1.73466       -5.18400
|  6> H          1.50666        2.27224       -6.35808
|  7> S          1.78029       -0.03313       -6.42874
|  8> O          2.56929        0.21366       -7.60736
|  9> O          0.41688       -0.46297       -6.61859
| 10> O          2.50513       -0.93326       -5.48257
| 11> H         -0.34424        1.45871       -4.93752
| 12> H          0.61845        2.64655       -4.09174
| 13> H          0.80247        0.94882       -3.72173
| 14> *
| 15> %MaxCore 64000
| 16>
| 17> %pal nprocs 4
| 18> end
| 19>
| 20> %scf
| 21>   MaxIter 150
| 22> end
| 23>
| 24>
| 25>                          ****END OF INPUT****

CARTESIAN COORDINATES (ANGSTROEM)
---------------------------------
  C      0.611880    1.657630   -4.500290
  C      1.694990    1.541790   -5.570450
  H      2.697330    1.734660   -5.184000
  H      1.506660    2.272240   -6.358080
  S      1.780290   -0.033130   -6.428740
  O      2.569290    0.213660   -7.607360
  O      0.416880   -0.462970   -6.618590
  O      2.505130   -0.933260   -5.482570
  H     -0.344240    1.458710   -4.937520
  H      0.618450    2.646550   -4.091740
  H      0.802470    0.948820   -3.721730

 Total Charge           Charge          ....   -1
 Multiplicity           Mult            ....    1
 Number of Electrons    NEL             ....   58
 Basis Dimension        Dim             ....  176

ORBITAL ENERGIES
----------------

  NO   OCC          E(Eh)            E(eV)
   0   2.0000     -88.127358     -2398.0673
   1   2.0000     -18.572837      -505.3926
   2   2.0000     -18.572063      -505.3715
   3   2.0000     -18.554248      -504.8867
   4   2.0000      -9.783278      -266.2165
   5   2.0000      -9.780996      -266.1544
   6   2.0000      -7.664269      -208.5554
   7   2.0000      -5.699426      -155.0893
   8   2.0000      -5.699211      -155.0834
   9   2.0000      -5.698488      -155.0638
  10   2.0000      -0.834878       -22.7182
  11   2.0000      -0.704632       -19.1740
  12   2.0000      -0.671318       -18.2675
  13   2.0000      -0.550390       -14.9769
  14   2.0000      -0.436238       -11.8706
  15   2.0000      -0.318604        -8.6697
  16   2.0000      -0.266354        -7.2479
  17   2.0000      -0.258777        -7.0417
  18   2.0000      -0.225097        -6.1252
  19   2.0000      -0.207590        -5.6488
  20   2.0000      -0.204159        -5.5554
  21   2.0000      -0.183673        -4.9980
  22   2.0000      -0.169415        -4.6100
  23   2.0000      -0.100015        -2.7216
  24   2.0000      -0.099299        -2.7021
  25   2.0000      -0.069493        -1.8910
  26   2.0000      -0.066003        -1.7960
  27   2.0000      -0.047302        -1.2872
  28   2.0000      -0.014864        -0.4045
  29   0.0000       0.125220         3.4074
  30   0.0000       0.155026         4.2185
  31   0.0000       0.165695         4.5088
  32   0.0000       0.170800         4.6477
  33   0.0000       0.193320         5.2605

MULLIKEN ATOMIC CHARGES
-----------------------
   0 C :    1.176100
   1 C :   -0.079903
   2 H :   -0.215753
   3 H :   -0.171300
   4 S :    1.145402
   5 O :   -0.717587
   6 O :   -0.734044
   7 O :   -0.787926
   8 H :   -0.175035
   9 H :   -0.255755
  10 H :   -0.184198
Sum of atomic charges:   -1.0000000

LOEWDIN ATOMIC CHARGES
----------------------
   0 C :    0.115374
   1 C :   -0.130952
   2 H :   -0.001668
   3 H :   -0.009537
   4 S :    0.812964
   5 O :   -0.555802
   6 O :   -0.550831
   7 O :   -0.586038
   8 H :   -0.030478
   9 H :   -0.041305
  10 H :   -0.021727

  Mayer bond orders larger than 0.100000
B(  0-C ,  1-C ) :   1.2790 B(  0-C ,  3-H ) :   0.1258 B(  0-C ,  8-H ) :   0.7188
B(  0-C ,  9-H ) :   0.6072 B(  0-C , 10-H ) :   0.7116 B(  1-C ,  2-H ) :   0.9114
B(  1-C ,  3-H ) :   0.9214 B(  1-C ,  4-S ) :   0.8812 B(  1-C ,  8-H ) :   0.2643
B(  1-C ,  9-H ) :   0.3065 B(  1-C , 10-H ) :   0.2460 B(  4-S ,  5-O ) :   1.3796
B(  4-S ,  6-O ) :   1.3388 B(  4-S ,  7-O ) :   1.2980

Dispersion correction           -0.020473827
FINAL SINGLE POINT ENERGY      -702.709586615649

DIPOLE MOMENT
-------------
                                X             Y             Z
Electronic contribution:      2.23361      -5.63340      -4.99988
Nuclear contribution   :     -2.69163       7.29476       5.86550
                        -----------------------------------------
Total Dipole Moment    :     -0.45802       1.66136       0.86562
                        -----------------------------------------
Magnitude (a.u.)       :      1.92852
Magnitude (Debye)      :      4.90192

Rotational constants in cm-1:     0.163060     0.082831     0.081111
Rotational constants in MHz :  4888.419330  2483.225008  2431.646841

                             ****ORCA TERMINATED NORMALLY****
TOTAL RUN TIME: 0 days 0 hours 0 minutes 5 seconds 677 msec
