                         Program Version 5.0.0 -  RELEASE  -
|  1> !BLYP D3BJ RIJCOSX def2-SVPD def2/J TightSCF
|  2> *xyz 1 1
|  3> C          1.96337       -1.74915       -1.89689
|  4> N          2.73849       -2.01517       -3.09711
|  5> C          4.04974       -2.15472       -3.15204
|  6> N          4.65821       -1.98629       -4.31866
|  7> N          4.76423       -2.45444       -2.05049
|  8> H          4.28736       -2.77626       -1.21750
|  9> H          5.75082       -2.65835       -2.12599
| 10> H          2.34518       -1.69027       -3.97145
| 11> H          4.10900       -1.59268       -5.07176
| 12> H          5.64910       -2.15646       -4.42724
| 13> C          2.08852       -0.30091       -1.41520
| 14> H          2.23127       -2.45162       -1.10264
| 15> H          0.93025       -1.97780       -2.15544
| 16> H          1.82118        0.36368       -2.21003
| 17> H          3.09792       -0.11068       -1.11551
| 18> H          1.43391       -0.14382       -0.58352
| 19> *
| 20> %MaxCore 64000
| 21>
| 22> %pal nprocs 4
| 23> end
| 24>
| 25> %scf
| 26>   MaxIter 150
| 27> end
| 28>
| 29>
| 30>                          ****END OF INPUT****

CARTESIAN COORDINATES (ANGSTROEM)
---------------------------------
  C      1.963370   -1.749150   -1.896890
  N      2.738490   -2.015170   -3.097110
  C      4.049740   -2.154720   -3.152040
  N      4.658210   -1.986290   -4.318660
  N      4.764230   -2.454440   -2.050490
  H      4.287360   -2.776260   -1.217500
  H      5.750820   -2.658350   -2.125990
  H      2.345180   -1.690270   -3.971450
  H      4.109000   -1.592680   -5.071760
  H      5.649100   -2.156460   -4.427240
  C      2.088520   -0.300910   -1.415200
  H      2.231270   -2.451620   -1.102640
  H      0.930250   -1.977800   -2.155440
  H      1.821180    0.363680   -2.210030
  H      3.097920   -0.110680   -1.115510
  H      1.433910   -0.143820   -0.583520

 Total Charge           Charge          ....    1
 Multiplicity           Mult            ....    1
 Number of Electrons    NEL             ....   48
 Basis Dimension        Dim             ....  200

ORBITAL ENERGIES
----------------

  NO   OCC          E(Eh)            E(eV)
   0   2.0000     -14.248248      -387.7145
   1   2.0000     -14.246189      -387.6585
   2   2.0000     -14.245989      -387.6531
   3   2.0000     -10.247643      -278.8525
   4   2.0000     -10.129599      -275.6404
   5   2.0000     -10.060774      -273.7676
   6   2.0000      -1.117245       -30.4018
   7   2.0000      -1.013553       -27.5802
   8   2.0000      -1.001716       -27.2581
   9   2.0000      -0.850321       -23.1384
  10   2.0000      -0.772476       -21.0202
  11   2.0000      -0.739378       -20.1195
  12   2.0000      -0.725774       -19.7493
  13   2.0000      -0.686293       -18.6750
  14   2.0000      -0.643276       -17.5044
  15   2.0000      -0.635804       -17.3011
  16   2.0000      -0.604856       -16.4590
  17   2.0000      -0.575335       -15.6557
  18   2.0000      -0.550767       -14.9871
  19   2.0000      -0.515951       -14.0397
  20   2.0000      -0.486333       -13.2338
  21   2.0000      -0.468418       -12.7463
  22   2.0000      -0.433467       -11.7952
  23   2.0000      -0.409900       -11.1539
  24   0.0000      -0.200717        -5.4618
  25   0.0000      -0.181092        -4.9278
  26   0.0000      -0.148565        -4.0427
  27   0.0000      -0.138559        -3.7704
  28   0.0000      -0.115544        -3.1441

MULLIKEN ATOMIC CHARGES
-----------------------
   0 C :    0.570137
   1 N :   -0.176309
   2 C :    1.031393
   3 N :    0.206950
   4 N :    0.273605
   5 H :   -0.110767
   6 H :   -0.236253
   7 H :   -0.229753
   8 H :   -0.085920
   9 H :   -0.152438
  10 C :    1.082497
  11 H :   -0.234879
  12 H :   -0.465895
  13 H :   -0.168804
  14 H :   -0.178832
  15 H :   -0.124731
Sum of atomic charges:    1.0000000

LOEWDIN ATOMIC CHARGES
----------------------
   0 C :    0.045173
   1 N :    0.060431
   2 C :   -0.063992
   3 N :    0.284379
   4 N :    0.300482
   5 H :    0.016595
   6 H :    0.031347
   7 H :    0.051658
   8 H :    0.032923
   9 H :    0.038159
  10 C :    0.178671
  11 H :    0.022240
  12 H :    0.036156
  13 H :   -0.011543
  14 H :   -0.021244
  15 H :   -0.001434

  Mayer bond orders larger than 0.100000
B(  0-C ,  1-N ) :   1.0235 B(  0-C ,  7-H ) :  -0.1342 B(  0-C , 10-C ) :   1.2298
B(  0-C , 11-H ) :   0.8228 B(  0-C , 12-H ) :   0.7021 B(  0-C , 13-H ) :   0.2956
B(  0-C , 14-H ) :   0.2293 B(  0-C , 15-H ) :   0.2143 B(  1-N ,  2-C ) :   1.0966
B(  1-N ,  3-N ) :   0.3062 B(  1-N ,  4-N ) :   0.2248 B(  1-N ,  7-H ) :   1.2005
B(  1-N , 11-H ) :   0.1486 B(  1-N , 12-H ) :   0.2535 B(  2-C ,  3-N ) :   0.9320
B(  2-C ,  4-N ) :   1.0240 B(  2-C ,  5-H ) :  -0.1478 B(  2-C ,  6-H ) :  -0.1810
B(  2-C ,  7-H ) :  -0.2418 B(  2-C ,  8-H ) :  -0.1579 B(  2-C ,  9-H ) :  -0.1547
B(  3-N ,  4-N ) :   0.1655 B(  3-N ,  8-H ) :   1.1687 B(  3-N ,  9-H ) :   1.2628
B(  4-N ,  5-H ) :   1.1039 B(  4-N ,  6-H ) :   1.2746 B(  5-H ,  6-H ) :  -0.2317
B(  8-H ,  9-H ) :  -0.1956 B( 10-C , 13-H ) :   0.7022 B( 10-C , 14-H ) :   0.7528
B( 10-C , 15-H ) :   0.7152

Dispersion correction           -0.025068199
FINAL SINGLE POINT ENERGY      -284.106770290747

DIPOLE MOMENT
-------------
                                X             Y             Z
Electronic contribution:      2.99810      -2.70618      -3.07732
Nuclear contribution   :     -2.17768       2.37118       2.44574
                        -----------------------------------------
Total Dipole Moment    :      0.82042      -0.33500      -0.63158
                        -----------------------------------------
Magnitude (a.u.)       :      1.08821
Magnitude (Debye)      :      2.76602

Rotational constants in cm-1:     0.215650     0.075183     0.066454
Rotational constants in MHz :  6465.033740  2253.919004  1992.232519

                             ****ORCA TERMINATED NORMALLY****
TOTAL RUN TIME: 0 days 0 hours 0 minutes 7 seconds 907 msec
