                         Program Version 5.0.0 -  RELEASE  -
|  1> !BLYP D3BJ RIJCOSX def2-SVPD def2/J TightSCF
|  2> *xyz 0 1
|  3> C          0.61188        1.65763       -4.50029
|  4> C          1.69499        1.54179       -5.57045
|  5> H          2.69733        1.73466       -5.18400
|  6> H          1.50666        2.27224       -6.35808
|  7> S          1.78029       -0.03313       -6.42874
|  8> F          2.56929        0.21366       -7.60736
|  9> O          0.41688       -0.46297       -6.61859
| 10> O          2.50513       -0.93326       -5.48257
| 11> H         -0.34424        1.45871       -4.93752
| 12> H          0.61845        2.64655       -4.09174
| 13> H          0.80247        0.94882       -3.72173
| 14> *
| 15> %MaxCore 64000
| 16>
| 17> %pal nprocs 4
| 18> end
| 19>
| 20> %scf
| 21>   MaxIter 150
| 22> end
| 23>
| 24>
| 25>                          ****END OF INPUT****

CARTESIAN COORDINATES (ANGSTROEM)
---------------------------------
  C      0.611880    1.657630   -4.500290
  C      1.694990    1.541790   -5.570450
  H      2.697330    1.734660   -5.184000
  H      1.506660    2.272240   -6.358080
  S      1.780290   -0.033130   -6.428740
  F      2.569290    0.213660   -7.607360
  O      0.416880   -0.462970   -6.618590
  O      2.505130   -0.933260   -5.482570
  H     -0.344240    1.458710   -4.937520
  H      0.618450    2.646550   -4.091740
  H      0.802470    0.948820   -3.721730

 Total Charge           Charge          ....    0
 Multiplicity           Mult            ....    1
 Number of Electrons    NEL             ....   58
 Basis Dimension        Dim             ....  176

ORBITAL ENERGIES
----------------

  NO   OCC          E(Eh)            E(eV)
   0   2.0000     -88.382739     -2405.0166
   1   2.0000     -24.419978      -664.5014
   2   2.0000     -18.804542      -511.6976
   3   2.0000     -18.785690      -511.1846
   4   2.0000      -9.984622      -271.6954
   5   2.0000      -9.944484      -270.6032
   6   2.0000      -7.920650      -215.5319
   7   2.0000      -5.960002      -162.1799
   8   2.0000      -5.953487      -162.0026
   9   2.0000      -5.951803      -161.9568
  10   2.0000      -1.267580       -34.4926
  11   2.0000      -1.011069       -27.5126
  12   2.0000      -0.906232       -24.6598
  13   2.0000      -0.741892       -20.1879
  14   2.0000      -0.665638       -18.1129
  15   2.0000      -0.608944       -16.5702
  16   2.0000      -0.523739       -14.2517
  17   2.0000      -0.521063       -14.1789
  18   2.0000      -0.494884       -13.4665
  19   2.0000      -0.443151       -12.0587
  20   2.0000      -0.428698       -11.6655
  21   2.0000      -0.390574       -10.6281
  22   2.0000      -0.384893       -10.4735
  23   2.0000      -0.363908        -9.9024
  24   2.0000      -0.345676        -9.4063
  25   2.0000      -0.333357        -9.0711
  26   2.0000      -0.289212        -7.8699
  27   2.0000      -0.270700        -7.3661
  28   2.0000      -0.253525        -6.8988
  29   0.0000      -0.028520        -0.7761
  30   0.0000      -0.006208        -0.1689
  31   0.0000       0.015571         0.4237
  32   0.0000       0.022548         0.6136
  33   0.0000       0.025973         0.7068

MULLIKEN ATOMIC CHARGES
-----------------------
   0 C :    1.177463
   1 C :   -0.112598
   2 H :   -0.162473
   3 H :   -0.119928
   4 S :    1.336390
   5 F :   -0.356697
   6 O :   -0.588844
   7 O :   -0.639096
   8 H :   -0.150970
   9 H :   -0.218909
  10 H :   -0.164338
Sum of atomic charges:   -0.0000000

LOEWDIN ATOMIC CHARGES
----------------------
   0 C :    0.160502
   1 C :   -0.096385
   2 H :    0.019024
   3 H :    0.009407
   4 S :    1.080565
   5 F :   -0.242881
   6 O :   -0.439596
   7 O :   -0.468127
   8 H :   -0.011558
   9 H :   -0.008102
  10 H :   -0.002849

  Mayer bond orders larger than 0.100000
B(  0-C ,  1-C ) :   1.3518 B(  0-C ,  3-H ) :   0.1270 B(  0-C ,  8-H ) :   0.7169
B(  0-C ,  9-H ) :   0.6155 B(  0-C , 10-H ) :   0.7151 B(  1-C ,  2-H ) :   0.9124
B(  1-C ,  3-H ) :   0.9007 B(  1-C ,  4-S ) :   0.9277 B(  1-C ,  8-H ) :   0.2577
B(  1-C ,  9-H ) :   0.2929 B(  1-C , 10-H ) :   0.2390 B(  4-S ,  5-F ) :   0.7440
B(  4-S ,  6-O ) :   1.5451 B(  4-S ,  7-O ) :   1.4945 B(  6-O ,  7-O ) :   0.1052

Dispersion correction           -0.019568230
FINAL SINGLE POINT ENERGY      -727.201012898962

DIPOLE MOMENT
-------------
                                X             Y             Z
Electronic contribution:      3.84339      -5.65693      -7.50558
Nuclear contribution   :     -3.66946       7.33549       7.42434
                        -----------------------------------------
Total Dipole Moment    :      0.17393       1.67856      -0.08124
                        -----------------------------------------
Magnitude (a.u.)       :      1.68950
Magnitude (Debye)      :      4.29437

Rotational constants in cm-1:     0.158379     0.080294     0.077843
Rotational constants in MHz :  4748.076444  2407.152850  2333.668303

                             ****ORCA TERMINATED NORMALLY****
TOTAL RUN TIME: 0 days 0 hours 0 minutes 5 seconds 938 msec
