                         Program Version 5.0.0 -  RELEASE  -
|  1> !BLYP D3BJ RIJCOSX def2-SVPD def2/J TightSCF
|  2> *xyz 0 1
|  3> C          1.96337       -1.74915       -1.89689
|  4> C          2.73849       -2.01517       -3.09711
|  5> C          4.04974       -2.15472       -3.15204
|  6> N          4.65821       -1.98629       -4.31866
|  7> N          4.76423       -2.45444       -2.05049
|  8> H          4.28736       -2.77626       -1.21750
|  9> H          5.75082       -2.65835       -2.12599
| 10> H          2.34518       -1.69027       -3.97145
| 11> H          4.10900       -1.59268       -5.07176
| 12> H          5.64910       -2.15646       -4.42724
| 13> C          2.08852       -0.30091       -1.41520
| 14> H          2.23127       -2.45162       -1.10264
| 15> H          0.93025       -1.97780       -2.15544
| 16> H          1.82118        0.36368       -2.21003
| 17> H          3.09792       -0.11068       -1.11551
| 18> H          1.43391       -0.14382       -0.58352
| 19> *
| 20> %MaxCore 64000
| 21>
| 22> %pal nprocs 4
| 23> end
| 24>
| 25> %scf
| 26>   MaxIter 150
| 27> end
| 28>
| 29>
| 30>                          ****END OF INPUT****

CARTESIAN COORDINATES (ANGSTROEM)
---------------------------------
  C      1.963370   -1.749150   -1.896890
  C      2.738490   -2.015170   -3.097110
  C      4.049740   -2.154720   -3.152040
  N      4.658210   -1.986290   -4.318660
  N      4.764230   -2.454440   -2.050490
  H      4.287360   -2.776260   -1.217500
  H      5.750820   -2.658350   -2.125990
  H      2.345180   -1.690270   -3.971450
  H      4.109000   -1.592680   -5.071760
  H      5.649100   -2.156460   -4.427240
  C      2.088520   -0.300910   -1.415200
  H      2.231270   -2.451620   -1.102640
  H      0.930250   -1.977800   -2.155440
  H      1.821180    0.363680   -2.210030
  H      3.097920   -0.110680   -1.115510
  H      1.433910   -0.143820   -0.583520

 Total Charge           Charge          ....    0
 Multiplicity           Mult            ....    1
 Number of Electrons    NEL             ....   48
 Basis Dimension        Dim             ....  200

ORBITAL ENERGIES
----------------

  NO   OCC          E(Eh)            E(eV)
   0   2.0000     -14.026733      -381.6868
   1   2.0000     -14.024108      -381.6154
   2   2.0000      -9.959919      -271.0232
   3   2.0000      -9.896755      -269.3044
   4   2.0000      -9.887442      -269.0510
   5   2.0000      -9.843287      -267.8495
   6   2.0000      -0.862650       -23.4739
   7   2.0000      -0.780468       -21.2376
   8   2.0000      -0.686920       -18.6920
   9   2.0000      -0.614562       -16.7231
  10   2.0000      -0.546869       -14.8811
  11   2.0000      -0.517346       -14.0777
  12   2.0000      -0.486611       -13.2414
  13   2.0000      -0.452170       -12.3042
  14   2.0000      -0.423502       -11.5241
  15   2.0000      -0.386937       -10.5291
  16   2.0000      -0.367371        -9.9967
  17   2.0000      -0.334527        -9.1029
  18   2.0000      -0.331371        -9.0171
  19   2.0000      -0.308772        -8.4021
  20   2.0000      -0.283155        -7.7050
  21   2.0000      -0.274011        -7.4562
  22   2.0000      -0.219791        -5.9808
  23   2.0000      -0.125819        -3.4237
  24   0.0000      -0.008880        -0.2416
  25   0.0000       0.019225         0.5231
  26   0.0000       0.026064         0.7092
  27   0.0000       0.037725         1.0266
  28   0.0000       0.054726         1.4892

MULLIKEN ATOMIC CHARGES
-----------------------
   0 C :    0.159798
   1 C :   -0.243138
   2 C :    0.604325
   3 N :    0.266993
   4 N :    0.201454
   5 H :   -0.084670
   6 H :   -0.370871
   7 H :   -0.266466
   8 H :   -0.076886
   9 H :   -0.267993
  10 C :    1.075205
  11 H :   -0.226340
  12 H :   -0.259833
  13 H :   -0.176663
  14 H :   -0.181247
  15 H :   -0.153668
Sum of atomic charges:   -0.0000000

LOEWDIN ATOMIC CHARGES
----------------------
   0 C :   -0.091782
   1 C :   -0.036458
   2 C :   -0.235101
   3 N :    0.200002
   4 N :    0.221846
   5 H :   -0.014058
   6 H :   -0.020425
   7 H :   -0.055550
   8 H :   -0.000362
   9 H :   -0.015073
  10 C :    0.136178
  11 H :   -0.003749
  12 H :    0.005921
  13 H :   -0.025265
  14 H :   -0.032188
  15 H :   -0.033935

  Mayer bond orders larger than 0.100000
B(  0-C ,  1-C ) :   1.2288 B(  0-C ,  2-C ) :   0.1026 B(  0-C ,  7-H ) :   0.3824
B(  0-C , 10-C ) :   1.2072 B(  0-C , 11-H ) :   0.7594 B(  0-C , 12-H ) :   0.6499
B(  0-C , 13-H ) :   0.2989 B(  0-C , 14-H ) :   0.2545 B(  0-C , 15-H ) :   0.2315
B(  1-C ,  2-C ) :   1.6063 B(  1-C ,  3-N ) :   0.3456 B(  1-C ,  4-N ) :   0.2689
B(  1-C ,  7-H ) :   0.6367 B(  1-C , 11-H ) :   0.2895 B(  1-C , 12-H ) :   0.3622
B(  2-C ,  3-N ) :   0.9710 B(  2-C ,  4-N ) :   1.0051 B(  2-C ,  6-H ) :  -0.2210
B(  2-C ,  7-H ) :   0.3566 B(  2-C , 11-H ) :  -0.1037 B(  3-N ,  4-N ) :   0.1163
B(  3-N ,  8-H ) :   1.1488 B(  3-N ,  9-H ) :   1.2500 B(  4-N ,  5-H ) :   1.0651
B(  4-N ,  6-H ) :   1.3625 B(  5-H ,  6-H ) :  -0.2343 B(  8-H ,  9-H ) :  -0.1898
B( 10-C , 13-H ) :   0.7236 B( 10-C , 14-H ) :   0.7439 B( 10-C , 15-H ) :   0.7078

Dispersion correction           -0.026191687
FINAL SINGLE POINT ENERGY      -267.624117661216

DIPOLE MOMENT
-------------
                                X             Y             Z
Electronic contribution:      3.29070      -2.44374      -2.53825
Nuclear contribution   :     -2.31778       2.31977       2.35294
                        -----------------------------------------
Total Dipole Moment    :      0.97292      -0.12397      -0.18531
                        -----------------------------------------
Magnitude (a.u.)       :      0.99814
Magnitude (Debye)      :      2.53708

Rotational constants in cm-1:     0.219415     0.075373     0.066689
Rotational constants in MHz :  6577.897266  2259.621393  1999.290981

                             ****ORCA TERMINATED NORMALLY****
TOTAL RUN TIME: 0 days 0 hours 0 minutes 8 seconds 389 msec
