                         Program Version 5.0.0 -  RELEASE  -
|  1> !BLYP D3BJ RIJCOSX def2-SVPD def2/J TightSCF
|  2> *xyz 0 1
|  3> C          0.61188        1.65763       -4.50029
|  4> C          1.69499        1.54179       -5.57045
|  5> H          2.69733        1.73466       -5.18400
|  6> H          1.50666        2.27224       -6.35808
|  7> S          1.78029       -0.03313       -6.42874
|  8> O          2.56929        0.21366       -7.60736
|  9> F          0.41688       -0.46297       -6.61859
| 10> O          2.50513       -0.93326       -5.48257
| 11> H         -0.34424        1.45871       -4.93752
| 12> H          0.61845        2.64655       -4.09174
| 13> H          0.80247        0.94882       -3.72173
| 14> *
| 15> %MaxCore 64000
| 16>
| 17> %pal nprocs 4
| 18> end
| 19>
| 20> %scf
| 21>   MaxIter 150
| 22> end
| 23>
| 24>
| 25>                          ****END OF INPUT****

CARTESIAN COORDINATES (ANGSTROEM)
---------------------------------
  C      0.611880    1.657630   -4.500290
  C      1.694990    1.541790   -5.570450
  H      2.697330    1.734660   -5.184000
  H      1.506660    2.272240   -6.358080
  S      1.780290   -0.033130   -6.428740
  O      2.569290    0.213660   -7.607360
  F      0.416880   -0.462970   -6.618590
  O      2.505130   -0.933260   -5.482570
  H     -0.344240    1.458710   -4.937520
  H      0.618450    2.646550   -4.091740
  H      0.802470    0.948820   -3.721730

 Total Charge           Charge          ....    0
 Multiplicity           Mult            ....    1
 Number of Electrons    NEL             ....   58
 Basis Dimension        Dim             ....  176

ORBITAL ENERGIES
----------------

  NO   OCC          E(Eh)            E(eV)
   0   2.0000     -88.382540     -2405.0112
   1   2.0000     -24.419802      -664.4966
   2   2.0000     -18.804045      -511.6841
   3   2.0000     -18.785908      -511.1906
   4   2.0000      -9.984498      -271.6920
   5   2.0000      -9.949609      -270.7426
   6   2.0000      -7.920467      -215.5269
   7   2.0000      -5.959955      -162.1786
   8   2.0000      -5.953246      -161.9961
   9   2.0000      -5.951563      -161.9503
  10   2.0000      -1.266317       -34.4582
  11   2.0000      -1.012060       -27.5396
  12   2.0000      -0.906066       -24.6553
  13   2.0000      -0.745361       -20.2823
  14   2.0000      -0.662306       -18.0223
  15   2.0000      -0.613290       -16.6885
  16   2.0000      -0.534829       -14.5534
  17   2.0000      -0.519814       -14.1449
  18   2.0000      -0.486023       -13.2254
  19   2.0000      -0.444448       -12.0941
  20   2.0000      -0.423996       -11.5375
  21   2.0000      -0.401201       -10.9172
  22   2.0000      -0.387997       -10.5579
  23   2.0000      -0.367476        -9.9995
  24   2.0000      -0.351783        -9.5725
  25   2.0000      -0.332203        -9.0397
  26   2.0000      -0.288796        -7.8585
  27   2.0000      -0.270384        -7.3575
  28   2.0000      -0.253685        -6.9031
  29   0.0000      -0.034794        -0.9468
  30   0.0000       0.002574         0.0700
  31   0.0000       0.016903         0.4600
  32   0.0000       0.018899         0.5143
  33   0.0000       0.024842         0.6760

MULLIKEN ATOMIC CHARGES
-----------------------
   0 C :    1.188779
   1 C :   -0.080692
   2 H :   -0.168136
   3 H :   -0.125616
   4 S :    1.304571
   5 O :   -0.568067
   6 F :   -0.363545
   7 O :   -0.637060
   8 H :   -0.166837
   9 H :   -0.219915
  10 H :   -0.163483
Sum of atomic charges:    0.0000000

LOEWDIN ATOMIC CHARGES
----------------------
   0 C :    0.145792
   1 C :   -0.084236
   2 H :    0.031604
   3 H :    0.013419
   4 S :    1.077631
   5 O :   -0.439680
   6 F :   -0.242507
   7 O :   -0.467091
   8 H :   -0.017885
   9 H :   -0.009935
  10 H :   -0.007112

  Mayer bond orders larger than 0.100000
B(  0-C ,  1-C ) :   1.3069 B(  0-C ,  3-H ) :   0.1153 B(  0-C ,  8-H ) :   0.7155
B(  0-C ,  9-H ) :   0.6101 B(  0-C , 10-H ) :   0.7237 B(  1-C ,  2-H ) :   0.9158
B(  1-C ,  3-H ) :   0.9258 B(  1-C ,  4-S ) :   0.9494 B(  1-C ,  8-H ) :   0.2465
B(  1-C ,  9-H ) :   0.2962 B(  1-C , 10-H ) :   0.2373 B(  4-S ,  5-O ) :   1.5879
B(  4-S ,  6-F ) :   0.7282 B(  4-S ,  7-O ) :   1.5074 B(  5-O ,  7-O ) :   0.1022

Dispersion correction           -0.019446236
FINAL SINGLE POINT ENERGY      -727.200719055315

DIPOLE MOMENT
-------------
                                X             Y             Z
Electronic contribution:      0.28047      -6.76678      -5.84518
Nuclear contribution   :     -1.42658       8.04056       6.39401
                        -----------------------------------------
Total Dipole Moment    :     -1.14611       1.27378       0.54883
                        -----------------------------------------
Magnitude (a.u.)       :      1.79925
Magnitude (Debye)      :      4.57333

Rotational constants in cm-1:     0.153659     0.082363     0.078978
Rotational constants in MHz :  4606.587369  2469.179541  2367.702074

                             ****ORCA TERMINATED NORMALLY****
TOTAL RUN TIME: 0 days 0 hours 0 minutes 6 seconds 391 msec
