                         Program Version 5.0.0 -  RELEASE  -
|  1> !BLYP D3BJ RIJCOSX def2-SVPD def2/J TightSCF
|  2> *xyz 0 1
|  3> C          1.96337       -1.74915       -1.89689
|  4> N          2.73849       -2.01517       -3.09711
|  5> C          4.04974       -2.15472       -3.15204
|  6> C          4.65821       -1.98629       -4.31866
|  7> N          4.76423       -2.45444       -2.05049
|  8> H          4.28736       -2.77626       -1.21750
|  9> H          5.75082       -2.65835       -2.12599
| 10> H          2.34518       -1.69027       -3.97145
| 11> H          4.10900       -1.59268       -5.07176
| 12> H          5.64910       -2.15646       -4.42724
| 13> C          2.08852       -0.30091       -1.41520
| 14> H          2.23127       -2.45162       -1.10264
| 15> H          0.93025       -1.97780       -2.15544
| 16> H          1.82118        0.36368       -2.21003
| 17> H          3.09792       -0.11068       -1.11551
| 18> H          1.43391       -0.14382       -0.58352
| 19> *
| 20> %MaxCore 64000
| 21>
| 22> %pal nprocs 4
| 23> end
| 24>
| 25> %scf
| 26>   MaxIter 150
| 27> end
| 28>
| 29>
| 30>                          ****END OF INPUT****

CARTESIAN COORDINATES (ANGSTROEM)
---------------------------------
  C      1.963370   -1.749150   -1.896890
  N      2.738490   -2.015170   -3.097110
  C      4.049740   -2.154720   -3.152040
  C      4.658210   -1.986290   -4.318660
  N      4.764230   -2.454440   -2.050490
  H      4.287360   -2.776260   -1.217500
  H      5.750820   -2.658350   -2.125990
  H      2.345180   -1.690270   -3.971450
  H      4.109000   -1.592680   -5.071760
  H      5.649100   -2.156460   -4.427240
  C      2.088520   -0.300910   -1.415200
  H      2.231270   -2.451620   -1.102640
  H      0.930250   -1.977800   -2.155440
  H      1.821180    0.363680   -2.210030
  H      3.097920   -0.110680   -1.115510
  H      1.433910   -0.143820   -0.583520

 Total Charge           Charge          ....    0
 Multiplicity           Mult            ....    1
 Number of Electrons    NEL             ....   48
 Basis Dimension        Dim             ....  200

ORBITAL ENERGIES
----------------

  NO   OCC          E(Eh)            E(eV)
   0   2.0000     -14.024546      -381.6273
   1   2.0000     -14.021922      -381.5559
   2   2.0000      -9.961164      -271.0571
   3   2.0000      -9.960308      -271.0338
   4   2.0000      -9.912298      -269.7273
   5   2.0000      -9.836035      -267.6521
   6   2.0000      -0.870388       -23.6845
   7   2.0000      -0.791474       -21.5371
   8   2.0000      -0.687397       -18.7050
   9   2.0000      -0.621170       -16.9029
  10   2.0000      -0.558419       -15.1954
  11   2.0000      -0.536080       -14.5875
  12   2.0000      -0.478754       -13.0276
  13   2.0000      -0.440870       -11.9967
  14   2.0000      -0.428129       -11.6500
  15   2.0000      -0.387031       -10.5316
  16   2.0000      -0.379875       -10.3369
  17   2.0000      -0.351886        -9.5753
  18   2.0000      -0.334212        -9.0944
  19   2.0000      -0.328225        -8.9315
  20   2.0000      -0.313519        -8.5313
  21   2.0000      -0.309845        -8.4313
  22   2.0000      -0.209673        -5.7055
  23   2.0000      -0.127924        -3.4810
  24   0.0000      -0.008661        -0.2357
  25   0.0000       0.018576         0.5055
  26   0.0000       0.024603         0.6695
  27   0.0000       0.030768         0.8372
  28   0.0000       0.052308         1.4234

MULLIKEN ATOMIC CHARGES
-----------------------
   0 C :    0.580680
   1 N :   -0.113228
   2 C :    0.487722
   3 C :    0.606878
   4 N :    0.404727
   5 H :   -0.215309
   6 H :   -0.263252
   7 H :   -0.263359
   8 H :   -0.371431
   9 H :   -0.581416
  10 C :    1.054623
  11 H :   -0.269656
  12 H :   -0.513334
  13 H :   -0.193206
  14 H :   -0.176639
  15 H :   -0.173800
Sum of atomic charges:   -0.0000000

LOEWDIN ATOMIC CHARGES
----------------------
   0 C :    0.013219
   1 N :    0.001475
   2 C :   -0.256209
   3 C :    0.159026
   4 N :    0.220290
   5 H :   -0.031105
   6 H :   -0.001971
   7 H :    0.025561
   8 H :   -0.107604
   9 H :   -0.106988
  10 C :    0.149972
  11 H :    0.003127
  12 H :    0.011623
  13 H :   -0.023674
  14 H :   -0.029002
  15 H :   -0.027741

  Mayer bond orders larger than 0.100000
B(  0-C ,  1-N ) :   0.9656 B(  0-C ,  7-H ) :  -0.1381 B(  0-C , 10-C ) :   1.2009
B(  0-C , 11-H ) :   0.8155 B(  0-C , 12-H ) :   0.6930 B(  0-C , 13-H ) :   0.3048
B(  0-C , 14-H ) :   0.2284 B(  0-C , 15-H ) :   0.2275 B(  1-N ,  2-C ) :   1.1388
B(  1-N ,  3-C ) :   0.2998 B(  1-N ,  4-N ) :   0.1475 B(  1-N ,  7-H ) :   1.1384
B(  1-N , 11-H ) :   0.1676 B(  1-N , 12-H ) :   0.2515 B(  2-C ,  3-C ) :   1.1589
B(  2-C ,  4-N ) :   1.0492 B(  2-C ,  6-H ) :  -0.1145 B(  2-C ,  7-H ) :  -0.1661
B(  2-C ,  8-H ) :   0.1347 B(  2-C ,  9-H ) :   0.1623 B(  3-C ,  4-N ) :   0.2308
B(  3-C ,  8-H ) :   0.7658 B(  3-C ,  9-H ) :   0.6615 B(  4-N ,  5-H ) :   1.0474
B(  4-N ,  6-H ) :   1.2289 B(  5-H ,  6-H ) :  -0.2252 B( 10-C , 13-H ) :   0.7000
B( 10-C , 14-H ) :   0.7547 B( 10-C , 15-H ) :   0.7330

Dispersion correction           -0.025905936
FINAL SINGLE POINT ENERGY      -267.619266861641

DIPOLE MOMENT
-------------
                                X             Y             Z
Electronic contribution:      1.41666      -2.34617      -1.23190
Nuclear contribution   :     -1.91052       2.32590       2.09379
                        -----------------------------------------
Total Dipole Moment    :     -0.49386      -0.02027       0.86190
                        -----------------------------------------
Magnitude (a.u.)       :      0.99357
Magnitude (Debye)      :      2.52545

Rotational constants in cm-1:     0.219448     0.077923     0.068804
Rotational constants in MHz :  6578.886179  2336.083179  2062.700476

                             ****ORCA TERMINATED NORMALLY****
TOTAL RUN TIME: 0 days 0 hours 0 minutes 8 seconds 509 msec
