                         Program Version 5.0.0 -  RELEASE  -
|  1> !BLYP D3BJ RIJCOSX def2-SVPD def2/J TightSCF
|  2> *xyz 0 1
|  3> C          0.61188        1.65763       -4.50029
|  4> C          1.69499        1.54179       -5.57045
|  5> H          2.69733        1.73466       -5.18400
|  6> H          1.50666        2.27224       -6.35808
|  7> S          1.78029       -0.03313       -6.42874
|  8> O          2.56929        0.21366       -7.60736
|  9> O          0.41688       -0.46297       -6.61859
| 10> F          2.50513       -0.93326       -5.48257
| 11> H         -0.34424        1.45871       -4.93752
| 12> H          0.61845        2.64655       -4.09174
| 13> H          0.80247        0.94882       -3.72173
| 14> *
| 15> %MaxCore 64000
| 16>
| 17> %pal nprocs 4
| 18> end
| 19>
| 20> %scf
| 21>   MaxIter 150
| 22> end
| 23>
| 24>
| 25>                          ****END OF INPUT****

CARTESIAN COORDINATES (ANGSTROEM)
---------------------------------
  C      0.611880    1.657630   -4.500290
  C      1.694990    1.541790   -5.570450
  H      2.697330    1.734660   -5.184000
  H      1.506660    2.272240   -6.358080
  S      1.780290   -0.033130   -6.428740
  O      2.569290    0.213660   -7.607360
  O      0.416880   -0.462970   -6.618590
  F      2.505130   -0.933260   -5.482570
  H     -0.344240    1.458710   -4.937520
  H      0.618450    2.646550   -4.091740
  H      0.802470    0.948820   -3.721730

 Total Charge           Charge          ....    0
 Multiplicity           Mult            ....    1
 Number of Electrons    NEL             ....   58
 Basis Dimension        Dim             ....  176

ORBITAL ENERGIES
----------------

  NO   OCC          E(Eh)            E(eV)
   0   2.0000     -88.379974     -2404.9414
   1   2.0000     -24.393242      -663.7738
   2   2.0000     -18.804345      -511.6922
   3   2.0000     -18.803458      -511.6681
   4   2.0000      -9.983239      -271.6577
   5   2.0000      -9.944775      -270.6111
   6   2.0000      -7.917861      -215.4559
   7   2.0000      -5.956963      -162.0972
   8   2.0000      -5.950974      -161.9342
   9   2.0000      -5.949248      -161.8873
  10   2.0000      -1.223352       -33.2891
  11   2.0000      -1.022552       -27.8251
  12   2.0000      -0.933563       -25.4035
  13   2.0000      -0.741854       -20.1869
  14   2.0000      -0.647674       -17.6241
  15   2.0000      -0.601752       -16.3745
  16   2.0000      -0.513276       -13.9670
  17   2.0000      -0.490415       -13.3449
  18   2.0000      -0.484803       -13.1922
  19   2.0000      -0.441923       -12.0253
  20   2.0000      -0.424292       -11.5456
  21   2.0000      -0.404042       -10.9945
  22   2.0000      -0.385549       -10.4913
  23   2.0000      -0.360669        -9.8143
  24   2.0000      -0.355609        -9.6766
  25   2.0000      -0.335371        -9.1259
  26   2.0000      -0.293373        -7.9831
  27   2.0000      -0.289652        -7.8818
  28   2.0000      -0.274020        -7.4565
  29   0.0000      -0.028998        -0.7891
  30   0.0000       0.001613         0.0439
  31   0.0000       0.014197         0.3863
  32   0.0000       0.022290         0.6065
  33   0.0000       0.027251         0.7415

MULLIKEN ATOMIC CHARGES
-----------------------
   0 C :    1.208854
   1 C :   -0.108531
   2 H :   -0.172270
   3 H :   -0.117549
   4 S :    1.321278
   5 O :   -0.585857
   6 O :   -0.605648
   7 F :   -0.387221
   8 H :   -0.149150
   9 H :   -0.219941
  10 H :   -0.183965
Sum of atomic charges:   -0.0000000

LOEWDIN ATOMIC CHARGES
----------------------
   0 C :    0.147912
   1 C :   -0.086821
   2 H :    0.017346
   3 H :    0.024380
   4 S :    1.076422
   5 O :   -0.441108
   6 O :   -0.437877
   7 F :   -0.266115
   8 H :   -0.012813
   9 H :   -0.010687
  10 H :   -0.010638

  Mayer bond orders larger than 0.100000
B(  0-C ,  1-C ) :   1.3202 B(  0-C ,  3-H ) :   0.1118 B(  0-C ,  8-H ) :   0.7221
B(  0-C ,  9-H ) :   0.6078 B(  0-C , 10-H ) :   0.7031 B(  1-C ,  2-H ) :   0.9086
B(  1-C ,  3-H ) :   0.9218 B(  1-C ,  4-S ) :   0.9492 B(  1-C ,  8-H ) :   0.2607
B(  1-C ,  9-H ) :   0.2925 B(  1-C , 10-H ) :   0.2418 B(  4-S ,  5-O ) :   1.5818
B(  4-S ,  6-O ) :   1.5502 B(  4-S ,  7-F ) :   0.6592 B(  5-O ,  6-O ) :   0.1253

Dispersion correction           -0.019503040
FINAL SINGLE POINT ENERGY      -727.224152023704

DIPOLE MOMENT
-------------
                                X             Y             Z
Electronic contribution:      3.75778      -7.58689      -3.94541
Nuclear contribution   :     -3.60260       8.53062       5.21025
                        -----------------------------------------
Total Dipole Moment    :      0.15517       0.94372       1.26484
                        -----------------------------------------
Magnitude (a.u.)       :      1.58572
Magnitude (Debye)      :      4.03059

Rotational constants in cm-1:     0.154011     0.080858     0.079602
Rotational constants in MHz :  4617.134198  2424.070332  2386.404775

                             ****ORCA TERMINATED NORMALLY****
TOTAL RUN TIME: 0 days 0 hours 0 minutes 6 seconds 293 msec
