                         Program Version 5.0.0 -  RELEASE  -
|  1> !BLYP D3BJ RIJCOSX def2-SVPD def2/J TightSCF
|  2> *xyz 0 1
|  3> C          1.96337       -1.74915       -1.89689
|  4> N          2.73849       -2.01517       -3.09711
|  5> C          4.04974       -2.15472       -3.15204
|  6> N          4.65821       -1.98629       -4.31866
|  7> C          4.76423       -2.45444       -2.05049
|  8> H          4.28736       -2.77626       -1.21750
|  9> H          5.75082       -2.65835       -2.12599
| 10> H          2.34518       -1.69027       -3.97145
| 11> H          4.10900       -1.59268       -5.07176
| 12> H          5.64910       -2.15646       -4.42724
| 13> C          2.08852       -0.30091       -1.41520
| 14> H          2.23127       -2.45162       -1.10264
| 15> H          0.93025       -1.97780       -2.15544
| 16> H          1.82118        0.36368       -2.21003
| 17> H          3.09792       -0.11068       -1.11551
| 18> H          1.43391       -0.14382       -0.58352
| 19> *
| 20> %MaxCore 64000
| 21>
| 22> %pal nprocs 4
| 23> end
| 24>
| 25> %scf
| 26>   MaxIter 150
| 27> end
| 28>
| 29>
| 30>                          ****END OF INPUT****

CARTESIAN COORDINATES (ANGSTROEM)
---------------------------------
  C      1.963370   -1.749150   -1.896890
  N      2.738490   -2.015170   -3.097110
  C      4.049740   -2.154720   -3.152040
  N      4.658210   -1.986290   -4.318660
  C      4.764230   -2.454440   -2.050490
  H      4.287360   -2.776260   -1.217500
  H      5.750820   -2.658350   -2.125990
  H      2.345180   -1.690270   -3.971450
  H      4.109000   -1.592680   -5.071760
  H      5.649100   -2.156460   -4.427240
  C      2.088520   -0.300910   -1.415200
  H      2.231270   -2.451620   -1.102640
  H      0.930250   -1.977800   -2.155440
  H      1.821180    0.363680   -2.210030
  H      3.097920   -0.110680   -1.115510
  H      1.433910   -0.143820   -0.583520

 Total Charge           Charge          ....    0
 Multiplicity           Mult            ....    1
 Number of Electrons    NEL             ....   48
 Basis Dimension        Dim             ....  200

ORBITAL ENERGIES
----------------

  NO   OCC          E(Eh)            E(eV)
   0   2.0000     -14.026339      -381.6761
   1   2.0000     -14.026212      -381.6726
   2   2.0000      -9.962077      -271.0819
   3   2.0000      -9.954950      -270.8880
   4   2.0000      -9.905921      -269.5538
   5   2.0000      -9.836532      -267.6657
   6   2.0000      -0.876019       -23.8377
   7   2.0000      -0.795221       -21.6391
   8   2.0000      -0.671839       -18.2817
   9   2.0000      -0.626450       -17.0466
  10   2.0000      -0.572013       -15.5653
  11   2.0000      -0.499453       -13.5908
  12   2.0000      -0.490565       -13.3489
  13   2.0000      -0.467668       -12.7259
  14   2.0000      -0.416467       -11.3326
  15   2.0000      -0.388306       -10.5663
  16   2.0000      -0.366580        -9.9752
  17   2.0000      -0.348710        -9.4889
  18   2.0000      -0.333123        -9.0647
  19   2.0000      -0.320134        -8.7113
  20   2.0000      -0.314585        -8.5603
  21   2.0000      -0.302587        -8.2338
  22   2.0000      -0.207544        -5.6476
  23   2.0000      -0.129889        -3.5345
  24   0.0000      -0.009853        -0.2681
  25   0.0000       0.016432         0.4471
  26   0.0000       0.028277         0.7694
  27   0.0000       0.032369         0.8808
  28   0.0000       0.056036         1.5248

MULLIKEN ATOMIC CHARGES
-----------------------
   0 C :    0.546429
   1 N :   -0.107204
   2 C :    0.522491
   3 N :    0.337242
   4 C :    0.596736
   5 H :   -0.200443
   6 H :   -0.756846
   7 H :   -0.361551
   8 H :   -0.231187
   9 H :   -0.175445
  10 C :    1.080901
  11 H :   -0.134683
  12 H :   -0.530481
  13 H :   -0.205983
  14 H :   -0.204259
  15 H :   -0.175715
Sum of atomic charges:    0.0000000

LOEWDIN ATOMIC CHARGES
----------------------
   0 C :    0.021663
   1 N :   -0.001580
   2 C :   -0.256153
   3 N :    0.205725
   4 C :    0.172933
   5 H :   -0.118715
   6 H :   -0.112844
   7 H :    0.010545
   8 H :   -0.018439
   9 H :    0.004978
  10 C :    0.152601
  11 H :    0.012051
  12 H :    0.011485
  13 H :   -0.028145
  14 H :   -0.029816
  15 H :   -0.026289

  Mayer bond orders larger than 0.100000
B(  0-C ,  1-N ) :   0.9759 B(  0-C ,  2-C ) :  -0.1097 B(  0-C ,  4-C ) :   0.1179
B(  0-C ,  7-H ) :  -0.1199 B(  0-C , 10-C ) :   1.1844 B(  0-C , 11-H ) :   0.8209
B(  0-C , 12-H ) :   0.7447 B(  0-C , 13-H ) :   0.2935 B(  0-C , 14-H ) :   0.2383
B(  0-C , 15-H ) :   0.2307 B(  1-N ,  2-C ) :   1.0170 B(  1-N ,  3-N ) :   0.1865
B(  1-N ,  4-C ) :   0.3934 B(  1-N ,  7-H ) :   1.1884 B(  1-N , 11-H ) :   0.1137
B(  1-N , 12-H ) :   0.2152 B(  2-C ,  3-N ) :   0.9754 B(  2-C ,  4-C ) :   1.4710
B(  2-C ,  5-H ) :   0.3332 B(  2-C ,  6-H ) :   0.1371 B(  2-C ,  7-H ) :  -0.2174
B(  3-N ,  4-C ) :   0.2481 B(  3-N ,  8-H ) :   1.1582 B(  3-N ,  9-H ) :   1.2412
B(  4-C ,  5-H ) :   0.5083 B(  4-C ,  6-H ) :   0.7755 B(  5-H , 11-H ) :   0.1122
B(  8-H ,  9-H ) :  -0.1858 B( 10-C , 13-H ) :   0.7060 B( 10-C , 14-H ) :   0.7628
B( 10-C , 15-H ) :   0.7253 B( 11-H , 12-H ) :  -0.1413

Dispersion correction           -0.026075669
FINAL SINGLE POINT ENERGY      -267.618993476173

DIPOLE MOMENT
-------------
                                X             Y             Z
Electronic contribution:      1.35207      -1.84534      -3.40872
Nuclear contribution   :     -1.88803       2.22658       2.57497
                        -----------------------------------------
Total Dipole Moment    :     -0.53596       0.38124      -0.83375
                        -----------------------------------------
Magnitude (a.u.)       :      1.06195
Magnitude (Debye)      :      2.69925

Rotational constants in cm-1:     0.226509     0.075782     0.067928
Rotational constants in MHz :  6790.555051  2271.890226  2036.439218

                             ****ORCA TERMINATED NORMALLY****
TOTAL RUN TIME: 0 days 0 hours 0 minutes 8 seconds 581 msec
