                         Program Version 5.0.0 -  RELEASE  -
|  1> !BLYP D3BJ RIJCOSX def2-SVPD def2/J TightSCF xyzfile
|  2>
|  3> *xyzfile 0 1 D4.xyz
|  4>
|  5> %MaxCore 64000
|  6>
|  7> %pal nprocs 4
|  8> end
|  9>
| 10> %scf
| 11>   MaxIter 150
| 12> end
| 13>
| 14>
| 15>                          ****END OF INPUT****

CARTESIAN COORDINATES (ANGSTROEM)
---------------------------------
  C      1.963365   -1.749150   -1.896887
  C      2.738490   -2.015170   -3.097113
  C      0.611877    1.657634   -4.500288
  C      1.694991    1.541794   -5.570447
  H      2.697326    1.734659   -5.183996
  H      1.506656    2.272239   -6.358076
  S      1.780287   -0.033128   -6.428739
  C      4.049736   -2.154717   -3.152044
  N      4.658206   -1.986293   -4.318655
  N      4.764231   -2.454435   -2.050491
  H      4.287363   -2.776259   -1.217496
  H      5.750825   -2.658351   -2.125988
  H      2.345176   -1.690274   -3.971447
  H      4.109004   -1.592677   -5.071760
  H      5.649095   -2.156462   -4.427237
  O      2.569287    0.213657   -7.607360
  F      0.416880   -0.462969   -6.618595
  C      2.088520   -0.300912   -1.415204
  H      2.231272   -2.451616   -1.102643
  H      0.930249   -1.977801   -2.155438
  C      0.680356    0.655418   -3.348038
  H     -0.356865    1.549231   -4.991128
  H      0.650228    2.675438   -4.096000
  C      1.968993    0.733582   -2.535654
  H      3.051356   -0.168602   -0.911868
  H      1.316501   -0.136231   -0.657252
  O      2.505129   -0.933263   -5.482570
  H      2.824195    0.624726   -3.208464
  H      2.058919    1.730331   -2.093112
  H      0.542252   -0.344731   -3.766662
  H     -0.174219    0.829692   -2.685182

 Total Charge           Charge          ....    0
 Multiplicity           Mult            ....    1
 Number of Electrons    NEL             ....  120
 Basis Dimension        Dim             ....  432

ORBITAL ENERGIES
----------------

  NO   OCC          E(Eh)            E(eV)
   0   2.0000     -88.393432     -2405.3076
   1   2.0000     -24.427608      -664.7090
   2   2.0000     -18.811791      -511.8949
   3   2.0000     -18.797204      -511.4979
   4   2.0000     -14.010050      -381.2328
   5   2.0000     -13.994146      -380.8001
   6   2.0000      -9.984097      -271.6811
   7   2.0000      -9.950974      -270.7798
   8   2.0000      -9.938697      -270.4457
   9   2.0000      -9.923587      -270.0345
  10   2.0000      -9.908762      -269.6311
  11   2.0000      -9.896746      -269.3042
  12   2.0000      -9.885403      -268.9955
  13   2.0000      -9.812996      -267.0252
  14   2.0000      -7.930018      -215.7868
  15   2.0000      -5.969470      -162.4375
  16   2.0000      -5.963193      -162.2667
  17   2.0000      -5.960943      -162.2055
  18   2.0000      -1.273309       -34.6485
  19   2.0000      -1.022183       -27.8150
  20   2.0000      -0.921466       -25.0744
  21   2.0000      -0.841279       -22.8924
  22   2.0000      -0.759941       -20.6790
  23   2.0000      -0.756077       -20.5739
  24   2.0000      -0.709051       -19.2943
  25   2.0000      -0.674816       -18.3627
  26   2.0000      -0.650934       -17.7128
  27   2.0000      -0.619438       -16.8558
  28   2.0000      -0.581107       -15.8127
  29   2.0000      -0.554606       -15.0916
  30   2.0000      -0.535529       -14.5725
  31   2.0000      -0.530843       -14.4450
  32   2.0000      -0.518005       -14.0956
  33   2.0000      -0.489785       -13.3277
  34   2.0000      -0.485202       -13.2030
  35   2.0000      -0.467001       -12.7077
  36   2.0000      -0.443655       -12.0725
  37   2.0000      -0.439851       -11.9690
  38   2.0000      -0.423583       -11.5263
  39   2.0000      -0.421526       -11.4703
  40   2.0000      -0.413724       -11.2580
  41   2.0000      -0.393437       -10.7060
  42   2.0000      -0.387230       -10.5371
  43   2.0000      -0.381187       -10.3726
  44   2.0000      -0.370533       -10.0827
  45   2.0000      -0.344394        -9.3714
  46   2.0000      -0.339430        -9.2364
  47   2.0000      -0.333303        -9.0696
  48   2.0000      -0.326270        -8.8783
  49   2.0000      -0.314354        -8.5540
  50   2.0000      -0.304555        -8.2874
  51   2.0000      -0.294111        -8.0032
  52   2.0000      -0.290367        -7.9013
  53   2.0000      -0.284275        -7.7355
  54   2.0000      -0.275947        -7.5089
  55   2.0000      -0.270422        -7.3586
  56   2.0000      -0.259724        -7.0675
  57   2.0000      -0.236185        -6.4269
  58   2.0000      -0.198953        -5.4138
  59   2.0000      -0.105933        -2.8826
  60   0.0000      -0.036561        -0.9949
  61   0.0000      -0.002704        -0.0736
  62   0.0000       0.003585         0.0975
  63   0.0000       0.008212         0.2234
  64   0.0000       0.014371         0.3911

MULLIKEN ATOMIC CHARGES
-----------------------
   0 C :    0.626365
   1 C :    0.277013
   2 C :    0.776708
   3 C :    0.429943
   4 H :   -0.060516
   5 H :   -0.276732
   6 S :    1.356441
   7 C :    0.441842
   8 N :    0.489964
   9 N :    0.261510
  10 H :   -0.105112
  11 H :   -0.366907
  12 H :   -0.649629
  13 H :   -0.282738
  14 H :   -0.369893
  15 O :   -0.579290
  16 F :   -0.417047
  17 C :    0.900998
  18 H :   -0.553036
  19 H :   -0.017820
  20 C :    0.318612
  21 H :   -0.182674
  22 H :   -0.194923
  23 C :    0.146826
  24 H :   -0.177008
  25 H :   -0.096627
  26 O :   -0.661956
  27 H :   -0.119881
  28 H :   -0.362999
  29 H :   -0.204469
  30 H :   -0.346963
Sum of atomic charges:    0.0000000

LOEWDIN ATOMIC CHARGES
----------------------
   0 C :   -0.041504
   1 C :   -0.021311
   2 C :   -0.027240
   3 C :   -0.030392
   4 H :    0.028618
   5 H :    0.016459
   6 S :    1.145338
   7 C :   -0.210455
   8 N :    0.225845
   9 N :    0.217780
  10 H :   -0.018803
  11 H :   -0.024557
  12 H :   -0.139304
  13 H :   -0.079247
  14 H :   -0.016700
  15 O :   -0.424917
  16 F :   -0.225900
  17 C :   -0.012302
  18 H :   -0.006974
  19 H :    0.002378
  20 C :   -0.013730
  21 H :    0.018267
  22 H :    0.030827
  23 C :   -0.017615
  24 H :    0.012376
  25 H :    0.008155
  26 O :   -0.450269
  27 H :    0.005547
  28 H :    0.017734
  29 H :    0.002859
  30 H :    0.029035

  Mayer bond orders larger than 0.100000
B(  0-C ,  1-C ) :   0.9255 B(  0-C ,  7-C ) :   0.2509 B(  0-C , 12-H ) :   0.5757
B(  0-C , 17-C ) :   1.0519 B(  0-C , 18-H ) :   0.5955 B(  0-C , 19-H ) :   0.5462
B(  0-C , 23-C ) :   0.2404 B(  0-C , 24-H ) :   0.1604 B(  0-C , 25-H ) :   0.2577
B(  1-C ,  7-C ) :   1.5515 B(  1-C ,  8-N ) :   0.2937 B(  1-C ,  9-N ) :   0.3057
B(  1-C , 10-H ) :  -0.1210 B(  1-C , 12-H ) :  -0.2311 B(  1-C , 17-C ) :   0.1600
B(  1-C , 18-H ) :   0.3328 B(  1-C , 19-H ) :   0.3911 B(  1-C , 26-O ) :  -0.1262
B(  1-C , 28-H ) :   0.1453 B(  2-C ,  3-C ) :   1.2119 B(  2-C ,  4-H ) :   0.1358
B(  2-C ,  5-H ) :   0.2258 B(  2-C , 20-C ) :   1.2150 B(  2-C , 21-H ) :   0.4810
B(  2-C , 22-H ) :   0.6356 B(  3-C ,  4-H ) :   0.8410 B(  3-C ,  5-H ) :   0.7181
B(  3-C ,  6-S ) :   1.0007 B(  3-C , 21-H ) :   0.1415 B(  3-C , 22-H ) :   0.1949
B(  6-S , 15-O ) :   1.6149 B(  6-S , 16-F ) :   0.6156 B(  6-S , 26-O ) :   1.4160
B(  7-C ,  8-N ) :   0.8766 B(  7-C ,  9-N ) :   1.0063 B(  7-C , 11-H ) :  -0.1865
B(  7-C , 12-H ) :   0.7481 B(  7-C , 13-H ) :  -0.1444 B(  7-C , 14-H ) :  -0.2465
B(  8-N ,  9-N ) :   0.1158 B(  8-N , 12-H ) :   0.1063 B(  8-N , 13-H ) :   1.1823
B(  8-N , 14-H ) :   1.3334 B(  9-N , 10-H ) :   1.0815 B(  9-N , 11-H ) :   1.3478
B( 10-H , 11-H ) :  -0.2389 B( 12-H , 23-C ) :   0.1382 B( 12-H , 26-O ) :   0.1878
B( 12-H , 27-H ) :   0.1249 B( 12-H , 28-H ) :  -0.1903 B( 13-H , 14-H ) :  -0.2240
B( 13-H , 26-O ) :   0.1246 B( 15-O , 26-O ) :   0.1020 B( 16-F , 26-O ) :   0.1550
B( 17-C , 18-H ) :   0.1048 B( 17-C , 19-H ) :   0.1222 B( 17-C , 23-C ) :   1.1619
B( 17-C , 24-H ) :   0.5845 B( 17-C , 25-H ) :   0.5366 B( 17-C , 27-H ) :   0.1435
B( 17-C , 28-H ) :   0.1350 B( 18-H , 19-H ) :  -0.1112 B( 19-H , 23-C ) :  -0.1015
B( 20-C , 21-H ) :   0.3653 B( 20-C , 22-H ) :   0.1107 B( 20-C , 23-C ) :   1.1923
B( 20-C , 27-H ) :   0.1609 B( 20-C , 28-H ) :   0.1946 B( 20-C , 29-H ) :   0.8453
B( 20-C , 30-H ) :   0.6620 B( 21-H , 22-H ) :  -0.1611 B( 23-C , 24-H ) :   0.3419
B( 23-C , 25-H ) :   0.1917 B( 23-C , 27-H ) :   0.8008 B( 23-C , 28-H ) :   0.7216
B( 23-C , 29-H ) :   0.1634 B( 23-C , 30-H ) :   0.1834 B( 24-H , 25-H ) :  -0.1550

Dispersion correction           -0.076003239
FINAL SINGLE POINT ENERGY     -1072.166204130755

DIPOLE MOMENT
-------------
                                X             Y             Z
Electronic contribution:     -2.97083      -2.19101     -21.74458
Nuclear contribution   :      2.64598       3.36033      21.85869
                        -----------------------------------------
Total Dipole Moment    :     -0.32485       1.16932       0.11412
                        -----------------------------------------
Magnitude (a.u.)       :      1.21896
Magnitude (Debye)      :      3.09834

Rotational constants in cm-1:     0.028973     0.014435     0.011026
Rotational constants in MHz :   868.588266   432.748309   330.548534

                             ****ORCA TERMINATED NORMALLY****
TOTAL RUN TIME: 0 days 0 hours 0 minutes 46 seconds 447 msec
