                         Program Version 5.0.0 -  RELEASE  -
|  1> !BLYP D3BJ RIJCOSX def2-SVPD def2/J TightSCF xyzfile
|  2>
|  3> *xyzfile 0 1 D5.xyz
|  4>
|  5> %MaxCore 64000
|  6>
|  7> %pal nprocs 4
|  8> end
|  9>
| 10> %scf
| 11>   MaxIter 150
| 12> end
| 13>
| 14>
| 15>                          ****END OF INPUT****

CARTESIAN COORDINATES (ANGSTROEM)
---------------------------------
  C      1.963365   -1.749150   -1.896887
  N      2.738490   -2.015170   -3.097113
  C      0.611877    1.657634   -4.500288
  C      1.694991    1.541794   -5.570447
  H      2.697326    1.734659   -5.183996
  H      1.506656    2.272239   -6.358076
  S      1.780287   -0.033128   -6.428739
  C      4.049736   -2.154717   -3.152044
  C      4.658206   -1.986293   -4.318655
  N      4.764231   -2.454435   -2.050491
  H      4.287363   -2.776259   -1.217496
  H      5.750825   -2.658351   -2.125988
  H      2.345176   -1.690274   -3.971447
  H      4.109004   -1.592677   -5.071760
  H      5.649095   -2.156462   -4.427237
  O      2.569287    0.213657   -7.607360
  F      0.416880   -0.462969   -6.618595
  C      2.088520   -0.300912   -1.415204
  H      2.231272   -2.451616   -1.102643
  H      0.930249   -1.977801   -2.155438
  C      0.680356    0.655418   -3.348038
  H     -0.356865    1.549231   -4.991128
  H      0.650228    2.675438   -4.096000
  C      1.968993    0.733582   -2.535654
  H      3.051356   -0.168602   -0.911868
  H      1.316501   -0.136231   -0.657252
  O      2.505129   -0.933263   -5.482570
  H      2.824195    0.624726   -3.208464
  H      2.058919    1.730331   -2.093112
  H      0.542252   -0.344731   -3.766662
  H     -0.174219    0.829692   -2.685182

 Total Charge           Charge          ....    0
 Multiplicity           Mult            ....    1
 Number of Electrons    NEL             ....  120
 Basis Dimension        Dim             ....  432

ORBITAL ENERGIES
----------------

  NO   OCC          E(Eh)            E(eV)
   0   2.0000     -88.394263     -2405.3302
   1   2.0000     -24.428352      -664.7293
   2   2.0000     -18.813021      -511.9283
   3   2.0000     -18.799358      -511.5565
   4   2.0000     -14.006664      -381.1407
   5   2.0000     -13.990271      -380.6946
   6   2.0000      -9.986502      -271.7465
   7   2.0000      -9.958213      -270.9768
   8   2.0000      -9.946389      -270.6550
   9   2.0000      -9.937539      -270.4142
  10   2.0000      -9.936794      -270.3939
  11   2.0000      -9.923629      -270.0357
  12   2.0000      -9.917026      -269.8560
  13   2.0000      -9.807254      -266.8690
  14   2.0000      -7.930804      -215.8081
  15   2.0000      -5.970376      -162.4622
  16   2.0000      -5.963739      -162.2816
  17   2.0000      -5.961889      -162.2312
  18   2.0000      -1.274345       -34.6767
  19   2.0000      -1.022958       -27.8361
  20   2.0000      -0.922825       -25.1114
  21   2.0000      -0.848981       -23.1019
  22   2.0000      -0.773979       -21.0610
  23   2.0000      -0.762219       -20.7410
  24   2.0000      -0.712428       -19.3862
  25   2.0000      -0.680216       -18.5096
  26   2.0000      -0.650755       -17.7079
  27   2.0000      -0.624296       -16.9879
  28   2.0000      -0.587249       -15.9799
  29   2.0000      -0.560993       -15.2654
  30   2.0000      -0.538305       -14.6480
  31   2.0000      -0.536171       -14.5900
  32   2.0000      -0.523421       -14.2430
  33   2.0000      -0.505814       -13.7639
  34   2.0000      -0.488250       -13.2860
  35   2.0000      -0.460925       -12.5424
  36   2.0000      -0.448348       -12.2002
  37   2.0000      -0.442026       -12.0281
  38   2.0000      -0.426338       -11.6012
  39   2.0000      -0.421408       -11.4671
  40   2.0000      -0.415706       -11.3119
  41   2.0000      -0.407693       -11.0939
  42   2.0000      -0.393269       -10.7014
  43   2.0000      -0.383015       -10.4224
  44   2.0000      -0.374589       -10.1931
  45   2.0000      -0.348950        -9.4954
  46   2.0000      -0.347340        -9.4516
  47   2.0000      -0.341340        -9.2883
  48   2.0000      -0.332245        -9.0409
  49   2.0000      -0.316524        -8.6131
  50   2.0000      -0.313869        -8.5408
  51   2.0000      -0.304476        -8.2852
  52   2.0000      -0.294919        -8.0252
  53   2.0000      -0.288989        -7.8638
  54   2.0000      -0.286308        -7.7908
  55   2.0000      -0.283394        -7.7115
  56   2.0000      -0.275065        -7.4849
  57   2.0000      -0.262004        -7.1295
  58   2.0000      -0.189349        -5.1525
  59   2.0000      -0.106459        -2.8969
  60   0.0000      -0.037443        -1.0189
  61   0.0000      -0.007491        -0.2038
  62   0.0000       0.000155         0.0042
  63   0.0000       0.004331         0.1178
  64   0.0000       0.013066         0.3555

MULLIKEN ATOMIC CHARGES
-----------------------
   0 C :    1.293727
   1 N :    0.285685
   2 C :    0.782268
   3 C :    0.434720
   4 H :   -0.058054
   5 H :   -0.271920
   6 S :    1.353751
   7 C :    0.500308
   8 C :    0.948551
   9 N :    0.468572
  10 H :   -0.150766
  11 H :   -0.292139
  12 H :   -0.740906
  13 H :   -0.462633
  14 H :   -0.842973
  15 O :   -0.571335
  16 F :   -0.418109
  17 C :    0.726749
  18 H :   -0.630553
  19 H :   -0.336421
  20 C :    0.320101
  21 H :   -0.171625
  22 H :   -0.189753
  23 C :    0.295098
  24 H :   -0.181436
  25 H :   -0.254049
  26 O :   -0.754331
  27 H :   -0.040867
  28 H :   -0.508440
  29 H :   -0.189197
  30 H :   -0.344021
Sum of atomic charges:   -0.0000000

LOEWDIN ATOMIC CHARGES
----------------------
   0 C :    0.060194
   1 N :    0.028195
   2 C :   -0.025570
   3 C :   -0.029859
   4 H :    0.030127
   5 H :    0.017119
   6 S :    1.145859
   7 C :   -0.234522
   8 C :    0.183695
   9 N :    0.215725
  10 H :   -0.035966
  11 H :   -0.006211
  12 H :   -0.083917
  13 H :   -0.164639
  14 H :   -0.105585
  15 O :   -0.414040
  16 F :   -0.230886
  17 C :   -0.005465
  18 H :    0.000126
  19 H :    0.008755
  20 C :   -0.018948
  21 H :    0.019254
  22 H :    0.031974
  23 C :   -0.014604
  24 H :    0.012833
  25 H :    0.011053
  26 O :   -0.450095
  27 H :    0.007288
  28 H :    0.020938
  29 H :   -0.002011
  30 H :    0.029183

  Mayer bond orders larger than 0.100000
B(  0-C ,  1-N ) :   0.9559 B(  0-C , 12-H ) :  -0.3775 B(  0-C , 17-C ) :   1.0080
B(  0-C , 18-H ) :   0.6807 B(  0-C , 19-H ) :   0.4533 B(  0-C , 23-C ) :   0.1923
B(  0-C , 25-H ) :   0.1589 B(  1-N ,  7-C ) :   1.0816 B(  1-N ,  8-C ) :   0.2468
B(  1-N ,  9-N ) :   0.2413 B(  1-N , 12-H ) :   0.9695 B(  1-N , 18-H ) :   0.1132
B(  1-N , 19-H ) :   0.1738 B(  2-C ,  3-C ) :   1.2140 B(  2-C ,  4-H ) :   0.1280
B(  2-C ,  5-H ) :   0.2176 B(  2-C , 20-C ) :   1.2184 B(  2-C , 21-H ) :   0.4782
B(  2-C , 22-H ) :   0.6382 B(  2-C , 29-H ) :   0.1048 B(  3-C ,  4-H ) :   0.8412
B(  3-C ,  5-H ) :   0.7232 B(  3-C ,  6-S ) :   0.9913 B(  3-C , 21-H ) :   0.1426
B(  3-C , 22-H ) :   0.2032 B(  6-S , 15-O ) :   1.6244 B(  6-S , 16-F ) :   0.6094
B(  6-S , 26-O ) :   1.4351 B(  7-C ,  8-C ) :   1.1656 B(  7-C ,  9-N ) :   1.0360
B(  7-C , 11-H ) :  -0.1286 B(  7-C , 12-H ) :  -0.3858 B(  7-C , 13-H ) :   0.1622
B(  7-C , 14-H ) :   0.2939 B(  8-C ,  9-N ) :   0.3146 B(  8-C , 13-H ) :   0.4162
B(  8-C , 14-H ) :   0.4350 B(  9-N , 10-H ) :   0.9361 B(  9-N , 11-H ) :   1.2542
B(  9-N , 18-H ) :   0.1188 B( 10-H , 11-H ) :  -0.2325 B( 10-H , 13-H ) :   0.1063
B( 12-H , 13-H ) :  -0.1197 B( 12-H , 19-H ) :   0.2299 B( 12-H , 24-H ) :   0.1683
B( 12-H , 26-O ) :   0.1352 B( 12-H , 27-H ) :   0.1296 B( 12-H , 28-H ) :  -0.1366
B( 13-H , 14-H ) :  -0.2458 B( 13-H , 26-O ) :   0.2780 B( 16-F , 26-O ) :   0.1592
B( 17-C , 18-H ) :   0.1721 B( 17-C , 19-H ) :   0.1323 B( 17-C , 23-C ) :   1.2033
B( 17-C , 24-H ) :   0.6143 B( 17-C , 25-H ) :   0.7498 B( 17-C , 27-H ) :   0.1142
B( 18-H , 19-H ) :  -0.2204 B( 19-H , 23-C ) :  -0.1178 B( 20-C , 21-H ) :   0.3682
B( 20-C , 22-H ) :   0.1055 B( 20-C , 23-C ) :   1.1828 B( 20-C , 27-H ) :   0.1542
B( 20-C , 28-H ) :   0.1542 B( 20-C , 29-H ) :   0.8551 B( 20-C , 30-H ) :   0.6728
B( 21-H , 22-H ) :  -0.1597 B( 23-C , 24-H ) :   0.2909 B( 23-C , 25-H ) :   0.1572
B( 23-C , 27-H ) :   0.7951 B( 23-C , 28-H ) :   0.7226 B( 23-C , 29-H ) :   0.1452
B( 23-C , 30-H ) :   0.1548 B( 24-H , 25-H ) :  -0.1470

Dispersion correction           -0.075515047
FINAL SINGLE POINT ENERGY     -1072.161905079234

DIPOLE MOMENT
-------------
                                X             Y             Z
Electronic contribution:     -4.55760      -2.02581     -20.73140
Nuclear contribution   :      2.89225       3.36404      21.70199
                        -----------------------------------------
Total Dipole Moment    :     -1.66535       1.33823       0.97059
                        -----------------------------------------
Magnitude (a.u.)       :      2.34655
Magnitude (Debye)      :      5.96446

Rotational constants in cm-1:     0.029431     0.014408     0.011084
Rotational constants in MHz :   882.306106   431.946714   332.288152

                             ****ORCA TERMINATED NORMALLY****
TOTAL RUN TIME: 0 days 0 hours 0 minutes 45 seconds 597 msec
