                         Program Version 5.0.0 -  RELEASE  -
|  1> !BLYP D3BJ RIJCOSX def2-SVPD def2/J TightSCF xyzfile
|  2>
|  3> *xyzfile 0 1 D7.xyz
|  4>
|  5> %MaxCore 64000
|  6>
|  7> %pal nprocs 4
|  8> end
|  9>
| 10> %scf
| 11>   MaxIter 150
| 12> end
| 13>
| 14>
| 15>                          ****END OF INPUT****

CARTESIAN COORDINATES (ANGSTROEM)
---------------------------------
  C      1.963365   -1.749150   -1.896887
  C      2.738490   -2.015170   -3.097113
  C      0.611877    1.657634   -4.500288
  C      1.694991    1.541794   -5.570447
  H      2.697326    1.734659   -5.183996
  H      1.506656    2.272239   -6.358076
  S      1.780287   -0.033128   -6.428739
  C      4.049736   -2.154717   -3.152044
  N      4.658206   -1.986293   -4.318655
  N      4.764231   -2.454435   -2.050491
  H      4.287363   -2.776259   -1.217496
  H      5.750825   -2.658351   -2.125988
  H      2.345176   -1.690274   -3.971447
  H      4.109004   -1.592677   -5.071760
  H      5.649095   -2.156462   -4.427237
  O      2.569287    0.213657   -7.607360
  O      0.416880   -0.462969   -6.618595
  C      2.088520   -0.300912   -1.415204
  H      2.231272   -2.451616   -1.102643
  H      0.930249   -1.977801   -2.155438
  C      0.680356    0.655418   -3.348038
  H     -0.356865    1.549231   -4.991128
  H      0.650228    2.675438   -4.096000
  C      1.968993    0.733582   -2.535654
  H      3.051356   -0.168602   -0.911868
  H      1.316501   -0.136231   -0.657252
  F      2.505129   -0.933263   -5.482570
  H      2.824195    0.624726   -3.208464
  H      2.058919    1.730331   -2.093112
  H      0.542252   -0.344731   -3.766662
  H     -0.174219    0.829692   -2.685182

 Total Charge           Charge          ....    0
 Multiplicity           Mult            ....    1
 Number of Electrons    NEL             ....  120
 Basis Dimension        Dim             ....  432

ORBITAL ENERGIES
----------------

  NO   OCC          E(Eh)            E(eV)
   0   2.0000     -88.383309     -2405.0321
   1   2.0000     -24.403292      -664.0473
   2   2.0000     -18.806356      -511.7470
   3   2.0000     -18.806073      -511.7392
   4   2.0000     -14.028446      -381.7334
   5   2.0000     -14.023085      -381.5875
   6   2.0000      -9.978369      -271.5252
   7   2.0000      -9.961646      -271.0702
   8   2.0000      -9.944005      -270.5901
   9   2.0000      -9.924676      -270.0642
  10   2.0000      -9.916533      -269.8426
  11   2.0000      -9.906797      -269.5777
  12   2.0000      -9.899516      -269.3795
  13   2.0000      -9.840210      -267.7657
  14   2.0000      -7.920103      -215.5170
  15   2.0000      -5.959493      -162.1660
  16   2.0000      -5.953146      -161.9933
  17   2.0000      -5.951344      -161.9443
  18   2.0000      -1.236783       -33.6546
  19   2.0000      -1.026040       -27.9200
  20   2.0000      -0.935424       -25.4542
  21   2.0000      -0.864565       -23.5260
  22   2.0000      -0.782852       -21.3025
  23   2.0000      -0.751951       -20.4616
  24   2.0000      -0.715912       -19.4809
  25   2.0000      -0.675286       -18.3755
  26   2.0000      -0.658262       -17.9122
  27   2.0000      -0.622225       -16.9316
  28   2.0000      -0.593148       -16.1404
  29   2.0000      -0.558590       -15.2000
  30   2.0000      -0.526696       -14.3321
  31   2.0000      -0.514090       -13.9891
  32   2.0000      -0.512021       -13.9328
  33   2.0000      -0.499270       -13.5858
  34   2.0000      -0.486693       -13.2436
  35   2.0000      -0.483725       -13.1628
  36   2.0000      -0.449567       -12.2334
  37   2.0000      -0.438465       -11.9312
  38   2.0000      -0.435383       -11.8474
  39   2.0000      -0.421103       -11.4588
  40   2.0000      -0.416402       -11.3309
  41   2.0000      -0.402432       -10.9507
  42   2.0000      -0.394403       -10.7323
  43   2.0000      -0.382212       -10.4005
  44   2.0000      -0.372457       -10.1351
  45   2.0000      -0.349296        -9.5048
  46   2.0000      -0.346385        -9.4256
  47   2.0000      -0.344981        -9.3874
  48   2.0000      -0.335268        -9.1231
  49   2.0000      -0.320855        -8.7309
  50   2.0000      -0.310189        -8.4407
  51   2.0000      -0.301046        -8.1919
  52   2.0000      -0.293397        -7.9837
  53   2.0000      -0.288644        -7.8544
  54   2.0000      -0.281595        -7.6626
  55   2.0000      -0.276843        -7.5333
  56   2.0000      -0.270879        -7.3710
  57   2.0000      -0.267203        -7.2710
  58   2.0000      -0.221266        -6.0210
  59   2.0000      -0.128303        -3.4913
  60   0.0000      -0.023923        -0.6510
  61   0.0000      -0.008036        -0.2187
  62   0.0000      -0.000182        -0.0050
  63   0.0000       0.006418         0.1746
  64   0.0000       0.014968         0.4073

MULLIKEN ATOMIC CHARGES
-----------------------
   0 C :    0.637258
   1 C :    0.324855
   2 C :    0.811346
   3 C :    0.423493
   4 H :   -0.020003
   5 H :   -0.347673
   6 S :    1.359558
   7 C :    0.461093
   8 N :    0.538795
   9 N :    0.258447
  10 H :   -0.095192
  11 H :   -0.362206
  12 H :   -0.698501
  13 H :   -0.345229
  14 H :   -0.358959
  15 O :   -0.602727
  16 O :   -0.651296
  17 C :    0.882230
  18 H :   -0.548696
  19 H :   -0.014137
  20 C :    0.291653
  21 H :   -0.175052
  22 H :   -0.186522
  23 C :    0.156117
  24 H :   -0.182676
  25 H :   -0.095848
  26 F :   -0.431717
  27 H :   -0.132336
  28 H :   -0.341603
  29 H :   -0.246182
  30 H :   -0.308291
Sum of atomic charges:   -0.0000000

LOEWDIN ATOMIC CHARGES
----------------------
   0 C :   -0.037699
   1 C :   -0.020083
   2 C :   -0.021992
   3 C :   -0.036193
   4 H :    0.014218
   5 H :    0.026009
   6 S :    1.099525
   7 C :   -0.209923
   8 N :    0.222744
   9 N :    0.224360
  10 H :   -0.014020
  11 H :   -0.019590
  12 H :   -0.111656
  13 H :   -0.056667
  14 H :   -0.009342
  15 O :   -0.431183
  16 O :   -0.422116
  17 C :   -0.010961
  18 H :   -0.003105
  19 H :    0.007243
  20 C :   -0.012041
  21 H :    0.024132
  22 H :    0.030175
  23 C :   -0.022319
  24 H :    0.012543
  25 H :    0.011596
  26 F :   -0.288231
  27 H :    0.000282
  28 H :    0.019688
  29 H :    0.003615
  30 H :    0.030993

  Mayer bond orders larger than 0.100000
B(  0-C ,  1-C ) :   0.9491 B(  0-C ,  7-C ) :   0.2463 B(  0-C , 12-H ) :   0.5736
B(  0-C , 17-C ) :   1.0693 B(  0-C , 18-H ) :   0.5738 B(  0-C , 19-H ) :   0.5529
B(  0-C , 23-C ) :   0.2425 B(  0-C , 24-H ) :   0.1471 B(  0-C , 25-H ) :   0.2384
B(  1-C ,  7-C ) :   1.4694 B(  1-C ,  8-N ) :   0.3036 B(  1-C ,  9-N ) :   0.2892
B(  1-C , 10-H ) :  -0.1186 B(  1-C , 12-H ) :  -0.4280 B(  1-C , 17-C ) :   0.1530
B(  1-C , 18-H ) :   0.3582 B(  1-C , 19-H ) :   0.3978 B(  2-C ,  3-C ) :   1.1969
B(  2-C ,  4-H ) :   0.1578 B(  2-C ,  5-H ) :   0.2239 B(  2-C , 20-C ) :   1.2188
B(  2-C , 21-H ) :   0.4978 B(  2-C , 22-H ) :   0.6142 B(  2-C , 29-H ) :   0.1126
B(  3-C ,  4-H ) :   0.8375 B(  3-C ,  5-H ) :   0.6430 B(  3-C ,  6-S ) :   0.9926
B(  3-C , 20-C ) :   0.1287 B(  3-C , 21-H ) :   0.1580 B(  3-C , 22-H ) :   0.1898
B(  5-H ,  6-S ) :   0.1351 B(  6-S , 15-O ) :   1.5686 B(  6-S , 16-O ) :   1.4812
B(  6-S , 26-F ) :   0.6614 B(  7-C ,  8-N ) :   0.9025 B(  7-C ,  9-N ) :   1.0315
B(  7-C , 11-H ) :  -0.1955 B(  7-C , 12-H ) :   0.7723 B(  7-C , 13-H ) :  -0.1156
B(  7-C , 14-H ) :  -0.2383 B(  8-N ,  9-N ) :   0.1115 B(  8-N , 13-H ) :   1.1838
B(  8-N , 14-H ) :   1.3124 B(  9-N , 10-H ) :   1.0710 B(  9-N , 11-H ) :   1.3514
B( 10-H , 11-H ) :  -0.2385 B( 12-H , 23-C ) :   0.1506 B( 12-H , 28-H ) :  -0.1394
B( 12-H , 29-H ) :   0.1010 B( 13-H , 14-H ) :  -0.2017 B( 13-H , 26-F ) :   0.1486
B( 15-O , 16-O ) :   0.1110 B( 16-O , 26-F ) :   0.1131 B( 17-C , 18-H ) :   0.1066
B( 17-C , 19-H ) :   0.1224 B( 17-C , 23-C ) :   1.1621 B( 17-C , 24-H ) :   0.6000
B( 17-C , 25-H ) :   0.5432 B( 17-C , 27-H ) :   0.1549 B( 17-C , 28-H ) :   0.1425
B( 18-H , 19-H ) :  -0.1165 B( 20-C , 21-H ) :   0.3682 B( 20-C , 22-H ) :   0.1144
B( 20-C , 23-C ) :   1.1924 B( 20-C , 27-H ) :   0.1461 B( 20-C , 28-H ) :   0.1937
B( 20-C , 29-H ) :   0.8563 B( 20-C , 30-H ) :   0.6603 B( 21-H , 22-H ) :  -0.1496
B( 23-C , 24-H ) :   0.3453 B( 23-C , 25-H ) :   0.1909 B( 23-C , 27-H ) :   0.7998
B( 23-C , 28-H ) :   0.7333 B( 23-C , 29-H ) :   0.1395 B( 23-C , 30-H ) :   0.1987
B( 24-H , 25-H ) :  -0.1534

Dispersion correction           -0.075280785
FINAL SINGLE POINT ENERGY     -1072.183951505796

DIPOLE MOMENT
-------------
                                X             Y             Z
Electronic contribution:      0.75554      -3.14096     -19.43028
Nuclear contribution   :      0.26049       3.89757      20.56096
                        -----------------------------------------
Total Dipole Moment    :      1.01603       0.75661       1.13068
                        -----------------------------------------
Magnitude (a.u.)       :      1.69801
Magnitude (Debye)      :      4.31599

Rotational constants in cm-1:     0.029090     0.014735     0.011139
Rotational constants in MHz :   872.086433   441.731892   333.928051

                             ****ORCA TERMINATED NORMALLY****
TOTAL RUN TIME: 0 days 0 hours 0 minutes 41 seconds 470 msec
