                         Program Version 5.0.0 -  RELEASE  -
|  1> !B3LYP D3BJ RIJCOSX def2-TZVPD def2/J TightSCF
|  2> *xyz -1 1
|  3> C          0.61188        1.65763       -4.50029
|  4> C          1.69499        1.54179       -5.57045
|  5> H          2.69733        1.73466       -5.18400
|  6> H          1.50666        2.27224       -6.35808
|  7> S          1.78029       -0.03313       -6.42874
|  8> O          2.56929        0.21366       -7.60736
|  9> O          0.41688       -0.46297       -6.61859
| 10> O          2.50513       -0.93326       -5.48257
| 11> H         -0.34424        1.45871       -4.93752
| 12> H          0.61845        2.64655       -4.09174
| 13> H          0.80247        0.94882       -3.72173
| 14> *
| 15> %MaxCore 64000
| 16>
| 17> %pal nprocs 4
| 18> end
| 19>
| 20> %scf
| 21>   MaxIter 150
| 22> end
| 23>
| 24>
| 25>                          ****END OF INPUT****

CARTESIAN COORDINATES (ANGSTROEM)
---------------------------------
  C      0.611880    1.657630   -4.500290
  C      1.694990    1.541790   -5.570450
  H      2.697330    1.734660   -5.184000
  H      1.506660    2.272240   -6.358080
  S      1.780290   -0.033130   -6.428740
  O      2.569290    0.213660   -7.607360
  O      0.416880   -0.462970   -6.618590
  O      2.505130   -0.933260   -5.482570
  H     -0.344240    1.458710   -4.937520
  H      0.618450    2.646550   -4.091740
  H      0.802470    0.948820   -3.721730

 Total Charge           Charge          ....   -1
 Multiplicity           Mult            ....    1
 Number of Electrons    NEL             ....   58
 Basis Dimension        Dim             ....  285

ORBITAL ENERGIES
----------------

  NO   OCC          E(Eh)            E(eV)
   0   2.0000     -88.837296     -2417.3857
   1   2.0000     -18.907240      -514.4922
   2   2.0000     -18.906529      -514.4728
   3   2.0000     -18.888309      -513.9770
   4   2.0000     -10.029483      -272.9161
   5   2.0000     -10.023487      -272.7530
   6   2.0000      -7.880911      -214.4505
   7   2.0000      -5.844376      -159.0336
   8   2.0000      -5.843471      -159.0089
   9   2.0000      -5.843157      -159.0004
  10   2.0000      -0.923940       -25.1417
  11   2.0000      -0.798982       -21.7414
  12   2.0000      -0.765496       -20.8302
  13   2.0000      -0.631495       -17.1839
  14   2.0000      -0.507021       -13.7967
  15   2.0000      -0.380350       -10.3498
  16   2.0000      -0.317665        -8.6441
  17   2.0000      -0.312877        -8.5138
  18   2.0000      -0.274420        -7.4673
  19   2.0000      -0.259213        -7.0536
  20   2.0000      -0.254470        -6.9245
  21   2.0000      -0.229481        -6.2445
  22   2.0000      -0.215264        -5.8576
  23   2.0000      -0.151443        -4.1210
  24   2.0000      -0.151181        -4.1138
  25   2.0000      -0.118751        -3.2314
  26   2.0000      -0.111470        -3.0333
  27   2.0000      -0.095068        -2.5869
  28   2.0000      -0.063010        -1.7146
  29   0.0000       0.121749         3.3130
  30   0.0000       0.145282         3.9533
  31   0.0000       0.151631         4.1261
  32   0.0000       0.161890         4.4052
  33   0.0000       0.177267         4.8237

MULLIKEN ATOMIC CHARGES
-----------------------
   0 C :   -1.085133
   1 C :   -0.309569
   2 H :    0.231797
   3 H :    0.243393
   4 S :    1.258280
   5 O :   -0.705184
   6 O :   -0.718241
   7 O :   -0.772742
   8 H :    0.276295
   9 H :    0.296351
  10 H :    0.284754
Sum of atomic charges:   -1.0000000

LOEWDIN ATOMIC CHARGES
----------------------
   0 C :   -0.141646
   1 C :   -0.327332
   2 H :    0.081875
   3 H :    0.076159
   4 S :    0.351602
   5 O :   -0.388541
   6 O :   -0.382491
   7 O :   -0.430649
   8 H :    0.054122
   9 H :    0.046421
  10 H :    0.060481

  Mayer bond orders larger than 0.100000
B(  0-C ,  1-C ) :   0.6622 B(  0-C ,  8-H ) :   0.9951 B(  0-C ,  9-H ) :   0.9362
B(  0-C , 10-H ) :   0.9809 B(  1-C ,  2-H ) :   0.9746 B(  1-C ,  3-H ) :   0.9657
B(  1-C ,  4-S ) :   0.8791 B(  1-C ,  5-O ) :   0.1408 B(  1-C ,  6-O ) :   0.1068
B(  1-C ,  7-O ) :   0.1260 B(  4-S ,  5-O ) :   1.4837 B(  4-S ,  6-O ) :   1.4767
B(  4-S ,  7-O ) :   1.4302

Dispersion correction           -0.016673731
FINAL SINGLE POINT ENERGY      -703.122384881172

DIPOLE MOMENT
-------------
                                X             Y             Z
Electronic contribution:      2.23055      -5.62698      -4.99784
Nuclear contribution   :     -2.69163       7.29476       5.86550
                        -----------------------------------------
Total Dipole Moment    :     -0.46107       1.66778       0.86766
                        -----------------------------------------
Magnitude (a.u.)       :      1.93570
Magnitude (Debye)      :      4.92015

Rotational constants in cm-1:     0.163060     0.082831     0.081111
Rotational constants in MHz :  4888.419330  2483.225008  2431.646841

                             ****ORCA TERMINATED NORMALLY****
TOTAL RUN TIME: 0 days 0 hours 0 minutes 34 seconds 550 msec
