                         Program Version 5.0.0 -  RELEASE  -
|  1> !B3LYP D3BJ RIJCOSX def2-TZVPD def2/J TightSCF
|  2> *xyz 1 1
|  3> C          1.96337       -1.74915       -1.89689
|  4> N          2.73849       -2.01517       -3.09711
|  5> C          4.04974       -2.15472       -3.15204
|  6> N          4.65821       -1.98629       -4.31866
|  7> N          4.76423       -2.45444       -2.05049
|  8> H          4.28736       -2.77626       -1.21750
|  9> H          5.75082       -2.65835       -2.12599
| 10> H          2.34518       -1.69027       -3.97145
| 11> H          4.10900       -1.59268       -5.07176
| 12> H          5.64910       -2.15646       -4.42724
| 13> C          2.08852       -0.30091       -1.41520
| 14> H          2.23127       -2.45162       -1.10264
| 15> H          0.93025       -1.97780       -2.15544
| 16> H          1.82118        0.36368       -2.21003
| 17> H          3.09792       -0.11068       -1.11551
| 18> H          1.43391       -0.14382       -0.58352
| 19> *
| 20> %MaxCore 64000
| 21>
| 22> %pal nprocs 4
| 23> end
| 24>
| 25> %scf
| 26>   MaxIter 150
| 27> end
| 28>
| 29>
| 30>                          ****END OF INPUT****

CARTESIAN COORDINATES (ANGSTROEM)
---------------------------------
  C      1.963370   -1.749150   -1.896890
  N      2.738490   -2.015170   -3.097110
  C      4.049740   -2.154720   -3.152040
  N      4.658210   -1.986290   -4.318660
  N      4.764230   -2.454440   -2.050490
  H      4.287360   -2.776260   -1.217500
  H      5.750820   -2.658350   -2.125990
  H      2.345180   -1.690270   -3.971450
  H      4.109000   -1.592680   -5.071760
  H      5.649100   -2.156460   -4.427240
  C      2.088520   -0.300910   -1.415200
  H      2.231270   -2.451620   -1.102640
  H      0.930250   -1.977800   -2.155440
  H      1.821180    0.363680   -2.210030
  H      3.097920   -0.110680   -1.115510
  H      1.433910   -0.143820   -0.583520

 Total Charge           Charge          ....    1
 Multiplicity           Mult            ....    1
 Number of Electrons    NEL             ....   48
 Basis Dimension        Dim             ....  312

ORBITAL ENERGIES
----------------

  NO   OCC          E(Eh)            E(eV)
   0   2.0000     -14.539305      -395.6346
   1   2.0000     -14.538106      -395.6020
   2   2.0000     -14.537256      -395.5789
   3   2.0000     -10.502545      -285.7888
   4   2.0000     -10.376000      -282.3453
   5   2.0000     -10.303377      -280.3691
   6   2.0000      -1.216438       -33.1010
   7   2.0000      -1.105765       -30.0894
   8   2.0000      -1.093305       -29.7503
   9   2.0000      -0.929938       -25.3049
  10   2.0000      -0.842229       -22.9182
  11   2.0000      -0.804675       -21.8963
  12   2.0000      -0.783070       -21.3084
  13   2.0000      -0.745721       -20.2921
  14   2.0000      -0.694865       -18.9082
  15   2.0000      -0.687421       -18.7057
  16   2.0000      -0.656340       -17.8599
  17   2.0000      -0.626614       -17.0510
  18   2.0000      -0.601005       -16.3542
  19   2.0000      -0.563635       -15.3373
  20   2.0000      -0.533056       -14.5052
  21   2.0000      -0.513997       -13.9866
  22   2.0000      -0.478122       -13.0104
  23   2.0000      -0.451196       -12.2777
  24   0.0000      -0.172310        -4.6888
  25   0.0000      -0.166529        -4.5315
  26   0.0000      -0.134136        -3.6500
  27   0.0000      -0.124574        -3.3898
  28   0.0000      -0.099864        -2.7174

MULLIKEN ATOMIC CHARGES
-----------------------
   0 C :   -0.425580
   1 N :   -0.138358
   2 C :    0.673332
   3 N :   -0.288604
   4 N :   -0.285511
   5 H :    0.195996
   6 H :    0.182569
   7 H :    0.186596
   8 H :    0.181061
   9 H :    0.184024
  10 C :   -1.034247
  11 H :    0.291121
  12 H :    0.304890
  13 H :    0.311715
  14 H :    0.318841
  15 H :    0.342155
Sum of atomic charges:    1.0000000

LOEWDIN ATOMIC CHARGES
----------------------
   0 C :   -0.198707
   1 N :    0.082514
   2 C :   -0.438295
   3 N :    0.212429
   4 N :    0.220664
   5 H :    0.126075
   6 H :    0.135134
   7 H :    0.163305
   8 H :    0.137698
   9 H :    0.140142
  10 C :   -0.050704
  11 H :    0.116893
  12 H :    0.128353
  13 H :    0.075447
  14 H :    0.068206
  15 H :    0.080844

  Mayer bond orders larger than 0.100000
B(  0-C ,  1-N ) :   0.8512 B(  0-C , 10-C ) :   0.6812 B(  0-C , 11-H ) :   0.8944
B(  0-C , 12-H ) :   0.9288 B(  1-N ,  2-C ) :   1.2587 B(  1-N ,  7-H ) :   0.9778
B(  2-C ,  3-N ) :   1.0719 B(  2-C ,  4-N ) :   1.1485 B(  3-N ,  8-H ) :   0.9920
B(  3-N ,  9-H ) :   1.0146 B(  4-N ,  5-H ) :   0.9497 B(  4-N ,  6-H ) :   1.0192
B( 10-C , 13-H ) :   0.9745 B( 10-C , 14-H ) :   0.9540 B( 10-C , 15-H ) :   0.9577

Dispersion correction           -0.020346086
FINAL SINGLE POINT ENERGY      -284.354704598962

DIPOLE MOMENT
-------------
                                X             Y             Z
Electronic contribution:      3.00462      -2.70313      -3.07840
Nuclear contribution   :     -2.17768       2.37118       2.44574
                        -----------------------------------------
Total Dipole Moment    :      0.82693      -0.33195      -0.63266
                        -----------------------------------------
Magnitude (a.u.)       :      1.09283
Magnitude (Debye)      :      2.77775

Rotational constants in cm-1:     0.215650     0.075183     0.066454
Rotational constants in MHz :  6465.033740  2253.919004  1992.232519

                             ****ORCA TERMINATED NORMALLY****
TOTAL RUN TIME: 0 days 0 hours 0 minutes 44 seconds 397 msec
