                         Program Version 5.0.0 -  RELEASE  -
|  1> !B3LYP D3BJ RIJCOSX def2-TZVPD def2/J TightSCF xyzfile
|  2>
|  3> *xyzfile 0 1 B.xyz
|  4>
|  5> %MaxCore 64000
|  6>
|  7> %pal nprocs 4
|  8> end
|  9>
| 10> %scf
| 11>   MaxIter 150
| 12> end
| 13>
| 14>
| 15>                          ****END OF INPUT****

CARTESIAN COORDINATES (ANGSTROEM)
---------------------------------
  C      1.963365   -1.749150   -1.896887
  N      2.738490   -2.015170   -3.097113
  C      0.611877    1.657634   -4.500288
  C      1.694991    1.541794   -5.570447
  H      2.697326    1.734659   -5.183996
  H      1.506656    2.272239   -6.358076
  S      1.780287   -0.033128   -6.428739
  C      4.049736   -2.154717   -3.152044
  N      4.658206   -1.986293   -4.318655
  N      4.764231   -2.454435   -2.050491
  H      4.287363   -2.776259   -1.217496
  H      5.750825   -2.658351   -2.125988
  H      2.345176   -1.690274   -3.971447
  H      4.109004   -1.592677   -5.071760
  H      5.649095   -2.156462   -4.427237
  O      2.569287    0.213657   -7.607360
  O      0.416880   -0.462969   -6.618595
  C      2.088520   -0.300912   -1.415204
  H      2.231272   -2.451616   -1.102643
  H      0.930249   -1.977801   -2.155438
  C      0.680356    0.655418   -3.348038
  H     -0.356865    1.549231   -4.991128
  H      0.650228    2.675438   -4.096000
  C      1.968993    0.733582   -2.535654
  H      3.051356   -0.168602   -0.911868
  H      1.316501   -0.136231   -0.657252
  O      2.505129   -0.933263   -5.482570
  H      2.824195    0.624726   -3.208464
  H      2.058919    1.730331   -2.093112
  H      0.542252   -0.344731   -3.766662
  H     -0.174219    0.829692   -2.685182

 Total Charge           Charge          ....    0
 Multiplicity           Mult            ....    1
 Number of Electrons    NEL             ....  120
 Basis Dimension        Dim             ....  689

ORBITAL ENERGIES
----------------

  NO   OCC          E(Eh)            E(eV)
   0   2.0000     -88.984918     -2421.4027
   1   2.0000     -19.064566      -518.7732
   2   2.0000     -19.044806      -518.2355
   3   2.0000     -19.043539      -518.2010
   4   2.0000     -14.401941      -391.8967
   5   2.0000     -14.373326      -391.1181
   6   2.0000     -14.369445      -391.0125
   7   2.0000     -10.350390      -281.6484
   8   2.0000     -10.241476      -278.6847
   9   2.0000     -10.191441      -277.3232
  10   2.0000     -10.171947      -276.7927
  11   2.0000     -10.160011      -276.4680
  12   2.0000     -10.157184      -276.3910
  13   2.0000     -10.156039      -276.3599
  14   2.0000      -8.028819      -218.4753
  15   2.0000      -5.992780      -163.0718
  16   2.0000      -5.991456      -163.0358
  17   2.0000      -5.990409      -163.0073
  18   2.0000      -1.073275       -29.2053
  19   2.0000      -1.063463       -28.9383
  20   2.0000      -0.957661       -26.0593
  21   2.0000      -0.943637       -25.6777
  22   2.0000      -0.936290       -25.4778
  23   2.0000      -0.934462       -25.4280
  24   2.0000      -0.821266       -22.3478
  25   2.0000      -0.782033       -21.2802
  26   2.0000      -0.734767       -19.9940
  27   2.0000      -0.696773       -18.9602
  28   2.0000      -0.669934       -18.2298
  29   2.0000      -0.635178       -17.2841
  30   2.0000      -0.628329       -17.0977
  31   2.0000      -0.595540       -16.2055
  32   2.0000      -0.573790       -15.6136
  33   2.0000      -0.555599       -15.1186
  34   2.0000      -0.542671       -14.7668
  35   2.0000      -0.519992       -14.1497
  36   2.0000      -0.504252       -13.7214
  37   2.0000      -0.482117       -13.1191
  38   2.0000      -0.476657       -12.9705
  39   2.0000      -0.468526       -12.7492
  40   2.0000      -0.453640       -12.3442
  41   2.0000      -0.438325       -11.9274
  42   2.0000      -0.426068       -11.5939
  43   2.0000      -0.417360       -11.3569
  44   2.0000      -0.401232       -10.9181
  45   2.0000      -0.394412       -10.7325
  46   2.0000      -0.378737       -10.3059
  47   2.0000      -0.371153       -10.0996
  48   2.0000      -0.365304        -9.9404
  49   2.0000      -0.337707        -9.1895
  50   2.0000      -0.335077        -9.1179
  51   2.0000      -0.330069        -8.9816
  52   2.0000      -0.315722        -8.5912
  53   2.0000      -0.306724        -8.3464
  54   2.0000      -0.297886        -8.1059
  55   2.0000      -0.297362        -8.0916
  56   2.0000      -0.264569        -7.1993
  57   2.0000      -0.254139        -6.9155
  58   2.0000      -0.247965        -6.7475
  59   2.0000      -0.220636        -6.0038
  60   0.0000      -0.045583        -1.2404
  61   0.0000      -0.026804        -0.7294
  62   0.0000      -0.014755        -0.4015
  63   0.0000       0.008606         0.2342
  64   0.0000       0.013183         0.3587

MULLIKEN ATOMIC CHARGES
-----------------------
   0 C :   -0.902202
   1 N :   -0.114931
   2 C :   -0.597918
   3 C :   -0.645137
   4 H :    0.267576
   5 H :    0.275936
   6 S :    1.184548
   7 C :    0.541516
   8 N :   -0.247567
   9 N :   -0.288806
  10 H :    0.181988
  11 H :    0.159688
  12 H :    0.545235
  13 H :    0.365362
  14 H :    0.101262
  15 O :   -0.712756
  16 O :   -0.721015
  17 C :   -0.299753
  18 H :    0.299601
  19 H :    0.348671
  20 C :   -0.458931
  21 H :    0.240071
  22 H :    0.249159
  23 C :   -0.370483
  24 H :    0.219754
  25 H :    0.291346
  26 O :   -0.926942
  27 H :    0.187329
  28 H :    0.291623
  29 H :    0.295215
  30 H :    0.240562
Sum of atomic charges:    0.0000000

LOEWDIN ATOMIC CHARGES
----------------------
   0 C :   -0.164016
   1 N :    0.094868
   2 C :   -0.222976
   3 C :   -0.248735
   4 H :    0.090645
   5 H :    0.097342
   6 S :    0.446768
   7 C :   -0.443978
   8 N :    0.208278
   9 N :    0.191034
  10 H :    0.110819
  11 H :    0.118840
  12 H :    0.084501
  13 H :    0.079111
  14 H :    0.127724
  15 O :   -0.334238
  16 O :   -0.324845
  17 C :   -0.176775
  18 H :    0.108117
  19 H :    0.124385
  20 C :   -0.210236
  21 H :    0.108530
  22 H :    0.109750
  23 C :   -0.203914
  24 H :    0.103013
  25 H :    0.113287
  26 O :   -0.417427
  27 H :    0.099407
  28 H :    0.117600
  29 H :    0.096020
  30 H :    0.117103

  Mayer bond orders larger than 0.100000
B(  0-C ,  1-N ) :   0.9466 B(  0-C ,  7-C ) :  -0.1208 B(  0-C , 12-H ) :  -0.1322
B(  0-C , 17-C ) :   0.7264 B(  0-C , 18-H ) :   0.8662 B(  0-C , 19-H ) :   0.8982
B(  0-C , 20-C ) :   0.1664 B(  1-N ,  7-C ) :   1.2660 B(  1-N , 12-H ) :   0.7343
B(  2-C ,  3-C ) :   0.9094 B(  2-C , 20-C ) :   1.0028 B(  2-C , 21-H ) :   0.9442
B(  2-C , 22-H ) :   0.9533 B(  2-C , 23-C ) :   0.1965 B(  3-C ,  4-H ) :   0.9000
B(  3-C ,  5-H ) :   0.9367 B(  3-C ,  6-S ) :   0.8122 B(  3-C , 15-O ) :   0.1725
B(  3-C , 16-O ) :   0.1312 B(  3-C , 23-C ) :   0.1062 B(  3-C , 26-O ) :   0.1101
B(  6-S , 15-O ) :   1.3927 B(  6-S , 16-O ) :   1.4595 B(  6-S , 26-O ) :   1.5766
B(  7-C ,  8-N ) :   1.1389 B(  7-C ,  9-N ) :   1.0727 B(  8-N , 13-H ) :   0.8311
B(  8-N , 14-H ) :   1.0713 B(  9-N , 10-H ) :   0.9550 B(  9-N , 11-H ) :   1.0295
B( 12-H , 26-O ) :  -0.1308 B( 17-C , 23-C ) :   0.9371 B( 17-C , 24-H ) :   0.9548
B( 17-C , 25-H ) :   0.9575 B( 20-C , 23-C ) :   0.3631 B( 20-C , 29-H ) :   0.9327
B( 20-C , 30-H ) :   0.9114 B( 23-C , 27-H ) :   1.0545 B( 23-C , 28-H ) :   0.8932
B( 23-C , 29-H ) :  -0.1131 B( 23-C , 30-H ) :  -0.1073

Dispersion correction           -0.061795612
FINAL SINGLE POINT ENERGY     -1065.048559732596

DIPOLE MOMENT
-------------
                                X             Y             Z
Electronic contribution:      2.22796      -4.96597     -14.22581
Nuclear contribution   :      0.44641       3.59123      19.13564
                        -----------------------------------------
Total Dipole Moment    :      2.67437      -1.37473       4.90983
                        -----------------------------------------
Magnitude (a.u.)       :      5.75748
Magnitude (Debye)      :     14.63435

Rotational constants in cm-1:     0.029186     0.014646     0.011115
Rotational constants in MHz :   874.975540   439.070287   333.231642

                             ****ORCA TERMINATED NORMALLY****
TOTAL RUN TIME: 0 days 0 hours 6 minutes 54 seconds 153 msec
