                         Program Version 5.0.0 -  RELEASE  -
|  1> !B3LYP D3BJ RIJCOSX def2-TZVPD def2/J TightSCF
|  2> *xyz 0 1
|  3> C          0.61188        1.65763       -4.50029
|  4> C          1.69499        1.54179       -5.57045
|  5> H          2.69733        1.73466       -5.18400
|  6> H          1.50666        2.27224       -6.35808
|  7> S          1.78029       -0.03313       -6.42874
|  8> F          2.56929        0.21366       -7.60736
|  9> O          0.41688       -0.46297       -6.61859
| 10> O          2.50513       -0.93326       -5.48257
| 11> H         -0.34424        1.45871       -4.93752
| 12> H          0.61845        2.64655       -4.09174
| 13> H          0.80247        0.94882       -3.72173
| 14> *
| 15> %MaxCore 64000
| 16>
| 17> %pal nprocs 4
| 18> end
| 19>
| 20> %scf
| 21>   MaxIter 150
| 22> end
| 23>
| 24>
| 25>                          ****END OF INPUT****

CARTESIAN COORDINATES (ANGSTROEM)
---------------------------------
  C      0.611880    1.657630   -4.500290
  C      1.694990    1.541790   -5.570450
  H      2.697330    1.734660   -5.184000
  H      1.506660    2.272240   -6.358080
  S      1.780290   -0.033130   -6.428740
  F      2.569290    0.213660   -7.607360
  O      0.416880   -0.462970   -6.618590
  O      2.505130   -0.933260   -5.482570
  H     -0.344240    1.458710   -4.937520
  H      0.618450    2.646550   -4.091740
  H      0.802470    0.948820   -3.721730

 Total Charge           Charge          ....    0
 Multiplicity           Mult            ....    1
 Number of Electrons    NEL             ....   58
 Basis Dimension        Dim             ....  285

ORBITAL ENERGIES
----------------

  NO   OCC          E(Eh)            E(eV)
   0   2.0000     -89.099401     -2424.5180
   1   2.0000     -24.804954      -674.9771
   2   2.0000     -19.141188      -520.8582
   3   2.0000     -19.122088      -520.3385
   4   2.0000     -10.231314      -278.4082
   5   2.0000     -10.187171      -277.2070
   6   2.0000      -8.143453      -221.5946
   7   2.0000      -6.110176      -166.2664
   8   2.0000      -6.103844      -166.0940
   9   2.0000      -6.103605      -166.0875
  10   2.0000      -1.388045       -37.7706
  11   2.0000      -1.104337       -30.0505
  12   2.0000      -1.000801       -27.2332
  13   2.0000      -0.822605       -22.3842
  14   2.0000      -0.739769       -20.1301
  15   2.0000      -0.677496       -18.4356
  16   2.0000      -0.589994       -16.0545
  17   2.0000      -0.589204       -16.0330
  18   2.0000      -0.556886       -15.1536
  19   2.0000      -0.495420       -13.4811
  20   2.0000      -0.482879       -13.1398
  21   2.0000      -0.443219       -12.0606
  22   2.0000      -0.432414       -11.7666
  23   2.0000      -0.410346       -11.1661
  24   2.0000      -0.391851       -10.6628
  25   2.0000      -0.384286       -10.4570
  26   2.0000      -0.337592        -9.1863
  27   2.0000      -0.318972        -8.6797
  28   2.0000      -0.303921        -8.2701
  29   0.0000      -0.012193        -0.3318
  30   0.0000       0.007146         0.1945
  31   0.0000       0.022421         0.6101
  32   0.0000       0.025303         0.6885
  33   0.0000       0.042202         1.1484

MULLIKEN ATOMIC CHARGES
-----------------------
   0 C :   -1.125955
   1 C :   -0.320319
   2 H :    0.298176
   3 H :    0.309046
   4 S :    1.197512
   5 F :   -0.129324
   6 O :   -0.570837
   7 O :   -0.612185
   8 H :    0.319588
   9 H :    0.309211
  10 H :    0.325089
Sum of atomic charges:   -0.0000000

LOEWDIN ATOMIC CHARGES
----------------------
   0 C :   -0.095852
   1 C :   -0.284282
   2 H :    0.100626
   3 H :    0.093466
   4 S :    0.599793
   5 F :   -0.051780
   6 O :   -0.270449
   7 O :   -0.312115
   8 H :    0.070152
   9 H :    0.073418
  10 H :    0.077024

  Mayer bond orders larger than 0.100000
B(  0-C ,  1-C ) :   0.7282 B(  0-C ,  8-H ) :   0.9561 B(  0-C ,  9-H ) :   0.9356
B(  0-C , 10-H ) :   0.9470 B(  1-C ,  2-H ) :   0.9245 B(  1-C ,  3-H ) :   0.8895
B(  1-C ,  4-S ) :   0.8665 B(  4-S ,  5-F ) :   1.0097 B(  4-S ,  6-O ) :   1.6822
B(  4-S ,  7-O ) :   1.6280

Dispersion correction           -0.015930762
FINAL SINGLE POINT ENERGY      -727.638381426030

DIPOLE MOMENT
-------------
                                X             Y             Z
Electronic contribution:      3.85773      -5.64273      -7.53042
Nuclear contribution   :     -3.66946       7.33549       7.42434
                        -----------------------------------------
Total Dipole Moment    :      0.18827       1.69276      -0.10607
                        -----------------------------------------
Magnitude (a.u.)       :      1.70650
Magnitude (Debye)      :      4.33758

Rotational constants in cm-1:     0.158379     0.080294     0.077843
Rotational constants in MHz :  4748.076444  2407.152850  2333.668303

                             ****ORCA TERMINATED NORMALLY****
TOTAL RUN TIME: 0 days 0 hours 0 minutes 33 seconds 885 msec
