                         Program Version 5.0.0 -  RELEASE  -
|  1> !B3LYP D3BJ RIJCOSX def2-TZVPD def2/J TightSCF
|  2> *xyz 0 1
|  3> C          1.96337       -1.74915       -1.89689
|  4> C          2.73849       -2.01517       -3.09711
|  5> C          4.04974       -2.15472       -3.15204
|  6> N          4.65821       -1.98629       -4.31866
|  7> N          4.76423       -2.45444       -2.05049
|  8> H          4.28736       -2.77626       -1.21750
|  9> H          5.75082       -2.65835       -2.12599
| 10> H          2.34518       -1.69027       -3.97145
| 11> H          4.10900       -1.59268       -5.07176
| 12> H          5.64910       -2.15646       -4.42724
| 13> C          2.08852       -0.30091       -1.41520
| 14> H          2.23127       -2.45162       -1.10264
| 15> H          0.93025       -1.97780       -2.15544
| 16> H          1.82118        0.36368       -2.21003
| 17> H          3.09792       -0.11068       -1.11551
| 18> H          1.43391       -0.14382       -0.58352
| 19> *
| 20> %MaxCore 64000
| 21>
| 22> %pal nprocs 4
| 23> end
| 24>
| 25> %scf
| 26>   MaxIter 150
| 27> end
| 28>
| 29>
| 30>                          ****END OF INPUT****

CARTESIAN COORDINATES (ANGSTROEM)
---------------------------------
  C      1.963370   -1.749150   -1.896890
  C      2.738490   -2.015170   -3.097110
  C      4.049740   -2.154720   -3.152040
  N      4.658210   -1.986290   -4.318660
  N      4.764230   -2.454440   -2.050490
  H      4.287360   -2.776260   -1.217500
  H      5.750820   -2.658350   -2.125990
  H      2.345180   -1.690270   -3.971450
  H      4.109000   -1.592680   -5.071760
  H      5.649100   -2.156460   -4.427240
  C      2.088520   -0.300910   -1.415200
  H      2.231270   -2.451620   -1.102640
  H      0.930250   -1.977800   -2.155440
  H      1.821180    0.363680   -2.210030
  H      3.097920   -0.110680   -1.115510
  H      1.433910   -0.143820   -0.583520

 Total Charge           Charge          ....    0
 Multiplicity           Mult            ....    1
 Number of Electrons    NEL             ....   48
 Basis Dimension        Dim             ....  312

ORBITAL ENERGIES
----------------

  NO   OCC          E(Eh)            E(eV)
   0   2.0000     -14.317186      -389.5905
   1   2.0000     -14.314742      -389.5239
   2   2.0000     -10.210932      -277.8536
   3   2.0000     -10.141922      -275.9757
   4   2.0000     -10.130388      -275.6619
   5   2.0000     -10.088028      -274.5092
   6   2.0000      -0.959809       -26.1177
   7   2.0000      -0.871736       -23.7211
   8   2.0000      -0.772010       -21.0075
   9   2.0000      -0.693306       -18.8658
  10   2.0000      -0.616695       -16.7811
  11   2.0000      -0.579119       -15.7586
  12   2.0000      -0.542104       -14.7514
  13   2.0000      -0.510435       -13.8897
  14   2.0000      -0.474270       -12.9055
  15   2.0000      -0.438532       -11.9331
  16   2.0000      -0.418834       -11.3971
  17   2.0000      -0.384920       -10.4742
  18   2.0000      -0.380857       -10.3636
  19   2.0000      -0.354525        -9.6471
  20   2.0000      -0.328572        -8.9409
  21   2.0000      -0.319026        -8.6811
  22   2.0000      -0.265958        -7.2371
  23   2.0000      -0.160060        -4.3555
  24   0.0000      -0.004625        -0.1259
  25   0.0000       0.022631         0.6158
  26   0.0000       0.028814         0.7841
  27   0.0000       0.039780         1.0825
  28   0.0000       0.056150         1.5279

MULLIKEN ATOMIC CHARGES
-----------------------
   0 C :   -0.298481
   1 C :   -0.387862
   2 C :    0.289805
   3 N :   -0.333437
   4 N :   -0.340745
   5 H :    0.160551
   6 H :    0.115849
   7 H :    0.244341
   8 H :    0.151141
   9 H :    0.125465
  10 C :   -1.075303
  11 H :    0.292356
  12 H :    0.182307
  13 H :    0.304271
  14 H :    0.283962
  15 H :    0.285781
Sum of atomic charges:    0.0000000

LOEWDIN ATOMIC CHARGES
----------------------
   0 C :   -0.279903
   1 C :   -0.152492
   2 C :   -0.545775
   3 N :    0.112753
   4 N :    0.132725
   5 H :    0.099418
   6 H :    0.094309
   7 H :    0.063446
   8 H :    0.108763
   9 H :    0.097779
  10 C :   -0.097369
  11 H :    0.091536
  12 H :    0.098176
  13 H :    0.063464
  14 H :    0.058806
  15 H :    0.054365

  Mayer bond orders larger than 0.100000
B(  0-C ,  1-C ) :   0.6999 B(  0-C , 10-C ) :   0.5430 B(  0-C , 11-H ) :   0.9484
B(  0-C , 12-H ) :   1.1130 B(  1-C ,  2-C ) :   1.4001 B(  1-C ,  7-H ) :   1.0918
B(  2-C ,  3-N ) :   1.0734 B(  2-C ,  4-N ) :   0.9849 B(  2-C ,  7-H ) :  -0.2087
B(  3-N ,  8-H ) :   1.0020 B(  3-N ,  9-H ) :   1.0640 B(  4-N ,  5-H ) :   0.9770
B(  4-N ,  6-H ) :   1.0764 B( 10-C , 13-H ) :   0.9886 B( 10-C , 14-H ) :   0.9844
B( 10-C , 15-H ) :   0.9724

Dispersion correction           -0.021273183
FINAL SINGLE POINT ENERGY      -267.869032481665

DIPOLE MOMENT
-------------
                                X             Y             Z
Electronic contribution:      3.28347      -2.43316      -2.52833
Nuclear contribution   :     -2.31778       2.31977       2.35294
                        -----------------------------------------
Total Dipole Moment    :      0.96569      -0.11339      -0.17539
                        -----------------------------------------
Magnitude (a.u.)       :      0.98802
Magnitude (Debye)      :      2.51135

Rotational constants in cm-1:     0.219415     0.075373     0.066689
Rotational constants in MHz :  6577.897266  2259.621393  1999.290981

                             ****ORCA TERMINATED NORMALLY****
TOTAL RUN TIME: 0 days 0 hours 0 minutes 51 seconds 179 msec
