                         Program Version 5.0.0 -  RELEASE  -
|  1> !B3LYP D3BJ RIJCOSX def2-TZVPD def2/J TightSCF
|  2> *xyz 0 1
|  3> C          0.61188        1.65763       -4.50029
|  4> C          1.69499        1.54179       -5.57045
|  5> H          2.69733        1.73466       -5.18400
|  6> H          1.50666        2.27224       -6.35808
|  7> S          1.78029       -0.03313       -6.42874
|  8> O          2.56929        0.21366       -7.60736
|  9> F          0.41688       -0.46297       -6.61859
| 10> O          2.50513       -0.93326       -5.48257
| 11> H         -0.34424        1.45871       -4.93752
| 12> H          0.61845        2.64655       -4.09174
| 13> H          0.80247        0.94882       -3.72173
| 14> *
| 15> %MaxCore 64000
| 16>
| 17> %pal nprocs 4
| 18> end
| 19>
| 20> %scf
| 21>   MaxIter 150
| 22> end
| 23>
| 24>
| 25>                          ****END OF INPUT****

CARTESIAN COORDINATES (ANGSTROEM)
---------------------------------
  C      0.611880    1.657630   -4.500290
  C      1.694990    1.541790   -5.570450
  H      2.697330    1.734660   -5.184000
  H      1.506660    2.272240   -6.358080
  S      1.780290   -0.033130   -6.428740
  O      2.569290    0.213660   -7.607360
  F      0.416880   -0.462970   -6.618590
  O      2.505130   -0.933260   -5.482570
  H     -0.344240    1.458710   -4.937520
  H      0.618450    2.646550   -4.091740
  H      0.802470    0.948820   -3.721730

 Total Charge           Charge          ....    0
 Multiplicity           Mult            ....    1
 Number of Electrons    NEL             ....   58
 Basis Dimension        Dim             ....  285

ORBITAL ENERGIES
----------------

  NO   OCC          E(Eh)            E(eV)
   0   2.0000     -89.099175     -2424.5118
   1   2.0000     -24.804569      -674.9666
   2   2.0000     -19.140843      -520.8488
   3   2.0000     -19.122304      -520.3443
   4   2.0000     -10.231105      -278.4025
   5   2.0000     -10.192441      -277.3504
   6   2.0000      -8.143251      -221.5891
   7   2.0000      -6.110156      -166.2658
   8   2.0000      -6.103498      -166.0846
   9   2.0000      -6.103372      -166.0812
  10   2.0000      -1.386690       -37.7337
  11   2.0000      -1.105331       -30.0776
  12   2.0000      -1.000632       -27.2286
  13   2.0000      -0.826350       -22.4861
  14   2.0000      -0.736293       -20.0355
  15   2.0000      -0.682072       -18.5601
  16   2.0000      -0.599930       -16.3249
  17   2.0000      -0.588555       -16.0154
  18   2.0000      -0.547970       -14.9110
  19   2.0000      -0.496737       -13.5169
  20   2.0000      -0.478045       -13.0083
  21   2.0000      -0.451640       -12.2898
  22   2.0000      -0.439019       -11.9463
  23   2.0000      -0.414336       -11.2746
  24   2.0000      -0.398400       -10.8410
  25   2.0000      -0.382519       -10.4089
  26   2.0000      -0.336777        -9.1642
  27   2.0000      -0.318885        -8.6773
  28   2.0000      -0.304083        -8.2745
  29   0.0000      -0.017489        -0.4759
  30   0.0000       0.014030         0.3818
  31   0.0000       0.019408         0.5281
  32   0.0000       0.024890         0.6773
  33   0.0000       0.040128         1.0919

MULLIKEN ATOMIC CHARGES
-----------------------
   0 C :   -1.146308
   1 C :   -0.272868
   2 H :    0.281749
   3 H :    0.302687
   4 S :    1.189297
   5 O :   -0.556038
   6 F :   -0.150465
   7 O :   -0.613533
   8 H :    0.330461
   9 H :    0.304333
  10 H :    0.330686
Sum of atomic charges:   -0.0000000

LOEWDIN ATOMIC CHARGES
----------------------
   0 C :   -0.106752
   1 C :   -0.275585
   2 H :    0.110532
   3 H :    0.096721
   4 S :    0.597476
   5 O :   -0.271838
   6 F :   -0.050807
   7 O :   -0.311221
   8 H :    0.065433
   9 H :    0.072250
  10 H :    0.073791

  Mayer bond orders larger than 0.100000
B(  0-C ,  1-C ) :   0.6500 B(  0-C ,  8-H ) :   0.9279 B(  0-C ,  9-H ) :   0.9567
B(  0-C , 10-H ) :   0.9653 B(  1-C ,  2-H ) :   0.9365 B(  1-C ,  3-H ) :   0.9295
B(  1-C ,  4-S ) :   0.8613 B(  1-C ,  5-O ) :   0.1068 B(  4-S ,  5-O ) :   1.6893
B(  4-S ,  6-F ) :   1.0131 B(  4-S ,  7-O ) :   1.6343

Dispersion correction           -0.015832068
FINAL SINGLE POINT ENERGY      -727.638139916740

DIPOLE MOMENT
-------------
                                X             Y             Z
Electronic contribution:      0.24862      -6.76549      -5.84819
Nuclear contribution   :     -1.42658       8.04056       6.39401
                        -----------------------------------------
Total Dipole Moment    :     -1.17796       1.27507       0.54583
                        -----------------------------------------
Magnitude (a.u.)       :      1.81971
Magnitude (Debye)      :      4.62533

Rotational constants in cm-1:     0.153659     0.082363     0.078978
Rotational constants in MHz :  4606.587369  2469.179541  2367.702074

                             ****ORCA TERMINATED NORMALLY****
TOTAL RUN TIME: 0 days 0 hours 0 minutes 33 seconds 174 msec
