                         Program Version 5.0.0 -  RELEASE  -
|  1> !B3LYP D3BJ RIJCOSX def2-TZVPD def2/J TightSCF
|  2> *xyz 0 1
|  3> C          1.96337       -1.74915       -1.89689
|  4> N          2.73849       -2.01517       -3.09711
|  5> C          4.04974       -2.15472       -3.15204
|  6> C          4.65821       -1.98629       -4.31866
|  7> N          4.76423       -2.45444       -2.05049
|  8> H          4.28736       -2.77626       -1.21750
|  9> H          5.75082       -2.65835       -2.12599
| 10> H          2.34518       -1.69027       -3.97145
| 11> H          4.10900       -1.59268       -5.07176
| 12> H          5.64910       -2.15646       -4.42724
| 13> C          2.08852       -0.30091       -1.41520
| 14> H          2.23127       -2.45162       -1.10264
| 15> H          0.93025       -1.97780       -2.15544
| 16> H          1.82118        0.36368       -2.21003
| 17> H          3.09792       -0.11068       -1.11551
| 18> H          1.43391       -0.14382       -0.58352
| 19> *
| 20> %MaxCore 64000
| 21>
| 22> %pal nprocs 4
| 23> end
| 24>
| 25> %scf
| 26>   MaxIter 150
| 27> end
| 28>
| 29>
| 30>                          ****END OF INPUT****

CARTESIAN COORDINATES (ANGSTROEM)
---------------------------------
  C      1.963370   -1.749150   -1.896890
  N      2.738490   -2.015170   -3.097110
  C      4.049740   -2.154720   -3.152040
  C      4.658210   -1.986290   -4.318660
  N      4.764230   -2.454440   -2.050490
  H      4.287360   -2.776260   -1.217500
  H      5.750820   -2.658350   -2.125990
  H      2.345180   -1.690270   -3.971450
  H      4.109000   -1.592680   -5.071760
  H      5.649100   -2.156460   -4.427240
  C      2.088520   -0.300910   -1.415200
  H      2.231270   -2.451620   -1.102640
  H      0.930250   -1.977800   -2.155440
  H      1.821180    0.363680   -2.210030
  H      3.097920   -0.110680   -1.115510
  H      1.433910   -0.143820   -0.583520

 Total Charge           Charge          ....    0
 Multiplicity           Mult            ....    1
 Number of Electrons    NEL             ....   48
 Basis Dimension        Dim             ....  312

ORBITAL ENERGIES
----------------

  NO   OCC          E(Eh)            E(eV)
   0   2.0000     -14.315256      -389.5379
   1   2.0000     -14.313946      -389.5023
   2   2.0000     -10.211947      -277.8812
   3   2.0000     -10.208151      -277.7779
   4   2.0000     -10.155634      -276.3488
   5   2.0000     -10.080148      -274.2948
   6   2.0000      -0.967938       -26.3389
   7   2.0000      -0.883470       -24.0404
   8   2.0000      -0.769896       -20.9499
   9   2.0000      -0.701120       -19.0784
  10   2.0000      -0.629747       -17.1363
  11   2.0000      -0.598319       -16.2811
  12   2.0000      -0.535529       -14.5725
  13   2.0000      -0.495871       -13.4933
  14   2.0000      -0.479654       -13.0520
  15   2.0000      -0.437520       -11.9055
  16   2.0000      -0.432476       -11.7683
  17   2.0000      -0.402125       -10.9424
  18   2.0000      -0.383857       -10.4453
  19   2.0000      -0.375379       -10.2146
  20   2.0000      -0.359774        -9.7900
  21   2.0000      -0.357427        -9.7261
  22   2.0000      -0.254495        -6.9252
  23   2.0000      -0.163228        -4.4416
  24   0.0000      -0.002981        -0.0811
  25   0.0000       0.022228         0.6049
  26   0.0000       0.027617         0.7515
  27   0.0000       0.030568         0.8318
  28   0.0000       0.060057         1.6342

MULLIKEN ATOMIC CHARGES
-----------------------
   0 C :   -0.382848
   1 N :   -0.166101
   2 C :    0.824438
   3 C :   -1.249107
   4 N :   -0.342589
   5 H :    0.141630
   6 H :    0.138241
   7 H :    0.148280
   8 H :    0.248537
   9 H :    0.239564
  10 C :   -1.021997
  11 H :    0.253023
  12 H :    0.269637
  13 H :    0.268994
  14 H :    0.298157
  15 H :    0.332140
Sum of atomic charges:   -0.0000000

LOEWDIN ATOMIC CHARGES
----------------------
   0 C :   -0.236571
   1 N :    0.012118
   2 C :   -0.568587
   3 C :    0.004412
   4 N :    0.127226
   5 H :    0.088203
   6 H :    0.106676
   7 H :    0.140127
   8 H :    0.005286
   9 H :    0.003844
  10 C :   -0.078432
  11 H :    0.101033
  12 H :    0.108518
  13 H :    0.064958
  14 H :    0.061262
  15 H :    0.059927

  Mayer bond orders larger than 0.100000
B(  0-C ,  1-N ) :   0.8525 B(  0-C , 10-C ) :   0.6547 B(  0-C , 11-H ) :   0.9213
B(  0-C , 12-H ) :   0.9563 B(  1-N ,  2-C ) :   1.1077 B(  1-N ,  7-H ) :   0.9414
B(  2-C ,  3-C ) :   1.0250 B(  2-C ,  4-N ) :   0.9393 B(  2-C ,  9-H ) :  -0.1045
B(  3-C ,  8-H ) :   0.9951 B(  3-C ,  9-H ) :   1.1079 B(  4-N ,  5-H ) :   1.0126
B(  4-N ,  6-H ) :   1.0307 B( 10-C , 13-H ) :   1.0008 B( 10-C , 14-H ) :   0.9817
B( 10-C , 15-H ) :   0.9602

Dispersion correction           -0.021038298
FINAL SINGLE POINT ENERGY      -267.864946881016

DIPOLE MOMENT
-------------
                                X             Y             Z
Electronic contribution:      1.39954      -2.33418      -1.21033
Nuclear contribution   :     -1.91052       2.32590       2.09379
                        -----------------------------------------
Total Dipole Moment    :     -0.51098      -0.00828       0.88346
                        -----------------------------------------
Magnitude (a.u.)       :      1.02063
Magnitude (Debye)      :      2.59422

Rotational constants in cm-1:     0.219448     0.077923     0.068804
Rotational constants in MHz :  6578.886179  2336.083179  2062.700476

                             ****ORCA TERMINATED NORMALLY****
TOTAL RUN TIME: 0 days 0 hours 0 minutes 45 seconds 453 msec
