                         Program Version 5.0.0 -  RELEASE  -
|  1> !B3LYP D3BJ RIJCOSX def2-TZVPD def2/J TightSCF
|  2> *xyz 0 1
|  3> C          0.61188        1.65763       -4.50029
|  4> C          1.69499        1.54179       -5.57045
|  5> H          2.69733        1.73466       -5.18400
|  6> H          1.50666        2.27224       -6.35808
|  7> S          1.78029       -0.03313       -6.42874
|  8> O          2.56929        0.21366       -7.60736
|  9> O          0.41688       -0.46297       -6.61859
| 10> F          2.50513       -0.93326       -5.48257
| 11> H         -0.34424        1.45871       -4.93752
| 12> H          0.61845        2.64655       -4.09174
| 13> H          0.80247        0.94882       -3.72173
| 14> *
| 15> %MaxCore 64000
| 16>
| 17> %pal nprocs 4
| 18> end
| 19>
| 20> %scf
| 21>   MaxIter 150
| 22> end
| 23>
| 24>
| 25>                          ****END OF INPUT****

CARTESIAN COORDINATES (ANGSTROEM)
---------------------------------
  C      0.611880    1.657630   -4.500290
  C      1.694990    1.541790   -5.570450
  H      2.697330    1.734660   -5.184000
  H      1.506660    2.272240   -6.358080
  S      1.780290   -0.033130   -6.428740
  O      2.569290    0.213660   -7.607360
  O      0.416880   -0.462970   -6.618590
  F      2.505130   -0.933260   -5.482570
  H     -0.344240    1.458710   -4.937520
  H      0.618450    2.646550   -4.091740
  H      0.802470    0.948820   -3.721730

 Total Charge           Charge          ....    0
 Multiplicity           Mult            ....    1
 Number of Electrons    NEL             ....   58
 Basis Dimension        Dim             ....  285

ORBITAL ENERGIES
----------------

  NO   OCC          E(Eh)            E(eV)
   0   2.0000     -89.096472     -2424.4383
   1   2.0000     -24.776951      -674.2151
   2   2.0000     -19.140869      -520.8495
   3   2.0000     -19.140140      -520.8297
   4   2.0000     -10.230018      -278.3729
   5   2.0000     -10.187488      -277.2157
   6   2.0000      -8.140555      -221.5158
   7   2.0000      -6.107468      -166.1927
   8   2.0000      -6.101090      -166.0191
   9   2.0000      -6.100569      -166.0049
  10   2.0000      -1.343018       -36.5454
  11   2.0000      -1.117103       -30.3979
  12   2.0000      -1.028402       -27.9842
  13   2.0000      -0.822777       -22.3889
  14   2.0000      -0.720853       -19.6154
  15   2.0000      -0.669684       -18.2230
  16   2.0000      -0.574012       -15.6197
  17   2.0000      -0.557777       -15.1779
  18   2.0000      -0.548355       -14.9215
  19   2.0000      -0.494613       -13.4591
  20   2.0000      -0.479526       -13.0486
  21   2.0000      -0.458785       -12.4842
  22   2.0000      -0.434829       -11.8323
  23   2.0000      -0.407168       -11.0796
  24   2.0000      -0.404664       -11.0115
  25   2.0000      -0.384285       -10.4569
  26   2.0000      -0.343500        -9.3471
  27   2.0000      -0.336888        -9.1672
  28   2.0000      -0.324815        -8.8387
  29   0.0000      -0.013045        -0.3550
  30   0.0000       0.015717         0.4277
  31   0.0000       0.022256         0.6056
  32   0.0000       0.023390         0.6365
  33   0.0000       0.040335         1.0976

MULLIKEN ATOMIC CHARGES
-----------------------
   0 C :   -1.095341
   1 C :   -0.324000
   2 H :    0.313469
   3 H :    0.289988
   4 S :    1.203187
   5 O :   -0.566427
   6 O :   -0.574007
   7 F :   -0.193510
   8 H :    0.315926
   9 H :    0.309253
  10 H :    0.321462
Sum of atomic charges:   -0.0000000

LOEWDIN ATOMIC CHARGES
----------------------
   0 C :   -0.105857
   1 C :   -0.276002
   2 H :    0.099731
   3 H :    0.105121
   4 S :    0.599908
   5 O :   -0.273354
   6 O :   -0.268723
   7 F :   -0.092771
   8 H :    0.069207
   9 H :    0.071568
  10 H :    0.071173

  Mayer bond orders larger than 0.100000
B(  0-C ,  1-C ) :   0.6903 B(  0-C ,  8-H ) :   0.9816 B(  0-C ,  9-H ) :   0.9482
B(  0-C , 10-H ) :   0.9310 B(  1-C ,  2-H ) :   0.9044 B(  1-C ,  3-H ) :   0.9327
B(  1-C ,  4-S ) :   0.8683 B(  1-C ,  5-O ) :   0.1134 B(  4-S ,  5-O ) :   1.6775
B(  4-S ,  6-O ) :   1.6798 B(  4-S ,  7-F ) :   0.9546

Dispersion correction           -0.015877426
FINAL SINGLE POINT ENERGY      -727.661521909170

DIPOLE MOMENT
-------------
                                X             Y             Z
Electronic contribution:      3.77128      -7.59508      -3.92367
Nuclear contribution   :     -3.60260       8.53062       5.21025
                        -----------------------------------------
Total Dipole Moment    :      0.16867       0.93554       1.28657
                        -----------------------------------------
Magnitude (a.u.)       :      1.59967
Magnitude (Debye)      :      4.06604

Rotational constants in cm-1:     0.154011     0.080858     0.079602
Rotational constants in MHz :  4617.134198  2424.070332  2386.404775

                             ****ORCA TERMINATED NORMALLY****
TOTAL RUN TIME: 0 days 0 hours 0 minutes 32 seconds 989 msec
