                         Program Version 5.0.0 -  RELEASE  -
|  1> !B3LYP D3BJ RIJCOSX def2-TZVPD def2/J TightSCF
|  2> *xyz 0 1
|  3> C          1.96337       -1.74915       -1.89689
|  4> N          2.73849       -2.01517       -3.09711
|  5> C          4.04974       -2.15472       -3.15204
|  6> N          4.65821       -1.98629       -4.31866
|  7> C          4.76423       -2.45444       -2.05049
|  8> H          4.28736       -2.77626       -1.21750
|  9> H          5.75082       -2.65835       -2.12599
| 10> H          2.34518       -1.69027       -3.97145
| 11> H          4.10900       -1.59268       -5.07176
| 12> H          5.64910       -2.15646       -4.42724
| 13> C          2.08852       -0.30091       -1.41520
| 14> H          2.23127       -2.45162       -1.10264
| 15> H          0.93025       -1.97780       -2.15544
| 16> H          1.82118        0.36368       -2.21003
| 17> H          3.09792       -0.11068       -1.11551
| 18> H          1.43391       -0.14382       -0.58352
| 19> *
| 20> %MaxCore 64000
| 21>
| 22> %pal nprocs 4
| 23> end
| 24>
| 25> %scf
| 26>   MaxIter 150
| 27> end
| 28>
| 29>
| 30>                          ****END OF INPUT****

CARTESIAN COORDINATES (ANGSTROEM)
---------------------------------
  C      1.963370   -1.749150   -1.896890
  N      2.738490   -2.015170   -3.097110
  C      4.049740   -2.154720   -3.152040
  N      4.658210   -1.986290   -4.318660
  C      4.764230   -2.454440   -2.050490
  H      4.287360   -2.776260   -1.217500
  H      5.750820   -2.658350   -2.125990
  H      2.345180   -1.690270   -3.971450
  H      4.109000   -1.592680   -5.071760
  H      5.649100   -2.156460   -4.427240
  C      2.088520   -0.300910   -1.415200
  H      2.231270   -2.451620   -1.102640
  H      0.930250   -1.977800   -2.155440
  H      1.821180    0.363680   -2.210030
  H      3.097920   -0.110680   -1.115510
  H      1.433910   -0.143820   -0.583520

 Total Charge           Charge          ....    0
 Multiplicity           Mult            ....    1
 Number of Electrons    NEL             ....   48
 Basis Dimension        Dim             ....  312

ORBITAL ENERGIES
----------------

  NO   OCC          E(Eh)            E(eV)
   0   2.0000     -14.318247      -389.6193
   1   2.0000     -14.317342      -389.5947
   2   2.0000     -10.213663      -277.9279
   3   2.0000     -10.202011      -277.6108
   4   2.0000     -10.149114      -276.1714
   5   2.0000     -10.080494      -274.3042
   6   2.0000      -0.973799       -26.4984
   7   2.0000      -0.887409       -24.1476
   8   2.0000      -0.753454       -20.5025
   9   2.0000      -0.706405       -19.2223
  10   2.0000      -0.642590       -17.4858
  11   2.0000      -0.562749       -15.3132
  12   2.0000      -0.546363       -14.8673
  13   2.0000      -0.525113       -14.2890
  14   2.0000      -0.467409       -12.7188
  15   2.0000      -0.439804       -11.9677
  16   2.0000      -0.416763       -11.3407
  17   2.0000      -0.399026       -10.8581
  18   2.0000      -0.381941       -10.3931
  19   2.0000      -0.369370       -10.0511
  20   2.0000      -0.362053        -9.8520
  21   2.0000      -0.348225        -9.4757
  22   2.0000      -0.251998        -6.8572
  23   2.0000      -0.164900        -4.4872
  24   0.0000      -0.003865        -0.1052
  25   0.0000       0.019483         0.5302
  26   0.0000       0.030947         0.8421
  27   0.0000       0.033669         0.9162
  28   0.0000       0.059747         1.6258

MULLIKEN ATOMIC CHARGES
-----------------------
   0 C :   -0.331923
   1 N :   -0.205373
   2 C :    0.779402
   3 N :   -0.310574
   4 C :   -1.252677
   5 H :    0.242248
   6 H :    0.282986
   7 H :    0.143880
   8 H :    0.128844
   9 H :    0.145234
  10 C :   -1.076438
  11 H :    0.254122
  12 H :    0.274635
  13 H :    0.277329
  14 H :    0.317831
  15 H :    0.330473
Sum of atomic charges:    0.0000000

LOEWDIN ATOMIC CHARGES
----------------------
   0 C :   -0.231222
   1 N :    0.010059
   2 C :   -0.570756
   3 N :    0.119145
   4 C :    0.011596
   5 H :   -0.001565
   6 H :    0.001293
   7 H :    0.131783
   8 H :    0.097109
   9 H :    0.111725
  10 C :   -0.077569
  11 H :    0.106977
  12 H :    0.108213
  13 H :    0.061682
  14 H :    0.060262
  15 H :    0.061268

  Mayer bond orders larger than 0.100000
B(  0-C ,  1-N ) :   0.8102 B(  0-C , 10-C ) :   0.6523 B(  0-C , 11-H ) :   0.9113
B(  0-C , 12-H ) :   0.9174 B(  1-N ,  2-C ) :   1.0278 B(  1-N ,  7-H ) :   1.0031
B(  2-C ,  3-N ) :   0.9244 B(  2-C ,  4-C ) :   1.1910 B(  3-N ,  8-H ) :   1.0423
B(  3-N ,  9-H ) :   1.0229 B(  4-C ,  5-H ) :   0.9954 B(  4-C ,  6-H ) :   1.0214
B( 10-C , 13-H ) :   0.9833 B( 10-C , 14-H ) :   0.9950 B( 10-C , 15-H ) :   0.9420

Dispersion correction           -0.021175432
FINAL SINGLE POINT ENERGY      -267.864454172532

DIPOLE MOMENT
-------------
                                X             Y             Z
Electronic contribution:      1.33519      -1.82733      -3.40681
Nuclear contribution   :     -1.88803       2.22658       2.57497
                        -----------------------------------------
Total Dipole Moment    :     -0.55284       0.39926      -0.83184
                        -----------------------------------------
Magnitude (a.u.)       :      1.07563
Magnitude (Debye)      :      2.73405

Rotational constants in cm-1:     0.226509     0.075782     0.067928
Rotational constants in MHz :  6790.555051  2271.890226  2036.439218

                             ****ORCA TERMINATED NORMALLY****
TOTAL RUN TIME: 0 days 0 hours 0 minutes 45 seconds 607 msec
