                         Program Version 5.0.0 -  RELEASE  -
|  1> !B3LYP D3BJ RIJCOSX def2-TZVPD def2/J TightSCF xyzfile
|  2>
|  3> *xyzfile 0 1 D1.xyz
|  4>
|  5> %MaxCore 64000
|  6>
|  7> %pal nprocs 4
|  8> end
|  9>
| 10> %scf
| 11>   MaxIter 150
| 12> end
| 13>
| 14>
| 15>                          ****END OF INPUT****

CARTESIAN COORDINATES (ANGSTROEM)
---------------------------------
  C      1.963365   -1.749150   -1.896887
  C      2.738490   -2.015170   -3.097113
  C      0.611877    1.657634   -4.500288
  C      1.694991    1.541794   -5.570447
  H      2.697326    1.734659   -5.183996
  H      1.506656    2.272239   -6.358076
  S      1.780287   -0.033128   -6.428739
  C      4.049736   -2.154717   -3.152044
  N      4.658206   -1.986293   -4.318655
  N      4.764231   -2.454435   -2.050491
  H      4.287363   -2.776259   -1.217496
  H      5.750825   -2.658351   -2.125988
  H      2.345176   -1.690274   -3.971447
  H      4.109004   -1.592677   -5.071760
  H      5.649095   -2.156462   -4.427237
  F      2.569287    0.213657   -7.607360
  O      0.416880   -0.462969   -6.618595
  C      2.088520   -0.300912   -1.415204
  H      2.231272   -2.451616   -1.102643
  H      0.930249   -1.977801   -2.155438
  C      0.680356    0.655418   -3.348038
  H     -0.356865    1.549231   -4.991128
  H      0.650228    2.675438   -4.096000
  C      1.968993    0.733582   -2.535654
  H      3.051356   -0.168602   -0.911868
  H      1.316501   -0.136231   -0.657252
  O      2.505129   -0.933263   -5.482570
  H      2.824195    0.624726   -3.208464
  H      2.058919    1.730331   -2.093112
  H      0.542252   -0.344731   -3.766662
  H     -0.174219    0.829692   -2.685182

 Total Charge           Charge          ....    0
 Multiplicity           Mult            ....    1
 Number of Electrons    NEL             ....  120
 Basis Dimension        Dim             ....  689

ORBITAL ENERGIES
----------------

  NO   OCC          E(Eh)            E(eV)
   0   2.0000     -89.108409     -2424.7631
   1   2.0000     -24.812316      -675.1774
   2   2.0000     -19.149621      -521.0877
   3   2.0000     -19.135840      -520.7127
   4   2.0000     -14.299366      -389.1055
   5   2.0000     -14.284539      -388.7021
   6   2.0000     -10.231793      -278.4212
   7   2.0000     -10.192736      -277.3584
   8   2.0000     -10.188448      -277.2418
   9   2.0000     -10.161503      -276.5086
  10   2.0000     -10.150275      -276.2030
  11   2.0000     -10.140096      -275.9260
  12   2.0000     -10.128637      -275.6142
  13   2.0000     -10.057312      -273.6734
  14   2.0000      -8.152967      -221.8535
  15   2.0000      -6.119709      -166.5257
  16   2.0000      -6.113303      -166.3514
  17   2.0000      -6.113073      -166.3452
  18   2.0000      -1.395939       -37.9854
  19   2.0000      -1.116069       -30.3698
  20   2.0000      -1.018921       -27.7262
  21   2.0000      -0.937682       -25.5156
  22   2.0000      -0.850101       -23.1324
  23   2.0000      -0.835166       -22.7260
  24   2.0000      -0.790470       -21.5098
  25   2.0000      -0.755175       -20.5494
  26   2.0000      -0.725841       -19.7511
  27   2.0000      -0.691403       -18.8140
  28   2.0000      -0.652733       -17.7618
  29   2.0000      -0.619232       -16.8502
  30   2.0000      -0.603088       -16.4109
  31   2.0000      -0.588252       -16.0072
  32   2.0000      -0.586851       -15.9690
  33   2.0000      -0.551505       -15.0072
  34   2.0000      -0.548534       -14.9264
  35   2.0000      -0.524364       -14.2687
  36   2.0000      -0.498792       -13.5728
  37   2.0000      -0.492202       -13.3935
  38   2.0000      -0.485889       -13.2217
  39   2.0000      -0.467437       -12.7196
  40   2.0000      -0.463311       -12.6073
  41   2.0000      -0.444554       -12.0969
  42   2.0000      -0.433375       -11.7927
  43   2.0000      -0.425266       -11.5721
  44   2.0000      -0.413412       -11.2495
  45   2.0000      -0.399764       -10.8781
  46   2.0000      -0.384030       -10.4500
  47   2.0000      -0.378776       -10.3070
  48   2.0000      -0.368259       -10.0208
  49   2.0000      -0.360488        -9.8094
  50   2.0000      -0.350313        -9.5325
  51   2.0000      -0.336647        -9.1606
  52   2.0000      -0.331115        -9.0101
  53   2.0000      -0.325250        -8.8505
  54   2.0000      -0.321273        -8.7423
  55   2.0000      -0.312958        -8.5160
  56   2.0000      -0.299811        -8.1583
  57   2.0000      -0.286538        -7.7971
  58   2.0000      -0.244366        -6.6495
  59   2.0000      -0.138662        -3.7732
  60   0.0000      -0.015421        -0.4196
  61   0.0000       0.002729         0.0743
  62   0.0000       0.006373         0.1734
  63   0.0000       0.015843         0.4311
  64   0.0000       0.026170         0.7121

MULLIKEN ATOMIC CHARGES
-----------------------
   0 C :   -0.419503
   1 C :   -0.564036
   2 C :   -0.596834
   3 C :   -0.644854
   4 H :    0.354888
   5 H :    0.335612
   6 S :    1.079546
   7 C :   -0.379181
   8 N :   -0.298438
   9 N :   -0.321082
  10 H :    0.173914
  11 H :    0.105441
  12 H :    1.007001
  13 H :    0.319562
  14 H :    0.057161
  15 F :   -0.130118
  16 O :   -0.619590
  17 C :   -0.495819
  18 H :    0.400391
  19 H :    0.186747
  20 C :   -0.399396
  21 H :    0.238105
  22 H :    0.265818
  23 C :   -0.418797
  24 H :    0.207842
  25 H :    0.236235
  26 O :   -0.711618
  27 H :    0.255968
  28 H :    0.273306
  29 H :    0.221362
  30 H :    0.280367
Sum of atomic charges:    0.0000000

LOEWDIN ATOMIC CHARGES
----------------------
   0 C :   -0.222519
   1 C :   -0.146121
   2 C :   -0.209798
   3 C :   -0.222405
   4 H :    0.104328
   5 H :    0.099918
   6 S :    0.661044
   7 C :   -0.529728
   8 N :    0.119671
   9 N :    0.129443
  10 H :    0.095651
  11 H :    0.090038
  12 H :    0.019913
  13 H :    0.058708
  14 H :    0.096124
  15 F :   -0.041113
  16 O :   -0.244838
  17 C :   -0.192268
  18 H :    0.094873
  19 H :    0.101505
  20 C :   -0.201226
  21 H :    0.110300
  22 H :    0.120140
  23 C :   -0.205880
  24 H :    0.104420
  25 H :    0.101676
  26 O :   -0.327270
  27 H :    0.100663
  28 H :    0.111096
  29 H :    0.102450
  30 H :    0.121206

  Mayer bond orders larger than 0.100000
B(  0-C ,  1-C ) :   0.4609 B(  0-C ,  7-C ) :   0.2300 B(  0-C , 17-C ) :   0.7381
B(  0-C , 18-H ) :   0.8797 B(  0-C , 19-H ) :   1.0186 B(  0-C , 20-C ) :   0.1210
B(  1-C ,  7-C ) :   1.6241 B(  1-C ,  8-N ) :  -0.1630 B(  1-C , 12-H ) :   0.4582
B(  1-C , 17-C ) :  -0.1154 B(  1-C , 18-H ) :  -0.1355 B(  1-C , 23-C ) :   0.1806
B(  1-C , 26-O ) :   0.2221 B(  2-C ,  3-C ) :   0.9739 B(  2-C ,  6-S ) :   0.1009
B(  2-C , 20-C ) :   0.9419 B(  2-C , 21-H ) :   0.9487 B(  2-C , 22-H ) :   0.9355
B(  2-C , 23-C ) :   0.1751 B(  3-C ,  4-H ) :   0.8543 B(  3-C ,  5-H ) :   0.8484
B(  3-C ,  6-S ) :   0.8002 B(  3-C , 16-O ) :   0.1249 B(  3-C , 23-C ) :   0.1298
B(  6-S , 15-F ) :   0.9290 B(  6-S , 16-O ) :   1.6549 B(  6-S , 26-O ) :   1.8054
B(  7-C ,  8-N ) :   1.1263 B(  7-C ,  9-N ) :   1.0209 B(  7-C , 12-H ) :  -0.3669
B(  7-C , 17-C ) :   0.1608 B(  8-N , 13-H ) :   0.8816 B(  8-N , 14-H ) :   1.1106
B(  9-N , 10-H ) :   0.9695 B(  9-N , 11-H ) :   1.0717 B( 12-H , 26-O ) :  -0.4284
B( 17-C , 20-C ) :   0.1796 B( 17-C , 23-C ) :   0.9724 B( 17-C , 24-H ) :   0.9662
B( 17-C , 25-H ) :   0.9242 B( 20-C , 23-C ) :   0.3765 B( 20-C , 29-H ) :   0.9975
B( 20-C , 30-H ) :   0.8803 B( 23-C , 27-H ) :   1.0323 B( 23-C , 28-H ) :   0.9260

Dispersion correction           -0.062346797
FINAL SINGLE POINT ENERGY     -1072.906764654915

DIPOLE MOMENT
-------------
                                X             Y             Z
Electronic contribution:      0.70769      -1.01216     -23.53635
Nuclear contribution   :      0.18720       2.58739      22.98820
                        -----------------------------------------
Total Dipole Moment    :      0.89489       1.57524      -0.54815
                        -----------------------------------------
Magnitude (a.u.)       :      1.89280
Magnitude (Debye)      :      4.81111

Rotational constants in cm-1:     0.028798     0.014448     0.010940
Rotational constants in MHz :   863.355869   433.126694   327.985023

                             ****ORCA TERMINATED NORMALLY****
TOTAL RUN TIME: 0 days 0 hours 6 minutes 41 seconds 55 msec
