                         Program Version 5.0.0 -  RELEASE  -
|  1> !B3LYP D3BJ RIJCOSX def2-TZVPD def2/J TightSCF xyzfile
|  2>
|  3> *xyzfile 0 1 D2.xyz
|  4>
|  5> %MaxCore 64000
|  6>
|  7> %pal nprocs 4
|  8> end
|  9>
| 10> %scf
| 11>   MaxIter 150
| 12> end
| 13>
| 14>
| 15>                          ****END OF INPUT****

CARTESIAN COORDINATES (ANGSTROEM)
---------------------------------
  C      1.963365   -1.749150   -1.896887
  N      2.738490   -2.015170   -3.097113
  C      0.611877    1.657634   -4.500288
  C      1.694991    1.541794   -5.570447
  H      2.697326    1.734659   -5.183996
  H      1.506656    2.272239   -6.358076
  S      1.780287   -0.033128   -6.428739
  C      4.049736   -2.154717   -3.152044
  C      4.658206   -1.986293   -4.318655
  N      4.764231   -2.454435   -2.050491
  H      4.287363   -2.776259   -1.217496
  H      5.750825   -2.658351   -2.125988
  H      2.345176   -1.690274   -3.971447
  H      4.109004   -1.592677   -5.071760
  H      5.649095   -2.156462   -4.427237
  F      2.569287    0.213657   -7.607360
  O      0.416880   -0.462969   -6.618595
  C      2.088520   -0.300912   -1.415204
  H      2.231272   -2.451616   -1.102643
  H      0.930249   -1.977801   -2.155438
  C      0.680356    0.655418   -3.348038
  H     -0.356865    1.549231   -4.991128
  H      0.650228    2.675438   -4.096000
  C      1.968993    0.733582   -2.535654
  H      3.051356   -0.168602   -0.911868
  H      1.316501   -0.136231   -0.657252
  O      2.505129   -0.933263   -5.482570
  H      2.824195    0.624726   -3.208464
  H      2.058919    1.730331   -2.093112
  H      0.542252   -0.344731   -3.766662
  H     -0.174219    0.829692   -2.685182

 Total Charge           Charge          ....    0
 Multiplicity           Mult            ....    1
 Number of Electrons    NEL             ....  120
 Basis Dimension        Dim             ....  689

ORBITAL ENERGIES
----------------

  NO   OCC          E(Eh)            E(eV)
   0   2.0000     -89.111101     -2424.8363
   1   2.0000     -24.813912      -675.2209
   2   2.0000     -19.151265      -521.1324
   3   2.0000     -19.135239      -520.6963
   4   2.0000     -14.296568      -389.0294
   5   2.0000     -14.282067      -388.6348
   6   2.0000     -10.235096      -278.5111
   7   2.0000     -10.200454      -277.5685
   8   2.0000     -10.191335      -277.3203
   9   2.0000     -10.188795      -277.2512
  10   2.0000     -10.175166      -276.8803
  11   2.0000     -10.165410      -276.6149
  12   2.0000     -10.160649      -276.4853
  13   2.0000     -10.050475      -273.4873
  14   2.0000      -8.155441      -221.9208
  15   2.0000      -6.121971      -166.5873
  16   2.0000      -6.115932      -166.4230
  17   2.0000      -6.115638      -166.4150
  18   2.0000      -1.396993       -38.0141
  19   2.0000      -1.117671       -30.4134
  20   2.0000      -1.019685       -27.7470
  21   2.0000      -0.945357       -25.7245
  22   2.0000      -0.864507       -23.5244
  23   2.0000      -0.841489       -22.8981
  24   2.0000      -0.793000       -21.5786
  25   2.0000      -0.760328       -20.6896
  26   2.0000      -0.723924       -19.6990
  27   2.0000      -0.697093       -18.9689
  28   2.0000      -0.659983       -17.9591
  29   2.0000      -0.626959       -17.0604
  30   2.0000      -0.605090       -16.4653
  31   2.0000      -0.594459       -16.1761
  32   2.0000      -0.588933       -16.0257
  33   2.0000      -0.565671       -15.3927
  34   2.0000      -0.557561       -15.1720
  35   2.0000      -0.516448       -14.0533
  36   2.0000      -0.501753       -13.6534
  37   2.0000      -0.498818       -13.5735
  38   2.0000      -0.477253       -12.9867
  39   2.0000      -0.474248       -12.9049
  40   2.0000      -0.466025       -12.6812
  41   2.0000      -0.458157       -12.4671
  42   2.0000      -0.439885       -11.9699
  43   2.0000      -0.432029       -11.7561
  44   2.0000      -0.416792       -11.3415
  45   2.0000      -0.401203       -10.9173
  46   2.0000      -0.387624       -10.5478
  47   2.0000      -0.384856       -10.4725
  48   2.0000      -0.373173       -10.1545
  49   2.0000      -0.363225        -9.8838
  50   2.0000      -0.356810        -9.7093
  51   2.0000      -0.355173        -9.6647
  52   2.0000      -0.347863        -9.4658
  53   2.0000      -0.333868        -9.0850
  54   2.0000      -0.330312        -8.9882
  55   2.0000      -0.324633        -8.8337
  56   2.0000      -0.321263        -8.7420
  57   2.0000      -0.304478        -8.2853
  58   2.0000      -0.232677        -6.3315
  59   2.0000      -0.140614        -3.8263
  60   0.0000      -0.015086        -0.4105
  61   0.0000      -0.000816        -0.0222
  62   0.0000       0.007699         0.2095
  63   0.0000       0.012315         0.3351
  64   0.0000       0.024243         0.6597

MULLIKEN ATOMIC CHARGES
-----------------------
   0 C :   -0.852426
   1 N :   -0.150282
   2 C :   -0.609319
   3 C :   -0.656663
   4 H :    0.360168
   5 H :    0.341616
   6 S :    1.101102
   7 C :    0.752733
   8 C :   -1.474534
   9 N :   -0.333450
  10 H :    0.138807
  11 H :    0.145317
  12 H :    0.427436
  13 H :    0.570736
  14 H :    0.257798
  15 F :   -0.128206
  16 O :   -0.629103
  17 C :   -0.378351
  18 H :    0.286590
  19 H :    0.300094
  20 C :   -0.438335
  21 H :    0.238560
  22 H :    0.264561
  23 C :   -0.443891
  24 H :    0.249955
  25 H :    0.284974
  26 O :   -0.716981
  27 H :    0.284048
  28 H :    0.278144
  29 H :    0.266638
  30 H :    0.262263
Sum of atomic charges:   -0.0000000

LOEWDIN ATOMIC CHARGES
----------------------
   0 C :   -0.186062
   1 N :    0.028957
   2 C :   -0.208692
   3 C :   -0.221025
   4 H :    0.106061
   5 H :    0.100754
   6 S :    0.662847
   7 C :   -0.552606
   8 C :    0.007949
   9 N :    0.123861
  10 H :    0.084265
  11 H :    0.102847
  12 H :    0.076987
  13 H :   -0.028511
  14 H :    0.005579
  15 F :   -0.032512
  16 O :   -0.249042
  17 C :   -0.180034
  18 H :    0.104000
  19 H :    0.111088
  20 C :   -0.205512
  21 H :    0.111056
  22 H :    0.121208
  23 C :   -0.202107
  24 H :    0.105138
  25 H :    0.105381
  26 O :   -0.327947
  27 H :    0.101855
  28 H :    0.114389
  29 H :    0.098640
  30 H :    0.121189

  Mayer bond orders larger than 0.100000
B(  0-C ,  1-N ) :   0.9735 B(  0-C ,  7-C ) :  -0.1097 B(  0-C , 12-H ) :  -0.1047
B(  0-C , 17-C ) :   0.6943 B(  0-C , 18-H ) :   0.8898 B(  0-C , 19-H ) :   0.9495
B(  0-C , 20-C ) :   0.1296 B(  1-N ,  7-C ) :   1.0089 B(  1-N , 12-H ) :   0.7516
B(  2-C ,  3-C ) :   0.9646 B(  2-C ,  6-S ) :   0.1020 B(  2-C , 20-C ) :   0.9546
B(  2-C , 21-H ) :   0.9475 B(  2-C , 22-H ) :   0.9349 B(  2-C , 23-C ) :   0.1762
B(  3-C ,  4-H ) :   0.8574 B(  3-C ,  5-H ) :   0.8494 B(  3-C ,  6-S ) :   0.7922
B(  3-C , 15-F ) :   0.1001 B(  3-C , 16-O ) :   0.1135 B(  3-C , 23-C ) :   0.1397
B(  6-S , 15-F ) :   0.9383 B(  6-S , 16-O ) :   1.6467 B(  6-S , 26-O ) :   1.8107
B(  7-C ,  8-C ) :   1.1183 B(  7-C ,  9-N ) :   0.9647 B(  7-C , 14-H ) :  -0.1474
B(  8-C , 13-H ) :   0.7443 B(  8-C , 14-H ) :   1.1190 B(  8-C , 26-O ) :   0.1741
B(  9-N , 10-H ) :   1.0139 B(  9-N , 11-H ) :   1.0223 B( 13-H , 26-O ) :  -0.2266
B( 17-C , 20-C ) :   0.1437 B( 17-C , 23-C ) :   1.0064 B( 17-C , 24-H ) :   0.9361
B( 17-C , 25-H ) :   0.9829 B( 20-C , 23-C ) :   0.3518 B( 20-C , 29-H ) :   0.9682
B( 20-C , 30-H ) :   0.9111 B( 23-C , 27-H ) :   1.0090 B( 23-C , 28-H ) :   0.9001
B( 23-C , 29-H ) :  -0.1023

Dispersion correction           -0.061940682
FINAL SINGLE POINT ENERGY     -1072.903595464570

DIPOLE MOMENT
-------------
                                X             Y             Z
Electronic contribution:     -0.89914      -0.82649     -22.50416
Nuclear contribution   :      0.43347       2.59110      22.83150
                        -----------------------------------------
Total Dipole Moment    :     -0.46567       1.76461       0.32733
                        -----------------------------------------
Magnitude (a.u.)       :      1.85414
Magnitude (Debye)      :      4.71285

Rotational constants in cm-1:     0.029257     0.014415     0.010996
Rotational constants in MHz :   877.098782   432.159206   329.643335

                             ****ORCA TERMINATED NORMALLY****
TOTAL RUN TIME: 0 days 0 hours 7 minutes 18 seconds 212 msec
