                         Program Version 5.0.0 -  RELEASE  -
|  1> !B3LYP D3BJ RIJCOSX def2-TZVPD def2/J TightSCF xyzfile
|  2>
|  3> *xyzfile 0 1 D3.xyz
|  4>
|  5> %MaxCore 64000
|  6>
|  7> %pal nprocs 4
|  8> end
|  9>
| 10> %scf
| 11>   MaxIter 150
| 12> end
| 13>
| 14>
| 15>                          ****END OF INPUT****

CARTESIAN COORDINATES (ANGSTROEM)
---------------------------------
  C      1.963365   -1.749150   -1.896887
  N      2.738490   -2.015170   -3.097113
  C      0.611877    1.657634   -4.500288
  C      1.694991    1.541794   -5.570447
  H      2.697326    1.734659   -5.183996
  H      1.506656    2.272239   -6.358076
  S      1.780287   -0.033128   -6.428739
  C      4.049736   -2.154717   -3.152044
  N      4.658206   -1.986293   -4.318655
  C      4.764231   -2.454435   -2.050491
  H      4.287363   -2.776259   -1.217496
  H      5.750825   -2.658351   -2.125988
  H      2.345176   -1.690274   -3.971447
  H      4.109004   -1.592677   -5.071760
  H      5.649095   -2.156462   -4.427237
  F      2.569287    0.213657   -7.607360
  O      0.416880   -0.462969   -6.618595
  C      2.088520   -0.300912   -1.415204
  H      2.231272   -2.451616   -1.102643
  H      0.930249   -1.977801   -2.155438
  C      0.680356    0.655418   -3.348038
  H     -0.356865    1.549231   -4.991128
  H      0.650228    2.675438   -4.096000
  C      1.968993    0.733582   -2.535654
  H      3.051356   -0.168602   -0.911868
  H      1.316501   -0.136231   -0.657252
  O      2.505129   -0.933263   -5.482570
  H      2.824195    0.624726   -3.208464
  H      2.058919    1.730331   -2.093112
  H      0.542252   -0.344731   -3.766662
  H     -0.174219    0.829692   -2.685182

 Total Charge           Charge          ....    0
 Multiplicity           Mult            ....    1
 Number of Electrons    NEL             ....  120
 Basis Dimension        Dim             ....  689

ORBITAL ENERGIES
----------------

  NO   OCC          E(Eh)            E(eV)
   0   2.0000     -89.127405     -2425.2800
   1   2.0000     -24.828448      -675.6164
   2   2.0000     -19.165685      -521.5248
   3   2.0000     -19.156790      -521.2828
   4   2.0000     -14.283307      -388.6685
   5   2.0000     -14.283282      -388.6679
   6   2.0000     -10.245888      -278.8048
   7   2.0000     -10.206630      -277.7365
   8   2.0000     -10.190033      -277.2849
   9   2.0000     -10.184794      -277.1423
  10   2.0000     -10.178209      -276.9632
  11   2.0000     -10.166189      -276.6361
  12   2.0000     -10.155212      -276.3374
  13   2.0000     -10.058637      -273.7094
  14   2.0000      -8.171680      -222.3627
  15   2.0000      -6.138297      -167.0316
  16   2.0000      -6.132308      -166.8686
  17   2.0000      -6.131689      -166.8517
  18   2.0000      -1.411708       -38.4145
  19   2.0000      -1.133824       -30.8529
  20   2.0000      -1.038387       -28.2560
  21   2.0000      -0.946345       -25.7514
  22   2.0000      -0.862655       -23.4740
  23   2.0000      -0.849142       -23.1063
  24   2.0000      -0.796607       -21.6768
  25   2.0000      -0.761627       -20.7249
  26   2.0000      -0.725471       -19.7411
  27   2.0000      -0.689434       -18.7604
  28   2.0000      -0.678303       -18.4576
  29   2.0000      -0.638618       -17.3777
  30   2.0000      -0.616412       -16.7734
  31   2.0000      -0.605184       -16.4679
  32   2.0000      -0.590936       -16.0802
  33   2.0000      -0.571581       -15.5535
  34   2.0000      -0.540139       -14.6979
  35   2.0000      -0.523978       -14.2582
  36   2.0000      -0.516793       -14.0627
  37   2.0000      -0.507232       -13.8025
  38   2.0000      -0.496471       -13.5096
  39   2.0000      -0.479531       -13.0487
  40   2.0000      -0.463412       -12.6101
  41   2.0000      -0.455709       -12.4005
  42   2.0000      -0.440400       -11.9839
  43   2.0000      -0.426102       -11.5948
  44   2.0000      -0.422098       -11.4859
  45   2.0000      -0.415546       -11.3076
  46   2.0000      -0.390949       -10.6383
  47   2.0000      -0.386722       -10.5232
  48   2.0000      -0.370886       -10.0923
  49   2.0000      -0.368066       -10.0156
  50   2.0000      -0.364567        -9.9204
  51   2.0000      -0.352693        -9.5973
  52   2.0000      -0.350976        -9.5505
  53   2.0000      -0.342747        -9.3266
  54   2.0000      -0.336107        -9.1459
  55   2.0000      -0.330923        -9.0049
  56   2.0000      -0.327674        -8.9165
  57   2.0000      -0.316561        -8.6141
  58   2.0000      -0.225146        -6.1265
  59   2.0000      -0.142248        -3.8708
  60   0.0000      -0.025455        -0.6927
  61   0.0000      -0.008304        -0.2260
  62   0.0000       0.005345         0.1454
  63   0.0000       0.013546         0.3686
  64   0.0000       0.021898         0.5959

MULLIKEN ATOMIC CHARGES
-----------------------
   0 C :   -0.841182
   1 N :   -0.219938
   2 C :   -0.611342
   3 C :   -0.647276
   4 H :    0.357448
   5 H :    0.340299
   6 S :    1.105084
   7 C :    0.749321
   8 N :   -0.280796
   9 C :   -1.415459
  10 H :    0.267741
  11 H :    0.317397
  12 H :    0.551292
  13 H :    0.317947
  14 H :    0.071216
  15 F :   -0.125912
  16 O :   -0.607286
  17 C :   -0.406031
  18 H :    0.284890
  19 H :    0.314240
  20 C :   -0.418206
  21 H :    0.241303
  22 H :    0.270155
  23 C :   -0.452970
  24 H :    0.267179
  25 H :    0.291878
  26 O :   -0.761621
  27 H :    0.252410
  28 H :    0.274521
  29 H :    0.254751
  30 H :    0.258947
Sum of atomic charges:    0.0000000

LOEWDIN ATOMIC CHARGES
----------------------
   0 C :   -0.180708
   1 N :    0.026503
   2 C :   -0.207921
   3 C :   -0.219910
   4 H :    0.105930
   5 H :    0.102222
   6 S :    0.667162
   7 C :   -0.558668
   8 N :    0.122727
   9 C :    0.005008
  10 H :   -0.007489
  11 H :   -0.004560
  12 H :    0.071532
  13 H :    0.050380
  14 H :    0.110101
  15 F :   -0.032658
  16 O :   -0.240655
  17 C :   -0.175951
  18 H :    0.109822
  19 H :    0.110937
  20 C :   -0.205724
  21 H :    0.111560
  22 H :    0.122473
  23 C :   -0.203404
  24 H :    0.105544
  25 H :    0.107548
  26 O :   -0.327407
  27 H :    0.100627
  28 H :    0.114587
  29 H :    0.098045
  30 H :    0.122348

  Mayer bond orders larger than 0.100000
B(  0-C ,  1-N ) :   0.9242 B(  0-C , 12-H ) :  -0.1416 B(  0-C , 17-C ) :   0.7355
B(  0-C , 18-H ) :   0.9000 B(  0-C , 19-H ) :   0.9013 B(  0-C , 20-C ) :   0.1356
B(  1-N ,  7-C ) :   0.9615 B(  1-N ,  9-C ) :   0.1061 B(  1-N , 12-H ) :   0.6579
B(  2-C ,  3-C ) :   0.9634 B(  2-C , 20-C ) :   0.9511 B(  2-C , 21-H ) :   0.9499
B(  2-C , 22-H ) :   0.9335 B(  2-C , 23-C ) :   0.1790 B(  3-C ,  4-H ) :   0.8535
B(  3-C ,  5-H ) :   0.8443 B(  3-C ,  6-S ) :   0.7956 B(  3-C , 16-O ) :   0.1181
B(  3-C , 23-C ) :   0.1307 B(  6-S , 15-F ) :   0.9441 B(  6-S , 16-O ) :   1.6631
B(  6-S , 26-O ) :   1.7811 B(  7-C ,  8-N ) :   0.9642 B(  7-C ,  9-C ) :   1.0547
B(  8-N , 13-H ) :   0.8795 B(  8-N , 14-H ) :   1.0741 B(  9-C , 10-H ) :   1.0090
B(  9-C , 11-H ) :   1.0187 B( 12-H , 26-O ) :  -0.1113 B( 17-C , 20-C ) :   0.1345
B( 17-C , 23-C ) :   1.0510 B( 17-C , 24-H ) :   0.9269 B( 17-C , 25-H ) :   0.9542
B( 20-C , 23-C ) :   0.3547 B( 20-C , 29-H ) :   0.9761 B( 20-C , 30-H ) :   0.9062
B( 23-C , 27-H ) :   1.0295 B( 23-C , 28-H ) :   0.8991 B( 23-C , 29-H ) :  -0.1020

Dispersion correction           -0.061861517
FINAL SINGLE POINT ENERGY     -1072.914772514707

DIPOLE MOMENT
-------------
                                X             Y             Z
Electronic contribution:     -1.14006      -0.23461     -24.52448
Nuclear contribution   :      0.44707       2.53104      23.12246
                        -----------------------------------------
Total Dipole Moment    :     -0.69299       2.29643      -1.40201
                        -----------------------------------------
Magnitude (a.u.)       :      2.77839
Magnitude (Debye)      :      7.06212

Rotational constants in cm-1:     0.028906     0.014696     0.011110
Rotational constants in MHz :   866.591909   440.585554   333.081943

                             ****ORCA TERMINATED NORMALLY****
TOTAL RUN TIME: 0 days 0 hours 7 minutes 19 seconds 599 msec
