                         Program Version 5.0.0 -  RELEASE  -
|  1> !B3LYP D3BJ RIJCOSX def2-TZVPD def2/J TightSCF xyzfile
|  2>
|  3> *xyzfile 0 1 D4.xyz
|  4>
|  5> %MaxCore 64000
|  6>
|  7> %pal nprocs 4
|  8> end
|  9>
| 10> %scf
| 11>   MaxIter 150
| 12> end
| 13>
| 14>
| 15>                          ****END OF INPUT****

CARTESIAN COORDINATES (ANGSTROEM)
---------------------------------
  C      1.963365   -1.749150   -1.896887
  C      2.738490   -2.015170   -3.097113
  C      0.611877    1.657634   -4.500288
  C      1.694991    1.541794   -5.570447
  H      2.697326    1.734659   -5.183996
  H      1.506656    2.272239   -6.358076
  S      1.780287   -0.033128   -6.428739
  C      4.049736   -2.154717   -3.152044
  N      4.658206   -1.986293   -4.318655
  N      4.764231   -2.454435   -2.050491
  H      4.287363   -2.776259   -1.217496
  H      5.750825   -2.658351   -2.125988
  H      2.345176   -1.690274   -3.971447
  H      4.109004   -1.592677   -5.071760
  H      5.649095   -2.156462   -4.427237
  O      2.569287    0.213657   -7.607360
  F      0.416880   -0.462969   -6.618595
  C      2.088520   -0.300912   -1.415204
  H      2.231272   -2.451616   -1.102643
  H      0.930249   -1.977801   -2.155438
  C      0.680356    0.655418   -3.348038
  H     -0.356865    1.549231   -4.991128
  H      0.650228    2.675438   -4.096000
  C      1.968993    0.733582   -2.535654
  H      3.051356   -0.168602   -0.911868
  H      1.316501   -0.136231   -0.657252
  O      2.505129   -0.933263   -5.482570
  H      2.824195    0.624726   -3.208464
  H      2.058919    1.730331   -2.093112
  H      0.542252   -0.344731   -3.766662
  H     -0.174219    0.829692   -2.685182

 Total Charge           Charge          ....    0
 Multiplicity           Mult            ....    1
 Number of Electrons    NEL             ....  120
 Basis Dimension        Dim             ....  689

ORBITAL ENERGIES
----------------

  NO   OCC          E(Eh)            E(eV)
   0   2.0000     -89.109100     -2424.7819
   1   2.0000     -24.812423      -675.1804
   2   2.0000     -19.149017      -521.0712
   3   2.0000     -19.133963      -520.6616
   4   2.0000     -14.299837      -389.1184
   5   2.0000     -14.283974      -388.6867
   6   2.0000     -10.231742      -278.4199
   7   2.0000     -10.197245      -277.4811
   8   2.0000     -10.189059      -277.2584
   9   2.0000     -10.169725      -276.7323
  10   2.0000     -10.154604      -276.3208
  11   2.0000     -10.143056      -276.0066
  12   2.0000     -10.131185      -275.6836
  13   2.0000     -10.056968      -273.6640
  14   2.0000      -8.153536      -221.8690
  15   2.0000      -6.120308      -166.5421
  16   2.0000      -6.114090      -166.3729
  17   2.0000      -6.113401      -166.3541
  18   2.0000      -1.394596       -37.9489
  19   2.0000      -1.116948       -30.3937
  20   2.0000      -1.018209       -27.7069
  21   2.0000      -0.937706       -25.5163
  22   2.0000      -0.850054       -23.1311
  23   2.0000      -0.840119       -22.8608
  24   2.0000      -0.792417       -21.5628
  25   2.0000      -0.754113       -20.5205
  26   2.0000      -0.727513       -19.7966
  27   2.0000      -0.695350       -18.9214
  28   2.0000      -0.654109       -17.7992
  29   2.0000      -0.621889       -16.9225
  30   2.0000      -0.602759       -16.4019
  31   2.0000      -0.599314       -16.3082
  32   2.0000      -0.584157       -15.8957
  33   2.0000      -0.553858       -15.0712
  34   2.0000      -0.545635       -14.8475
  35   2.0000      -0.522783       -14.2257
  36   2.0000      -0.497731       -13.5439
  37   2.0000      -0.494283       -13.4501
  38   2.0000      -0.479404       -13.0452
  39   2.0000      -0.473341       -12.8803
  40   2.0000      -0.467110       -12.7107
  41   2.0000      -0.445631       -12.1262
  42   2.0000      -0.437290       -11.8993
  43   2.0000      -0.431352       -11.7377
  44   2.0000      -0.419396       -11.4123
  45   2.0000      -0.395732       -10.7684
  46   2.0000      -0.387348       -10.5403
  47   2.0000      -0.381205       -10.3731
  48   2.0000      -0.372838       -10.1454
  49   2.0000      -0.363936        -9.9032
  50   2.0000      -0.353054        -9.6071
  51   2.0000      -0.340367        -9.2619
  52   2.0000      -0.338039        -9.1985
  53   2.0000      -0.330959        -9.0059
  54   2.0000      -0.320147        -8.7117
  55   2.0000      -0.314856        -8.5677
  56   2.0000      -0.303103        -8.2478
  57   2.0000      -0.281998        -7.6735
  58   2.0000      -0.244225        -6.6457
  59   2.0000      -0.139216        -3.7883
  60   0.0000      -0.017851        -0.4857
  61   0.0000       0.005933         0.1614
  62   0.0000       0.008097         0.2203
  63   0.0000       0.011856         0.3226
  64   0.0000       0.024813         0.6752

MULLIKEN ATOMIC CHARGES
-----------------------
   0 C :   -0.419093
   1 C :   -0.545417
   2 C :   -0.622376
   3 C :   -0.573346
   4 H :    0.338346
   5 H :    0.287592
   6 S :    1.081774
   7 C :   -0.382055
   8 N :   -0.293528
   9 N :   -0.321735
  10 H :    0.172579
  11 H :    0.107237
  12 H :    0.998147
  13 H :    0.307506
  14 H :    0.061645
  15 O :   -0.604531
  16 F :   -0.175781
  17 C :   -0.492689
  18 H :    0.396171
  19 H :    0.179545
  20 C :   -0.281995
  21 H :    0.245305
  22 H :    0.267607
  23 C :   -0.430488
  24 H :    0.211567
  25 H :    0.236478
  26 O :   -0.705646
  27 H :    0.248512
  28 H :    0.279486
  29 H :    0.161565
  30 H :    0.267618
Sum of atomic charges:   -0.0000000

LOEWDIN ATOMIC CHARGES
----------------------
   0 C :   -0.224960
   1 C :   -0.151153
   2 C :   -0.220095
   3 C :   -0.212813
   4 H :    0.114037
   5 H :    0.103134
   6 S :    0.659443
   7 C :   -0.529477
   8 N :    0.125144
   9 N :    0.129814
  10 H :    0.095477
  11 H :    0.090653
  12 H :    0.015238
  13 H :    0.064515
  14 H :    0.098290
  15 O :   -0.256912
  16 F :   -0.030506
  17 C :   -0.192042
  18 H :    0.094696
  19 H :    0.099406
  20 C :   -0.206421
  21 H :    0.106065
  22 H :    0.118829
  23 C :   -0.203708
  24 H :    0.105206
  25 H :    0.101512
  26 O :   -0.326877
  27 H :    0.102199
  28 H :    0.112339
  29 H :    0.098395
  30 H :    0.120572

  Mayer bond orders larger than 0.100000
B(  0-C ,  1-C ) :   0.4558 B(  0-C ,  7-C ) :   0.2293 B(  0-C , 17-C ) :   0.7359
B(  0-C , 18-H ) :   0.8852 B(  0-C , 19-H ) :   1.0184 B(  0-C , 20-C ) :   0.1276
B(  1-C ,  7-C ) :   1.6223 B(  1-C ,  8-N ) :  -0.1655 B(  1-C , 12-H ) :   0.5513
B(  1-C , 17-C ) :  -0.1244 B(  1-C , 18-H ) :  -0.1371 B(  1-C , 23-C ) :   0.1712
B(  1-C , 26-O ) :   0.2753 B(  2-C ,  3-C ) :   0.8881 B(  2-C , 20-C ) :   0.8690
B(  2-C , 21-H ) :   0.9756 B(  2-C , 22-H ) :   0.9417 B(  2-C , 23-C ) :   0.1844
B(  3-C ,  4-H ) :   0.8712 B(  3-C ,  5-H ) :   0.9498 B(  3-C ,  6-S ) :   0.8063
B(  3-C , 15-O ) :   0.1291 B(  3-C , 23-C ) :   0.1275 B(  6-S , 15-O ) :   1.5766
B(  6-S , 16-F ) :   0.9783 B(  6-S , 26-O ) :   1.8284 B(  7-C ,  8-N ) :   1.1254
B(  7-C ,  9-N ) :   1.0247 B(  7-C , 12-H ) :  -0.3736 B(  7-C , 17-C ) :   0.1623
B(  8-N , 13-H ) :   0.8849 B(  8-N , 14-H ) :   1.1062 B(  9-N , 10-H ) :   0.9701
B(  9-N , 11-H ) :   1.0706 B( 12-H , 26-O ) :  -0.5155 B( 17-C , 20-C ) :   0.1808
B( 17-C , 23-C ) :   0.9759 B( 17-C , 24-H ) :   0.9623 B( 17-C , 25-H ) :   0.9220
B( 20-C , 23-C ) :   0.4451 B( 20-C , 29-H ) :   0.9896 B( 20-C , 30-H ) :   0.9024
B( 23-C , 27-H ) :   1.0344 B( 23-C , 28-H ) :   0.9191

Dispersion correction           -0.062156023
FINAL SINGLE POINT ENERGY     -1072.906128793510

DIPOLE MOMENT
-------------
                                X             Y             Z
Electronic contribution:     -3.01365      -2.17184     -21.75743
Nuclear contribution   :      2.64598       3.36033      21.85869
                        -----------------------------------------
Total Dipole Moment    :     -0.36766       1.18849       0.10127
                        -----------------------------------------
Magnitude (a.u.)       :      1.24818
Magnitude (Debye)      :      3.17262

Rotational constants in cm-1:     0.028973     0.014435     0.011026
Rotational constants in MHz :   868.588266   432.748309   330.548534

                             ****ORCA TERMINATED NORMALLY****
TOTAL RUN TIME: 0 days 0 hours 6 minutes 31 seconds 272 msec
