                         Program Version 5.0.0 -  RELEASE  -
|  1> !B3LYP D3BJ RIJCOSX def2-TZVPD def2/J TightSCF xyzfile
|  2>
|  3> *xyzfile 0 1 D5.xyz
|  4>
|  5> %MaxCore 64000
|  6>
|  7> %pal nprocs 4
|  8> end
|  9>
| 10> %scf
| 11>   MaxIter 150
| 12> end
| 13>
| 14>
| 15>                          ****END OF INPUT****

CARTESIAN COORDINATES (ANGSTROEM)
---------------------------------
  C      1.963365   -1.749150   -1.896887
  N      2.738490   -2.015170   -3.097113
  C      0.611877    1.657634   -4.500288
  C      1.694991    1.541794   -5.570447
  H      2.697326    1.734659   -5.183996
  H      1.506656    2.272239   -6.358076
  S      1.780287   -0.033128   -6.428739
  C      4.049736   -2.154717   -3.152044
  C      4.658206   -1.986293   -4.318655
  N      4.764231   -2.454435   -2.050491
  H      4.287363   -2.776259   -1.217496
  H      5.750825   -2.658351   -2.125988
  H      2.345176   -1.690274   -3.971447
  H      4.109004   -1.592677   -5.071760
  H      5.649095   -2.156462   -4.427237
  O      2.569287    0.213657   -7.607360
  F      0.416880   -0.462969   -6.618595
  C      2.088520   -0.300912   -1.415204
  H      2.231272   -2.451616   -1.102643
  H      0.930249   -1.977801   -2.155438
  C      0.680356    0.655418   -3.348038
  H     -0.356865    1.549231   -4.991128
  H      0.650228    2.675438   -4.096000
  C      1.968993    0.733582   -2.535654
  H      3.051356   -0.168602   -0.911868
  H      1.316501   -0.136231   -0.657252
  O      2.505129   -0.933263   -5.482570
  H      2.824195    0.624726   -3.208464
  H      2.058919    1.730331   -2.093112
  H      0.542252   -0.344731   -3.766662
  H     -0.174219    0.829692   -2.685182

 Total Charge           Charge          ....    0
 Multiplicity           Mult            ....    1
 Number of Electrons    NEL             ....  120
 Basis Dimension        Dim             ....  689

ORBITAL ENERGIES
----------------

  NO   OCC          E(Eh)            E(eV)
   0   2.0000     -89.109919     -2424.8042
   1   2.0000     -24.813411      -675.2072
   2   2.0000     -19.150166      -521.1025
   3   2.0000     -19.136233      -520.7234
   4   2.0000     -14.296562      -389.0292
   5   2.0000     -14.282127      -388.6364
   6   2.0000     -10.234363      -278.4912
   7   2.0000     -10.204676      -277.6834
   8   2.0000     -10.193953      -277.3916
   9   2.0000     -10.188361      -277.2394
  10   2.0000     -10.183173      -277.0982
  11   2.0000     -10.169675      -276.7309
  12   2.0000     -10.163617      -276.5661
  13   2.0000     -10.050390      -273.4850
  14   2.0000      -8.154367      -221.8916
  15   2.0000      -6.121268      -166.5682
  16   2.0000      -6.114803      -166.3922
  17   2.0000      -6.114252      -166.3773
  18   2.0000      -1.395923       -37.9850
  19   2.0000      -1.117644       -30.4126
  20   2.0000      -1.019515       -27.7424
  21   2.0000      -0.945766       -25.7356
  22   2.0000      -0.865138       -23.5416
  23   2.0000      -0.846374       -23.0310
  24   2.0000      -0.794894       -21.6302
  25   2.0000      -0.759156       -20.6577
  26   2.0000      -0.725998       -19.7554
  27   2.0000      -0.700214       -19.0538
  28   2.0000      -0.661302       -17.9950
  29   2.0000      -0.629337       -17.1251
  30   2.0000      -0.605295       -16.4709
  31   2.0000      -0.603827       -16.4310
  32   2.0000      -0.590088       -16.0571
  33   2.0000      -0.570832       -15.5331
  34   2.0000      -0.549940       -14.9646
  35   2.0000      -0.517397       -14.0791
  36   2.0000      -0.501673       -13.6512
  37   2.0000      -0.495949       -13.4955
  38   2.0000      -0.479477       -13.0472
  39   2.0000      -0.474019       -12.8987
  40   2.0000      -0.469647       -12.7797
  41   2.0000      -0.460101       -12.5200
  42   2.0000      -0.443959       -12.0807
  43   2.0000      -0.431684       -11.7467
  44   2.0000      -0.425239       -11.5713
  45   2.0000      -0.399267       -10.8646
  46   2.0000      -0.396643       -10.7932
  47   2.0000      -0.388044       -10.5592
  48   2.0000      -0.379317       -10.3217
  49   2.0000      -0.364565        -9.9203
  50   2.0000      -0.361817        -9.8455
  51   2.0000      -0.352316        -9.5870
  52   2.0000      -0.340924        -9.2770
  53   2.0000      -0.334790        -9.1101
  54   2.0000      -0.331334        -9.0160
  55   2.0000      -0.328152        -8.9295
  56   2.0000      -0.321834        -8.7576
  57   2.0000      -0.311226        -8.4689
  58   2.0000      -0.233312        -6.3487
  59   2.0000      -0.140333        -3.8187
  60   0.0000      -0.019958        -0.5431
  61   0.0000       0.003316         0.0902
  62   0.0000       0.004540         0.1235
  63   0.0000       0.009065         0.2467
  64   0.0000       0.023382         0.6363

MULLIKEN ATOMIC CHARGES
-----------------------
   0 C :   -0.855543
   1 N :   -0.156426
   2 C :   -0.638383
   3 C :   -0.588825
   4 H :    0.339805
   5 H :    0.292598
   6 S :    1.091070
   7 C :    0.777919
   8 C :   -1.524130
   9 N :   -0.334986
  10 H :    0.137478
  11 H :    0.145692
  12 H :    0.444035
  13 H :    0.612964
  14 H :    0.250037
  15 O :   -0.595241
  16 F :   -0.177299
  17 C :   -0.380927
  18 H :    0.287795
  19 H :    0.290535
  20 C :   -0.317308
  21 H :    0.245366
  22 H :    0.266714
  23 C :   -0.459097
  24 H :    0.252999
  25 H :    0.286788
  26 O :   -0.712352
  27 H :    0.282280
  28 H :    0.284184
  29 H :    0.200938
  30 H :    0.251321
Sum of atomic charges:   -0.0000000

LOEWDIN ATOMIC CHARGES
----------------------
   0 C :   -0.188103
   1 N :    0.024787
   2 C :   -0.219041
   3 C :   -0.212157
   4 H :    0.115497
   5 H :    0.103829
   6 S :    0.659246
   7 C :   -0.553124
   8 C :    0.014539
   9 N :    0.123478
  10 H :    0.083774
  11 H :    0.103114
  12 H :    0.072384
  13 H :   -0.022188
  14 H :    0.008054
  15 O :   -0.247220
  16 F :   -0.034849
  17 C :   -0.179699
  18 H :    0.103951
  19 H :    0.109172
  20 C :   -0.210962
  21 H :    0.106856
  22 H :    0.119819
  23 C :   -0.199912
  24 H :    0.105930
  25 H :    0.105239
  26 O :   -0.326233
  27 H :    0.103364
  28 H :    0.115641
  29 H :    0.094305
  30 H :    0.120508

  Mayer bond orders larger than 0.100000
B(  0-C ,  1-N ) :   0.9722 B(  0-C ,  7-C ) :  -0.1111 B(  0-C , 12-H ) :  -0.1051
B(  0-C , 17-C ) :   0.6883 B(  0-C , 18-H ) :   0.8877 B(  0-C , 19-H ) :   0.9567
B(  0-C , 20-C ) :   0.1307 B(  1-N ,  7-C ) :   1.0101 B(  1-N , 12-H ) :   0.7526
B(  2-C ,  3-C ) :   0.8767 B(  2-C , 20-C ) :   0.8839 B(  2-C , 21-H ) :   0.9766
B(  2-C , 22-H ) :   0.9415 B(  2-C , 23-C ) :   0.1832 B(  3-C ,  4-H ) :   0.8784
B(  3-C ,  5-H ) :   0.9502 B(  3-C ,  6-S ) :   0.8058 B(  3-C , 15-O ) :   0.1375
B(  3-C , 23-C ) :   0.1334 B(  6-S , 15-O ) :   1.5833 B(  6-S , 16-F ) :   0.9581
B(  6-S , 26-O ) :   1.8088 B(  7-C ,  8-C ) :   1.0821 B(  7-C ,  9-N ) :   0.9623
B(  7-C , 14-H ) :  -0.1530 B(  8-C , 13-H ) :   0.6950 B(  8-C , 14-H ) :   1.1334
B(  8-C , 26-O ) :   0.1915 B(  9-N , 10-H ) :   1.0154 B(  9-N , 11-H ) :   1.0219
B( 12-H , 26-O ) :  -0.1171 B( 13-H , 26-O ) :  -0.1976 B( 17-C , 20-C ) :   0.1419
B( 17-C , 23-C ) :   1.0150 B( 17-C , 24-H ) :   0.9347 B( 17-C , 25-H ) :   0.9813
B( 20-C , 23-C ) :   0.4228 B( 20-C , 29-H ) :   0.9648 B( 20-C , 30-H ) :   0.9339
B( 23-C , 27-H ) :   1.0099 B( 23-C , 28-H ) :   0.8903

Dispersion correction           -0.061755687
FINAL SINGLE POINT ENERGY     -1072.902837118222

DIPOLE MOMENT
-------------
                                X             Y             Z
Electronic contribution:     -4.61630      -1.99755     -20.73250
Nuclear contribution   :      2.89225       3.36404      21.70199
                        -----------------------------------------
Total Dipole Moment    :     -1.72405       1.36649       0.96949
                        -----------------------------------------
Magnitude (a.u.)       :      2.40407
Magnitude (Debye)      :      6.11066

Rotational constants in cm-1:     0.029431     0.014408     0.011084
Rotational constants in MHz :   882.306106   431.946714   332.288152

                             ****ORCA TERMINATED NORMALLY****
TOTAL RUN TIME: 0 days 0 hours 6 minutes 37 seconds 839 msec
