                         Program Version 5.0.0 -  RELEASE  -
|  1> !B3LYP D3BJ RIJCOSX def2-TZVPD def2/J TightSCF xyzfile
|  2>
|  3> *xyzfile 0 1 D6.xyz
|  4>
|  5> %MaxCore 64000
|  6>
|  7> %pal nprocs 4
|  8> end
|  9>
| 10> %scf
| 11>   MaxIter 150
| 12> end
| 13>
| 14>
| 15>                          ****END OF INPUT****

CARTESIAN COORDINATES (ANGSTROEM)
---------------------------------
  C      1.963365   -1.749150   -1.896887
  N      2.738490   -2.015170   -3.097113
  C      0.611877    1.657634   -4.500288
  C      1.694991    1.541794   -5.570447
  H      2.697326    1.734659   -5.183996
  H      1.506656    2.272239   -6.358076
  S      1.780287   -0.033128   -6.428739
  C      4.049736   -2.154717   -3.152044
  N      4.658206   -1.986293   -4.318655
  C      4.764231   -2.454435   -2.050491
  H      4.287363   -2.776259   -1.217496
  H      5.750825   -2.658351   -2.125988
  H      2.345176   -1.690274   -3.971447
  H      4.109004   -1.592677   -5.071760
  H      5.649095   -2.156462   -4.427237
  O      2.569287    0.213657   -7.607360
  F      0.416880   -0.462969   -6.618595
  C      2.088520   -0.300912   -1.415204
  H      2.231272   -2.451616   -1.102643
  H      0.930249   -1.977801   -2.155438
  C      0.680356    0.655418   -3.348038
  H     -0.356865    1.549231   -4.991128
  H      0.650228    2.675438   -4.096000
  C      1.968993    0.733582   -2.535654
  H      3.051356   -0.168602   -0.911868
  H      1.316501   -0.136231   -0.657252
  O      2.505129   -0.933263   -5.482570
  H      2.824195    0.624726   -3.208464
  H      2.058919    1.730331   -2.093112
  H      0.542252   -0.344731   -3.766662
  H     -0.174219    0.829692   -2.685182

 Total Charge           Charge          ....    0
 Multiplicity           Mult            ....    1
 Number of Electrons    NEL             ....  120
 Basis Dimension        Dim             ....  689

ORBITAL ENERGIES
----------------

  NO   OCC          E(Eh)            E(eV)
   0   2.0000     -89.127107     -2425.2719
   1   2.0000     -24.827724      -675.5967
   2   2.0000     -19.165087      -521.5085
   3   2.0000     -19.156391      -521.2719
   4   2.0000     -14.283694      -388.6791
   5   2.0000     -14.282629      -388.6501
   6   2.0000     -10.245548      -278.7955
   7   2.0000     -10.210942      -277.8539
   8   2.0000     -10.190201      -277.2895
   9   2.0000     -10.187665      -277.2205
  10   2.0000     -10.186396      -277.1859
  11   2.0000     -10.170594      -276.7559
  12   2.0000     -10.158394      -276.4239
  13   2.0000     -10.058935      -273.7175
  14   2.0000      -8.171388      -222.3548
  15   2.0000      -6.138182      -167.0284
  16   2.0000      -6.132088      -166.8626
  17   2.0000      -6.131157      -166.8373
  18   2.0000      -1.410007       -38.3682
  19   2.0000      -1.134398       -30.8685
  20   2.0000      -1.038038       -28.2465
  21   2.0000      -0.946700       -25.7610
  22   2.0000      -0.863581       -23.4992
  23   2.0000      -0.853347       -23.2208
  24   2.0000      -0.797993       -21.7145
  25   2.0000      -0.760145       -20.6846
  26   2.0000      -0.729766       -19.8580
  27   2.0000      -0.691198       -18.8085
  28   2.0000      -0.679437       -18.4884
  29   2.0000      -0.641018       -17.4430
  30   2.0000      -0.617088       -16.7918
  31   2.0000      -0.614440       -16.7198
  32   2.0000      -0.588261       -16.0074
  33   2.0000      -0.574374       -15.6295
  34   2.0000      -0.537397       -14.6233
  35   2.0000      -0.524178       -14.2636
  36   2.0000      -0.510680       -13.8963
  37   2.0000      -0.508468       -13.8361
  38   2.0000      -0.498040       -13.5524
  39   2.0000      -0.485018       -13.1980
  40   2.0000      -0.466699       -12.6995
  41   2.0000      -0.457984       -12.4624
  42   2.0000      -0.442099       -12.0301
  43   2.0000      -0.433653       -11.8003
  44   2.0000      -0.427520       -11.6334
  45   2.0000      -0.410736       -11.1767
  46   2.0000      -0.395748       -10.7689
  47   2.0000      -0.392926       -10.6921
  48   2.0000      -0.376734       -10.2514
  49   2.0000      -0.369681       -10.0595
  50   2.0000      -0.361898        -9.8478
  51   2.0000      -0.360684        -9.8147
  52   2.0000      -0.350357        -9.5337
  53   2.0000      -0.343624        -9.3505
  54   2.0000      -0.335790        -9.1373
  55   2.0000      -0.332125        -9.0376
  56   2.0000      -0.330751        -9.0002
  57   2.0000      -0.319265        -8.6876
  58   2.0000      -0.225408        -6.1337
  59   2.0000      -0.142594        -3.8802
  60   0.0000      -0.029170        -0.7938
  61   0.0000      -0.002546        -0.0693
  62   0.0000       0.001235         0.0336
  63   0.0000       0.011822         0.3217
  64   0.0000       0.018940         0.5154

MULLIKEN ATOMIC CHARGES
-----------------------
   0 C :   -0.843742
   1 N :   -0.229072
   2 C :   -0.643161
   3 C :   -0.579641
   4 H :    0.341824
   5 H :    0.294593
   6 S :    1.102424
   7 C :    0.754384
   8 N :   -0.279042
   9 C :   -1.413277
  10 H :    0.266471
  11 H :    0.318309
  12 H :    0.575058
  13 H :    0.309071
  14 H :    0.074835
  15 O :   -0.591236
  16 F :   -0.169022
  17 C :   -0.406710
  18 H :    0.285792
  19 H :    0.304017
  20 C :   -0.297458
  21 H :    0.249183
  22 H :    0.271618
  23 C :   -0.468760
  24 H :    0.270672
  25 H :    0.292602
  26 O :   -0.756985
  27 H :    0.250253
  28 H :    0.280854
  29 H :    0.189009
  30 H :    0.247138
Sum of atomic charges:   -0.0000000

LOEWDIN ATOMIC CHARGES
----------------------
   0 C :   -0.182614
   1 N :    0.022815
   2 C :   -0.218405
   3 C :   -0.210499
   4 H :    0.115559
   5 H :    0.105421
   6 S :    0.664642
   7 C :   -0.558974
   8 N :    0.127939
   9 C :    0.005156
  10 H :   -0.007831
  11 H :   -0.004011
  12 H :    0.067010
  13 H :    0.056104
  14 H :    0.111947
  15 O :   -0.246418
  16 F :   -0.028247
  17 C :   -0.175575
  18 H :    0.109819
  19 H :    0.109076
  20 C :   -0.211073
  21 H :    0.107323
  22 H :    0.121058
  23 C :   -0.201167
  24 H :    0.106332
  25 H :    0.107476
  26 O :   -0.326465
  27 H :    0.102215
  28 H :    0.115883
  29 H :    0.093787
  30 H :    0.121718

  Mayer bond orders larger than 0.100000
B(  0-C ,  1-N ) :   0.9229 B(  0-C , 12-H ) :  -0.1429 B(  0-C , 17-C ) :   0.7305
B(  0-C , 18-H ) :   0.8994 B(  0-C , 19-H ) :   0.9072 B(  0-C , 20-C ) :   0.1354
B(  1-N ,  7-C ) :   0.9628 B(  1-N ,  9-C ) :   0.1081 B(  1-N , 12-H ) :   0.6582
B(  2-C ,  3-C ) :   0.8758 B(  2-C , 20-C ) :   0.8783 B(  2-C , 21-H ) :   0.9778
B(  2-C , 22-H ) :   0.9399 B(  2-C , 23-C ) :   0.1871 B(  3-C ,  4-H ) :   0.8728
B(  3-C ,  5-H ) :   0.9449 B(  3-C ,  6-S ) :   0.8028 B(  3-C , 15-O ) :   0.1289
B(  3-C , 23-C ) :   0.1271 B(  6-S , 15-O ) :   1.5960 B(  6-S , 16-F ) :   0.9818
B(  6-S , 26-O ) :   1.7965 B(  7-C ,  8-N ) :   0.9540 B(  7-C ,  9-C ) :   1.0535
B(  8-N ,  9-C ) :   0.1052 B(  8-N , 13-H ) :   0.8813 B(  8-N , 14-H ) :   1.0711
B(  9-C , 10-H ) :   1.0108 B(  9-C , 11-H ) :   1.0173 B( 12-H , 26-O ) :  -0.1380
B( 17-C , 20-C ) :   0.1329 B( 17-C , 23-C ) :   1.0570 B( 17-C , 24-H ) :   0.9261
B( 17-C , 25-H ) :   0.9534 B( 20-C , 23-C ) :   0.4228 B( 20-C , 29-H ) :   0.9730
B( 20-C , 30-H ) :   0.9299 B( 23-C , 27-H ) :   1.0318 B( 23-C , 28-H ) :   0.8906

Dispersion correction           -0.061673507
FINAL SINGLE POINT ENERGY     -1072.914502324294

DIPOLE MOMENT
-------------
                                X             Y             Z
Electronic contribution:     -4.86030      -1.39872     -22.74321
Nuclear contribution   :      2.90585       3.30398      21.99296
                        -----------------------------------------
Total Dipole Moment    :     -1.95445       1.90527      -0.75025
                        -----------------------------------------
Magnitude (a.u.)       :      2.83069
Magnitude (Debye)      :      7.19503

Rotational constants in cm-1:     0.029065     0.014689     0.011200
Rotational constants in MHz :   871.338526   440.374927   335.770911

                             ****ORCA TERMINATED NORMALLY****
TOTAL RUN TIME: 0 days 0 hours 7 minutes 23 seconds 359 msec
