                         Program Version 5.0.0 -  RELEASE  -
|  1> !B3LYP D3BJ RIJCOSX def2-TZVPD def2/J TightSCF xyzfile
|  2>
|  3> *xyzfile 0 1 D7.xyz
|  4>
|  5> %MaxCore 64000
|  6>
|  7> %pal nprocs 4
|  8> end
|  9>
| 10> %scf
| 11>   MaxIter 150
| 12> end
| 13>
| 14>
| 15>                          ****END OF INPUT****

CARTESIAN COORDINATES (ANGSTROEM)
---------------------------------
  C      1.963365   -1.749150   -1.896887
  C      2.738490   -2.015170   -3.097113
  C      0.611877    1.657634   -4.500288
  C      1.694991    1.541794   -5.570447
  H      2.697326    1.734659   -5.183996
  H      1.506656    2.272239   -6.358076
  S      1.780287   -0.033128   -6.428739
  C      4.049736   -2.154717   -3.152044
  N      4.658206   -1.986293   -4.318655
  N      4.764231   -2.454435   -2.050491
  H      4.287363   -2.776259   -1.217496
  H      5.750825   -2.658351   -2.125988
  H      2.345176   -1.690274   -3.971447
  H      4.109004   -1.592677   -5.071760
  H      5.649095   -2.156462   -4.427237
  O      2.569287    0.213657   -7.607360
  O      0.416880   -0.462969   -6.618595
  C      2.088520   -0.300912   -1.415204
  H      2.231272   -2.451616   -1.102643
  H      0.930249   -1.977801   -2.155438
  C      0.680356    0.655418   -3.348038
  H     -0.356865    1.549231   -4.991128
  H      0.650228    2.675438   -4.096000
  C      1.968993    0.733582   -2.535654
  H      3.051356   -0.168602   -0.911868
  H      1.316501   -0.136231   -0.657252
  F      2.505129   -0.933263   -5.482570
  H      2.824195    0.624726   -3.208464
  H      2.058919    1.730331   -2.093112
  H      0.542252   -0.344731   -3.766662
  H     -0.174219    0.829692   -2.685182

 Total Charge           Charge          ....    0
 Multiplicity           Mult            ....    1
 Number of Electrons    NEL             ....  120
 Basis Dimension        Dim             ....  689

ORBITAL ENERGIES
----------------

  NO   OCC          E(Eh)            E(eV)
   0   2.0000     -89.098463     -2424.4924
   1   2.0000     -24.786605      -674.4778
   2   2.0000     -19.143161      -520.9119
   3   2.0000     -19.142771      -520.9013
   4   2.0000     -14.318727      -389.6324
   5   2.0000     -14.313702      -389.4956
   6   2.0000     -10.226210      -278.2693
   7   2.0000     -10.212804      -277.9045
   8   2.0000     -10.190132      -277.2876
   9   2.0000     -10.170819      -276.7621
  10   2.0000     -10.162596      -276.5383
  11   2.0000     -10.153320      -276.2859
  12   2.0000     -10.145686      -276.0781
  13   2.0000     -10.084952      -274.4255
  14   2.0000      -8.143088      -221.5847
  15   2.0000      -6.110181      -166.2665
  16   2.0000      -6.103407      -166.0822
  17   2.0000      -6.102956      -166.0699
  18   2.0000      -1.358400       -36.9639
  19   2.0000      -1.121077       -30.5061
  20   2.0000      -1.031045       -28.0562
  21   2.0000      -0.961783       -26.1714
  22   2.0000      -0.874111       -23.7858
  23   2.0000      -0.835899       -22.7460
  24   2.0000      -0.799871       -21.7656
  25   2.0000      -0.755511       -20.5585
  26   2.0000      -0.733952       -19.9718
  27   2.0000      -0.696884       -18.9632
  28   2.0000      -0.666353       -18.1324
  29   2.0000      -0.626514       -17.0483
  30   2.0000      -0.590611       -16.0714
  31   2.0000      -0.580600       -15.7989
  32   2.0000      -0.576486       -15.6870
  33   2.0000      -0.565838       -15.3972
  34   2.0000      -0.545688       -14.8489
  35   2.0000      -0.542126       -14.7520
  36   2.0000      -0.507797       -13.8178
  37   2.0000      -0.493068       -13.4171
  38   2.0000      -0.488303       -13.2874
  39   2.0000      -0.472760       -12.8644
  40   2.0000      -0.468699       -12.7539
  41   2.0000      -0.457781       -12.4569
  42   2.0000      -0.445763       -12.1298
  43   2.0000      -0.432274       -11.7628
  44   2.0000      -0.421391       -11.4666
  45   2.0000      -0.398411       -10.8413
  46   2.0000      -0.397213       -10.8087
  47   2.0000      -0.394055       -10.7228
  48   2.0000      -0.384385       -10.4597
  49   2.0000      -0.367676       -10.0050
  50   2.0000      -0.357424        -9.7260
  51   2.0000      -0.346133        -9.4188
  52   2.0000      -0.342319        -9.3150
  53   2.0000      -0.334467        -9.1013
  54   2.0000      -0.328044        -8.9265
  55   2.0000      -0.324484        -8.8297
  56   2.0000      -0.314820        -8.5667
  57   2.0000      -0.310272        -8.4429
  58   2.0000      -0.267366        -7.2754
  59   2.0000      -0.162506        -4.4220
  60   0.0000      -0.010649        -0.2898
  61   0.0000      -0.001016        -0.0276
  62   0.0000       0.009890         0.2691
  63   0.0000       0.014096         0.3836
  64   0.0000       0.024116         0.6562

MULLIKEN ATOMIC CHARGES
-----------------------
   0 C :   -0.400799
   1 C :   -0.512896
   2 C :   -0.514096
   3 C :   -0.607092
   4 H :    0.342042
   5 H :    0.308336
   6 S :    1.070861
   7 C :   -0.311517
   8 N :   -0.315686
   9 N :   -0.323919
  10 H :    0.178719
  11 H :    0.111434
  12 H :    0.872915
  13 H :    0.284128
  14 H :    0.064263
  15 O :   -0.602165
  16 O :   -0.613066
  17 C :   -0.515102
  18 H :    0.404498
  19 H :    0.188767
  20 C :   -0.448221
  21 H :    0.240493
  22 H :    0.275839
  23 C :   -0.354473
  24 H :    0.218247
  25 H :    0.237233
  26 F :   -0.263939
  27 H :    0.232829
  28 H :    0.275626
  29 H :    0.215137
  30 H :    0.261604
Sum of atomic charges:   -0.0000000

LOEWDIN ATOMIC CHARGES
----------------------
   0 C :   -0.220178
   1 C :   -0.145406
   2 C :   -0.217519
   3 C :   -0.218182
   4 H :    0.102706
   5 H :    0.110689
   6 S :    0.625728
   7 C :   -0.525852
   8 N :    0.127619
   9 N :    0.137041
  10 H :    0.099428
  11 H :    0.094801
  12 H :    0.034814
  13 H :    0.079457
  14 H :    0.104471
  15 O :   -0.263968
  16 O :   -0.249224
  17 C :   -0.190790
  18 H :    0.097780
  19 H :    0.103533
  20 C :   -0.204593
  21 H :    0.110395
  22 H :    0.118187
  23 C :   -0.206900
  24 H :    0.105458
  25 H :    0.104250
  26 F :   -0.146582
  27 H :    0.098118
  28 H :    0.113848
  29 H :    0.098792
  30 H :    0.122081

  Mayer bond orders larger than 0.100000
B(  0-C ,  1-C ) :   0.4377 B(  0-C ,  7-C ) :   0.2036 B(  0-C , 17-C ) :   0.7504
B(  0-C , 18-H ) :   0.8717 B(  0-C , 19-H ) :   1.0287 B(  0-C , 20-C ) :   0.1030
B(  1-C ,  7-C ) :   1.6091 B(  1-C ,  8-N ) :  -0.1101 B(  1-C , 12-H ) :   0.5011
B(  1-C , 18-H ) :  -0.1414 B(  1-C , 23-C ) :   0.1598 B(  1-C , 26-F ) :   0.1743
B(  2-C ,  3-C ) :   0.9130 B(  2-C , 20-C ) :   0.9604 B(  2-C , 21-H ) :   0.9635
B(  2-C , 22-H ) :   0.9396 B(  2-C , 23-C ) :   0.1367 B(  3-C ,  4-H ) :   0.8605
B(  3-C ,  5-H ) :   0.8977 B(  3-C ,  6-S ) :   0.8261 B(  3-C , 15-O ) :   0.1219
B(  3-C , 16-O ) :   0.1070 B(  3-C , 23-C ) :   0.1308 B(  3-C , 26-F ) :   0.1018
B(  6-S , 15-O ) :   1.5084 B(  6-S , 16-O ) :   1.5654 B(  6-S , 26-F ) :   1.1929
B(  7-C ,  8-N ) :   1.0448 B(  7-C ,  9-N ) :   1.0278 B(  7-C , 12-H ) :  -0.3090
B(  7-C , 17-C ) :   0.1542 B(  8-N , 13-H ) :   0.9205 B(  8-N , 14-H ) :   1.1119
B(  9-N , 10-H ) :   0.9649 B(  9-N , 11-H ) :   1.0705 B( 12-H , 26-F ) :  -0.2741
B( 17-C , 20-C ) :   0.1878 B( 17-C , 23-C ) :   0.9962 B( 17-C , 24-H ) :   0.9615
B( 17-C , 25-H ) :   0.9220 B( 20-C , 23-C ) :   0.2879 B( 20-C , 27-H ) :  -0.1018
B( 20-C , 29-H ) :   1.0283 B( 20-C , 30-H ) :   0.8824 B( 23-C , 27-H ) :   1.0656
B( 23-C , 28-H ) :   0.9158 B( 23-C , 29-H ) :  -0.1311

Dispersion correction           -0.061570486
FINAL SINGLE POINT ENERGY     -1072.923856787999

DIPOLE MOMENT
-------------
                                X             Y             Z
Electronic contribution:      0.76021      -3.13570     -19.41280
Nuclear contribution   :      0.26049       3.89757      20.56096
                        -----------------------------------------
Total Dipole Moment    :      1.02070       0.76187       1.14816
                        -----------------------------------------
Magnitude (a.u.)       :      1.71481
Magnitude (Debye)      :      4.35869

Rotational constants in cm-1:     0.029090     0.014735     0.011139
Rotational constants in MHz :   872.086433   441.731892   333.928051

                             ****ORCA TERMINATED NORMALLY****
TOTAL RUN TIME: 0 days 0 hours 7 minutes 30 seconds 466 msec
