                         Program Version 5.0.0 -  RELEASE  -
|  1> !B3LYP D3BJ RIJCOSX def2-TZVPD def2/J TightSCF xyzfile
|  2>
|  3> *xyzfile 0 1 D8.xyz
|  4>
|  5> %MaxCore 64000
|  6>
|  7> %pal nprocs 4
|  8> end
|  9>
| 10> %scf
| 11>   MaxIter 150
| 12> end
| 13>
| 14>
| 15>                          ****END OF INPUT****

CARTESIAN COORDINATES (ANGSTROEM)
---------------------------------
  C      1.963365   -1.749150   -1.896887
  N      2.738490   -2.015170   -3.097113
  C      0.611877    1.657634   -4.500288
  C      1.694991    1.541794   -5.570447
  H      2.697326    1.734659   -5.183996
  H      1.506656    2.272239   -6.358076
  S      1.780287   -0.033128   -6.428739
  C      4.049736   -2.154717   -3.152044
  C      4.658206   -1.986293   -4.318655
  N      4.764231   -2.454435   -2.050491
  H      4.287363   -2.776259   -1.217496
  H      5.750825   -2.658351   -2.125988
  H      2.345176   -1.690274   -3.971447
  H      4.109004   -1.592677   -5.071760
  H      5.649095   -2.156462   -4.427237
  O      2.569287    0.213657   -7.607360
  O      0.416880   -0.462969   -6.618595
  C      2.088520   -0.300912   -1.415204
  H      2.231272   -2.451616   -1.102643
  H      0.930249   -1.977801   -2.155438
  C      0.680356    0.655418   -3.348038
  H     -0.356865    1.549231   -4.991128
  H      0.650228    2.675438   -4.096000
  C      1.968993    0.733582   -2.535654
  H      3.051356   -0.168602   -0.911868
  H      1.316501   -0.136231   -0.657252
  F      2.505129   -0.933263   -5.482570
  H      2.824195    0.624726   -3.208464
  H      2.058919    1.730331   -2.093112
  H      0.542252   -0.344731   -3.766662
  H     -0.174219    0.829692   -2.685182

 Total Charge           Charge          ....    0
 Multiplicity           Mult            ....    1
 Number of Electrons    NEL             ....  120
 Basis Dimension        Dim             ....  689

ORBITAL ENERGIES
----------------

  NO   OCC          E(Eh)            E(eV)
   0   2.0000     -89.099872     -2424.5308
   1   2.0000     -24.787361      -674.4984
   2   2.0000     -19.144757      -520.9553
   3   2.0000     -19.142974      -520.9068
   4   2.0000     -14.316017      -389.5586
   5   2.0000     -14.311110      -389.4251
   6   2.0000     -10.229386      -278.3557
   7   2.0000     -10.213088      -277.9123
   8   2.0000     -10.209335      -277.8101
   9   2.0000     -10.198106      -277.5046
  10   2.0000     -10.185347      -277.1574
  11   2.0000     -10.178434      -276.9693
  12   2.0000     -10.174531      -276.8631
  13   2.0000     -10.078009      -274.2366
  14   2.0000      -8.144413      -221.6207
  15   2.0000      -6.111492      -166.3022
  16   2.0000      -6.104828      -166.1208
  17   2.0000      -6.104230      -166.1045
  18   2.0000      -1.358957       -36.9791
  19   2.0000      -1.121932       -30.5293
  20   2.0000      -1.031852       -28.0781
  21   2.0000      -0.969898       -26.3923
  22   2.0000      -0.886379       -24.1196
  23   2.0000      -0.843419       -22.9506
  24   2.0000      -0.800514       -21.7831
  25   2.0000      -0.765925       -20.8419
  26   2.0000      -0.721982       -19.6461
  27   2.0000      -0.711632       -19.3645
  28   2.0000      -0.673415       -18.3246
  29   2.0000      -0.635777       -17.3004
  30   2.0000      -0.596794       -16.2396
  31   2.0000      -0.596491       -16.2313
  32   2.0000      -0.575704       -15.6657
  33   2.0000      -0.570406       -15.5215
  34   2.0000      -0.552200       -15.0261
  35   2.0000      -0.533289       -14.5115
  36   2.0000      -0.503423       -13.6988
  37   2.0000      -0.498084       -13.5536
  38   2.0000      -0.489016       -13.3068
  39   2.0000      -0.483531       -13.1575
  40   2.0000      -0.472179       -12.8486
  41   2.0000      -0.463774       -12.6199
  42   2.0000      -0.446523       -12.1505
  43   2.0000      -0.439518       -11.9599
  44   2.0000      -0.425954       -11.5908
  45   2.0000      -0.407072       -11.0770
  46   2.0000      -0.402572       -10.9546
  47   2.0000      -0.396039       -10.7768
  48   2.0000      -0.386250       -10.5104
  49   2.0000      -0.377967       -10.2850
  50   2.0000      -0.371197       -10.1008
  51   2.0000      -0.365748        -9.9525
  52   2.0000      -0.350261        -9.5311
  53   2.0000      -0.346696        -9.4341
  54   2.0000      -0.341271        -9.2864
  55   2.0000      -0.334044        -9.0898
  56   2.0000      -0.333345        -9.0708
  57   2.0000      -0.327514        -8.9121
  58   2.0000      -0.255191        -6.9441
  59   2.0000      -0.164834        -4.4854
  60   0.0000      -0.009724        -0.2646
  61   0.0000      -0.001791        -0.0487
  62   0.0000       0.008237         0.2241
  63   0.0000       0.009783         0.2662
  64   0.0000       0.022794         0.6203

MULLIKEN ATOMIC CHARGES
-----------------------
   0 C :   -0.840731
   1 N :   -0.176322
   2 C :   -0.530301
   3 C :   -0.622739
   4 H :    0.347198
   5 H :    0.313148
   6 S :    1.097337
   7 C :    0.769829
   8 C :   -1.505580
   9 N :   -0.336065
  10 H :    0.142467
  11 H :    0.148751
  12 H :    0.432140
  13 H :    0.578374
  14 H :    0.248947
  15 O :   -0.594048
  16 O :   -0.621599
  17 C :   -0.375829
  18 H :    0.286614
  19 H :    0.294412
  20 C :   -0.467119
  21 H :    0.242588
  22 H :    0.276426
  23 C :   -0.394406
  24 H :    0.252277
  25 H :    0.287434
  26 F :   -0.283377
  27 H :    0.257012
  28 H :    0.280088
  29 H :    0.252246
  30 H :    0.240829
Sum of atomic charges:   -0.0000000

LOEWDIN ATOMIC CHARGES
----------------------
   0 C :   -0.183136
   1 N :    0.029022
   2 C :   -0.216684
   3 C :   -0.216774
   4 H :    0.104519
   5 H :    0.111604
   6 S :    0.625971
   7 C :   -0.548527
   8 C :    0.016985
   9 N :    0.131638
  10 H :    0.088307
  11 H :    0.107043
  12 H :    0.094250
  13 H :   -0.011152
  14 H :    0.012732
  15 O :   -0.255262
  16 O :   -0.253368
  17 C :   -0.178552
  18 H :    0.106916
  19 H :    0.112927
  20 C :   -0.208351
  21 H :    0.111185
  22 H :    0.119257
  23 C :   -0.202771
  24 H :    0.106346
  25 H :    0.108039
  26 F :   -0.146749
  27 H :    0.099837
  28 H :    0.117253
  29 H :    0.095282
  30 H :    0.122211

  Mayer bond orders larger than 0.100000
B(  0-C ,  1-N ) :   0.9756 B(  0-C ,  7-C ) :  -0.1162 B(  0-C , 12-H ) :  -0.1087
B(  0-C , 17-C ) :   0.6946 B(  0-C , 18-H ) :   0.8919 B(  0-C , 19-H ) :   0.9507
B(  0-C , 20-C ) :   0.1031 B(  1-N ,  7-C ) :   1.0044 B(  1-N , 12-H ) :   0.7206
B(  2-C ,  3-C ) :   0.8852 B(  2-C , 20-C ) :   0.9827 B(  2-C , 21-H ) :   0.9632
B(  2-C , 22-H ) :   0.9367 B(  2-C , 23-C ) :   0.1398 B(  3-C ,  4-H ) :   0.8713
B(  3-C ,  5-H ) :   0.8958 B(  3-C ,  6-S ) :   0.8040 B(  3-C , 15-O ) :   0.1329
B(  3-C , 23-C ) :   0.1365 B(  6-S , 15-O ) :   1.5158 B(  6-S , 16-O ) :   1.5755
B(  6-S , 26-F ) :   1.1996 B(  7-C ,  8-C ) :   1.1370 B(  7-C ,  9-N ) :   0.9743
B(  7-C , 14-H ) :  -0.1467 B(  8-C , 13-H ) :   0.6734 B(  8-C , 14-H ) :   1.1381
B(  8-C , 26-F ) :   0.1803 B(  9-N , 10-H ) :   1.0107 B(  9-N , 11-H ) :   1.0190
B( 12-H , 26-F ) :  -0.1003 B( 17-C , 20-C ) :   0.1539 B( 17-C , 23-C ) :   1.0290
B( 17-C , 24-H ) :   0.9404 B( 17-C , 25-H ) :   0.9849 B( 20-C , 23-C ) :   0.2463
B( 20-C , 29-H ) :   1.0010 B( 20-C , 30-H ) :   0.9138 B( 23-C , 27-H ) :   1.0516
B( 23-C , 28-H ) :   0.8852 B( 23-C , 29-H ) :  -0.1619

Dispersion correction           -0.061166922
FINAL SINGLE POINT ENERGY     -1072.920745016004

DIPOLE MOMENT
-------------
                                X             Y             Z
Electronic contribution:     -0.87002      -2.94598     -18.35215
Nuclear contribution   :      0.50676       3.90127      20.40426
                        -----------------------------------------
Total Dipole Moment    :     -0.36327       0.95529       2.05211
                        -----------------------------------------
Magnitude (a.u.)       :      2.29253
Magnitude (Debye)      :      5.82715

Rotational constants in cm-1:     0.029548     0.014706     0.011197
Rotational constants in MHz :   885.834387   440.871746   335.667619

                             ****ORCA TERMINATED NORMALLY****
TOTAL RUN TIME: 0 days 0 hours 6 minutes 51 seconds 36 msec
