                         Program Version 5.0.0 -  RELEASE  -
|  1> !B3LYP D3BJ RIJCOSX def2-TZVPD def2/J TightSCF xyzfile
|  2>
|  3> *xyzfile 0 1 D9.xyz
|  4>
|  5> %MaxCore 64000
|  6>
|  7> %pal nprocs 4
|  8> end
|  9>
| 10> %scf
| 11>   MaxIter 150
| 12> end
| 13>
| 14>
| 15>                          ****END OF INPUT****

CARTESIAN COORDINATES (ANGSTROEM)
---------------------------------
  C      1.963365   -1.749150   -1.896887
  N      2.738490   -2.015170   -3.097113
  C      0.611877    1.657634   -4.500288
  C      1.694991    1.541794   -5.570447
  H      2.697326    1.734659   -5.183996
  H      1.506656    2.272239   -6.358076
  S      1.780287   -0.033128   -6.428739
  C      4.049736   -2.154717   -3.152044
  N      4.658206   -1.986293   -4.318655
  C      4.764231   -2.454435   -2.050491
  H      4.287363   -2.776259   -1.217496
  H      5.750825   -2.658351   -2.125988
  H      2.345176   -1.690274   -3.971447
  H      4.109004   -1.592677   -5.071760
  H      5.649095   -2.156462   -4.427237
  O      2.569287    0.213657   -7.607360
  O      0.416880   -0.462969   -6.618595
  C      2.088520   -0.300912   -1.415204
  H      2.231272   -2.451616   -1.102643
  H      0.930249   -1.977801   -2.155438
  C      0.680356    0.655418   -3.348038
  H     -0.356865    1.549231   -4.991128
  H      0.650228    2.675438   -4.096000
  C      1.968993    0.733582   -2.535654
  H      3.051356   -0.168602   -0.911868
  H      1.316501   -0.136231   -0.657252
  F      2.505129   -0.933263   -5.482570
  H      2.824195    0.624726   -3.208464
  H      2.058919    1.730331   -2.093112
  H      0.542252   -0.344731   -3.766662
  H     -0.174219    0.829692   -2.685182

 Total Charge           Charge          ....    0
 Multiplicity           Mult            ....    1
 Number of Electrons    NEL             ....  120
 Basis Dimension        Dim             ....  689

ORBITAL ENERGIES
----------------

  NO   OCC          E(Eh)            E(eV)
   0   2.0000     -89.113345     -2424.8974
   1   2.0000     -24.809131      -675.0908
   2   2.0000     -19.157355      -521.2981
   3   2.0000     -19.156979      -521.2879
   4   2.0000     -14.312792      -389.4709
   5   2.0000     -14.312595      -389.4655
   6   2.0000     -10.239260      -278.6244
   7   2.0000     -10.212767      -277.9035
   8   2.0000     -10.203511      -277.6517
   9   2.0000     -10.202861      -277.6340
  10   2.0000     -10.187789      -277.2238
  11   2.0000     -10.178934      -276.9829
  12   2.0000     -10.169055      -276.7140
  13   2.0000     -10.079733      -274.2835
  14   2.0000      -8.158075      -221.9925
  15   2.0000      -6.125364      -166.6796
  16   2.0000      -6.118264      -166.4864
  17   2.0000      -6.117797      -166.4737
  18   2.0000      -1.380130       -37.5553
  19   2.0000      -1.135698       -30.9039
  20   2.0000      -1.044975       -28.4352
  21   2.0000      -0.973884       -26.5007
  22   2.0000      -0.888118       -24.1669
  23   2.0000      -0.849301       -23.1107
  24   2.0000      -0.801424       -21.8079
  25   2.0000      -0.764449       -20.8017
  26   2.0000      -0.735681       -20.0189
  27   2.0000      -0.699647       -19.0383
  28   2.0000      -0.693734       -18.8775
  29   2.0000      -0.640673       -17.4336
  30   2.0000      -0.608135       -16.5482
  31   2.0000      -0.602557       -16.3964
  32   2.0000      -0.586460       -15.9584
  33   2.0000      -0.568592       -15.4722
  34   2.0000      -0.550253       -14.9732
  35   2.0000      -0.540765       -14.7150
  36   2.0000      -0.520256       -14.1569
  37   2.0000      -0.507686       -13.8148
  38   2.0000      -0.501469       -13.6457
  39   2.0000      -0.484586       -13.1863
  40   2.0000      -0.474573       -12.9138
  41   2.0000      -0.464587       -12.6421
  42   2.0000      -0.447908       -12.1882
  43   2.0000      -0.440400       -11.9839
  44   2.0000      -0.429947       -11.6995
  45   2.0000      -0.412709       -11.2304
  46   2.0000      -0.402935       -10.9644
  47   2.0000      -0.401319       -10.9204
  48   2.0000      -0.384251       -10.4560
  49   2.0000      -0.374907       -10.2017
  50   2.0000      -0.373012       -10.1502
  51   2.0000      -0.367870       -10.0103
  52   2.0000      -0.359826        -9.7914
  53   2.0000      -0.350072        -9.5259
  54   2.0000      -0.345200        -9.3934
  55   2.0000      -0.342504        -9.3200
  56   2.0000      -0.338844        -9.2204
  57   2.0000      -0.330139        -8.9836
  58   2.0000      -0.250837        -6.8256
  59   2.0000      -0.164242        -4.4692
  60   0.0000      -0.017434        -0.4744
  61   0.0000       0.001256         0.0342
  62   0.0000       0.003644         0.0992
  63   0.0000       0.007128         0.1940
  64   0.0000       0.022061         0.6003

MULLIKEN ATOMIC CHARGES
-----------------------
   0 C :   -0.829038
   1 N :   -0.255668
   2 C :   -0.530347
   3 C :   -0.620196
   4 H :    0.348870
   5 H :    0.312514
   6 S :    1.082947
   7 C :    0.771756
   8 N :   -0.293519
   9 C :   -1.410330
  10 H :    0.272329
  11 H :    0.319764
  12 H :    0.542174
  13 H :    0.285360
  14 H :    0.077468
  15 O :   -0.593718
  16 O :   -0.603856
  17 C :   -0.408039
  18 H :    0.287401
  19 H :    0.310057
  20 C :   -0.448817
  21 H :    0.245975
  22 H :    0.279752
  23 C :   -0.397780
  24 H :    0.263907
  25 H :    0.293924
  26 F :   -0.280996
  27 H :    0.220151
  28 H :    0.277696
  29 H :    0.241697
  30 H :    0.238562
Sum of atomic charges:   -0.0000000

LOEWDIN ATOMIC CHARGES
----------------------
   0 C :   -0.177890
   1 N :    0.025952
   2 C :   -0.216030
   3 C :   -0.216358
   4 H :    0.104050
   5 H :    0.112770
   6 S :    0.627410
   7 C :   -0.556534
   8 N :    0.130175
   9 C :    0.016337
  10 H :   -0.001791
  11 H :    0.001538
  12 H :    0.088677
  13 H :    0.070629
  14 H :    0.117251
  15 O :   -0.255394
  16 O :   -0.246571
  17 C :   -0.174436
  18 H :    0.112544
  19 H :    0.112804
  20 C :   -0.208742
  21 H :    0.111617
  22 H :    0.120340
  23 C :   -0.204250
  24 H :    0.106930
  25 H :    0.110019
  26 F :   -0.144490
  27 H :    0.098208
  28 H :    0.117369
  29 H :    0.094635
  30 H :    0.123232

  Mayer bond orders larger than 0.100000
B(  0-C ,  1-N ) :   0.9520 B(  0-C , 12-H ) :  -0.1443 B(  0-C , 17-C ) :   0.7457
B(  0-C , 18-H ) :   0.8943 B(  0-C , 19-H ) :   0.9003 B(  0-C , 20-C ) :   0.1086
B(  1-N ,  7-C ) :   0.9326 B(  1-N ,  9-C ) :   0.1039 B(  1-N , 12-H ) :   0.6439
B(  2-C ,  3-C ) :   0.8870 B(  2-C , 20-C ) :   0.9796 B(  2-C , 21-H ) :   0.9649
B(  2-C , 22-H ) :   0.9382 B(  2-C , 23-C ) :   0.1453 B(  3-C ,  4-H ) :   0.8614
B(  3-C ,  5-H ) :   0.8924 B(  3-C ,  6-S ) :   0.8158 B(  3-C , 15-O ) :   0.1211
B(  3-C , 23-C ) :   0.1283 B(  6-S , 15-O ) :   1.5330 B(  6-S , 16-O ) :   1.5942
B(  6-S , 26-F ) :   1.1654 B(  7-C ,  8-N ) :   0.9043 B(  7-C ,  9-C ) :   1.0580
B(  7-C , 11-H ) :  -0.1035 B(  8-N , 13-H ) :   0.9106 B(  8-N , 14-H ) :   1.0761
B(  9-C , 10-H ) :   1.0001 B(  9-C , 11-H ) :   1.0130 B( 12-H , 26-F ) :  -0.1083
B( 17-C , 20-C ) :   0.1449 B( 17-C , 23-C ) :   1.0747 B( 17-C , 24-H ) :   0.9336
B( 17-C , 25-H ) :   0.9558 B( 20-C , 23-C ) :   0.2474 B( 20-C , 27-H ) :  -0.1124
B( 20-C , 29-H ) :   1.0067 B( 20-C , 30-H ) :   0.9068 B( 23-C , 27-H ) :   1.0756
B( 23-C , 28-H ) :   0.8831 B( 23-C , 29-H ) :  -0.1610

Dispersion correction           -0.061102030
FINAL SINGLE POINT ENERGY     -1072.923498456436

DIPOLE MOMENT
-------------
                                X             Y             Z
Electronic contribution:     -1.06013      -2.38528     -20.33336
Nuclear contribution   :      0.52036       3.84122      20.69523
                        -----------------------------------------
Total Dipole Moment    :     -0.53978       1.45594       0.36186
                        -----------------------------------------
Magnitude (a.u.)       :      1.59438
Magnitude (Debye)      :      4.05260

Rotational constants in cm-1:     0.029184     0.014996     0.011314
Rotational constants in MHz :   874.907122   449.569665   339.178205

                             ****ORCA TERMINATED NORMALLY****
TOTAL RUN TIME: 0 days 0 hours 7 minutes 15 seconds 594 msec
