                         Program Version 5.0.0 -  RELEASE  -
|  1> !LC-PBE RIJCOSX def2-SVPD def2/J TightSCF
|  2> *xyz -1 1
|  3> C          3.80351        1.37472       -3.26081
|  4> C          3.93993        0.32036       -4.36773
|  5> H          4.10504       -0.65508       -3.90773
|  6> H          3.02280        0.28052       -4.95712
|  7> C          5.10585        0.66802       -5.30546
|  8> O          4.80913        1.15019       -6.41436
|  9> O          6.26737        0.56500       -4.81948
| 10> H          3.64113        2.33595       -3.70189
| 11> H          4.69995        1.39701       -2.67703
| 12> H          2.97435        1.12625       -2.63180
| 13> *
| 14>
| 15> %MaxCore 64000
| 16>
| 17> %pal nprocs 4
| 18> end
| 19>
| 20> %scf
| 21>   MaxIter 150
| 22> end
| 23>
| 24>
| 25>                          ****END OF INPUT****

CARTESIAN COORDINATES (ANGSTROEM)
---------------------------------
  C      3.803510    1.374720   -3.260810
  C      3.939930    0.320360   -4.367730
  H      4.105040   -0.655080   -3.907730
  H      3.022800    0.280520   -4.957120
  C      5.105850    0.668020   -5.305460
  O      4.809130    1.150190   -6.414360
  O      6.267370    0.565000   -4.819480
  H      3.641130    2.335950   -3.701890
  H      4.699950    1.397010   -2.677030
  H      2.974350    1.126250   -2.631800

 Total Charge           Charge          ....   -1
 Multiplicity           Mult            ....    1
 Number of Electrons    NEL             ....   40
 Basis Dimension        Dim             ....  146

ORBITAL ENERGIES
----------------

  NO   OCC          E(Eh)            E(eV)
   0   2.0000     -18.730244      -509.6759
   1   2.0000     -18.726112      -509.5634
   2   2.0000     -10.018813      -272.6258
   3   2.0000      -9.966191      -271.1939
   4   2.0000      -9.954047      -270.8634
   5   2.0000      -0.982452       -26.7339
   6   2.0000      -0.879608       -23.9353
   7   2.0000      -0.777534       -21.1578
   8   2.0000      -0.632335       -17.2067
   9   2.0000      -0.470675       -12.8077
  10   2.0000      -0.438048       -11.9199
  11   2.0000      -0.403011       -10.9665
  12   2.0000      -0.377200       -10.2641
  13   2.0000      -0.354234        -9.6392
  14   2.0000      -0.350305        -9.5323
  15   2.0000      -0.313317        -8.5258
  16   2.0000      -0.305663        -8.3175
  17   2.0000      -0.180562        -4.9133
  18   2.0000      -0.172808        -4.7024
  19   2.0000      -0.166119        -4.5203
  20   0.0000       0.222095         6.0435
  21   0.0000       0.254029         6.9125
  22   0.0000       0.264542         7.1986
  23   0.0000       0.292823         7.9681
  24   0.0000       0.313663         8.5352

MULLIKEN ATOMIC CHARGES
-----------------------
   0 C :    0.294048
   1 C :   -0.407522
   2 H :    0.051752
   3 H :    0.051713
   4 C :    0.302141
   5 O :   -0.619249
   6 O :   -0.665252
   7 H :   -0.009785
   8 H :    0.017694
   9 H :   -0.015539
Sum of atomic charges:   -1.0000000

LOEWDIN ATOMIC CHARGES
----------------------
   0 C :    0.073242
   1 C :   -0.066699
   2 H :    0.017076
   3 H :    0.012407
   4 C :   -0.331546
   5 O :   -0.319015
   6 O :   -0.332183
   7 H :   -0.009078
   8 H :   -0.013876
   9 H :   -0.030327

  Mayer bond orders larger than 0.100000
B(  0-C ,  1-C ) :   1.2946 B(  0-C ,  7-H ) :   0.8933 B(  0-C ,  8-H ) :   0.8786
B(  0-C ,  9-H ) :   0.8862 B(  1-C ,  2-H ) :   0.9338 B(  1-C ,  3-H ) :   0.9639
B(  1-C ,  4-C ) :   1.0156 B(  1-C ,  7-H ) :   0.1414 B(  1-C ,  8-H ) :   0.1458
B(  1-C ,  9-H ) :   0.1118 B(  3-H ,  4-C ) :   0.1277 B(  4-C ,  5-O ) :   1.5832
B(  4-C ,  6-O ) :   1.5752

FINAL SINGLE POINT ENERGY      -266.874415081658

DIPOLE MOMENT
-------------
                                X             Y             Z
Electronic contribution:      3.62997      -0.51157      -4.41740
Nuclear contribution   :     -5.15232       0.33441       5.87398
                        -----------------------------------------
Total Dipole Moment    :     -1.52235      -0.17716       1.45658
                        -----------------------------------------
Magnitude (a.u.)       :      2.11437
Magnitude (Debye)      :      5.37430

Rotational constants in cm-1:     0.295355     0.137164     0.110193
Rotational constants in MHz :  8854.523706  4112.077980  3303.490503

                             ****ORCA TERMINATED NORMALLY****
TOTAL RUN TIME: 0 days 0 hours 0 minutes 17 seconds 299 msec
