                         Program Version 5.0.0 -  RELEASE  -
|  1> !LC-PBE RIJCOSX def2-SVPD def2/J TightSCF
|  2> *xyz 1 1
|  3> C          3.90595        2.81985       -3.75292
|  4> N          5.29562        3.13151       -4.10533
|  5> C          3.80351        1.37472       -3.26081
|  6> C          5.70862        3.46889       -5.32419
|  7> N          6.90470        3.03895       -5.71708
|  8> N          4.98188        4.29357       -6.09746
|  9> H          5.00055        4.10131       -7.08776
| 10> H          4.08469        4.59690       -5.73965
| 11> H          5.96336        2.52611       -3.64239
| 12> H          7.04716        2.06686       -5.47360
| 13> H          7.19815        3.30799       -6.64523
| 14> H          3.28202        2.94919       -4.64026
| 15> H          3.56525        3.51457       -2.98252
| 16> H          4.14157        0.71142       -4.02935
| 17> H          2.78528        1.15146       -3.01944
| 18> H          4.41205        1.25066       -2.38949
| 19> *
| 20>
| 21> %MaxCore 64000
| 22>
| 23> %pal nprocs 4
| 24> end
| 25>
| 26> %scf
| 27>   MaxIter 150
| 28> end
| 29>
| 30>
| 31>                          ****END OF INPUT****

CARTESIAN COORDINATES (ANGSTROEM)
---------------------------------
  C      3.905950    2.819850   -3.752920
  N      5.295620    3.131510   -4.105330
  C      3.803510    1.374720   -3.260810
  C      5.708620    3.468890   -5.324190
  N      6.904700    3.038950   -5.717080
  N      4.981880    4.293570   -6.097460
  H      5.000550    4.101310   -7.087760
  H      4.084690    4.596900   -5.739650
  H      5.963360    2.526110   -3.642390
  H      7.047160    2.066860   -5.473600
  H      7.198150    3.307990   -6.645230
  H      3.282020    2.949190   -4.640260
  H      3.565250    3.514570   -2.982520
  H      4.141570    0.711420   -4.029350
  H      2.785280    1.151460   -3.019440
  H      4.412050    1.250660   -2.389490

 Total Charge           Charge          ....    1
 Multiplicity           Mult            ....    1
 Number of Electrons    NEL             ....   48
 Basis Dimension        Dim             ....  200

ORBITAL ENERGIES
----------------

  NO   OCC          E(Eh)            E(eV)
   0   2.0000     -14.460407      -393.4877
   1   2.0000     -14.458947      -393.4479
   2   2.0000     -14.457836      -393.4177
   3   2.0000     -10.477131      -285.0972
   4   2.0000     -10.339663      -281.3565
   5   2.0000     -10.270984      -279.4877
   6   2.0000      -1.397485       -38.0275
   7   2.0000      -1.276010       -34.7220
   8   2.0000      -1.265001       -34.4224
   9   2.0000      -1.104555       -30.0565
  10   2.0000      -0.991586       -26.9824
  11   2.0000      -0.967608       -26.3300
  12   2.0000      -0.932398       -25.3718
  13   2.0000      -0.897006       -24.4088
  14   2.0000      -0.851917       -23.1818
  15   2.0000      -0.832037       -22.6409
  16   2.0000      -0.800329       -21.7781
  17   2.0000      -0.770781       -20.9740
  18   2.0000      -0.742834       -20.2135
  19   2.0000      -0.699297       -19.0288
  20   2.0000      -0.671145       -18.2628
  21   2.0000      -0.654239       -17.8027
  22   2.0000      -0.625486       -17.0203
  23   2.0000      -0.588895       -16.0246
  24   0.0000      -0.103476        -2.8157
  25   0.0000      -0.076204        -2.0736
  26   0.0000      -0.042220        -1.1489
  27   0.0000      -0.031203        -0.8491
  28   0.0000      -0.011229        -0.3056

MULLIKEN ATOMIC CHARGES
-----------------------
   0 C :    0.155835
   1 N :   -0.408178
   2 C :    0.399498
   3 C :    0.825838
   4 N :   -0.075736
   5 N :   -0.057240
   6 H :    0.038346
   7 H :    0.053454
   8 H :   -0.024770
   9 H :    0.068390
  10 H :    0.063163
  11 H :   -0.011535
  12 H :   -0.131209
  13 H :    0.011487
  14 H :    0.038794
  15 H :    0.053863
Sum of atomic charges:    1.0000000

LOEWDIN ATOMIC CHARGES
----------------------
   0 C :    0.016615
   1 N :    0.043383
   2 C :    0.126501
   3 C :   -0.049567
   4 N :    0.254699
   5 N :    0.266900
   6 H :    0.047221
   7 H :    0.033162
   8 H :    0.055182
   9 H :    0.047329
  10 H :    0.046171
  11 H :    0.034680
  12 H :    0.049067
  13 H :    0.004287
  14 H :    0.016381
  15 H :    0.007989

  Mayer bond orders larger than 0.100000
B(  0-C ,  1-N ) :   0.8768 B(  0-C ,  2-C ) :   1.3125 B(  0-C , 11-H ) :   0.8570
B(  0-C , 12-H ) :   0.9761 B(  0-C , 13-H ) :   0.1705 B(  0-C , 14-H ) :   0.1828
B(  0-C , 15-H ) :   0.1059 B(  1-N ,  3-C ) :   1.1810 B(  1-N ,  4-N ) :   0.1831
B(  1-N ,  8-H ) :   1.1298 B(  1-N , 12-H ) :   0.1312 B(  2-C , 13-H ) :   0.8517
B(  2-C , 14-H ) :   0.8452 B(  2-C , 15-H ) :   0.8654 B(  3-C ,  4-N ) :   1.0116
B(  3-C ,  5-N ) :   1.0112 B(  3-C ,  8-H ) :  -0.1610 B(  4-N ,  9-H ) :   1.0203
B(  4-N , 10-H ) :   0.9649 B(  5-N ,  6-H ) :   1.1138 B(  5-N ,  7-H ) :   0.9573
B(  6-H ,  7-H ) :  -0.1065

FINAL SINGLE POINT ENERGY      -283.302118491001

DIPOLE MOMENT
-------------
                                X             Y             Z
Electronic contribution:      3.51407       3.39113      -2.68073
Nuclear contribution   :     -3.31456      -3.64300       1.57303
                        -----------------------------------------
Total Dipole Moment    :      0.19951      -0.25187      -1.10770
                        -----------------------------------------
Magnitude (a.u.)       :      1.15336
Magnitude (Debye)      :      2.93160

Rotational constants in cm-1:     0.229487     0.071000     0.059428
Rotational constants in MHz :  6879.840828  2128.520047  1781.605314

                             ****ORCA TERMINATED NORMALLY****
TOTAL RUN TIME: 0 days 0 hours 0 minutes 33 seconds 460 msec
