                         Program Version 5.0.0 -  RELEASE  -
|  1> !LC-PBE RIJCOSX def2-SVPD def2/J TightSCF
|  2> *xyz 0 1
|  3> C          3.80351        1.37472       -3.26081
|  4> C          3.93993        0.32036       -4.36773
|  5> H          4.10504       -0.65508       -3.90773
|  6> H          3.02280        0.28052       -4.95712
|  7> C          5.10585        0.66802       -5.30546
|  8> F          4.80913        1.15019       -6.41436
|  9> O          6.26737        0.56500       -4.81948
| 10> H          3.64113        2.33595       -3.70189
| 11> H          4.69995        1.39701       -2.67703
| 12> H          2.97435        1.12625       -2.63180
| 13> *
| 14>
| 15> %MaxCore 64000
| 16>
| 17> %pal nprocs 4
| 18> end
| 19>
| 20> %scf
| 21>   MaxIter 150
| 22> end
| 23>
| 24>
| 25>                          ****END OF INPUT****

CARTESIAN COORDINATES (ANGSTROEM)
---------------------------------
  C      3.803510    1.374720   -3.260810
  C      3.939930    0.320360   -4.367730
  H      4.105040   -0.655080   -3.907730
  H      3.022800    0.280520   -4.957120
  C      5.105850    0.668020   -5.305460
  F      4.809130    1.150190   -6.414360
  O      6.267370    0.565000   -4.819480
  H      3.641130    2.335950   -3.701890
  H      4.699950    1.397010   -2.677030
  H      2.974350    1.126250   -2.631800

 Total Charge           Charge          ....    0
 Multiplicity           Mult            ....    1
 Number of Electrons    NEL             ....   40
 Basis Dimension        Dim             ....  146

ORBITAL ENERGIES
----------------

  NO   OCC          E(Eh)            E(eV)
   0   2.0000     -24.587760      -669.0670
   1   2.0000     -19.003757      -517.1185
   2   2.0000     -10.321394      -280.8594
   3   2.0000     -10.163141      -276.5531
   4   2.0000     -10.135855      -275.8106
   5   2.0000      -1.477522       -40.2054
   6   2.0000      -1.189993       -32.3813
   7   2.0000      -0.976252       -26.5652
   8   2.0000      -0.852078       -23.1862
   9   2.0000      -0.803538       -21.8654
  10   2.0000      -0.717100       -19.5133
  11   2.0000      -0.698806       -19.0155
  12   2.0000      -0.659298       -17.9404
  13   2.0000      -0.612889       -16.6775
  14   2.0000      -0.580752       -15.8031
  15   2.0000      -0.541748       -14.7417
  16   2.0000      -0.518036       -14.0965
  17   2.0000      -0.508094       -13.8259
  18   2.0000      -0.485228       -13.2037
  19   2.0000      -0.431542       -11.7429
  20   0.0000       0.061135         1.6636
  21   0.0000       0.081992         2.2311
  22   0.0000       0.113496         3.0884
  23   0.0000       0.122504         3.3335
  24   0.0000       0.147738         4.0202

MULLIKEN ATOMIC CHARGES
-----------------------
   0 C :    0.304351
   1 C :   -0.475134
   2 H :    0.113861
   3 H :    0.096020
   4 C :    0.632232
   5 F :   -0.306372
   6 O :   -0.449311
   7 H :    0.009476
   8 H :    0.041405
   9 H :    0.033470
Sum of atomic charges:    0.0000000

LOEWDIN ATOMIC CHARGES
----------------------
   0 C :    0.110598
   1 C :   -0.019301
   2 H :    0.048566
   3 H :    0.034158
   4 C :   -0.028831
   5 F :   -0.013262
   6 O :   -0.137116
   7 H :    0.002258
   8 H :    0.003702
   9 H :   -0.000772

  Mayer bond orders larger than 0.100000
B(  0-C ,  1-C ) :   1.3065 B(  0-C ,  7-H ) :   0.8883 B(  0-C ,  8-H ) :   0.8790
B(  0-C ,  9-H ) :   0.8932 B(  1-C ,  2-H ) :   0.9287 B(  1-C ,  3-H ) :   0.9533
B(  1-C ,  4-C ) :   1.0812 B(  1-C ,  7-H ) :   0.1249 B(  1-C ,  8-H ) :   0.1287
B(  1-C ,  9-H ) :   0.1022 B(  4-C ,  5-F ) :   0.8347 B(  4-C ,  6-O ) :   1.8931

FINAL SINGLE POINT ENERGY      -291.375611191294

DIPOLE MOMENT
-------------
                                X             Y             Z
Electronic contribution:      3.93637      -0.02280      -7.42667
Nuclear contribution   :     -5.17129      -0.01923       7.59895
                        -----------------------------------------
Total Dipole Moment    :     -1.23492      -0.04204       0.17228
                        -----------------------------------------
Magnitude (a.u.)       :      1.24759
Magnitude (Debye)      :      3.17113

Rotational constants in cm-1:     0.282073     0.131822     0.105134
Rotational constants in MHz :  8456.328792  3951.925810  3151.840112

                             ****ORCA TERMINATED NORMALLY****
TOTAL RUN TIME: 0 days 0 hours 0 minutes 17 seconds 491 msec
