                         Program Version 5.0.0 -  RELEASE  -
|  1> !LC-PBE RIJCOSX def2-SVPD def2/J TightSCF
|  2> *xyz 0 1
|  3> C          3.90595        2.81985       -3.75292
|  4> C          5.29562        3.13151       -4.10533
|  5> C          3.80351        1.37472       -3.26081
|  6> C          5.70862        3.46889       -5.32419
|  7> N          6.90470        3.03895       -5.71708
|  8> N          4.98188        4.29357       -6.09746
|  9> H          5.00055        4.10131       -7.08776
| 10> H          4.08469        4.59690       -5.73965
| 11> H          5.96336        2.52611       -3.64239
| 12> H          7.04716        2.06686       -5.47360
| 13> H          7.19815        3.30799       -6.64523
| 14> H          3.28202        2.94919       -4.64026
| 15> H          3.56525        3.51457       -2.98252
| 16> H          4.14157        0.71142       -4.02935
| 17> H          2.78528        1.15146       -3.01944
| 18> H          4.41205        1.25066       -2.38949
| 19> *
| 20>
| 21> %MaxCore 64000
| 22>
| 23> %pal nprocs 4
| 24> end
| 25>
| 26> %scf
| 27>   MaxIter 150
| 28> end
| 29>
| 30>
| 31>                          ****END OF INPUT****

CARTESIAN COORDINATES (ANGSTROEM)
---------------------------------
  C      3.905950    2.819850   -3.752920
  C      5.295620    3.131510   -4.105330
  C      3.803510    1.374720   -3.260810
  C      5.708620    3.468890   -5.324190
  N      6.904700    3.038950   -5.717080
  N      4.981880    4.293570   -6.097460
  H      5.000550    4.101310   -7.087760
  H      4.084690    4.596900   -5.739650
  H      5.963360    2.526110   -3.642390
  H      7.047160    2.066860   -5.473600
  H      7.198150    3.307990   -6.645230
  H      3.282020    2.949190   -4.640260
  H      3.565250    3.514570   -2.982520
  H      4.141570    0.711420   -4.029350
  H      2.785280    1.151460   -3.019440
  H      4.412050    1.250660   -2.389490

 Total Charge           Charge          ....    0
 Multiplicity           Mult            ....    1
 Number of Electrons    NEL             ....   48
 Basis Dimension        Dim             ....  200

ORBITAL ENERGIES
----------------

  NO   OCC          E(Eh)            E(eV)
   0   2.0000     -14.233640      -387.3170
   1   2.0000     -14.229692      -387.2096
   2   2.0000     -10.176342      -276.9123
   3   2.0000     -10.106763      -275.0190
   4   2.0000     -10.098124      -274.7839
   5   2.0000     -10.054577      -273.5990
   6   2.0000      -1.136710       -30.9315
   7   2.0000      -1.038251       -28.2523
   8   2.0000      -0.951322       -25.8868
   9   2.0000      -0.859774       -23.3956
  10   2.0000      -0.770191       -20.9580
  11   2.0000      -0.730518       -19.8784
  12   2.0000      -0.685262       -18.6469
  13   2.0000      -0.658394       -17.9158
  14   2.0000      -0.621607       -16.9148
  15   2.0000      -0.592924       -16.1343
  16   2.0000      -0.564118       -15.3504
  17   2.0000      -0.531675       -14.4676
  18   2.0000      -0.510073       -13.8798
  19   2.0000      -0.486300       -13.2329
  20   2.0000      -0.457478       -12.4486
  21   2.0000      -0.454215       -12.3598
  22   2.0000      -0.409955       -11.1555
  23   2.0000      -0.287259        -7.8167
  24   0.0000       0.086829         2.3627
  25   0.0000       0.112687         3.0664
  26   0.0000       0.116992         3.1835
  27   0.0000       0.130997         3.5646
  28   0.0000       0.145515         3.9597

MULLIKEN ATOMIC CHARGES
-----------------------
   0 C :   -0.191788
   1 C :   -0.131174
   2 C :    0.494103
   3 C :    0.204724
   4 N :   -0.025432
   5 N :   -0.039697
   6 H :   -0.042958
   7 H :    0.042592
   8 H :   -0.174352
   9 H :    0.064106
  10 H :   -0.049139
  11 H :   -0.089330
  12 H :   -0.075320
  13 H :    0.015290
  14 H :   -0.034477
  15 H :    0.032853
Sum of atomic charges:    0.0000000

LOEWDIN ATOMIC CHARGES
----------------------
   0 C :   -0.127096
   1 C :   -0.041150
   2 C :    0.081698
   3 C :   -0.248200
   4 N :    0.168799
   5 N :    0.181187
   6 H :   -0.000019
   7 H :    0.002461
   8 H :   -0.043530
   9 H :    0.013587
  10 H :   -0.000740
  11 H :    0.014064
  12 H :    0.021554
  13 H :   -0.004950
  14 H :   -0.012501
  15 H :   -0.005165

  Mayer bond orders larger than 0.100000
B(  0-C ,  1-C ) :   0.9866 B(  0-C ,  2-C ) :   1.3011 B(  0-C ,  8-H ) :   0.1778
B(  0-C , 11-H ) :   0.8976 B(  0-C , 12-H ) :   0.8926 B(  0-C , 13-H ) :   0.1846
B(  0-C , 14-H ) :   0.2148 B(  0-C , 15-H ) :   0.1452 B(  1-C ,  3-C ) :   2.0139
B(  1-C ,  4-N ) :   0.2892 B(  1-C ,  5-N ) :   0.1462 B(  1-C ,  8-H ) :   0.6602
B(  1-C , 12-H ) :   0.1347 B(  2-C , 13-H ) :   0.8331 B(  2-C , 14-H ) :   0.8348
B(  2-C , 15-H ) :   0.8502 B(  3-C ,  4-N ) :   0.9766 B(  3-C ,  5-N ) :   0.9961
B(  3-C ,  8-H ) :   0.2744 B(  4-N ,  9-H ) :   1.0108 B(  4-N , 10-H ) :   0.9312
B(  5-N ,  6-H ) :   1.0828 B(  5-N ,  7-H ) :   0.9631

FINAL SINGLE POINT ENERGY      -266.855016136630

DIPOLE MOMENT
-------------
                                X             Y             Z
Electronic contribution:      3.13408       3.22549      -2.84239
Nuclear contribution   :     -3.27358      -3.61654       1.70633
                        -----------------------------------------
Total Dipole Moment    :     -0.13949      -0.39105      -1.13606
                        -----------------------------------------
Magnitude (a.u.)       :      1.20955
Magnitude (Debye)      :      3.07443

Rotational constants in cm-1:     0.231961     0.071249     0.059473
Rotational constants in MHz :  6954.024434  2135.976855  1782.962814

                             ****ORCA TERMINATED NORMALLY****
TOTAL RUN TIME: 0 days 0 hours 0 minutes 33 seconds 931 msec
