                         Program Version 5.0.0 -  RELEASE  -
|  1> !LC-PBE RIJCOSX def2-SVPD def2/J TightSCF
|  2> *xyz 0 1
|  3> C          3.80351        1.37472       -3.26081
|  4> C          3.93993        0.32036       -4.36773
|  5> H          4.10504       -0.65508       -3.90773
|  6> H          3.02280        0.28052       -4.95712
|  7> C          5.10585        0.66802       -5.30546
|  8> O          4.80913        1.15019       -6.41436
|  9> F          6.26737        0.56500       -4.81948
| 10> H          3.64113        2.33595       -3.70189
| 11> H          4.69995        1.39701       -2.67703
| 12> H          2.97435        1.12625       -2.63180
| 13> *
| 14>
| 15> %MaxCore 64000
| 16>
| 17> %pal nprocs 4
| 18> end
| 19>
| 20> %scf
| 21>   MaxIter 150
| 22> end
| 23>
| 24>
| 25>                          ****END OF INPUT****

CARTESIAN COORDINATES (ANGSTROEM)
---------------------------------
  C      3.803510    1.374720   -3.260810
  C      3.939930    0.320360   -4.367730
  H      4.105040   -0.655080   -3.907730
  H      3.022800    0.280520   -4.957120
  C      5.105850    0.668020   -5.305460
  O      4.809130    1.150190   -6.414360
  F      6.267370    0.565000   -4.819480
  H      3.641130    2.335950   -3.701890
  H      4.699950    1.397010   -2.677030
  H      2.974350    1.126250   -2.631800

 Total Charge           Charge          ....    0
 Multiplicity           Mult            ....    1
 Number of Electrons    NEL             ....   40
 Basis Dimension        Dim             ....  146

ORBITAL ENERGIES
----------------

  NO   OCC          E(Eh)            E(eV)
   0   2.0000     -24.580796      -668.8775
   1   2.0000     -19.006822      -517.2019
   2   2.0000     -10.319366      -280.8042
   3   2.0000     -10.162590      -276.5381
   4   2.0000     -10.138733      -275.8890
   5   2.0000      -1.463716       -39.8297
   6   2.0000      -1.200760       -32.6743
   7   2.0000      -0.978346       -26.6222
   8   2.0000      -0.846453       -23.0332
   9   2.0000      -0.801313       -21.8048
  10   2.0000      -0.710878       -19.3440
  11   2.0000      -0.694891       -18.9090
  12   2.0000      -0.655760       -17.8441
  13   2.0000      -0.612833       -16.6760
  14   2.0000      -0.581389       -15.8204
  15   2.0000      -0.546646       -14.8750
  16   2.0000      -0.524445       -14.2709
  17   2.0000      -0.507955       -13.8222
  18   2.0000      -0.494907       -13.4671
  19   2.0000      -0.431645       -11.7457
  20   0.0000       0.065340         1.7780
  21   0.0000       0.081787         2.2255
  22   0.0000       0.113568         3.0903
  23   0.0000       0.122312         3.3283
  24   0.0000       0.148379         4.0376

MULLIKEN ATOMIC CHARGES
-----------------------
   0 C :    0.288376
   1 C :   -0.460409
   2 H :    0.102927
   3 H :    0.094951
   4 C :    0.648742
   5 O :   -0.416045
   6 F :   -0.343132
   7 H :    0.019571
   8 H :    0.027779
   9 H :    0.037240
Sum of atomic charges:    0.0000000

LOEWDIN ATOMIC CHARGES
----------------------
   0 C :    0.107788
   1 C :   -0.017094
   2 H :    0.041137
   3 H :    0.044830
   4 C :   -0.029942
   5 O :   -0.125418
   6 F :   -0.025245
   7 H :    0.005476
   8 H :   -0.001271
   9 H :   -0.000260

  Mayer bond orders larger than 0.100000
B(  0-C ,  1-C ) :   1.2897 B(  0-C ,  7-H ) :   0.9003 B(  0-C ,  8-H ) :   0.8718
B(  0-C ,  9-H ) :   0.8972 B(  1-C ,  2-H ) :   0.9248 B(  1-C ,  3-H ) :   0.9785
B(  1-C ,  4-C ) :   1.0525 B(  1-C ,  7-H ) :   0.1251 B(  1-C ,  8-H ) :   0.1224
B(  1-C ,  9-H ) :   0.1017 B(  4-C ,  5-O ) :   1.9105 B(  4-C ,  6-F ) :   0.7964

FINAL SINGLE POINT ENERGY      -291.381227794282

DIPOLE MOMENT
-------------
                                X             Y             Z
Electronic contribution:      6.38631      -1.01120      -4.72456
Nuclear contribution   :     -6.76123       0.61881       5.86003
                        -----------------------------------------
Total Dipole Moment    :     -0.37492      -0.39239       1.13547
                        -----------------------------------------
Magnitude (a.u.)       :      1.25850
Magnitude (Debye)      :      3.19885

Rotational constants in cm-1:     0.275298     0.134631     0.105723
Rotational constants in MHz :  8253.224169  4036.137572  3169.487264

                             ****ORCA TERMINATED NORMALLY****
TOTAL RUN TIME: 0 days 0 hours 0 minutes 17 seconds 998 msec
