                         Program Version 5.0.0 -  RELEASE  -
|  1> !LC-PBE RIJCOSX def2-SVPD def2/J TightSCF
|  2> *xyz 0 1
|  3> C          3.90595        2.81985       -3.75292
|  4> N          5.29562        3.13151       -4.10533
|  5> C          3.80351        1.37472       -3.26081
|  6> C          5.70862        3.46889       -5.32419
|  7> C          6.90470        3.03895       -5.71708
|  8> N          4.98188        4.29357       -6.09746
|  9> H          5.00055        4.10131       -7.08776
| 10> H          4.08469        4.59690       -5.73965
| 11> H          5.96336        2.52611       -3.64239
| 12> H          7.04716        2.06686       -5.47360
| 13> H          7.19815        3.30799       -6.64523
| 14> H          3.28202        2.94919       -4.64026
| 15> H          3.56525        3.51457       -2.98252
| 16> H          4.14157        0.71142       -4.02935
| 17> H          2.78528        1.15146       -3.01944
| 18> H          4.41205        1.25066       -2.38949
| 19> *
| 20>
| 21> %MaxCore 64000
| 22>
| 23> %pal nprocs 4
| 24> end
| 25>
| 26> %scf
| 27>   MaxIter 150
| 28> end
| 29>
| 30>
| 31>                          ****END OF INPUT****

CARTESIAN COORDINATES (ANGSTROEM)
---------------------------------
  C      3.905950    2.819850   -3.752920
  N      5.295620    3.131510   -4.105330
  C      3.803510    1.374720   -3.260810
  C      5.708620    3.468890   -5.324190
  C      6.904700    3.038950   -5.717080
  N      4.981880    4.293570   -6.097460
  H      5.000550    4.101310   -7.087760
  H      4.084690    4.596900   -5.739650
  H      5.963360    2.526110   -3.642390
  H      7.047160    2.066860   -5.473600
  H      7.198150    3.307990   -6.645230
  H      3.282020    2.949190   -4.640260
  H      3.565250    3.514570   -2.982520
  H      4.141570    0.711420   -4.029350
  H      2.785280    1.151460   -3.019440
  H      4.412050    1.250660   -2.389490

 Total Charge           Charge          ....    0
 Multiplicity           Mult            ....    1
 Number of Electrons    NEL             ....   48
 Basis Dimension        Dim             ....  200

ORBITAL ENERGIES
----------------

  NO   OCC          E(Eh)            E(eV)
   0   2.0000     -14.233477      -387.3126
   1   2.0000     -14.233008      -387.2998
   2   2.0000     -10.182503      -277.0800
   3   2.0000     -10.169735      -276.7326
   4   2.0000     -10.127171      -275.5743
   5   2.0000     -10.038168      -273.1524
   6   2.0000      -1.143162       -31.1070
   7   2.0000      -1.053116       -28.6568
   8   2.0000      -0.944634       -25.7048
   9   2.0000      -0.871965       -23.7274
  10   2.0000      -0.788586       -21.4585
  11   2.0000      -0.751495       -20.4492
  12   2.0000      -0.685158       -18.6441
  13   2.0000      -0.641191       -17.4477
  14   2.0000      -0.635082       -17.2815
  15   2.0000      -0.594820       -16.1859
  16   2.0000      -0.564900       -15.3717
  17   2.0000      -0.543851       -14.7989
  18   2.0000      -0.517702       -14.0874
  19   2.0000      -0.509521       -13.8648
  20   2.0000      -0.504751       -13.7350
  21   2.0000      -0.473888       -12.8952
  22   2.0000      -0.393241       -10.7006
  23   2.0000      -0.293090        -7.9754
  24   0.0000       0.082954         2.2573
  25   0.0000       0.104445         2.8421
  26   0.0000       0.119404         3.2491
  27   0.0000       0.128344         3.4924
  28   0.0000       0.147299         4.0082

MULLIKEN ATOMIC CHARGES
-----------------------
   0 C :    0.146478
   1 N :   -0.427876
   2 C :    0.416408
   3 C :    0.242474
   4 C :    0.305150
   5 N :   -0.027813
   6 H :    0.018117
   7 H :   -0.041491
   8 H :    0.000418
   9 H :   -0.180106
  10 H :   -0.250341
  11 H :   -0.031022
  12 H :   -0.186024
  13 H :   -0.004247
  14 H :   -0.017528
  15 H :    0.037404
Sum of atomic charges:   -0.0000000

LOEWDIN ATOMIC CHARGES
----------------------
   0 C :   -0.014687
   1 N :   -0.020386
   2 C :    0.098819
   3 C :   -0.250470
   4 C :    0.111807
   5 N :    0.185654
   6 H :    0.014317
   7 H :   -0.009257
   8 H :    0.028694
   9 H :   -0.089070
  10 H :   -0.091204
  11 H :    0.021630
  12 H :    0.025076
  13 H :   -0.000499
  14 H :   -0.005570
  15 H :   -0.004854

  Mayer bond orders larger than 0.100000
B(  0-C ,  1-N ) :   0.8836 B(  0-C ,  2-C ) :   1.2981 B(  0-C , 11-H ) :   0.8511
B(  0-C , 12-H ) :   0.9684 B(  0-C , 13-H ) :   0.1886 B(  0-C , 14-H ) :   0.1890
B(  0-C , 15-H ) :   0.1139 B(  1-N ,  3-C ) :   1.1542 B(  1-N ,  4-C ) :   0.2185
B(  1-N ,  8-H ) :   1.0741 B(  1-N , 11-H ) :   0.1032 B(  1-N , 12-H ) :   0.1333
B(  2-C , 13-H ) :   0.8486 B(  2-C , 14-H ) :   0.8555 B(  2-C , 15-H ) :   0.8589
B(  3-C ,  4-C ) :   1.8825 B(  3-C ,  5-N ) :   0.9346 B(  3-C ,  8-H ) :  -0.1283
B(  3-C ,  9-H ) :   0.1676 B(  3-C , 10-H ) :   0.3016 B(  4-C ,  5-N ) :   0.2034
B(  4-C ,  9-H ) :   0.9194 B(  4-C , 10-H ) :   0.6326 B(  5-N ,  6-H ) :   1.0879
B(  5-N ,  7-H ) :   0.9383 B(  6-H ,  7-H ) :  -0.1032 B(  9-H , 10-H ) :   0.1540

FINAL SINGLE POINT ENERGY      -266.841460703647

DIPOLE MOMENT
-------------
                                X             Y             Z
Electronic contribution:      1.49409       3.20817      -1.27658
Nuclear contribution   :     -2.93222      -3.63618       1.36440
                        -----------------------------------------
Total Dipole Moment    :     -1.43813      -0.42800       0.08782
                        -----------------------------------------
Magnitude (a.u.)       :      1.50303
Magnitude (Debye)      :      3.82041

Rotational constants in cm-1:     0.237993     0.072843     0.061284
Rotational constants in MHz :  7134.860770  2183.763760  1837.240960

                             ****ORCA TERMINATED NORMALLY****
TOTAL RUN TIME: 0 days 0 hours 0 minutes 34 seconds 62 msec
