                         Program Version 5.0.0 -  RELEASE  -
|  1> !LC-PBE RIJCOSX def2-SVPD def2/J TightSCF
|  2> *xyz 0 1
|  3> C          3.90595        2.81985       -3.75292
|  4> N          5.29562        3.13151       -4.10533
|  5> C          3.80351        1.37472       -3.26081
|  6> C          5.70862        3.46889       -5.32419
|  7> N          6.90470        3.03895       -5.71708
|  8> C          4.98188        4.29357       -6.09746
|  9> H          5.00055        4.10131       -7.08776
| 10> H          4.08469        4.59690       -5.73965
| 11> H          5.96336        2.52611       -3.64239
| 12> H          7.04716        2.06686       -5.47360
| 13> H          7.19815        3.30799       -6.64523
| 14> H          3.28202        2.94919       -4.64026
| 15> H          3.56525        3.51457       -2.98252
| 16> H          4.14157        0.71142       -4.02935
| 17> H          2.78528        1.15146       -3.01944
| 18> H          4.41205        1.25066       -2.38949
| 19> *
| 20>
| 21> %MaxCore 64000
| 22>
| 23> %pal nprocs 4
| 24> end
| 25>
| 26> %scf
| 27>   MaxIter 150
| 28> end
| 29>
| 30>
| 31>                          ****END OF INPUT****

CARTESIAN COORDINATES (ANGSTROEM)
---------------------------------
  C      3.905950    2.819850   -3.752920
  N      5.295620    3.131510   -4.105330
  C      3.803510    1.374720   -3.260810
  C      5.708620    3.468890   -5.324190
  N      6.904700    3.038950   -5.717080
  C      4.981880    4.293570   -6.097460
  H      5.000550    4.101310   -7.087760
  H      4.084690    4.596900   -5.739650
  H      5.963360    2.526110   -3.642390
  H      7.047160    2.066860   -5.473600
  H      7.198150    3.307990   -6.645230
  H      3.282020    2.949190   -4.640260
  H      3.565250    3.514570   -2.982520
  H      4.141570    0.711420   -4.029350
  H      2.785280    1.151460   -3.019440
  H      4.412050    1.250660   -2.389490

 Total Charge           Charge          ....    0
 Multiplicity           Mult            ....    1
 Number of Electrons    NEL             ....   48
 Basis Dimension        Dim             ....  200

ORBITAL ENERGIES
----------------

  NO   OCC          E(Eh)            E(eV)
   0   2.0000     -14.235314      -387.3626
   1   2.0000     -14.232617      -387.2892
   2   2.0000     -10.181643      -277.0566
   3   2.0000     -10.163082      -276.5515
   4   2.0000     -10.124875      -275.5119
   5   2.0000     -10.043841      -273.3068
   6   2.0000      -1.147902       -31.2360
   7   2.0000      -1.055855       -28.7313
   8   2.0000      -0.931861       -25.3572
   9   2.0000      -0.873874       -23.7793
  10   2.0000      -0.803687       -21.8694
  11   2.0000      -0.719246       -19.5717
  12   2.0000      -0.688616       -18.7382
  13   2.0000      -0.664620       -18.0852
  14   2.0000      -0.622650       -16.9432
  15   2.0000      -0.600700       -16.3459
  16   2.0000      -0.548873       -14.9356
  17   2.0000      -0.540261       -14.7012
  18   2.0000      -0.531487       -14.4625
  19   2.0000      -0.507461       -13.8087
  20   2.0000      -0.497463       -13.5366
  21   2.0000      -0.474695       -12.9171
  22   2.0000      -0.390615       -10.6292
  23   2.0000      -0.295905        -8.0520
  24   0.0000       0.083286         2.2663
  25   0.0000       0.110986         3.0201
  26   0.0000       0.117480         3.1968
  27   0.0000       0.132315         3.6005
  28   0.0000       0.141106         3.8397

MULLIKEN ATOMIC CHARGES
-----------------------
   0 C :    0.179209
   1 N :   -0.329090
   2 C :    0.440795
   3 C :    0.113879
   4 N :   -0.091757
   5 C :    0.291122
   6 H :   -0.324570
   7 H :   -0.035600
   8 H :   -0.128994
   9 H :    0.015054
  10 H :    0.065619
  11 H :    0.019413
  12 H :   -0.213426
  13 H :   -0.013274
  14 H :   -0.000423
  15 H :    0.012044
Sum of atomic charges:   -0.0000000

LOEWDIN ATOMIC CHARGES
----------------------
   0 C :   -0.003470
   1 N :   -0.019203
   2 C :    0.095675
   3 C :   -0.261634
   4 N :    0.172431
   5 C :    0.130174
   6 H :   -0.090431
   7 H :   -0.096841
   8 H :    0.019063
   9 H :    0.002502
  10 H :    0.013336
  11 H :    0.026533
  12 H :    0.029519
  13 H :   -0.004680
  14 H :   -0.004797
  15 H :   -0.008177

  Mayer bond orders larger than 0.100000
B(  0-C ,  1-N ) :   0.9185 B(  0-C ,  2-C ) :   1.2676 B(  0-C , 11-H ) :   0.8692
B(  0-C , 12-H ) :   0.9712 B(  0-C , 13-H ) :   0.1617 B(  0-C , 14-H ) :   0.1931
B(  0-C , 15-H ) :   0.1197 B(  1-N ,  3-C ) :   1.1182 B(  1-N ,  4-N ) :   0.1593
B(  1-N ,  5-C ) :   0.1875 B(  1-N ,  8-H ) :   1.0584 B(  1-N , 11-H ) :   0.1062
B(  1-N , 12-H ) :   0.1288 B(  2-C , 13-H ) :   0.8691 B(  2-C , 14-H ) :   0.8378
B(  2-C , 15-H ) :   0.8575 B(  3-C ,  4-N ) :   1.0230 B(  3-C ,  5-C ) :   1.9912
B(  3-C ,  6-H ) :   0.1758 B(  3-C ,  7-H ) :   0.2618 B(  3-C ,  8-H ) :  -0.1047
B(  4-N ,  5-C ) :   0.1225 B(  4-N ,  9-H ) :   0.9594 B(  4-N , 10-H ) :   0.9597
B(  5-C ,  6-H ) :   0.8903 B(  5-C ,  7-H ) :   0.5770 B(  6-H ,  7-H ) :   0.2543

FINAL SINGLE POINT ENERGY      -266.845628471999

DIPOLE MOMENT
-------------
                                X             Y             Z
Electronic contribution:      3.37723       2.02916      -0.99235
Nuclear contribution   :     -3.34013      -3.37002       1.28371
                        -----------------------------------------
Total Dipole Moment    :      0.03709      -1.34086       0.29136
                        -----------------------------------------
Magnitude (a.u.)       :      1.37265
Magnitude (Debye)      :      3.48900

Rotational constants in cm-1:     0.239537     0.072280     0.060961
Rotational constants in MHz :  7181.153552  2166.902802  1827.551447

                             ****ORCA TERMINATED NORMALLY****
TOTAL RUN TIME: 0 days 0 hours 0 minutes 33 seconds 798 msec
