                         Program Version 5.0.0 -  RELEASE  -
|  1> !LC-PBE RIJCOSX def2-SVPD def2/J TightSCF xyzfile
|  2>
|  3> *xyzfile 0 1 D1.xyz
|  4>
|  5> %MaxCore 64000
|  6>
|  7> %pal nprocs 4
|  8> end
|  9>
| 10> %scf
| 11>   MaxIter 150
| 12> end
| 13>
| 14>
| 15>                          ****END OF INPUT****

CARTESIAN COORDINATES (ANGSTROEM)
---------------------------------
  C      3.905947    2.819855   -3.752920
  C      5.295615    3.131515   -4.105334
  C      3.803511    1.374716   -3.260807
  C      3.939934    0.320362   -4.367729
  H      4.105043   -0.655085   -3.907733
  H      3.022801    0.280517   -4.957117
  C      5.105846    0.668022   -5.305463
  C      5.708619    3.468885   -5.324190
  N      6.904696    3.038954   -5.717084
  N      4.981884    4.293570   -6.097457
  H      5.000546    4.101311   -7.087761
  H      4.084693    4.596899   -5.739652
  H      5.963358    2.526112   -3.642391
  H      7.047164    2.066861   -5.473604
  H      7.198145    3.307994   -6.645225
  H      3.282025    2.949187   -4.640259
  H      3.565254    3.514574   -2.982523
  H      4.574833    1.215157   -2.500443
  H      2.843514    1.260845   -2.751465
  F      4.809132    1.150187   -6.414361
  O      6.267366    0.564999   -4.819481

 Total Charge           Charge          ....    0
 Multiplicity           Mult            ....    1
 Number of Electrons    NEL             ....   78
 Basis Dimension        Dim             ....  294

ORBITAL ENERGIES
----------------

  NO   OCC          E(Eh)            E(eV)
   0   2.0000     -24.593560      -669.2248
   1   2.0000     -19.008828      -517.2565
   2   2.0000     -14.232767      -387.2933
   3   2.0000     -14.210608      -386.6903
   4   2.0000     -10.329866      -281.0899
   5   2.0000     -10.175504      -276.8895
   6   2.0000     -10.159891      -276.4647
   7   2.0000     -10.137790      -275.8633
   8   2.0000     -10.118910      -275.3495
   9   2.0000     -10.054515      -273.5973
  10   2.0000      -1.483027       -40.3552
  11   2.0000      -1.201347       -32.6903
  12   2.0000      -1.130659       -30.7668
  13   2.0000      -1.031061       -28.0566
  14   2.0000      -0.995931       -27.1007
  15   2.0000      -0.921785       -25.0831
  16   2.0000      -0.858092       -23.3499
  17   2.0000      -0.821267       -22.3478
  18   2.0000      -0.768338       -20.9076
  19   2.0000      -0.736687       -20.0463
  20   2.0000      -0.721181       -19.6243
  21   2.0000      -0.700589       -19.0640
  22   2.0000      -0.686854       -18.6902
  23   2.0000      -0.670080       -18.2338
  24   2.0000      -0.649329       -17.6692
  25   2.0000      -0.613935       -16.7060
  26   2.0000      -0.606086       -16.4924
  27   2.0000      -0.586035       -15.9468
  28   2.0000      -0.574583       -15.6352
  29   2.0000      -0.542575       -14.7642
  30   2.0000      -0.531389       -14.4598
  31   2.0000      -0.506680       -13.7875
  32   2.0000      -0.502328       -13.6690
  33   2.0000      -0.481510       -13.1026
  34   2.0000      -0.466993       -12.7075
  35   2.0000      -0.453170       -12.3314
  36   2.0000      -0.438788       -11.9400
  37   2.0000      -0.399089       -10.8598
  38   2.0000      -0.287121        -7.8130
  39   0.0000       0.054512         1.4833
  40   0.0000       0.080668         2.1951
  41   0.0000       0.102273         2.7830
  42   0.0000       0.109691         2.9848
  43   0.0000       0.120813         3.2875

MULLIKEN ATOMIC CHARGES
-----------------------
   0 C :    0.181793
   1 C :    0.011046
   2 C :    0.021686
   3 C :    0.089853
   4 H :    0.039388
   5 H :    0.082719
   6 C :    0.627708
   7 C :    0.005905
   8 N :    0.175580
   9 N :   -0.054186
  10 H :   -0.001101
  11 H :    0.053641
  12 H :   -0.185786
  13 H :   -0.058623
  14 H :    0.017692
  15 H :   -0.089715
  16 H :   -0.125745
  17 H :    0.119349
  18 H :   -0.063508
  19 F :   -0.329505
  20 O :   -0.518194
Sum of atomic charges:   -0.0000000

LOEWDIN ATOMIC CHARGES
----------------------
   0 C :   -0.069533
   1 C :   -0.031019
   2 C :   -0.036478
   3 C :    0.042244
   4 H :    0.049988
   5 H :    0.038397
   6 C :   -0.006691
   7 C :   -0.258585
   8 N :    0.203878
   9 N :    0.191281
  10 H :    0.001020
  11 H :    0.002740
  12 H :   -0.043437
  13 H :   -0.069818
  14 H :    0.008455
  15 H :    0.019212
  16 H :    0.025042
  17 H :    0.045469
  18 H :    0.033932
  19 F :   -0.003039
  20 O :   -0.143058

  Mayer bond orders larger than 0.100000
B(  0-C ,  1-C ) :   1.0323 B(  0-C ,  2-C ) :   1.2207 B(  0-C , 12-H ) :   0.1953
B(  0-C , 15-H ) :   0.8169 B(  0-C , 16-H ) :   0.9011 B(  0-C , 18-H ) :   0.1744
B(  1-C ,  2-C ) :   0.1055 B(  1-C ,  7-C ) :   1.8906 B(  1-C ,  8-N ) :   0.2986
B(  1-C ,  9-N ) :   0.1449 B(  1-C , 12-H ) :   0.4989 B(  1-C , 16-H ) :   0.1282
B(  2-C ,  3-C ) :   1.2030 B(  2-C ,  4-H ) :   0.1487 B(  2-C , 17-H ) :   0.8619
B(  2-C , 18-H ) :   0.9199 B(  3-C ,  4-H ) :   0.8485 B(  3-C ,  5-H ) :   0.8986
B(  3-C ,  6-C ) :   1.1231 B(  4-H ,  6-C ) :   0.1007 B(  5-H ,  6-C ) :   0.1037
B(  6-C , 19-F ) :   0.7559 B(  6-C , 20-O ) :   1.7513 B(  7-C ,  8-N ) :   0.9272
B(  7-C ,  9-N ) :   0.9915 B(  7-C , 12-H ) :   0.2843 B(  7-C , 14-H ) :   0.1714
B(  8-N , 13-H ) :   0.8996 B(  8-N , 14-H ) :   0.8306 B(  9-N , 10-H ) :   1.0378
B(  9-N , 11-H ) :   0.9615 B( 13-H , 20-O ) :   0.1195

FINAL SINGLE POINT ENERGY      -517.904707413704

DIPOLE MOMENT
-------------
                                X             Y             Z
Electronic contribution:      3.30783      -3.68356      -6.46491
Nuclear contribution   :     -4.60158       3.22721       5.56005
                        -----------------------------------------
Total Dipole Moment    :     -1.29376      -0.45635      -0.90486
                        -----------------------------------------
Magnitude (a.u.)       :      1.64342
Magnitude (Debye)      :      4.17724

Rotational constants in cm-1:     0.061224     0.042534     0.033552
Rotational constants in MHz :  1835.464095  1275.135177  1005.856966

                             ****ORCA TERMINATED NORMALLY****
TOTAL RUN TIME: 0 days 0 hours 1 minutes 29 seconds 152 msec
