                         Program Version 5.0.0 -  RELEASE  -
|  1> !LC-PBE RIJCOSX def2-SVPD def2/J TightSCF xyzfile
|  2>
|  3> *xyzfile 0 1 D2.xyz
|  4>
|  5> %MaxCore 64000
|  6>
|  7> %pal nprocs 4
|  8> end
|  9>
| 10> %scf
| 11>   MaxIter 150
| 12> end
| 13>
| 14>
| 15>                          ****END OF INPUT****

CARTESIAN COORDINATES (ANGSTROEM)
---------------------------------
  C      3.905947    2.819855   -3.752920
  N      5.295615    3.131515   -4.105334
  C      3.803511    1.374716   -3.260807
  C      3.939934    0.320362   -4.367729
  H      4.105043   -0.655085   -3.907733
  H      3.022801    0.280517   -4.957117
  C      5.105846    0.668022   -5.305463
  C      5.708619    3.468885   -5.324190
  C      6.904696    3.038954   -5.717084
  N      4.981884    4.293570   -6.097457
  H      5.000546    4.101311   -7.087761
  H      4.084693    4.596899   -5.739652
  H      5.963358    2.526112   -3.642391
  H      7.047164    2.066861   -5.473604
  H      7.198145    3.307994   -6.645225
  H      3.282025    2.949187   -4.640259
  H      3.565254    3.514574   -2.982523
  H      4.574833    1.215157   -2.500443
  H      2.843514    1.260845   -2.751465
  F      4.809132    1.150187   -6.414361
  O      6.267366    0.564999   -4.819481

 Total Charge           Charge          ....    0
 Multiplicity           Mult            ....    1
 Number of Electrons    NEL             ....   78
 Basis Dimension        Dim             ....  294

ORBITAL ENERGIES
----------------

  NO   OCC          E(Eh)            E(eV)
   0   2.0000     -24.592162      -669.1868
   1   2.0000     -19.007325      -517.2156
   2   2.0000     -14.233272      -387.3070
   3   2.0000     -14.229169      -387.1954
   4   2.0000     -10.329795      -281.0880
   5   2.0000     -10.178550      -276.9724
   6   2.0000     -10.173166      -276.8259
   7   2.0000     -10.171746      -276.7873
   8   2.0000     -10.161983      -276.5216
   9   2.0000     -10.021935      -272.7107
  10   2.0000      -1.481567       -40.3155
  11   2.0000      -1.200724       -32.6734
  12   2.0000      -1.142092       -31.0779
  13   2.0000      -1.055203       -28.7135
  14   2.0000      -0.994112       -27.0512
  15   2.0000      -0.912366       -24.8268
  16   2.0000      -0.865246       -23.5446
  17   2.0000      -0.824749       -22.4426
  18   2.0000      -0.781129       -21.2556
  19   2.0000      -0.751180       -20.4407
  20   2.0000      -0.726696       -19.7744
  21   2.0000      -0.705689       -19.2028
  22   2.0000      -0.689786       -18.7700
  23   2.0000      -0.660878       -17.9834
  24   2.0000      -0.645400       -17.5622
  25   2.0000      -0.633326       -17.2337
  26   2.0000      -0.613417       -16.6919
  27   2.0000      -0.586464       -15.9585
  28   2.0000      -0.560828       -15.2609
  29   2.0000      -0.549168       -14.9436
  30   2.0000      -0.538673       -14.6580
  31   2.0000      -0.531537       -14.4638
  32   2.0000      -0.505208       -13.7474
  33   2.0000      -0.498646       -13.5689
  34   2.0000      -0.483714       -13.1625
  35   2.0000      -0.474405       -12.9092
  36   2.0000      -0.419802       -11.4234
  37   2.0000      -0.390249       -10.6192
  38   2.0000      -0.284492        -7.7414
  39   0.0000       0.050572         1.3761
  40   0.0000       0.076139         2.0718
  41   0.0000       0.097474         2.6524
  42   0.0000       0.101886         2.7725
  43   0.0000       0.114829         3.1247

MULLIKEN ATOMIC CHARGES
-----------------------
   0 C :    0.567544
   1 N :   -0.326692
   2 C :   -0.066199
   3 C :    0.049821
   4 H :    0.042753
   5 H :    0.089207
   6 C :    0.580256
   7 C :   -0.088040
   8 C :    0.650350
   9 N :   -0.011154
  10 H :    0.040584
  11 H :    0.025514
  12 H :   -0.000310
  13 H :   -0.417155
  14 H :   -0.174891
  15 H :    0.029967
  16 H :   -0.226223
  17 H :    0.118728
  18 H :   -0.041447
  19 F :   -0.317907
  20 O :   -0.524704
Sum of atomic charges:    0.0000000

LOEWDIN ATOMIC CHARGES
----------------------
   0 C :    0.034901
   1 N :    0.003199
   2 C :   -0.028310
   3 C :    0.040796
   4 H :    0.051445
   5 H :    0.039333
   6 C :   -0.008751
   7 C :   -0.268472
   8 C :    0.140863
   9 N :    0.190901
  10 H :    0.012957
  11 H :   -0.010179
  12 H :    0.022502
  13 H :   -0.145668
  14 H :   -0.076378
  15 H :    0.026852
  16 H :    0.028770
  17 H :    0.044703
  18 H :    0.037973
  19 F :    0.002105
  20 O :   -0.139541

  Mayer bond orders larger than 0.100000
B(  0-C ,  1-N ) :   0.8556 B(  0-C ,  2-C ) :   1.1818 B(  0-C , 15-H ) :   0.7644
B(  0-C , 16-H ) :   0.9549 B(  0-C , 18-H ) :   0.1460 B(  1-N ,  2-C ) :   0.1241
B(  1-N ,  7-C ) :   1.1556 B(  1-N ,  8-C ) :   0.1747 B(  1-N , 12-H ) :   1.0333
B(  1-N , 15-H ) :   0.1250 B(  2-C ,  3-C ) :   1.2173 B(  2-C ,  4-H ) :   0.1482
B(  2-C , 17-H ) :   0.8683 B(  2-C , 18-H ) :   0.9635 B(  3-C ,  4-H ) :   0.8478
B(  3-C ,  5-H ) :   0.8936 B(  3-C ,  6-C ) :   1.1297 B(  4-H ,  6-C ) :   0.1057
B(  5-H ,  6-C ) :   0.1128 B(  6-C , 19-F ) :   0.7795 B(  6-C , 20-O ) :   1.8153
B(  7-C ,  8-C ) :   1.9925 B(  7-C ,  9-N ) :   0.9155 B(  7-C , 11-H ) :   0.1502
B(  7-C , 12-H ) :  -0.1430 B(  7-C , 13-H ) :   0.1167 B(  7-C , 14-H ) :   0.4272
B(  8-C ,  9-N ) :   0.2458 B(  8-C , 13-H ) :   0.6532 B(  8-C , 14-H ) :   0.4224
B(  9-N , 10-H ) :   1.0335 B(  9-N , 11-H ) :   0.8517 B( 10-H , 11-H ) :  -0.1174
B( 13-H , 14-H ) :   0.1491 B( 13-H , 20-O ) :   0.1899

FINAL SINGLE POINT ENERGY      -517.873404763428

DIPOLE MOMENT
-------------
                                X             Y             Z
Electronic contribution:      1.99055      -3.80775      -5.16431
Nuclear contribution   :     -4.40347       3.21582       5.36161
                        -----------------------------------------
Total Dipole Moment    :     -2.41292      -0.59194       0.19730
                        -----------------------------------------
Magnitude (a.u.)       :      2.49229
Magnitude (Debye)      :      6.33490

Rotational constants in cm-1:     0.061226     0.043199     0.033926
Rotational constants in MHz :  1835.503528  1295.087558  1017.061512

                             ****ORCA TERMINATED NORMALLY****
TOTAL RUN TIME: 0 days 0 hours 1 minutes 23 seconds 436 msec
