                         Program Version 5.0.0 -  RELEASE  -
|  1> !LC-PBE RIJCOSX def2-SVPD def2/J TightSCF xyzfile
|  2>
|  3> *xyzfile 0 1 D3.xyz
|  4>
|  5> %MaxCore 64000
|  6>
|  7> %pal nprocs 4
|  8> end
|  9>
| 10> %scf
| 11>   MaxIter 150
| 12> end
| 13>
| 14>
| 15>                          ****END OF INPUT****

CARTESIAN COORDINATES (ANGSTROEM)
---------------------------------
  C      3.905947    2.819855   -3.752920
  N      5.295615    3.131515   -4.105334
  C      3.803511    1.374716   -3.260807
  C      3.939934    0.320362   -4.367729
  H      4.105043   -0.655085   -3.907733
  H      3.022801    0.280517   -4.957117
  C      5.105846    0.668022   -5.305463
  C      5.708619    3.468885   -5.324190
  N      6.904696    3.038954   -5.717084
  C      4.981884    4.293570   -6.097457
  H      5.000546    4.101311   -7.087761
  H      4.084693    4.596899   -5.739652
  H      5.963358    2.526112   -3.642391
  H      7.047164    2.066861   -5.473604
  H      7.198145    3.307994   -6.645225
  H      3.282025    2.949187   -4.640259
  H      3.565254    3.514574   -2.982523
  H      4.574833    1.215157   -2.500443
  H      2.843514    1.260845   -2.751465
  F      4.809132    1.150187   -6.414361
  O      6.267366    0.564999   -4.819481

 Total Charge           Charge          ....    0
 Multiplicity           Mult            ....    1
 Number of Electrons    NEL             ....   78
 Basis Dimension        Dim             ....  294

ORBITAL ENERGIES
----------------

  NO   OCC          E(Eh)            E(eV)
   0   2.0000     -24.603391      -669.4923
   1   2.0000     -19.026238      -517.7303
   2   2.0000     -14.235827      -387.3766
   3   2.0000     -14.210321      -386.6825
   4   2.0000     -10.346048      -281.5303
   5   2.0000     -10.177377      -276.9405
   6   2.0000     -10.176714      -276.9225
   7   2.0000     -10.174283      -276.8563
   8   2.0000     -10.163121      -276.5526
   9   2.0000     -10.038681      -273.1664
  10   2.0000      -1.492929       -40.6247
  11   2.0000      -1.219754       -33.1912
  12   2.0000      -1.143183       -31.1076
  13   2.0000      -1.055303       -28.7163
  14   2.0000      -0.992038       -26.9947
  15   2.0000      -0.905918       -24.6513
  16   2.0000      -0.869366       -23.6566
  17   2.0000      -0.839069       -22.8322
  18   2.0000      -0.795214       -21.6389
  19   2.0000      -0.738451       -20.0943
  20   2.0000      -0.722887       -19.6707
  21   2.0000      -0.715902       -19.4807
  22   2.0000      -0.696235       -18.9455
  23   2.0000      -0.664716       -18.0878
  24   2.0000      -0.652631       -17.7590
  25   2.0000      -0.632901       -17.2221
  26   2.0000      -0.620957       -16.8971
  27   2.0000      -0.580417       -15.7939
  28   2.0000      -0.572023       -15.5655
  29   2.0000      -0.553971       -15.0743
  30   2.0000      -0.534247       -14.5376
  31   2.0000      -0.529162       -14.3992
  32   2.0000      -0.513708       -13.9787
  33   2.0000      -0.506709       -13.7883
  34   2.0000      -0.492193       -13.3933
  35   2.0000      -0.470308       -12.7977
  36   2.0000      -0.453008       -12.3270
  37   2.0000      -0.383900       -10.4464
  38   2.0000      -0.290454        -7.9037
  39   0.0000       0.037751         1.0273
  40   0.0000       0.076972         2.0945
  41   0.0000       0.100526         2.7355
  42   0.0000       0.108504         2.9525
  43   0.0000       0.112804         3.0696

MULLIKEN ATOMIC CHARGES
-----------------------
   0 C :    0.594519
   1 N :   -0.280130
   2 C :   -0.019215
   3 C :    0.082855
   4 H :    0.041229
   5 H :    0.091081
   6 C :    0.609595
   7 C :   -0.074492
   8 N :    0.105356
   9 C :    0.296100
  10 H :   -0.310611
  11 H :   -0.103140
  12 H :   -0.102391
  13 H :   -0.077656
  14 H :    0.100097
  15 H :    0.067478
  16 H :   -0.294524
  17 H :    0.108974
  18 H :   -0.035641
  19 F :   -0.308936
  20 O :   -0.490550
Sum of atomic charges:   -0.0000000

LOEWDIN ATOMIC CHARGES
----------------------
   0 C :    0.047895
   1 N :    0.004420
   2 C :   -0.027243
   3 C :    0.043506
   4 H :    0.052234
   5 H :    0.042393
   6 C :   -0.002031
   7 C :   -0.278083
   8 N :    0.204505
   9 C :    0.127267
  10 H :   -0.088811
  11 H :   -0.099149
  12 H :    0.014541
  13 H :   -0.079206
  14 H :    0.021120
  15 H :    0.031933
  16 H :    0.033529
  17 H :    0.042704
  18 H :    0.039792
  19 F :    0.011428
  20 O :   -0.142744

  Mayer bond orders larger than 0.100000
B(  0-C ,  1-N ) :   0.8717 B(  0-C ,  2-C ) :   1.1477 B(  0-C , 15-H ) :   0.7808
B(  0-C , 16-H ) :   0.9955 B(  0-C , 18-H ) :   0.1541 B(  1-N ,  2-C ) :   0.1372
B(  1-N ,  7-C ) :   1.2058 B(  1-N ,  9-C ) :   0.2099 B(  1-N , 12-H ) :   0.9821
B(  1-N , 15-H ) :   0.1376 B(  2-C ,  3-C ) :   1.2077 B(  2-C ,  4-H ) :   0.1481
B(  2-C , 17-H ) :   0.8684 B(  2-C , 18-H ) :   0.9481 B(  3-C ,  4-H ) :   0.8444
B(  3-C ,  5-H ) :   0.8817 B(  3-C ,  6-C ) :   1.1375 B(  4-H ,  6-C ) :   0.1110
B(  5-H ,  6-C ) :   0.1276 B(  6-C , 19-F ) :   0.8001 B(  6-C , 20-O ) :   1.7588
B(  7-C ,  8-N ) :   1.0339 B(  7-C ,  9-C ) :   2.0701 B(  7-C , 10-H ) :   0.2071
B(  7-C , 11-H ) :   0.2741 B(  7-C , 12-H ) :  -0.1351 B(  7-C , 13-H ) :   0.1289
B(  8-N ,  9-C ) :   0.1358 B(  8-N , 13-H ) :   0.8430 B(  8-N , 14-H ) :   0.8870
B(  9-C , 10-H ) :   0.8403 B(  9-C , 11-H ) :   0.6240 B( 10-H , 11-H ) :   0.1787

FINAL SINGLE POINT ENERGY      -517.892551965323

DIPOLE MOMENT
-------------
                                X             Y             Z
Electronic contribution:      3.49975      -4.90475      -4.86575
Nuclear contribution   :     -4.64021       3.37029       5.31478
                        -----------------------------------------
Total Dipole Moment    :     -1.14046      -1.53447       0.44903
                        -----------------------------------------
Magnitude (a.u.)       :      1.96389
Magnitude (Debye)      :      4.99181

Rotational constants in cm-1:     0.061077     0.043622     0.034103
Rotational constants in MHz :  1831.041375  1307.759852  1022.388536

                             ****ORCA TERMINATED NORMALLY****
TOTAL RUN TIME: 0 days 0 hours 1 minutes 23 seconds 18 msec
