                         Program Version 5.0.0 -  RELEASE  -
|  1> !wB97X-D3 RIJCOSX def2-TZVPD def2/J TightSCF
|  2> *xyz -1 1
|  3> C          1.87218        0.42790       -2.07750
|  4> S          0.57902        0.14047       -3.29794
|  5> O          0.22886       -1.24687       -3.12787
|  6> O         -0.43927        1.11897       -3.01455
|  7> O          1.24788        0.40347       -4.59565
|  8> H          2.66832       -0.27048       -2.23022
|  9> H          1.46951        0.30034       -1.09440
| 10> H          2.24690        1.42458       -2.18288
| 11> *
| 12>
| 13> %MaxCore 64000
| 14>
| 15> %pal nprocs 8
| 16> end
| 17>
| 18> %scf
| 19>   MaxIter 150
| 20> end
| 21>
| 22>
| 23>                          ****END OF INPUT****

CARTESIAN COORDINATES (ANGSTROEM)
---------------------------------
  C      1.872180    0.427900   -2.077500
  S      0.579020    0.140470   -3.297940
  O      0.228860   -1.246870   -3.127870
  O     -0.439270    1.118970   -3.014550
  O      1.247880    0.403470   -4.595650
  H      2.668320   -0.270480   -2.230220
  H      1.469510    0.300340   -1.094400
  H      2.246900    1.424580   -2.182880

 Total Charge           Charge          ....   -1
 Multiplicity           Mult            ....    1
 Number of Electrons    NEL             ....   50
 Basis Dimension        Dim             ....  230

ORBITAL ENERGIES
----------------

  NO   OCC          E(Eh)            E(eV)
   0   2.0000     -88.934490     -2420.0305
   1   2.0000     -19.009880      -517.2851
   2   2.0000     -19.009799      -517.2829
   3   2.0000     -18.995823      -516.9026
   4   2.0000     -10.119768      -275.3729
   5   2.0000      -7.997054      -217.6109
   6   2.0000      -5.951604      -161.9514
   7   2.0000      -5.949984      -161.9073
   8   2.0000      -5.949684      -161.8991
   9   2.0000      -1.040449       -28.3121
  10   2.0000      -0.910380       -24.7727
  11   2.0000      -0.884133       -24.0585
  12   2.0000      -0.692059       -18.8319
  13   2.0000      -0.490571       -13.3491
  14   2.0000      -0.400020       -10.8851
  15   2.0000      -0.386603       -10.5200
  16   2.0000      -0.385711       -10.4957
  17   2.0000      -0.344386        -9.3712
  18   2.0000      -0.341519        -9.2932
  19   2.0000      -0.250025        -6.8035
  20   2.0000      -0.248610        -6.7650
  21   2.0000      -0.211910        -5.7664
  22   2.0000      -0.202987        -5.5236
  23   2.0000      -0.193741        -5.2720
  24   2.0000      -0.157927        -4.2974
  25   0.0000       0.178094         4.8462
  26   0.0000       0.188870         5.1394
  27   0.0000       0.189443         5.1550
  28   0.0000       0.199616         5.4318
  29   0.0000       0.239847         6.5266

MULLIKEN ATOMIC CHARGES
-----------------------
   0 C :   -0.902389
   1 S :    1.189815
   2 O :   -0.685064
   3 O :   -0.684476
   4 O :   -0.720483
   5 H :    0.265043
   6 H :    0.270960
   7 H :    0.266593
Sum of atomic charges:   -1.0000000

LOEWDIN ATOMIC CHARGES
----------------------
   0 C :   -0.193576
   1 S :    0.313521
   2 O :   -0.399244
   3 O :   -0.398161
   4 O :   -0.434061
   5 H :    0.037724
   6 H :    0.036318
   7 H :    0.037477

  Mayer bond orders larger than 0.100000
B(  0-C ,  1-S ) :   0.8128 B(  0-C ,  2-O ) :   0.1181 B(  0-C ,  3-O ) :   0.1182
B(  0-C ,  4-O ) :   0.1183 B(  0-C ,  5-H ) :   0.9558 B(  0-C ,  6-H ) :   0.9495
B(  0-C ,  7-H ) :   0.9535 B(  1-S ,  2-O ) :   1.5517 B(  1-S ,  3-O ) :   1.5544
B(  1-S ,  4-O ) :   1.5099

Dispersion correction           -0.001525153
FINAL SINGLE POINT ENERGY      -663.906043290331

DIPOLE MOMENT
-------------
                                X             Y             Z
Electronic contribution:     -3.21523      -0.72496      -2.85071
Nuclear contribution   :      4.08143       0.90272       3.93680
                        -----------------------------------------
Total Dipole Moment    :      0.86619       0.17775       1.08609
                        -----------------------------------------
Magnitude (a.u.)       :      1.40053
Magnitude (Debye)      :      3.55987

Rotational constants in cm-1:     0.171796     0.158241     0.155560
Rotational constants in MHz :  5150.307583  4743.954688  4663.569252

                             ****ORCA TERMINATED NORMALLY****
TOTAL RUN TIME: 0 days 0 hours 0 minutes 19 seconds 863 msec
