                         Program Version 5.0.0 -  RELEASE  -
|  1> !wB97X-D3 RIJCOSX def2-TZVPD def2/J TightSCF
|  2> *xyz 1 1
|  3> C          3.38093        2.08304       -3.35013
|  4> N          4.53592        1.18245       -3.42852
|  5> C          4.67196        0.12227       -4.22060
|  6> N          5.86602       -0.50785       -4.22428
|  7> N          3.69888       -0.31284       -4.98699
|  8> H          2.73141       -0.05009       -4.84900
|  9> H          3.89005       -1.05517       -5.64373
| 10> H          5.25193        1.30346       -2.72101
| 11> H          6.69516       -0.06232       -3.85160
| 12> H          5.97538       -1.39688       -4.69141
| 13> H          2.69962        1.85926       -4.14426
| 14> H          3.71221        3.09654       -3.43937
| 15> H          2.88835        1.95032       -2.40957
| 16> *
| 17>
| 18> %MaxCore 64000
| 19>
| 20> %pal nprocs 8
| 21> end
| 22>
| 23> %scf
| 24>   MaxIter 150
| 25> end
| 26>
| 27>
| 28>                          ****END OF INPUT****

CARTESIAN COORDINATES (ANGSTROEM)
---------------------------------
  C      3.380930    2.083040   -3.350130
  N      4.535920    1.182450   -3.428520
  C      4.671960    0.122270   -4.220600
  N      5.866020   -0.507850   -4.224280
  N      3.698880   -0.312840   -4.986990
  H      2.731410   -0.050090   -4.849000
  H      3.890050   -1.055170   -5.643730
  H      5.251930    1.303460   -2.721010
  H      6.695160   -0.062320   -3.851600
  H      5.975380   -1.396880   -4.691410
  H      2.699620    1.859260   -4.144260
  H      3.712210    3.096540   -3.439370
  H      2.888350    1.950320   -2.409570

 Total Charge           Charge          ....    1
 Multiplicity           Mult            ....    1
 Number of Electrons    NEL             ....   40
 Basis Dimension        Dim             ....  257

ORBITAL ENERGIES
----------------

  NO   OCC          E(Eh)            E(eV)
   0   2.0000     -14.650783      -398.6681
   1   2.0000     -14.650685      -398.6654
   2   2.0000     -14.642646      -398.4467
   3   2.0000     -10.618335      -288.9396
   4   2.0000     -10.477947      -285.1194
   5   2.0000      -1.335702       -36.3463
   6   2.0000      -1.223369       -33.2896
   7   2.0000      -1.207773       -32.8652
   8   2.0000      -1.019753       -27.7489
   9   2.0000      -0.939734       -25.5715
  10   2.0000      -0.893600       -24.3161
  11   2.0000      -0.856158       -23.2972
  12   2.0000      -0.799793       -21.7635
  13   2.0000      -0.794866       -21.6294
  14   2.0000      -0.751225       -20.4419
  15   2.0000      -0.733387       -19.9565
  16   2.0000      -0.691683       -18.8216
  17   2.0000      -0.679375       -18.4867
  18   2.0000      -0.575895       -15.6709
  19   2.0000      -0.546621       -14.8743
  20   0.0000      -0.091590        -2.4923
  21   0.0000      -0.088369        -2.4046
  22   0.0000      -0.057274        -1.5585
  23   0.0000      -0.051805        -1.4097
  24   0.0000      -0.024786        -0.6744

MULLIKEN ATOMIC CHARGES
-----------------------
   0 C :   -0.910119
   1 N :   -0.246785
   2 C :    0.900480
   3 N :   -0.440614
   4 N :   -0.390388
   5 H :    0.213812
   6 H :    0.214195
   7 H :    0.232974
   8 H :    0.226535
   9 H :    0.205283
  10 H :    0.336129
  11 H :    0.305644
  12 H :    0.352855
Sum of atomic charges:    1.0000000

LOEWDIN ATOMIC CHARGES
----------------------
   0 C :   -0.011007
   1 N :    0.044965
   2 C :   -0.432802
   3 N :    0.190147
   4 N :    0.214343
   5 H :    0.137041
   6 H :    0.144204
   7 H :    0.165986
   8 H :    0.138715
   9 H :    0.134970
  10 H :    0.079704
  11 H :    0.096749
  12 H :    0.096985

  Mayer bond orders larger than 0.100000
B(  0-C ,  1-N ) :   0.9045 B(  0-C ,  2-C ) :  -0.1861 B(  0-C , 10-H ) :   0.8541
B(  0-C , 11-H ) :   0.9317 B(  0-C , 12-H ) :   0.8811 B(  1-N ,  2-C ) :   1.2236
B(  1-N ,  3-N ) :   0.1139 B(  1-N ,  7-H ) :   1.0038 B(  2-C ,  3-N ) :   0.9872
B(  2-C ,  4-N ) :   1.1401 B(  3-N ,  8-H ) :   0.9860 B(  3-N ,  9-H ) :   1.0249
B(  4-N ,  5-H ) :   0.9620 B(  4-N ,  6-H ) :   1.0163

Dispersion correction           -0.002351678
FINAL SINGLE POINT ENERGY      -245.109597510277

DIPOLE MOMENT
-------------
                                X             Y             Z
Electronic contribution:      1.69226      -1.98325      -0.72682
Nuclear contribution   :     -1.49827       1.51766       0.59175
                        -----------------------------------------
Total Dipole Moment    :      0.19398      -0.46559      -0.13507
                        -----------------------------------------
Magnitude (a.u.)       :      0.52215
Magnitude (Debye)      :      1.32721

Rotational constants in cm-1:     0.316446     0.130424     0.094259
Rotational constants in MHz :  9486.821695  3910.013387  2825.801764

                             ****ORCA TERMINATED NORMALLY****
TOTAL RUN TIME: 0 days 0 hours 0 minutes 28 seconds 246 msec
