                         Program Version 5.0.0 -  RELEASE  -
|  1> !wB97X-D3 RIJCOSX def2-TZVPD def2/J TightSCF
|  2> *xyz 0 1
|  3> C          1.87218        0.42790       -2.07750
|  4> S          0.57902        0.14047       -3.29794
|  5> F          0.22886       -1.24687       -3.12787
|  6> O         -0.43927        1.11897       -3.01455
|  7> O          1.24788        0.40347       -4.59565
|  8> H          2.66832       -0.27048       -2.23022
|  9> H          1.46951        0.30034       -1.09440
| 10> H          2.24690        1.42458       -2.18288
| 11> *
| 12>
| 13> %MaxCore 64000
| 14>
| 15> %pal nprocs 8
| 16> end
| 17>
| 18> %scf
| 19>   MaxIter 150
| 20> end
| 21>
| 22>
| 23>                          ****END OF INPUT****

CARTESIAN COORDINATES (ANGSTROEM)
---------------------------------
  C      1.872180    0.427900   -2.077500
  S      0.579020    0.140470   -3.297940
  F      0.228860   -1.246870   -3.127870
  O     -0.439270    1.118970   -3.014550
  O      1.247880    0.403470   -4.595650
  H      2.668320   -0.270480   -2.230220
  H      1.469510    0.300340   -1.094400
  H      2.246900    1.424580   -2.182880

 Total Charge           Charge          ....    0
 Multiplicity           Mult            ....    1
 Number of Electrons    NEL             ....   50
 Basis Dimension        Dim             ....  230

ORBITAL ENERGIES
----------------

  NO   OCC          E(Eh)            E(eV)
   0   2.0000     -89.203439     -2427.3490
   1   2.0000     -24.913770      -677.9381
   2   2.0000     -19.249703      -523.8111
   3   2.0000     -19.235359      -523.4207
   4   2.0000     -10.329466      -281.0791
   5   2.0000      -8.266341      -224.9386
   6   2.0000      -6.223718      -169.3560
   7   2.0000      -6.217631      -169.1904
   8   2.0000      -6.216856      -169.1692
   9   2.0000      -1.507664       -41.0256
  10   2.0000      -1.226608       -33.3777
  11   2.0000      -1.123637       -30.5757
  12   2.0000      -0.915267       -24.9057
  13   2.0000      -0.830829       -22.6080
  14   2.0000      -0.711637       -19.3646
  15   2.0000      -0.698804       -19.0154
  16   2.0000      -0.662491       -18.0273
  17   2.0000      -0.578590       -15.7442
  18   2.0000      -0.577446       -15.7131
  19   2.0000      -0.563738       -15.3401
  20   2.0000      -0.537650       -14.6302
  21   2.0000      -0.489873       -13.3301
  22   2.0000      -0.437543       -11.9062
  23   2.0000      -0.423623       -11.5274
  24   2.0000      -0.406120       -11.0511
  25   0.0000       0.048236         1.3126
  26   0.0000       0.062202         1.6926
  27   0.0000       0.069812         1.8997
  28   0.0000       0.072879         1.9832
  29   0.0000       0.107146         2.9156

MULLIKEN ATOMIC CHARGES
-----------------------
   0 C :   -0.931163
   1 S :    1.213691
   2 F :   -0.122880
   3 O :   -0.556539
   4 O :   -0.587669
   5 H :    0.333126
   6 H :    0.338453
   7 H :    0.312980
Sum of atomic charges:   -0.0000000

LOEWDIN ATOMIC CHARGES
----------------------
   0 C :   -0.121787
   1 S :    0.571217
   2 F :   -0.052643
   3 O :   -0.278674
   4 O :   -0.312419
   5 H :    0.061508
   6 H :    0.060770
   7 H :    0.072029

  Mayer bond orders larger than 0.100000
B(  0-C ,  1-S ) :   0.8197 B(  0-C ,  3-O ) :   0.1032 B(  0-C ,  4-O ) :   0.1009
B(  0-C ,  5-H ) :   0.9032 B(  0-C ,  6-H ) :   0.8995 B(  0-C ,  7-H ) :   0.9249
B(  1-S ,  2-F ) :   1.0107 B(  1-S ,  3-O ) :   1.7103 B(  1-S ,  4-O ) :   1.6598

Dispersion correction           -0.001537553
FINAL SINGLE POINT ENERGY      -688.421326220808

DIPOLE MOMENT
-------------
                                X             Y             Z
Electronic contribution:     -3.80754      -3.04797      -2.52869
Nuclear contribution   :      4.52607       2.31146       3.82544
                        -----------------------------------------
Total Dipole Moment    :      0.71853      -0.73651       1.29675
                        -----------------------------------------
Magnitude (a.u.)       :      1.65539
Magnitude (Debye)      :      4.20766

Rotational constants in cm-1:     0.162724     0.156586     0.147157
Rotational constants in MHz :  4878.333818  4694.318771  4411.658495

                             ****ORCA TERMINATED NORMALLY****
TOTAL RUN TIME: 0 days 0 hours 0 minutes 19 seconds 731 msec
