                         Program Version 5.0.0 -  RELEASE  -
|  1> !wB97X-D3 RIJCOSX def2-TZVPD def2/J TightSCF
|  2> *xyz 0 1
|  3> C          3.38093        2.08304       -3.35013
|  4> C          4.53592        1.18245       -3.42852
|  5> C          4.67196        0.12227       -4.22060
|  6> N          5.86602       -0.50785       -4.22428
|  7> N          3.69888       -0.31284       -4.98699
|  8> H          2.73141       -0.05009       -4.84900
|  9> H          3.89005       -1.05517       -5.64373
| 10> H          5.25193        1.30346       -2.72101
| 11> H          6.69516       -0.06232       -3.85160
| 12> H          5.97538       -1.39688       -4.69141
| 13> H          2.69962        1.85926       -4.14426
| 14> H          3.71221        3.09654       -3.43937
| 15> H          2.88835        1.95032       -2.40957
| 16> *
| 17>
| 18> %MaxCore 64000
| 19>
| 20> %pal nprocs 8
| 21> end
| 22>
| 23> %scf
| 24>   MaxIter 150
| 25> end
| 26>
| 27>
| 28>                          ****END OF INPUT****

CARTESIAN COORDINATES (ANGSTROEM)
---------------------------------
  C      3.380930    2.083040   -3.350130
  C      4.535920    1.182450   -3.428520
  C      4.671960    0.122270   -4.220600
  N      5.866020   -0.507850   -4.224280
  N      3.698880   -0.312840   -4.986990
  H      2.731410   -0.050090   -4.849000
  H      3.890050   -1.055170   -5.643730
  H      5.251930    1.303460   -2.721010
  H      6.695160   -0.062320   -3.851600
  H      5.975380   -1.396880   -4.691410
  H      2.699620    1.859260   -4.144260
  H      3.712210    3.096540   -3.439370
  H      2.888350    1.950320   -2.409570

 Total Charge           Charge          ....    0
 Multiplicity           Mult            ....    1
 Number of Electrons    NEL             ....   40
 Basis Dimension        Dim             ....  257

ORBITAL ENERGIES
----------------

  NO   OCC          E(Eh)            E(eV)
   0   2.0000     -14.422422      -392.4541
   1   2.0000     -14.415242      -392.2587
   2   2.0000     -10.317530      -280.7543
   3   2.0000     -10.235565      -278.5239
   4   2.0000     -10.195168      -277.4246
   5   2.0000      -1.076947       -29.3052
   6   2.0000      -0.982511       -26.7355
   7   2.0000      -0.863626       -23.5004
   8   2.0000      -0.768161       -20.9027
   9   2.0000      -0.689848       -18.7717
  10   2.0000      -0.644313       -17.5326
  11   2.0000      -0.607343       -16.5266
  12   2.0000      -0.576473       -15.6866
  13   2.0000      -0.525312       -14.2945
  14   2.0000      -0.502833       -13.6828
  15   2.0000      -0.470534       -12.8039
  16   2.0000      -0.454874       -12.3777
  17   2.0000      -0.432970       -11.7817
  18   2.0000      -0.358041        -9.7428
  19   2.0000      -0.241468        -6.5707
  20   0.0000       0.064741         1.7617
  21   0.0000       0.090296         2.4571
  22   0.0000       0.096973         2.6388
  23   0.0000       0.122600         3.3361
  24   0.0000       0.132352         3.6015

MULLIKEN ATOMIC CHARGES
-----------------------
   0 C :   -1.165445
   1 C :   -0.698072
   2 C :    0.788141
   3 N :   -0.459136
   4 N :   -0.429917
   5 H :    0.174907
   6 H :    0.166755
   7 H :    0.419513
   8 H :    0.186832
   9 H :    0.170781
  10 H :    0.267497
  11 H :    0.308893
  12 H :    0.269252
Sum of atomic charges:    0.0000000

LOEWDIN ATOMIC CHARGES
----------------------
   0 C :   -0.122097
   1 C :   -0.179063
   2 C :   -0.559043
   3 N :    0.091571
   4 N :    0.117405
   5 H :    0.107867
   6 H :    0.103830
   7 H :    0.060884
   8 H :    0.107610
   9 H :    0.092949
  10 H :    0.051175
  11 H :    0.062615
  12 H :    0.064296

  Mayer bond orders larger than 0.100000
B(  0-C ,  1-C ) :   0.6323 B(  0-C , 10-H ) :   1.0088 B(  0-C , 11-H ) :   0.9842
B(  0-C , 12-H ) :   0.9388 B(  1-C ,  2-C ) :   1.3236 B(  1-C ,  3-N ) :   0.1528
B(  1-C ,  4-N ) :   0.1551 B(  1-C ,  7-H ) :   0.8254 B(  1-C , 10-H ) :  -0.1395
B(  2-C ,  3-N ) :   0.9101 B(  2-C ,  4-N ) :   0.9737 B(  3-N ,  8-H ) :   1.0115
B(  3-N ,  9-H ) :   1.0449 B(  4-N ,  5-H ) :   0.9912 B(  4-N ,  6-H ) :   1.0482

Dispersion correction           -0.002353165
FINAL SINGLE POINT ENERGY      -228.628473614711

DIPOLE MOMENT
-------------
                                X             Y             Z
Electronic contribution:      1.56281      -2.46328      -1.22314
Nuclear contribution   :     -1.47697       1.65537       0.71722
                        -----------------------------------------
Total Dipole Moment    :      0.08585      -0.80792      -0.50593
                        -----------------------------------------
Magnitude (a.u.)       :      0.95711
Magnitude (Debye)      :      2.43278

Rotational constants in cm-1:     0.321284     0.131400     0.095192
Rotational constants in MHz :  9631.850868  3939.260061  2853.789421

                             ****ORCA TERMINATED NORMALLY****
TOTAL RUN TIME: 0 days 0 hours 0 minutes 29 seconds 910 msec
