                         Program Version 5.0.0 -  RELEASE  -
|  1> !wB97X-D3 RIJCOSX def2-TZVPD def2/J TightSCF
|  2> *xyz 0 1
|  3> C          1.87218        0.42790       -2.07750
|  4> S          0.57902        0.14047       -3.29794
|  5> O          0.22886       -1.24687       -3.12787
|  6> F         -0.43927        1.11897       -3.01455
|  7> O          1.24788        0.40347       -4.59565
|  8> H          2.66832       -0.27048       -2.23022
|  9> H          1.46951        0.30034       -1.09440
| 10> H          2.24690        1.42458       -2.18288
| 11> *
| 12>
| 13> %MaxCore 64000
| 14>
| 15> %pal nprocs 8
| 16> end
| 17>
| 18> %scf
| 19>   MaxIter 150
| 20> end
| 21>
| 22>
| 23>                          ****END OF INPUT****

CARTESIAN COORDINATES (ANGSTROEM)
---------------------------------
  C      1.872180    0.427900   -2.077500
  S      0.579020    0.140470   -3.297940
  O      0.228860   -1.246870   -3.127870
  F     -0.439270    1.118970   -3.014550
  O      1.247880    0.403470   -4.595650
  H      2.668320   -0.270480   -2.230220
  H      1.469510    0.300340   -1.094400
  H      2.246900    1.424580   -2.182880

 Total Charge           Charge          ....    0
 Multiplicity           Mult            ....    1
 Number of Electrons    NEL             ....   50
 Basis Dimension        Dim             ....  230

ORBITAL ENERGIES
----------------

  NO   OCC          E(Eh)            E(eV)
   0   2.0000     -89.203541     -2427.3518
   1   2.0000     -24.913885      -677.9413
   2   2.0000     -19.249796      -523.8136
   3   2.0000     -19.235498      -523.4245
   4   2.0000     -10.329304      -281.0747
   5   2.0000      -8.266424      -224.9408
   6   2.0000      -6.223795      -169.3581
   7   2.0000      -6.217778      -169.1943
   8   2.0000      -6.216888      -169.1701
   9   2.0000      -1.507897       -41.0320
  10   2.0000      -1.226211       -33.3669
  11   2.0000      -1.124415       -30.5969
  12   2.0000      -0.914498       -24.8848
  13   2.0000      -0.830946       -22.6112
  14   2.0000      -0.711810       -19.3693
  15   2.0000      -0.698678       -19.0120
  16   2.0000      -0.662761       -18.0346
  17   2.0000      -0.578218       -15.7341
  18   2.0000      -0.577220       -15.7069
  19   2.0000      -0.564447       -15.3594
  20   2.0000      -0.537750       -14.6329
  21   2.0000      -0.489211       -13.3121
  22   2.0000      -0.436866       -11.8877
  23   2.0000      -0.423566       -11.5258
  24   2.0000      -0.407147       -11.0790
  25   0.0000       0.048238         1.3126
  26   0.0000       0.062191         1.6923
  27   0.0000       0.069893         1.9019
  28   0.0000       0.072766         1.9801
  29   0.0000       0.107166         2.9161

MULLIKEN ATOMIC CHARGES
-----------------------
   0 C :   -0.929599
   1 S :    1.214445
   2 O :   -0.557197
   3 F :   -0.122490
   4 O :   -0.588787
   5 H :    0.312708
   6 H :    0.337953
   7 H :    0.332966
Sum of atomic charges:    0.0000000

LOEWDIN ATOMIC CHARGES
----------------------
   0 C :   -0.122100
   1 S :    0.571597
   2 O :   -0.279885
   3 F :   -0.051335
   4 O :   -0.312456
   5 H :    0.072183
   6 H :    0.060473
   7 H :    0.061524

  Mayer bond orders larger than 0.100000
B(  0-C ,  1-S ) :   0.8204 B(  0-C ,  2-O ) :   0.1034 B(  0-C ,  4-O ) :   0.1001
B(  0-C ,  5-H ) :   0.9252 B(  0-C ,  6-H ) :   0.8988 B(  0-C ,  7-H ) :   0.9035
B(  1-S ,  2-O ) :   1.7084 B(  1-S ,  3-F ) :   1.0123 B(  1-S ,  4-O ) :   1.6596

Dispersion correction           -0.001534974
FINAL SINGLE POINT ENERGY      -688.421333140264

DIPOLE MOMENT
-------------
                                X             Y             Z
Electronic contribution:     -4.92569       0.90731      -2.33659
Nuclear contribution   :      5.19357      -0.05217       3.71223
                        -----------------------------------------
Total Dipole Moment    :      0.26789       0.85514       1.37564
                        -----------------------------------------
Magnitude (a.u.)       :      1.64177
Magnitude (Debye)      :      4.17305

Rotational constants in cm-1:     0.163837     0.155047     0.147593
Rotational constants in MHz :  4911.724022  4648.196128  4424.713532

                             ****ORCA TERMINATED NORMALLY****
TOTAL RUN TIME: 0 days 0 hours 0 minutes 19 seconds 589 msec
