                         Program Version 5.0.0 -  RELEASE  -
|  1> !wB97X-D3 RIJCOSX def2-TZVPD def2/J TightSCF
|  2> *xyz 0 1
|  3> C          3.38093        2.08304       -3.35013
|  4> N          4.53592        1.18245       -3.42852
|  5> C          4.67196        0.12227       -4.22060
|  6> C          5.86602       -0.50785       -4.22428
|  7> N          3.69888       -0.31284       -4.98699
|  8> H          2.73141       -0.05009       -4.84900
|  9> H          3.89005       -1.05517       -5.64373
| 10> H          5.25193        1.30346       -2.72101
| 11> H          6.69516       -0.06232       -3.85160
| 12> H          5.97538       -1.39688       -4.69141
| 13> H          2.69962        1.85926       -4.14426
| 14> H          3.71221        3.09654       -3.43937
| 15> H          2.88835        1.95032       -2.40957
| 16> *
| 17>
| 18> %MaxCore 64000
| 19>
| 20> %pal nprocs 8
| 21> end
| 22>
| 23> %scf
| 24>   MaxIter 150
| 25> end
| 26>
| 27>
| 28>                          ****END OF INPUT****

CARTESIAN COORDINATES (ANGSTROEM)
---------------------------------
  C      3.380930    2.083040   -3.350130
  N      4.535920    1.182450   -3.428520
  C      4.671960    0.122270   -4.220600
  C      5.866020   -0.507850   -4.224280
  N      3.698880   -0.312840   -4.986990
  H      2.731410   -0.050090   -4.849000
  H      3.890050   -1.055170   -5.643730
  H      5.251930    1.303460   -2.721010
  H      6.695160   -0.062320   -3.851600
  H      5.975380   -1.396880   -4.691410
  H      2.699620    1.859260   -4.144260
  H      3.712210    3.096540   -3.439370
  H      2.888350    1.950320   -2.409570

 Total Charge           Charge          ....    0
 Multiplicity           Mult            ....    1
 Number of Electrons    NEL             ....   40
 Basis Dimension        Dim             ....  257

ORBITAL ENERGIES
----------------

  NO   OCC          E(Eh)            E(eV)
   0   2.0000     -14.424526      -392.5113
   1   2.0000     -14.423457      -392.4822
   2   2.0000     -10.325111      -280.9605
   3   2.0000     -10.305922      -280.4384
   4   2.0000     -10.179428      -276.9963
   5   2.0000      -1.086066       -29.5534
   6   2.0000      -1.001739       -27.2587
   7   2.0000      -0.854817       -23.2607
   8   2.0000      -0.776113       -21.1191
   9   2.0000      -0.708876       -19.2895
  10   2.0000      -0.646582       -17.5944
  11   2.0000      -0.593548       -16.1513
  12   2.0000      -0.577961       -15.7271
  13   2.0000      -0.552194       -15.0260
  14   2.0000      -0.504843       -13.7375
  15   2.0000      -0.491458       -13.3733
  16   2.0000      -0.477557       -12.9950
  17   2.0000      -0.453513       -12.3407
  18   2.0000      -0.348052        -9.4710
  19   2.0000      -0.243644        -6.6299
  20   0.0000       0.061900         1.6844
  21   0.0000       0.090720         2.4686
  22   0.0000       0.095762         2.6058
  23   0.0000       0.122626         3.3368
  24   0.0000       0.132956         3.6179

MULLIKEN ATOMIC CHARGES
-----------------------
   0 C :   -0.902597
   1 N :   -0.246533
   2 C :    1.115683
   3 C :   -1.630653
   4 N :   -0.428563
   5 H :    0.164880
   6 H :    0.185888
   7 H :    0.208405
   8 H :    0.320032
   9 H :    0.307218
  10 H :    0.322801
  11 H :    0.279968
  12 H :    0.303470
Sum of atomic charges:    0.0000000

LOEWDIN ATOMIC CHARGES
----------------------
   0 C :   -0.066432
   1 N :   -0.024052
   2 C :   -0.575622
   3 C :   -0.015825
   4 N :    0.116410
   5 H :    0.099036
   6 H :    0.116127
   7 H :    0.142289
   8 H :    0.002052
   9 H :   -0.002580
  10 H :    0.064139
  11 H :    0.072159
  12 H :    0.072299

  Mayer bond orders larger than 0.100000
B(  0-C ,  1-N ) :   0.8642 B(  0-C ,  2-C ) :  -0.1492 B(  0-C , 10-H ) :   0.8651
B(  0-C , 11-H ) :   0.9440 B(  0-C , 12-H ) :   0.9196 B(  1-N ,  2-C ) :   1.1475
B(  1-N ,  3-C ) :   0.1486 B(  1-N ,  7-H ) :   0.9934 B(  2-C ,  3-C ) :   0.7636
B(  2-C ,  4-N ) :   1.0268 B(  2-C ,  9-H ) :  -0.1182 B(  3-C ,  4-N ) :   0.1057
B(  3-C ,  8-H ) :   0.9379 B(  3-C ,  9-H ) :   1.0517 B(  4-N ,  5-H ) :   1.0075
B(  4-N ,  6-H ) :   1.0201

Dispersion correction           -0.002365903
FINAL SINGLE POINT ENERGY      -228.614814141777

DIPOLE MOMENT
-------------
                                X             Y             Z
Electronic contribution:      0.13160      -0.79121      -0.45558
Nuclear contribution   :     -1.20756       1.31300       0.55604
                        -----------------------------------------
Total Dipole Moment    :     -1.07596       0.52179       0.10046
                        -----------------------------------------
Magnitude (a.u.)       :      1.20002
Magnitude (Debye)      :      3.05021

Rotational constants in cm-1:     0.323683     0.135884     0.097747
Rotational constants in MHz :  9703.770798  4073.695357  2930.389562

                             ****ORCA TERMINATED NORMALLY****
TOTAL RUN TIME: 0 days 0 hours 0 minutes 29 seconds 923 msec
