                         Program Version 5.0.0 -  RELEASE  -
|  1> !wB97X-D3 RIJCOSX def2-TZVPD def2/J TightSCF
|  2> *xyz 0 1
|  3> C          1.87218        0.42790       -2.07750
|  4> S          0.57902        0.14047       -3.29794
|  5> O          0.22886       -1.24687       -3.12787
|  6> O         -0.43927        1.11897       -3.01455
|  7> F          1.24788        0.40347       -4.59565
|  8> H          2.66832       -0.27048       -2.23022
|  9> H          1.46951        0.30034       -1.09440
| 10> H          2.24690        1.42458       -2.18288
| 11> *
| 12>
| 13> %MaxCore 64000
| 14>
| 15> %pal nprocs 8
| 16> end
| 17>
| 18> %scf
| 19>   MaxIter 150
| 20> end
| 21>
| 22>
| 23>                          ****END OF INPUT****

CARTESIAN COORDINATES (ANGSTROEM)
---------------------------------
  C      1.872180    0.427900   -2.077500
  S      0.579020    0.140470   -3.297940
  O      0.228860   -1.246870   -3.127870
  O     -0.439270    1.118970   -3.014550
  F      1.247880    0.403470   -4.595650
  H      2.668320   -0.270480   -2.230220
  H      1.469510    0.300340   -1.094400
  H      2.246900    1.424580   -2.182880

 Total Charge           Charge          ....    0
 Multiplicity           Mult            ....    1
 Number of Electrons    NEL             ....   50
 Basis Dimension        Dim             ....  230

ORBITAL ENERGIES
----------------

  NO   OCC          E(Eh)            E(eV)
   0   2.0000     -89.201066     -2427.2844
   1   2.0000     -24.891702      -677.3376
   2   2.0000     -19.249230      -523.7982
   3   2.0000     -19.249196      -523.7972
   4   2.0000     -10.328418      -281.0505
   5   2.0000      -8.263972      -224.8741
   6   2.0000      -6.221391      -169.2926
   7   2.0000      -6.215506      -169.1325
   8   2.0000      -6.214342      -169.1008
   9   2.0000      -1.472011       -40.0555
  10   2.0000      -1.236790       -33.6548
  11   2.0000      -1.145308       -31.1654
  12   2.0000      -0.912288       -24.8246
  13   2.0000      -0.812623       -22.1126
  14   2.0000      -0.693539       -18.8722
  15   2.0000      -0.673490       -18.3266
  16   2.0000      -0.659426       -17.9439
  17   2.0000      -0.580204       -15.7882
  18   2.0000      -0.578076       -15.7303
  19   2.0000      -0.562550       -15.3078
  20   2.0000      -0.544406       -14.8141
  21   2.0000      -0.495453       -13.4820
  22   2.0000      -0.443352       -12.0642
  23   2.0000      -0.435703       -11.8561
  24   2.0000      -0.422419       -11.4946
  25   0.0000       0.050770         1.3815
  26   0.0000       0.063568         1.7298
  27   0.0000       0.070767         1.9257
  28   0.0000       0.071803         1.9539
  29   0.0000       0.107669         2.9298

MULLIKEN ATOMIC CHARGES
-----------------------
   0 C :   -0.931192
   1 S :    1.234567
   2 O :   -0.564366
   3 O :   -0.565167
   4 F :   -0.158902
   5 H :    0.331992
   6 H :    0.319995
   7 H :    0.333075
Sum of atomic charges:   -0.0000000

LOEWDIN ATOMIC CHARGES
----------------------
   0 C :   -0.121017
   1 S :    0.572411
   2 O :   -0.280418
   3 O :   -0.279411
   4 F :   -0.085742
   5 H :    0.061745
   6 H :    0.071262
   7 H :    0.061169

  Mayer bond orders larger than 0.100000
B(  0-C ,  1-S ) :   0.8158 B(  0-C ,  2-O ) :   0.1016 B(  0-C ,  3-O ) :   0.1027
B(  0-C ,  5-H ) :   0.9055 B(  0-C ,  6-H ) :   0.9192 B(  0-C ,  7-H ) :   0.9021
B(  1-S ,  2-O ) :   1.7019 B(  1-S ,  3-O ) :   1.7026 B(  1-S ,  4-F ) :   0.9634

Dispersion correction           -0.001534362
FINAL SINGLE POINT ENERGY      -688.439330239240

DIPOLE MOMENT
-------------
                                X             Y             Z
Electronic contribution:     -2.08624      -0.28491      -5.00571
Nuclear contribution   :      3.50800       0.66266       5.29185
                        -----------------------------------------
Total Dipole Moment    :      1.42176       0.37774       0.28614
                        -----------------------------------------
Magnitude (a.u.)       :      1.49866
Magnitude (Debye)      :      3.80929

Rotational constants in cm-1:     0.163942     0.153101     0.149133
Rotational constants in MHz :  4914.860621  4589.839477  4470.901507

                             ****ORCA TERMINATED NORMALLY****
TOTAL RUN TIME: 0 days 0 hours 0 minutes 19 seconds 617 msec
