                         Program Version 5.0.0 -  RELEASE  -
|  1> !wB97X-D3 RIJCOSX def2-TZVPD def2/J TightSCF
|  2> *xyz 0 1
|  3> C          3.38093        2.08304       -3.35013
|  4> N          4.53592        1.18245       -3.42852
|  5> C          4.67196        0.12227       -4.22060
|  6> N          5.86602       -0.50785       -4.22428
|  7> C          3.69888       -0.31284       -4.98699
|  8> H          2.73141       -0.05009       -4.84900
|  9> H          3.89005       -1.05517       -5.64373
| 10> H          5.25193        1.30346       -2.72101
| 11> H          6.69516       -0.06232       -3.85160
| 12> H          5.97538       -1.39688       -4.69141
| 13> H          2.69962        1.85926       -4.14426
| 14> H          3.71221        3.09654       -3.43937
| 15> H          2.88835        1.95032       -2.40957
| 16> *
| 17>
| 18> %MaxCore 64000
| 19>
| 20> %pal nprocs 8
| 21> end
| 22>
| 23> %scf
| 24>   MaxIter 150
| 25> end
| 26>
| 27>
| 28>                          ****END OF INPUT****

CARTESIAN COORDINATES (ANGSTROEM)
---------------------------------
  C      3.380930    2.083040   -3.350130
  N      4.535920    1.182450   -3.428520
  C      4.671960    0.122270   -4.220600
  N      5.866020   -0.507850   -4.224280
  C      3.698880   -0.312840   -4.986990
  H      2.731410   -0.050090   -4.849000
  H      3.890050   -1.055170   -5.643730
  H      5.251930    1.303460   -2.721010
  H      6.695160   -0.062320   -3.851600
  H      5.975380   -1.396880   -4.691410
  H      2.699620    1.859260   -4.144260
  H      3.712210    3.096540   -3.439370
  H      2.888350    1.950320   -2.409570

 Total Charge           Charge          ....    0
 Multiplicity           Mult            ....    1
 Number of Electrons    NEL             ....   40
 Basis Dimension        Dim             ....  257

ORBITAL ENERGIES
----------------

  NO   OCC          E(Eh)            E(eV)
   0   2.0000     -14.423774      -392.4909
   1   2.0000     -14.417960      -392.3326
   2   2.0000     -10.322033      -280.8768
   3   2.0000     -10.297236      -280.2020
   4   2.0000     -10.183461      -277.1061
   5   2.0000      -1.079289       -29.3689
   6   2.0000      -0.992238       -27.0002
   7   2.0000      -0.837319       -22.7846
   8   2.0000      -0.808755       -22.0073
   9   2.0000      -0.673313       -18.3218
  10   2.0000      -0.646787       -17.6000
  11   2.0000      -0.617083       -16.7917
  12   2.0000      -0.553632       -15.0651
  13   2.0000      -0.537419       -14.6239
  14   2.0000      -0.516269       -14.0484
  15   2.0000      -0.483179       -13.1480
  16   2.0000      -0.479030       -13.0351
  17   2.0000      -0.452964       -12.3258
  18   2.0000      -0.340535        -9.2664
  19   2.0000      -0.256502        -6.9798
  20   0.0000       0.066976         1.8225
  21   0.0000       0.084848         2.3088
  22   0.0000       0.096840         2.6351
  23   0.0000       0.123308         3.3554
  24   0.0000       0.133889         3.6433

MULLIKEN ATOMIC CHARGES
-----------------------
   0 C :   -0.910816
   1 N :   -0.271131
   2 C :    1.084695
   3 N :   -0.450590
   4 C :   -1.550304
   5 H :    0.302868
   6 H :    0.302220
   7 H :    0.209118
   8 H :    0.180063
   9 H :    0.177083
  10 H :    0.335494
  11 H :    0.285924
  12 H :    0.305374
Sum of atomic charges:    0.0000000

LOEWDIN ATOMIC CHARGES
----------------------
   0 C :   -0.061858
   1 N :   -0.033820
   2 C :   -0.569335
   3 N :    0.097985
   4 C :   -0.004688
   5 H :    0.006564
   6 H :    0.011709
   7 H :    0.133706
   8 H :    0.098153
   9 H :    0.105896
  10 H :    0.067394
  11 H :    0.072803
  12 H :    0.075492

  Mayer bond orders larger than 0.100000
B(  0-C ,  1-N ) :   0.8779 B(  0-C ,  2-C ) :  -0.1353 B(  0-C , 10-H ) :   0.8541
B(  0-C , 11-H ) :   0.9328 B(  0-C , 12-H ) :   0.9120 B(  1-N ,  2-C ) :   1.1218
B(  1-N ,  7-H ) :   1.0149 B(  2-C ,  3-N ) :   0.8993 B(  2-C ,  4-C ) :   0.9158
B(  2-C ,  6-H ) :  -0.1191 B(  3-N ,  4-C ) :   0.1238 B(  3-N ,  8-H ) :   1.0269
B(  3-N ,  9-H ) :   1.0209 B(  4-C ,  5-H ) :   0.9451 B(  4-C ,  6-H ) :   1.0718

Dispersion correction           -0.002350795
FINAL SINGLE POINT ENERGY      -228.619863758140

DIPOLE MOMENT
-------------
                                X             Y             Z
Electronic contribution:      2.31761      -1.00339       0.24995
Nuclear contribution   :     -1.64651       1.35250       0.40156
                        -----------------------------------------
Total Dipole Moment    :      0.67111       0.34912       0.65150
                        -----------------------------------------
Magnitude (a.u.)       :      0.99836
Magnitude (Debye)      :      2.53763

Rotational constants in cm-1:     0.339624     0.131069     0.096565
Rotational constants in MHz : 10181.679558  3929.342810  2894.941560

                             ****ORCA TERMINATED NORMALLY****
TOTAL RUN TIME: 0 days 0 hours 0 minutes 28 seconds 423 msec
