                         Program Version 5.0.0 -  RELEASE  -
|  1> !wB97X-D3 RIJCOSX def2-TZVPD def2/J TightSCF xyzfile
|  2>
|  3> *xyzfile 0 1 D1.xyz
|  4>
|  5> %MaxCore 64000
|  6>
|  7> %pal nprocs 18
|  8> end
|  9>
| 10> %scf
| 11>   MaxIter 150
| 12> end
| 13>
| 14>
| 15>                          ****END OF INPUT****

CARTESIAN COORDINATES (ANGSTROEM)
---------------------------------
  C      3.380928    2.083045   -3.350127
  C      4.535924    1.182447   -3.428518
  C      2.495557    1.816150   -2.136364
  C      1.872181    0.427903   -2.077497
  H      2.614270   -0.365825   -2.198894
  H      1.389953    0.273087   -1.112360
  S      0.579024    0.140472   -3.297943
  C      4.671956    0.122273   -4.220598
  N      5.866023   -0.507849   -4.224284
  N      3.698881   -0.312844   -4.986988
  H      2.731405   -0.050091   -4.849000
  H      3.890046   -1.055172   -5.643730
  H      5.251933    1.303459   -2.721014
  H      6.695165   -0.062322   -3.851596
  H      5.975383   -1.396884   -4.691414
  F      0.228860   -1.246868   -3.127871
  O     -0.439269    1.118966   -3.014550
  O      1.247881    0.403474   -4.595647
  H      1.697003    2.561969   -2.141109
  H      3.080787    1.987436   -1.225838
  H      2.806463    1.986511   -4.268484
  H      3.778714    3.098282   -3.307383

 Total Charge           Charge          ....    0
 Multiplicity           Mult            ....    1
 Number of Electrons    NEL             ....   96
 Basis Dimension        Dim             ....  524

ORBITAL ENERGIES
----------------

  NO   OCC          E(Eh)            E(eV)
   0   2.0000     -89.206262     -2427.4258
   1   2.0000     -24.917719      -678.0456
   2   2.0000     -19.254209      -523.9337
   3   2.0000     -19.248661      -523.7827
   4   2.0000     -14.414516      -392.2389
   5   2.0000     -14.397650      -391.7800
   6   2.0000     -10.328328      -281.0481
   7   2.0000     -10.317192      -280.7451
   8   2.0000     -10.284675      -279.8602
   9   2.0000     -10.250655      -278.9345
  10   2.0000     -10.193037      -277.3666
  11   2.0000      -8.270170      -225.0428
  12   2.0000      -6.227408      -169.4564
  13   2.0000      -6.221317      -169.2906
  14   2.0000      -6.220664      -169.2729
  15   2.0000      -1.511715       -41.1359
  16   2.0000      -1.236185       -33.6383
  17   2.0000      -1.140383       -31.0314
  18   2.0000      -1.069629       -29.1061
  19   2.0000      -0.975042       -26.5322
  20   2.0000      -0.942036       -25.6341
  21   2.0000      -0.879738       -23.9389
  22   2.0000      -0.839162       -22.8348
  23   2.0000      -0.793399       -21.5895
  24   2.0000      -0.737270       -20.0621
  25   2.0000      -0.706311       -19.2197
  26   2.0000      -0.696539       -18.9538
  27   2.0000      -0.686978       -18.6936
  28   2.0000      -0.658288       -17.9129
  29   2.0000      -0.638682       -17.3794
  30   2.0000      -0.617914       -16.8143
  31   2.0000      -0.592121       -16.1124
  32   2.0000      -0.586588       -15.9619
  33   2.0000      -0.569118       -15.4865
  34   2.0000      -0.551973       -15.0200
  35   2.0000      -0.536271       -14.5927
  36   2.0000      -0.505296       -13.7498
  37   2.0000      -0.503020       -13.6879
  38   2.0000      -0.490890       -13.3578
  39   2.0000      -0.479793       -13.0558
  40   2.0000      -0.453793       -12.3483
  41   2.0000      -0.449079       -12.2201
  42   2.0000      -0.432454       -11.7677
  43   2.0000      -0.429259       -11.6807
  44   2.0000      -0.413726       -11.2581
  45   2.0000      -0.404554       -11.0085
  46   2.0000      -0.349098        -9.4994
  47   2.0000      -0.243571        -6.6279
  48   0.0000       0.044306         1.2056
  49   0.0000       0.061352         1.6695
  50   0.0000       0.064696         1.7605
  51   0.0000       0.074484         2.0268
  52   0.0000       0.089681         2.4403

MULLIKEN ATOMIC CHARGES
-----------------------
   0 C :   -0.391762
   1 C :   -1.150989
   2 C :   -0.607611
   3 C :   -0.610440
   4 H :    0.378195
   5 H :    0.369889
   6 S :    1.181608
   7 C :    0.695781
   8 N :   -0.444849
   9 N :   -0.310861
  10 H :    0.165337
  11 H :    0.162154
  12 H :    0.387426
  13 H :    0.203332
  14 H :    0.170479
  15 F :   -0.126959
  16 O :   -0.589085
  17 O :   -0.696995
  18 H :    0.229489
  19 H :    0.370904
  20 H :    0.349895
  21 H :    0.265062
Sum of atomic charges:    0.0000000

LOEWDIN ATOMIC CHARGES
----------------------
   0 C :   -0.222246
   1 C :   -0.138504
   2 C :   -0.209370
   3 C :   -0.220187
   4 H :    0.106669
   5 H :    0.104229
   6 S :    0.645137
   7 C :   -0.540431
   8 N :    0.097946
   9 N :    0.139162
  10 H :    0.014213
  11 H :    0.109440
  12 H :    0.068171
  13 H :    0.107048
  14 H :    0.094061
  15 F :   -0.038366
  16 O :   -0.254437
  17 O :   -0.309253
  18 H :    0.111954
  19 H :    0.123105
  20 H :    0.099406
  21 H :    0.112252

  Mayer bond orders larger than 0.100000
B(  0-C ,  1-C ) :   0.6886 B(  0-C ,  2-C ) :   0.7259 B(  0-C , 20-H ) :   0.9241
B(  0-C , 21-H ) :   1.0327 B(  1-C ,  2-C ) :   0.2099 B(  1-C ,  3-C ) :   0.1542
B(  1-C ,  7-C ) :   1.2858 B(  1-C ,  8-N ) :   0.2098 B(  1-C ,  9-N ) :   0.1089
B(  1-C , 12-H ) :   0.8650 B(  2-C ,  3-C ) :   1.2089 B(  2-C ,  6-S ) :   0.1948
B(  2-C , 18-H ) :   0.9545 B(  2-C , 19-H ) :   0.8552 B(  3-C ,  4-H ) :   0.8306
B(  3-C ,  5-H ) :   0.8389 B(  3-C ,  6-S ) :   0.7627 B(  6-S , 15-F ) :   0.9510
B(  6-S , 16-O ) :   1.6598 B(  6-S , 17-O ) :   1.6155 B(  7-C ,  8-N ) :   0.8506
B(  7-C ,  9-N ) :   0.9651 B(  7-C , 12-H ) :  -0.1174 B(  8-N , 13-H ) :   0.9917
B(  8-N , 14-H ) :   1.0486 B(  9-N , 10-H ) :   0.8929 B(  9-N , 11-H ) :   1.0390

Dispersion correction           -0.009842530
FINAL SINGLE POINT ENERGY      -955.174037021622

DIPOLE MOMENT
-------------
                                X             Y             Z
Electronic contribution:    -15.31320      -6.71354      -1.14059
Nuclear contribution   :     15.92508       5.34175       1.81950
                        -----------------------------------------
Total Dipole Moment    :      0.61188      -1.37179       0.67891
                        -----------------------------------------
Magnitude (a.u.)       :      1.64836
Magnitude (Debye)      :      4.18981

Rotational constants in cm-1:     0.058561     0.020662     0.017762
Rotational constants in MHz :  1755.621534   619.433801   532.501507

                             ****ORCA TERMINATED NORMALLY****
TOTAL RUN TIME: 0 days 0 hours 1 minutes 26 seconds 353 msec
