                         Program Version 5.0.0 -  RELEASE  -
|  1> !wB97X-D3 RIJCOSX def2-TZVPD def2/J TightSCF xyzfile
|  2>
|  3> *xyzfile 0 1 D2.xyz
|  4>
|  5> %MaxCore 64000
|  6>
|  7> %pal nprocs 18
|  8> end
|  9>
| 10> %scf
| 11>   MaxIter 150
| 12> end
| 13>
| 14>
| 15>                          ****END OF INPUT****

CARTESIAN COORDINATES (ANGSTROEM)
---------------------------------
  C      3.380928    2.083045   -3.350127
  N      4.535924    1.182447   -3.428518
  C      2.495557    1.816150   -2.136364
  C      1.872181    0.427903   -2.077497
  H      2.614270   -0.365825   -2.198894
  H      1.389953    0.273087   -1.112360
  S      0.579024    0.140472   -3.297943
  C      4.671956    0.122273   -4.220598
  C      5.866023   -0.507849   -4.224284
  N      3.698881   -0.312844   -4.986988
  H      2.731405   -0.050091   -4.849000
  H      3.890046   -1.055172   -5.643730
  H      5.251933    1.303459   -2.721014
  H      6.695165   -0.062322   -3.851596
  H      5.975383   -1.396884   -4.691414
  F      0.228860   -1.246868   -3.127871
  O     -0.439269    1.118966   -3.014550
  O      1.247881    0.403474   -4.595647
  H      1.697003    2.561969   -2.141109
  H      3.080787    1.987436   -1.225838
  H      2.806463    1.986511   -4.268484
  H      3.778714    3.098282   -3.307383

 Total Charge           Charge          ....    0
 Multiplicity           Mult            ....    1
 Number of Electrons    NEL             ....   96
 Basis Dimension        Dim             ....  524

ORBITAL ENERGIES
----------------

  NO   OCC          E(Eh)            E(eV)
   0   2.0000     -89.220166     -2427.8041
   1   2.0000     -24.929225      -678.3587
   2   2.0000     -19.267223      -524.2878
   3   2.0000     -19.260753      -524.1117
   4   2.0000     -14.423179      -392.4747
   5   2.0000     -14.395224      -391.7140
   6   2.0000     -10.347344      -281.5655
   7   2.0000     -10.318852      -280.7902
   8   2.0000     -10.317589      -280.7559
   9   2.0000     -10.312578      -280.6195
  10   2.0000     -10.173489      -276.8347
  11   2.0000      -8.283900      -225.4164
  12   2.0000      -6.241078      -169.8284
  13   2.0000      -6.235090      -169.6654
  14   2.0000      -6.234488      -169.6490
  15   2.0000      -1.523023       -41.4436
  16   2.0000      -1.249133       -33.9906
  17   2.0000      -1.152980       -31.3742
  18   2.0000      -1.080254       -29.3952
  19   2.0000      -0.997128       -27.1332
  20   2.0000      -0.953135       -25.9361
  21   2.0000      -0.885930       -24.1074
  22   2.0000      -0.839337       -22.8395
  23   2.0000      -0.800646       -21.7867
  24   2.0000      -0.747927       -20.3521
  25   2.0000      -0.716437       -19.4952
  26   2.0000      -0.704949       -19.1826
  27   2.0000      -0.703311       -19.1381
  28   2.0000      -0.688492       -18.7348
  29   2.0000      -0.649157       -17.6644
  30   2.0000      -0.612367       -16.6634
  31   2.0000      -0.594574       -16.1792
  32   2.0000      -0.588783       -16.0216
  33   2.0000      -0.581818       -15.8321
  34   2.0000      -0.565151       -15.3785
  35   2.0000      -0.545520       -14.8443
  36   2.0000      -0.515777       -14.0350
  37   2.0000      -0.507560       -13.8114
  38   2.0000      -0.504721       -13.7341
  39   2.0000      -0.485573       -13.2131
  40   2.0000      -0.480501       -13.0751
  41   2.0000      -0.465173       -12.6580
  42   2.0000      -0.452938       -12.3251
  43   2.0000      -0.444071       -12.0838
  44   2.0000      -0.433609       -11.7991
  45   2.0000      -0.421644       -11.4735
  46   2.0000      -0.340748        -9.2722
  47   2.0000      -0.238292        -6.4843
  48   0.0000       0.038944         1.0597
  49   0.0000       0.054562         1.4847
  50   0.0000       0.062911         1.7119
  51   0.0000       0.066229         1.8022
  52   0.0000       0.083399         2.2694

MULLIKEN ATOMIC CHARGES
-----------------------
   0 C :   -0.829735
   1 N :   -0.150003
   2 C :   -0.491498
   3 C :   -0.610152
   4 H :    0.383436
   5 H :    0.371402
   6 S :    1.182848
   7 C :    0.950107
   8 C :   -1.689779
   9 N :   -0.278842
  10 H :    0.188863
  11 H :    0.167208
  12 H :    0.233290
  13 H :    0.325900
  14 H :    0.327003
  15 F :   -0.121668
  16 O :   -0.589098
  17 O :   -0.695243
  18 H :    0.296651
  19 H :    0.312916
  20 H :    0.445394
  21 H :    0.271000
Sum of atomic charges:    0.0000000

LOEWDIN ATOMIC CHARGES
----------------------
   0 C :   -0.175782
   1 N :    0.027490
   2 C :   -0.193549
   3 C :   -0.217533
   4 H :    0.110119
   5 H :    0.106477
   6 S :    0.646334
   7 C :   -0.569660
   8 C :   -0.016932
   9 N :    0.135955
  10 H :    0.009256
  11 H :    0.120487
  12 H :    0.147403
  13 H :   -0.001203
  14 H :   -0.003346
  15 F :   -0.032140
  16 O :   -0.252261
  17 O :   -0.309466
  18 H :    0.116865
  19 H :    0.122518
  20 H :    0.108456
  21 H :    0.120513

  Mayer bond orders larger than 0.100000
B(  0-C ,  1-N ) :   0.9660 B(  0-C ,  2-C ) :   0.8839 B(  0-C ,  7-C ) :  -0.1096
B(  0-C , 20-H ) :   0.8263 B(  0-C , 21-H ) :   0.9643 B(  1-N ,  7-C ) :   1.1468
B(  1-N ,  8-C ) :   0.1578 B(  1-N , 12-H ) :   0.9233 B(  2-C ,  3-C ) :   1.1600
B(  2-C ,  6-S ) :   0.1958 B(  2-C , 18-H ) :   0.9497 B(  2-C , 19-H ) :   0.8774
B(  3-C ,  4-H ) :   0.8158 B(  3-C ,  5-H ) :   0.8511 B(  3-C ,  6-S ) :   0.7660
B(  6-S , 15-F ) :   0.9580 B(  6-S , 16-O ) :   1.6589 B(  6-S , 17-O ) :   1.6152
B(  7-C ,  8-C ) :   0.7910 B(  7-C ,  9-N ) :   1.0643 B(  7-C , 14-H ) :  -0.1022
B(  8-C ,  9-N ) :   0.1018 B(  8-C , 13-H ) :   0.9591 B(  8-C , 14-H ) :   1.0159
B(  9-N , 10-H ) :   0.8497 B(  9-N , 11-H ) :   1.0172

Dispersion correction           -0.009881783
FINAL SINGLE POINT ENERGY      -955.158730548234

DIPOLE MOMENT
-------------
                                X             Y             Z
Electronic contribution:    -16.79850      -5.23860      -0.36773
Nuclear contribution   :     16.05479       5.17692       1.74190
                        -----------------------------------------
Total Dipole Moment    :     -0.74371      -0.06169       1.37417
                        -----------------------------------------
Magnitude (a.u.)       :      1.56373
Magnitude (Debye)      :      3.97469

Rotational constants in cm-1:     0.058652     0.021107     0.018077
Rotational constants in MHz :  1758.344290   632.763813   541.920558

                             ****ORCA TERMINATED NORMALLY****
TOTAL RUN TIME: 0 days 0 hours 1 minutes 19 seconds 902 msec
