                         Program Version 5.0.0 -  RELEASE  -
|  1> !wB97X-D3 RIJCOSX def2-TZVPD def2/J TightSCF xyzfile
|  2>
|  3> *xyzfile 0 1 D4.xyz
|  4>
|  5> %MaxCore 64000
|  6>
|  7> %pal nprocs 18
|  8> end
|  9>
| 10> %scf
| 11>   MaxIter 150
| 12> end
| 13>
| 14>
| 15>                          ****END OF INPUT****

CARTESIAN COORDINATES (ANGSTROEM)
---------------------------------
  C      3.380928    2.083045   -3.350127
  C      4.535924    1.182447   -3.428518
  C      2.495557    1.816150   -2.136364
  C      1.872181    0.427903   -2.077497
  H      2.614270   -0.365825   -2.198894
  H      1.389953    0.273087   -1.112360
  S      0.579024    0.140472   -3.297943
  C      4.671956    0.122273   -4.220598
  N      5.866023   -0.507849   -4.224284
  N      3.698881   -0.312844   -4.986988
  H      2.731405   -0.050091   -4.849000
  H      3.890046   -1.055172   -5.643730
  H      5.251933    1.303459   -2.721014
  H      6.695165   -0.062322   -3.851596
  H      5.975383   -1.396884   -4.691414
  O      0.228860   -1.246868   -3.127871
  F     -0.439269    1.118966   -3.014550
  O      1.247881    0.403474   -4.595647
  H      1.697003    2.561969   -2.141109
  H      3.080787    1.987436   -1.225838
  H      2.806463    1.986511   -4.268484
  H      3.778714    3.098282   -3.307383

 Total Charge           Charge          ....    0
 Multiplicity           Mult            ....    1
 Number of Electrons    NEL             ....   96
 Basis Dimension        Dim             ....  524

ORBITAL ENERGIES
----------------

  NO   OCC          E(Eh)            E(eV)
   0   2.0000     -89.206559     -2427.4339
   1   2.0000     -24.917452      -678.0383
   2   2.0000     -19.254623      -523.9449
   3   2.0000     -19.248015      -523.7651
   4   2.0000     -14.413670      -392.2159
   5   2.0000     -14.396639      -391.7525
   6   2.0000     -10.327816      -281.0342
   7   2.0000     -10.317257      -280.7468
   8   2.0000     -10.286974      -279.9228
   9   2.0000     -10.252803      -278.9930
  10   2.0000     -10.193097      -277.3683
  11   2.0000      -8.270338      -225.0473
  12   2.0000      -6.227667      -169.4634
  13   2.0000      -6.221504      -169.2957
  14   2.0000      -6.220760      -169.2755
  15   2.0000      -1.511430       -41.1281
  16   2.0000      -1.235839       -33.6289
  17   2.0000      -1.140512       -31.0349
  18   2.0000      -1.068662       -29.0798
  19   2.0000      -0.973955       -26.5027
  20   2.0000      -0.944772       -25.7086
  21   2.0000      -0.877694       -23.8833
  22   2.0000      -0.838566       -22.8185
  23   2.0000      -0.795491       -21.6464
  24   2.0000      -0.735960       -20.0265
  25   2.0000      -0.709825       -19.3153
  26   2.0000      -0.700442       -19.0600
  27   2.0000      -0.686490       -18.6804
  28   2.0000      -0.654520       -17.8104
  29   2.0000      -0.635879       -17.3031
  30   2.0000      -0.616825       -16.7847
  31   2.0000      -0.589049       -16.0288
  32   2.0000      -0.582452       -15.8493
  33   2.0000      -0.576166       -15.6783
  34   2.0000      -0.553463       -15.0605
  35   2.0000      -0.539500       -14.6805
  36   2.0000      -0.508138       -13.8271
  37   2.0000      -0.499965       -13.6047
  38   2.0000      -0.498137       -13.5550
  39   2.0000      -0.477348       -12.9893
  40   2.0000      -0.455328       -12.3901
  41   2.0000      -0.444092       -12.0844
  42   2.0000      -0.436370       -11.8742
  43   2.0000      -0.428637       -11.6638
  44   2.0000      -0.420381       -11.4392
  45   2.0000      -0.401409       -10.9229
  46   2.0000      -0.347752        -9.4628
  47   2.0000      -0.243532        -6.6269
  48   0.0000       0.046693         1.2706
  49   0.0000       0.061866         1.6835
  50   0.0000       0.065659         1.7867
  51   0.0000       0.073119         1.9897
  52   0.0000       0.089944         2.4475

MULLIKEN ATOMIC CHARGES
-----------------------
   0 C :   -0.369154
   1 C :   -1.193045
   2 C :   -0.560070
   3 C :   -0.585883
   4 H :    0.355261
   5 H :    0.370108
   6 S :    1.160867
   7 C :    0.721402
   8 N :   -0.446104
   9 N :   -0.302702
  10 H :    0.129747
  11 H :    0.163396
  12 H :    0.388490
  13 H :    0.203340
  14 H :    0.172530
  15 O :   -0.593295
  16 F :   -0.119712
  17 O :   -0.690222
  18 H :    0.225929
  19 H :    0.358240
  20 H :    0.348554
  21 H :    0.262322
Sum of atomic charges:   -0.0000000

LOEWDIN ATOMIC CHARGES
----------------------
   0 C :   -0.227795
   1 C :   -0.139201
   2 C :   -0.220536
   3 C :   -0.214119
   4 H :    0.117202
   5 H :    0.104591
   6 S :    0.642790
   7 C :   -0.536908
   8 N :    0.099512
   9 N :    0.145373
  10 H :    0.019962
  11 H :    0.112049
  12 H :    0.067914
  13 H :    0.107174
  14 H :    0.095342
  15 O :   -0.260627
  16 F :   -0.032652
  17 O :   -0.314167
  18 H :    0.105924
  19 H :    0.120715
  20 H :    0.096485
  21 H :    0.110970

  Mayer bond orders larger than 0.100000
B(  0-C ,  1-C ) :   0.7027 B(  0-C ,  2-C ) :   0.7383 B(  0-C , 20-H ) :   0.9137
B(  0-C , 21-H ) :   1.0435 B(  1-C ,  2-C ) :   0.2286 B(  1-C ,  3-C ) :   0.1622
B(  1-C ,  7-C ) :   1.2799 B(  1-C ,  8-N ) :   0.2080 B(  1-C ,  9-N ) :   0.1140
B(  1-C , 12-H ) :   0.8641 B(  2-C ,  3-C ) :   1.1206 B(  2-C ,  6-S ) :   0.1606
B(  2-C , 18-H ) :   0.9369 B(  2-C , 19-H ) :   0.8744 B(  3-C ,  4-H ) :   0.8640
B(  3-C ,  5-H ) :   0.8673 B(  3-C ,  6-S ) :   0.7628 B(  3-C , 15-O ) :   0.1060
B(  6-S , 15-O ) :   1.6323 B(  6-S , 16-F ) :   1.0026 B(  6-S , 17-O ) :   1.6173
B(  7-C ,  8-N ) :   0.8537 B(  7-C ,  9-N ) :   0.9618 B(  7-C , 12-H ) :  -0.1159
B(  8-N , 13-H ) :   0.9917 B(  8-N , 14-H ) :   1.0475 B(  9-N , 10-H ) :   0.8930
B(  9-N , 11-H ) :   1.0360

Dispersion correction           -0.009839859
FINAL SINGLE POINT ENERGY      -955.174337189155

DIPOLE MOMENT
-------------
                                X             Y             Z
Electronic contribution:    -16.43623      -2.65140      -0.96377
Nuclear contribution   :     16.65743       2.74852       1.69529
                        -----------------------------------------
Total Dipole Moment    :      0.22120       0.09712       0.73152
                        -----------------------------------------
Magnitude (a.u.)       :      0.77037
Magnitude (Debye)      :      1.95813

Rotational constants in cm-1:     0.059907     0.020458     0.017675
Rotational constants in MHz :  1795.978106   613.328205   529.885290

                             ****ORCA TERMINATED NORMALLY****
TOTAL RUN TIME: 0 days 0 hours 1 minutes 42 seconds 723 msec
