                         Program Version 5.0.0 -  RELEASE  -
|  1> !LC-BLYP RIJCOSX def2-TZVP def2/J TightSCF
|  2> *xyz -1 1
|  3> C          3.76678       -2.26611       -6.51175
|  4> C          2.49670       -1.84416       -5.73570
|  5> H          1.62642       -2.21743       -6.30895
|  6> H          2.48182       -2.45607       -4.79341
|  7> O          2.45973       -0.50920       -5.50576
|  8> H          3.82914       -1.70941       -7.42340
|  9> H          3.71764       -3.31144       -6.73483
| 10> H          4.63199       -2.06931       -5.91377
| 11> *
| 12>
| 13> %MaxCore 64000
| 14>
| 15> %pal nprocs 4
| 16> end
| 17>
| 18> %scf
| 19>   MaxIter 150
| 20> end
| 21>
| 22>
| 23>                          ****END OF INPUT****

CARTESIAN COORDINATES (ANGSTROEM)
---------------------------------
  C      3.766780   -2.266110   -6.511750
  C      2.496700   -1.844160   -5.735700
  H      1.626420   -2.217430   -6.308950
  H      2.481820   -2.456070   -4.793410
  O      2.459730   -0.509200   -5.505760
  H      3.829140   -1.709410   -7.423400
  H      3.717640   -3.311440   -6.734830
  H      4.631990   -2.069310   -5.913770

 Total Charge           Charge          ....   -1
 Multiplicity           Mult            ....    1
 Number of Electrons    NEL             ....   26
 Basis Dimension        Dim             ....  123

ORBITAL ENERGIES
----------------

  NO   OCC          E(Eh)            E(eV)
   0   2.0000     -18.579208      -505.5659
   1   2.0000      -9.873723      -268.6776
   2   2.0000      -9.850806      -268.0540
   3   2.0000      -0.765266       -20.8239
   4   2.0000      -0.624267       -16.9872
   5   2.0000      -0.470033       -12.7902
   6   2.0000      -0.348411        -9.4807
   7   2.0000      -0.323380        -8.7996
   8   2.0000      -0.266501        -7.2518
   9   2.0000      -0.248013        -6.7488
  10   2.0000      -0.200341        -5.4516
  11   2.0000      -0.050748        -1.3809
  12   2.0000      -0.048892        -1.3304
  13   0.0000       0.281325         7.6552
  14   0.0000       0.318005         8.6534
  15   0.0000       0.343838         9.3563
  16   0.0000       0.349196         9.5021
  17   0.0000       0.382891        10.4190

MULLIKEN ATOMIC CHARGES
-----------------------
   0 C :   -0.227919
   1 C :   -0.005026
   2 H :   -0.054498
   3 H :   -0.067081
   4 O :   -0.724885
   5 H :    0.043448
   6 H :   -0.008589
   7 H :    0.044550
Sum of atomic charges:   -1.0000000

LOEWDIN ATOMIC CHARGES
----------------------
   0 C :   -0.378611
   1 C :   -0.582349
   2 H :    0.054477
   3 H :    0.053843
   4 O :   -0.407003
   5 H :    0.090779
   6 H :    0.078035
   7 H :    0.090829

  Mayer bond orders larger than 0.100000
B(  0-C ,  1-C ) :   0.8729 B(  0-C ,  4-O ) :  -0.2126 B(  0-C ,  5-H ) :   0.9710
B(  0-C ,  6-H ) :   0.9368 B(  0-C ,  7-H ) :   0.9757 B(  1-C ,  2-H ) :   0.9320
B(  1-C ,  3-H ) :   0.9212 B(  1-C ,  4-O ) :   1.6802

FINAL SINGLE POINT ENERGY      -154.101383006252

DIPOLE MOMENT
-------------
                                X             Y             Z
Electronic contribution:     -1.05967       2.63645       0.96699
Nuclear contribution   :      1.63615      -3.79938      -1.48621
                        -----------------------------------------
Total Dipole Moment    :      0.57649      -1.16293      -0.51922
                        -----------------------------------------
Magnitude (a.u.)       :      1.39797
Magnitude (Debye)      :      3.55337

Rotational constants in cm-1:     1.265582     0.329289     0.289024
Rotational constants in MHz : 37941.194363  9871.829581  8664.719106

                             ****ORCA TERMINATED NORMALLY****
TOTAL RUN TIME: 0 days 0 hours 0 minutes 17 seconds 111 msec
