                         Program Version 5.0.0 -  RELEASE  -
|  1> !LC-BLYP RIJCOSX def2-TZVP def2/J TightSCF
|  2> *xyz 1 1
|  3> C          4.99986       -1.59613       -5.92488
|  4> N          5.28156       -1.97413       -4.53576
|  5> C          3.76678       -2.26611       -6.51175
|  6> C          4.79250       -1.36132       -3.45730
|  7> N          3.93990       -0.37492       -3.55736
|  8> N          5.25986       -1.75422       -2.23913
|  9> H          5.92282       -2.52145       -2.18672
| 10> H          4.65468       -1.64040       -1.44202
| 11> H          5.70914       -2.87560       -4.38702
| 12> H          3.33010       -0.31764       -4.36125
| 13> H          3.69849        0.11447       -2.70833
| 14> H          4.84333       -0.51793       -5.94302
| 15> H          5.90170       -1.82250       -6.49647
| 16> H          3.63046       -1.94025       -7.52177
| 17> H          2.90710       -2.00116       -5.93240
| 18> H          3.89538       -3.32820       -6.49392
| 19> *
| 20>
| 21> %MaxCore 64000
| 22>
| 23> %pal nprocs 4
| 24> end
| 25>
| 26> %scf
| 27>   MaxIter 150
| 28> end
| 29>
| 30>
| 31>                          ****END OF INPUT****

CARTESIAN COORDINATES (ANGSTROEM)
---------------------------------
  C      4.999860   -1.596130   -5.924880
  N      5.281560   -1.974130   -4.535760
  C      3.766780   -2.266110   -6.511750
  C      4.792500   -1.361320   -3.457300
  N      3.939900   -0.374920   -3.557360
  N      5.259860   -1.754220   -2.239130
  H      5.922820   -2.521450   -2.186720
  H      4.654680   -1.640400   -1.442020
  H      5.709140   -2.875600   -4.387020
  H      3.330100   -0.317640   -4.361250
  H      3.698490    0.114470   -2.708330
  H      4.843330   -0.517930   -5.943020
  H      5.901700   -1.822500   -6.496470
  H      3.630460   -1.940250   -7.521770
  H      2.907100   -2.001160   -5.932400
  H      3.895380   -3.328200   -6.493920

 Total Charge           Charge          ....    1
 Multiplicity           Mult            ....    1
 Number of Electrons    NEL             ....   48
 Basis Dimension        Dim             ....  246

ORBITAL ENERGIES
----------------

  NO   OCC          E(Eh)            E(eV)
   0   2.0000     -14.397630      -391.7794
   1   2.0000     -14.393810      -391.6755
   2   2.0000     -14.387758      -391.5108
   3   2.0000     -10.407340      -283.1981
   4   2.0000     -10.274045      -279.5710
   5   2.0000     -10.206610      -277.7360
   6   2.0000      -1.317349       -35.8469
   7   2.0000      -1.207805       -32.8661
   8   2.0000      -1.192759       -32.4566
   9   2.0000      -1.040636       -28.3171
  10   2.0000      -0.947783       -25.7905
  11   2.0000      -0.911030       -24.7904
  12   2.0000      -0.895440       -24.3661
  13   2.0000      -0.844625       -22.9834
  14   2.0000      -0.798379       -21.7250
  15   2.0000      -0.794174       -21.6106
  16   2.0000      -0.745048       -20.2738
  17   2.0000      -0.739828       -20.1317
  18   2.0000      -0.710835       -19.3428
  19   2.0000      -0.664912       -18.0932
  20   2.0000      -0.633599       -17.2411
  21   2.0000      -0.613371       -16.6907
  22   2.0000      -0.580169       -15.7872
  23   2.0000      -0.548779       -14.9330
  24   0.0000      -0.097501        -2.6531
  25   0.0000      -0.080876        -2.2008
  26   0.0000      -0.054539        -1.4841
  27   0.0000      -0.043221        -1.1761
  28   0.0000      -0.020838        -0.5670

MULLIKEN ATOMIC CHARGES
-----------------------
   0 C :   -0.315215
   1 N :   -0.221112
   2 C :   -0.318970
   3 C :    0.395327
   4 N :   -0.357820
   5 N :   -0.404594
   6 H :    0.277362
   7 H :    0.278456
   8 H :    0.256732
   9 H :    0.292637
  10 H :    0.280709
  11 H :    0.188183
  12 H :    0.194948
  13 H :    0.182448
  14 H :    0.111456
  15 H :    0.159453
Sum of atomic charges:    1.0000000

LOEWDIN ATOMIC CHARGES
----------------------
   0 C :   -0.293467
   1 N :    0.171420
   2 C :   -0.299185
   3 C :   -0.408143
   4 N :    0.089267
   5 N :    0.037877
   6 H :    0.196834
   7 H :    0.192168
   8 H :    0.208089
   9 H :    0.202424
  10 H :    0.204912
  11 H :    0.148131
  12 H :    0.155275
  13 H :    0.143031
  14 H :    0.119520
  15 H :    0.131847

  Mayer bond orders larger than 0.100000
B(  0-C ,  1-N ) :   0.8576 B(  0-C ,  2-C ) :   0.9294 B(  0-C , 11-H ) :   0.9740
B(  0-C , 12-H ) :   0.9616 B(  1-N ,  3-C ) :   1.3725 B(  1-N ,  8-H ) :   0.9077
B(  2-C , 13-H ) :   0.9711 B(  2-C , 14-H ) :   0.9529 B(  2-C , 15-H ) :   0.9680
B(  3-C ,  4-N ) :   1.3405 B(  3-C ,  5-N ) :   1.2789 B(  4-N ,  9-H ) :   0.8894
B(  4-N , 10-H ) :   0.9015 B(  5-N ,  6-H ) :   0.9069 B(  5-N ,  7-H ) :   0.8991

FINAL SINGLE POINT ENERGY      -283.777733576285

DIPOLE MOMENT
-------------
                                X             Y             Z
Electronic contribution:      1.74813       1.07853       4.75096
Nuclear contribution   :     -1.95709      -1.20097      -3.70214
                        -----------------------------------------
Total Dipole Moment    :     -0.20896      -0.12244       1.04883
                        -----------------------------------------
Magnitude (a.u.)       :      1.07643
Magnitude (Debye)      :      2.73606

Rotational constants in cm-1:     0.241661     0.071598     0.061743
Rotational constants in MHz :  7244.800091  2146.442409  1851.001864

                             ****ORCA TERMINATED NORMALLY****
TOTAL RUN TIME: 0 days 0 hours 0 minutes 45 seconds 73 msec
