                         Program Version 5.0.0 -  RELEASE  -
|  1> !LC-BLYP RIJCOSX def2-TZVP def2/J TightSCF
|  2> *xyz 0 1
|  3> C          3.76678       -2.26611       -6.51175
|  4> C          2.49670       -1.84416       -5.73570
|  5> H          1.62642       -2.21743       -6.30895
|  6> H          2.48182       -2.45607       -4.79341
|  7> F          2.45973       -0.50920       -5.50576
|  8> H          3.82914       -1.70941       -7.42340
|  9> H          3.71764       -3.31144       -6.73483
| 10> H          4.63199       -2.06931       -5.91377
| 11> *
| 12>
| 13> %MaxCore 64000
| 14>
| 15> %pal nprocs 4
| 16> end
| 17>
| 18> %scf
| 19>   MaxIter 150
| 20> end
| 21>
| 22>
| 23>                          ****END OF INPUT****

CARTESIAN COORDINATES (ANGSTROEM)
---------------------------------
  C      3.766780   -2.266110   -6.511750
  C      2.496700   -1.844160   -5.735700
  H      1.626420   -2.217430   -6.308950
  H      2.481820   -2.456070   -4.793410
  F      2.459730   -0.509200   -5.505760
  H      3.829140   -1.709410   -7.423400
  H      3.717640   -3.311440   -6.734830
  H      4.631990   -2.069310   -5.913770

 Total Charge           Charge          ....    0
 Multiplicity           Mult            ....    1
 Number of Electrons    NEL             ....   26
 Basis Dimension        Dim             ....  123

ORBITAL ENERGIES
----------------

  NO   OCC          E(Eh)            E(eV)
   0   2.0000     -24.440495      -665.0597
   1   2.0000     -10.147747      -276.1342
   2   2.0000     -10.062183      -273.8059
   3   2.0000      -1.283848       -34.9353
   4   2.0000      -0.871279       -23.7087
   5   2.0000      -0.739045       -20.1104
   6   2.0000      -0.615894       -16.7593
   7   2.0000      -0.603046       -16.4097
   8   2.0000      -0.563555       -15.3351
   9   2.0000      -0.506259       -13.7760
  10   2.0000      -0.501317       -13.6415
  11   2.0000      -0.431809       -11.7501
  12   2.0000      -0.425844       -11.5878
  13   0.0000       0.105519         2.8713
  14   0.0000       0.144437         3.9303
  15   0.0000       0.165490         4.5032
  16   0.0000       0.169703         4.6179
  17   0.0000       0.183576         4.9954

MULLIKEN ATOMIC CHARGES
-----------------------
   0 C :   -0.384569
   1 C :   -0.010546
   2 H :    0.106042
   3 H :    0.102398
   4 F :   -0.208244
   5 H :    0.135598
   6 H :    0.124361
   7 H :    0.134961
Sum of atomic charges:   -0.0000000

LOEWDIN ATOMIC CHARGES
----------------------
   0 C :   -0.324964
   1 C :   -0.403669
   2 H :    0.118869
   3 H :    0.122130
   4 F :    0.122981
   5 H :    0.120565
   6 H :    0.124250
   7 H :    0.119838

  Mayer bond orders larger than 0.100000
B(  0-C ,  1-C ) :   0.9558 B(  0-C ,  5-H ) :   0.9694 B(  0-C ,  6-H ) :   0.9578
B(  0-C ,  7-H ) :   0.9709 B(  1-C ,  2-H ) :   0.9711 B(  1-C ,  3-H ) :   0.9702
B(  1-C ,  4-F ) :   1.0306

FINAL SINGLE POINT ENERGY      -178.738472480308

DIPOLE MOMENT
-------------
                                X             Y             Z
Electronic contribution:     -2.08178       4.33734       1.81370
Nuclear contribution   :      2.16248      -5.01128      -1.96962
                        -----------------------------------------
Total Dipole Moment    :      0.08070      -0.67394      -0.15592
                        -----------------------------------------
Magnitude (a.u.)       :      0.69643
Magnitude (Debye)      :      1.77019

Rotational constants in cm-1:     1.244010     0.306580     0.270375
Rotational constants in MHz : 37294.476802  9191.037795  8105.639967

                             ****ORCA TERMINATED NORMALLY****
TOTAL RUN TIME: 0 days 0 hours 0 minutes 11 seconds 993 msec
