                         Program Version 5.0.0 -  RELEASE  -
|  1> !LC-BLYP RIJCOSX def2-TZVP def2/J TightSCF
|  2> *xyz 0 1
|  3> C          4.99986       -1.59613       -5.92488
|  4> C          5.28156       -1.97413       -4.53576
|  5> C          3.76678       -2.26611       -6.51175
|  6> C          4.79250       -1.36132       -3.45730
|  7> N          3.93990       -0.37492       -3.55736
|  8> N          5.25986       -1.75422       -2.23913
|  9> H          5.92282       -2.52145       -2.18672
| 10> H          4.65468       -1.64040       -1.44202
| 11> H          5.70914       -2.87560       -4.38702
| 12> H          3.33010       -0.31764       -4.36125
| 13> H          3.69849        0.11447       -2.70833
| 14> H          4.84333       -0.51793       -5.94302
| 15> H          5.90170       -1.82250       -6.49647
| 16> H          3.63046       -1.94025       -7.52177
| 17> H          2.90710       -2.00116       -5.93240
| 18> H          3.89538       -3.32820       -6.49392
| 19> *
| 20>
| 21> %MaxCore 64000
| 22>
| 23> %pal nprocs 4
| 24> end
| 25>
| 26> %scf
| 27>   MaxIter 150
| 28> end
| 29>
| 30>
| 31>                          ****END OF INPUT****

CARTESIAN COORDINATES (ANGSTROEM)
---------------------------------
  C      4.999860   -1.596130   -5.924880
  C      5.281560   -1.974130   -4.535760
  C      3.766780   -2.266110   -6.511750
  C      4.792500   -1.361320   -3.457300
  N      3.939900   -0.374920   -3.557360
  N      5.259860   -1.754220   -2.239130
  H      5.922820   -2.521450   -2.186720
  H      4.654680   -1.640400   -1.442020
  H      5.709140   -2.875600   -4.387020
  H      3.330100   -0.317640   -4.361250
  H      3.698490    0.114470   -2.708330
  H      4.843330   -0.517930   -5.943020
  H      5.901700   -1.822500   -6.496470
  H      3.630460   -1.940250   -7.521770
  H      2.907100   -2.001160   -5.932400
  H      3.895380   -3.328200   -6.493920

 Total Charge           Charge          ....    0
 Multiplicity           Mult            ....    1
 Number of Electrons    NEL             ....   48
 Basis Dimension        Dim             ....  246

ORBITAL ENERGIES
----------------

  NO   OCC          E(Eh)            E(eV)
   0   2.0000     -14.171675      -385.6309
   1   2.0000     -14.162817      -385.3899
   2   2.0000     -10.111663      -275.1523
   3   2.0000     -10.039156      -273.1793
   4   2.0000     -10.034384      -273.0495
   5   2.0000      -9.990095      -271.8443
   6   2.0000      -1.062921       -28.9235
   7   2.0000      -0.970734       -26.4150
   8   2.0000      -0.881109       -23.9762
   9   2.0000      -0.800827       -21.7916
  10   2.0000      -0.720761       -19.6129
  11   2.0000      -0.682952       -18.5841
  12   2.0000      -0.650188       -17.6925
  13   2.0000      -0.607415       -16.5286
  14   2.0000      -0.577682       -15.7195
  15   2.0000      -0.546594       -14.8736
  16   2.0000      -0.518385       -14.1060
  17   2.0000      -0.500386       -13.6162
  18   2.0000      -0.484225       -13.1764
  19   2.0000      -0.452425       -12.3111
  20   2.0000      -0.423146       -11.5144
  21   2.0000      -0.415020       -11.2933
  22   2.0000      -0.364686        -9.9236
  23   2.0000      -0.254339        -6.9209
  24   0.0000       0.083289         2.2664
  25   0.0000       0.112848         3.0708
  26   0.0000       0.128742         3.5033
  27   0.0000       0.147238         4.0065
  28   0.0000       0.153321         4.1721

MULLIKEN ATOMIC CHARGES
-----------------------
   0 C :   -0.348739
   1 C :   -0.330641
   2 C :   -0.312923
   3 C :    0.336003
   4 N :   -0.431747
   5 N :   -0.468290
   6 H :    0.236236
   7 H :    0.203501
   8 H :    0.100429
   9 H :    0.245990
  10 H :    0.213822
  11 H :    0.113628
  12 H :    0.115514
  13 H :    0.119144
  14 H :    0.088489
  15 H :    0.119585
Sum of atomic charges:   -0.0000000

LOEWDIN ATOMIC CHARGES
----------------------
   0 C :   -0.318400
   1 C :   -0.280596
   2 C :   -0.320083
   3 C :   -0.463123
   4 N :    0.006141
   5 N :   -0.041540
   6 H :    0.175659
   7 H :    0.152326
   8 H :    0.119125
   9 H :    0.179614
  10 H :    0.168580
  11 H :    0.137185
  12 H :    0.140994
  13 H :    0.114744
  14 H :    0.110773
  15 H :    0.118601

  Mayer bond orders larger than 0.100000
B(  0-C ,  1-C ) :   0.9985 B(  0-C ,  2-C ) :   0.9186 B(  0-C , 11-H ) :   0.9904
B(  0-C , 12-H ) :   0.9952 B(  1-C ,  3-C ) :   1.6209 B(  1-C ,  8-H ) :   0.9898
B(  2-C , 13-H ) :   0.9857 B(  2-C , 14-H ) :   0.9741 B(  2-C , 15-H ) :   0.9816
B(  3-C ,  4-N ) :   1.1249 B(  3-C ,  5-N ) :   1.1155 B(  4-N ,  9-H ) :   0.9227
B(  4-N , 10-H ) :   0.9327 B(  5-N ,  6-H ) :   0.9310 B(  5-N ,  7-H ) :   0.9288

FINAL SINGLE POINT ENERGY      -267.299502191731

DIPOLE MOMENT
-------------
                                X             Y             Z
Electronic contribution:      1.19755       1.40143       4.56305
Nuclear contribution   :     -1.82485      -1.28952      -3.74132
                        -----------------------------------------
Total Dipole Moment    :     -0.62730       0.11191       0.82173
                        -----------------------------------------
Magnitude (a.u.)       :      1.03984
Magnitude (Debye)      :      2.64307

Rotational constants in cm-1:     0.245790     0.071632     0.062004
Rotational constants in MHz :  7368.599517  2147.482078  1858.844841

                             ****ORCA TERMINATED NORMALLY****
TOTAL RUN TIME: 0 days 0 hours 0 minutes 45 seconds 684 msec
