                         Program Version 5.0.0 -  RELEASE  -
|  1> !LC-BLYP RIJCOSX def2-TZVP def2/J TightSCF
|  2> *xyz 0 1
|  3> C          4.99986       -1.59613       -5.92488
|  4> N          5.28156       -1.97413       -4.53576
|  5> C          3.76678       -2.26611       -6.51175
|  6> C          4.79250       -1.36132       -3.45730
|  7> C          3.93990       -0.37492       -3.55736
|  8> N          5.25986       -1.75422       -2.23913
|  9> H          5.92282       -2.52145       -2.18672
| 10> H          4.65468       -1.64040       -1.44202
| 11> H          5.70914       -2.87560       -4.38702
| 12> H          3.33010       -0.31764       -4.36125
| 13> H          3.69849        0.11447       -2.70833
| 14> H          4.84333       -0.51793       -5.94302
| 15> H          5.90170       -1.82250       -6.49647
| 16> H          3.63046       -1.94025       -7.52177
| 17> H          2.90710       -2.00116       -5.93240
| 18> H          3.89538       -3.32820       -6.49392
| 19> *
| 20>
| 21> %MaxCore 64000
| 22>
| 23> %pal nprocs 4
| 24> end
| 25>
| 26> %scf
| 27>   MaxIter 150
| 28> end
| 29>
| 30>
| 31>                          ****END OF INPUT****

CARTESIAN COORDINATES (ANGSTROEM)
---------------------------------
  C      4.999860   -1.596130   -5.924880
  N      5.281560   -1.974130   -4.535760
  C      3.766780   -2.266110   -6.511750
  C      4.792500   -1.361320   -3.457300
  C      3.939900   -0.374920   -3.557360
  N      5.259860   -1.754220   -2.239130
  H      5.922820   -2.521450   -2.186720
  H      4.654680   -1.640400   -1.442020
  H      5.709140   -2.875600   -4.387020
  H      3.330100   -0.317640   -4.361250
  H      3.698490    0.114470   -2.708330
  H      4.843330   -0.517930   -5.943020
  H      5.901700   -1.822500   -6.496470
  H      3.630460   -1.940250   -7.521770
  H      2.907100   -2.001160   -5.932400
  H      3.895380   -3.328200   -6.493920

 Total Charge           Charge          ....    0
 Multiplicity           Mult            ....    1
 Number of Electrons    NEL             ....   48
 Basis Dimension        Dim             ....  246

ORBITAL ENERGIES
----------------

  NO   OCC          E(Eh)            E(eV)
   0   2.0000     -14.169720      -385.5777
   1   2.0000     -14.164570      -385.4375
   2   2.0000     -10.114106      -275.2188
   3   2.0000     -10.098153      -274.7847
   4   2.0000     -10.051447      -273.5138
   5   2.0000      -9.979779      -271.5636
   6   2.0000      -1.063284       -28.9334
   7   2.0000      -0.980417       -26.6785
   8   2.0000      -0.863834       -23.5061
   9   2.0000      -0.823014       -22.3953
  10   2.0000      -0.744906       -20.2699
  11   2.0000      -0.668952       -18.2031
  12   2.0000      -0.648307       -17.6413
  13   2.0000      -0.614911       -16.7326
  14   2.0000      -0.559063       -15.2129
  15   2.0000      -0.550263       -14.9734
  16   2.0000      -0.531544       -14.4641
  17   2.0000      -0.499080       -13.5807
  18   2.0000      -0.484225       -13.1764
  19   2.0000      -0.470193       -12.7946
  20   2.0000      -0.454120       -12.3572
  21   2.0000      -0.445277       -12.1166
  22   2.0000      -0.347898        -9.4668
  23   2.0000      -0.267361        -7.2753
  24   0.0000       0.085347         2.3224
  25   0.0000       0.114614         3.1188
  26   0.0000       0.128374         3.4932
  27   0.0000       0.147811         4.0221
  28   0.0000       0.155826         4.2402

MULLIKEN ATOMIC CHARGES
-----------------------
   0 C :   -0.226243
   1 N :   -0.291367
   2 C :   -0.328923
   3 C :    0.409279
   4 C :   -0.594410
   5 N :   -0.474788
   6 H :    0.207611
   7 H :    0.237808
   8 H :    0.187715
   9 H :    0.113880
  10 H :    0.087903
  11 H :    0.165748
  12 H :    0.132023
  13 H :    0.126305
  14 H :    0.135123
  15 H :    0.112338
Sum of atomic charges:   -0.0000000

LOEWDIN ATOMIC CHARGES
----------------------
   0 C :   -0.310252
   1 N :    0.113491
   2 C :   -0.320375
   3 C :   -0.458908
   4 C :   -0.338562
   5 N :   -0.036192
   6 H :    0.159369
   7 H :    0.170625
   8 H :    0.173654
   9 H :    0.104043
  10 H :    0.104009
  11 H :    0.145139
  12 H :    0.131941
  13 H :    0.122425
  14 H :    0.123446
  15 H :    0.116146

  Mayer bond orders larger than 0.100000
B(  0-C ,  1-N ) :   0.9132 B(  0-C ,  2-C ) :   0.9212 B(  0-C , 11-H ) :   0.9759
B(  0-C , 12-H ) :   0.9838 B(  1-N ,  3-C ) :   1.1441 B(  1-N ,  8-H ) :   0.9362
B(  2-C , 13-H ) :   0.9785 B(  2-C , 14-H ) :   0.9729 B(  2-C , 15-H ) :   0.9753
B(  3-C ,  4-C ) :   1.6092 B(  3-C ,  5-N ) :   1.0794 B(  4-C ,  9-H ) :   0.9950
B(  4-C , 10-H ) :   1.0160 B(  5-N ,  6-H ) :   0.9406 B(  5-N ,  7-H ) :   0.9279

FINAL SINGLE POINT ENERGY      -267.293449146730

DIPOLE MOMENT
-------------
                                X             Y             Z
Electronic contribution:      2.43863      -0.14672       3.52042
Nuclear contribution   :     -2.10948      -0.95026      -3.53375
                        -----------------------------------------
Total Dipole Moment    :      0.32915      -1.09698      -0.01333
                        -----------------------------------------
Magnitude (a.u.)       :      1.14538
Magnitude (Debye)      :      2.91131

Rotational constants in cm-1:     0.255209     0.072067     0.062929
Rotational constants in MHz :  7650.964615  2160.525743  1886.569524

                             ****ORCA TERMINATED NORMALLY****
TOTAL RUN TIME: 0 days 0 hours 0 minutes 47 seconds 276 msec
