                         Program Version 5.0.0 -  RELEASE  -
|  1> !LC-BLYP RIJCOSX def2-TZVP def2/J TightSCF
|  2> *xyz 0 1
|  3> C          4.99986       -1.59613       -5.92488
|  4> N          5.28156       -1.97413       -4.53576
|  5> C          3.76678       -2.26611       -6.51175
|  6> C          4.79250       -1.36132       -3.45730
|  7> N          3.93990       -0.37492       -3.55736
|  8> C          5.25986       -1.75422       -2.23913
|  9> H          5.92282       -2.52145       -2.18672
| 10> H          4.65468       -1.64040       -1.44202
| 11> H          5.70914       -2.87560       -4.38702
| 12> H          3.33010       -0.31764       -4.36125
| 13> H          3.69849        0.11447       -2.70833
| 14> H          4.84333       -0.51793       -5.94302
| 15> H          5.90170       -1.82250       -6.49647
| 16> H          3.63046       -1.94025       -7.52177
| 17> H          2.90710       -2.00116       -5.93240
| 18> H          3.89538       -3.32820       -6.49392
| 19> *
| 20>
| 21> %MaxCore 64000
| 22>
| 23> %pal nprocs 4
| 24> end
| 25>
| 26> %scf
| 27>   MaxIter 150
| 28> end
| 29>
| 30>
| 31>                          ****END OF INPUT****

CARTESIAN COORDINATES (ANGSTROEM)
---------------------------------
  C      4.999860   -1.596130   -5.924880
  N      5.281560   -1.974130   -4.535760
  C      3.766780   -2.266110   -6.511750
  C      4.792500   -1.361320   -3.457300
  N      3.939900   -0.374920   -3.557360
  C      5.259860   -1.754220   -2.239130
  H      5.922820   -2.521450   -2.186720
  H      4.654680   -1.640400   -1.442020
  H      5.709140   -2.875600   -4.387020
  H      3.330100   -0.317640   -4.361250
  H      3.698490    0.114470   -2.708330
  H      4.843330   -0.517930   -5.943020
  H      5.901700   -1.822500   -6.496470
  H      3.630460   -1.940250   -7.521770
  H      2.907100   -2.001160   -5.932400
  H      3.895380   -3.328200   -6.493920

 Total Charge           Charge          ....    0
 Multiplicity           Mult            ....    1
 Number of Electrons    NEL             ....   48
 Basis Dimension        Dim             ....  246

ORBITAL ENERGIES
----------------

  NO   OCC          E(Eh)            E(eV)
   0   2.0000     -14.173172      -385.6716
   1   2.0000     -14.170311      -385.5938
   2   2.0000     -10.119102      -275.3548
   3   2.0000     -10.107801      -275.0473
   4   2.0000     -10.063069      -273.8300
   5   2.0000      -9.975377      -271.4438
   6   2.0000      -1.073929       -29.2231
   7   2.0000      -0.991086       -26.9688
   8   2.0000      -0.882452       -24.0127
   9   2.0000      -0.804017       -21.8784
  10   2.0000      -0.736379       -20.0379
  11   2.0000      -0.709745       -19.3132
  12   2.0000      -0.651308       -17.7230
  13   2.0000      -0.604318       -16.4443
  14   2.0000      -0.585867       -15.9422
  15   2.0000      -0.549265       -14.9463
  16   2.0000      -0.536700       -14.6044
  17   2.0000      -0.507420       -13.8076
  18   2.0000      -0.489425       -13.3179
  19   2.0000      -0.466885       -12.7046
  20   2.0000      -0.462469       -12.5844
  21   2.0000      -0.447835       -12.1862
  22   2.0000      -0.355381        -9.6704
  23   2.0000      -0.253311        -6.8929
  24   0.0000       0.082082         2.2336
  25   0.0000       0.114795         3.1237
  26   0.0000       0.123447         3.3592
  27   0.0000       0.141021         3.8374
  28   0.0000       0.153991         4.1903

MULLIKEN ATOMIC CHARGES
-----------------------
   0 C :   -0.284330
   1 N :   -0.272385
   2 C :   -0.301820
   3 C :    0.362976
   4 N :   -0.433568
   5 C :   -0.571961
   6 H :    0.071337
   7 H :    0.092021
   8 H :    0.220409
   9 H :    0.222234
  10 H :    0.241368
  11 H :    0.152584
  12 H :    0.141925
  13 H :    0.128282
  14 H :    0.105409
  15 H :    0.125518
Sum of atomic charges:    0.0000000

LOEWDIN ATOMIC CHARGES
----------------------
   0 C :   -0.325093
   1 N :    0.120808
   2 C :   -0.322509
   3 C :   -0.467192
   4 N :    0.010945
   5 C :   -0.376659
   6 H :    0.095000
   7 H :    0.093490
   8 H :    0.191448
   9 H :    0.165428
  10 H :    0.184515
  11 H :    0.136932
  12 H :    0.135097
  13 H :    0.122587
  14 H :    0.115086
  15 H :    0.120115

  Mayer bond orders larger than 0.100000
B(  0-C ,  1-N ) :   0.9307 B(  0-C ,  2-C ) :   0.9149 B(  0-C , 11-H ) :   0.9852
B(  0-C , 12-H ) :   0.9843 B(  1-N ,  3-C ) :   1.1600 B(  1-N ,  8-H ) :   0.9329
B(  2-C , 13-H ) :   0.9770 B(  2-C , 14-H ) :   0.9664 B(  2-C , 15-H ) :   0.9757
B(  3-C ,  4-N ) :   1.1407 B(  3-C ,  5-C ) :   1.5595 B(  4-N ,  9-H ) :   0.9247
B(  4-N , 10-H ) :   0.9263 B(  5-C ,  6-H ) :   1.0359 B(  5-C ,  7-H ) :   0.9850

FINAL SINGLE POINT ENERGY      -267.287399383004

DIPOLE MOMENT
-------------
                                X             Y             Z
Electronic contribution:      1.12808       1.25626       2.10651
Nuclear contribution   :     -1.82946      -1.24287      -3.25410
                        -----------------------------------------
Total Dipole Moment    :     -0.70138       0.01339      -1.14759
                        -----------------------------------------
Magnitude (a.u.)       :      1.34502
Magnitude (Debye)      :      3.41876

Rotational constants in cm-1:     0.244672     0.074506     0.064043
Rotational constants in MHz :  7335.067153  2233.624025  1919.970379

                             ****ORCA TERMINATED NORMALLY****
TOTAL RUN TIME: 0 days 0 hours 0 minutes 46 seconds 71 msec
