                         Program Version 5.0.0 -  RELEASE  -
|  1> !LC-BLYP RIJCOSX def2-TZVP def2/J TightSCF xyzfile
|  2>
|  3> *xyzfile 0 1 D2.xyz
|  4>
|  5> %MaxCore 64000
|  6>
|  7> %pal nprocs 18
|  8> end
|  9>
| 10> %scf
| 11>   MaxIter 150
| 12> end
| 13>
| 14>
| 15>                          ****END OF INPUT****

CARTESIAN COORDINATES (ANGSTROEM)
---------------------------------
  C      4.999862   -1.596133   -5.924876
  N      5.281560   -1.974132   -4.535764
  C      3.766779   -2.266110   -6.511752
  C      2.496702   -1.844161   -5.735704
  H      1.626416   -2.217434   -6.308950
  H      2.481824   -2.456069   -4.793414
  F      2.459729   -0.509204   -5.505757
  C      4.792500   -1.361316   -3.457295
  C      3.939898   -0.374925   -3.557359
  N      5.259860   -1.754224   -2.239133
  H      5.922824   -2.521451   -2.186720
  H      4.654678   -1.640404   -1.442016
  H      5.709139   -2.875599   -4.387021
  H      3.330101   -0.317639   -4.361247
  H      3.698494    0.114468   -2.708333
  H      4.843333   -0.517930   -5.943019
  H      5.901695   -1.822503   -6.496467
  H      3.886191   -3.357076   -6.533604
  H      3.685602   -1.922168   -7.547128

 Total Charge           Charge          ....    0
 Multiplicity           Mult            ....    1
 Number of Electrons    NEL             ....   64
 Basis Dimension        Dim             ....  314

ORBITAL ENERGIES
----------------

  NO   OCC          E(Eh)            E(eV)
   0   2.0000     -24.451242      -665.3521
   1   2.0000     -14.166514      -385.4904
   2   2.0000     -14.156090      -385.2068
   3   2.0000     -10.149382      -276.1787
   4   2.0000     -10.102058      -274.8910
   5   2.0000     -10.100502      -274.8486
   6   2.0000     -10.078342      -274.2456
   7   2.0000      -9.953636      -270.8522
   8   2.0000      -1.304396       -35.4944
   9   2.0000      -1.058154       -28.7938
  10   2.0000      -0.976555       -26.5734
  11   2.0000      -0.892209       -24.2782
  12   2.0000      -0.816899       -22.2290
  13   2.0000      -0.800652       -21.7868
  14   2.0000      -0.719937       -19.5905
  15   2.0000      -0.673832       -18.3359
  16   2.0000      -0.654764       -17.8170
  17   2.0000      -0.621204       -16.9038
  18   2.0000      -0.619209       -16.8495
  19   2.0000      -0.600719       -16.3464
  20   2.0000      -0.586440       -15.9578
  21   2.0000      -0.558544       -15.1988
  22   2.0000      -0.529635       -14.4121
  23   2.0000      -0.508279       -13.8310
  24   2.0000      -0.487154       -13.2561
  25   2.0000      -0.478463       -13.0196
  26   2.0000      -0.457765       -12.4564
  27   2.0000      -0.444377       -12.0921
  28   2.0000      -0.431978       -11.7547
  29   2.0000      -0.400232       -10.8909
  30   2.0000      -0.344029        -9.3615
  31   2.0000      -0.255620        -6.9558
  32   0.0000       0.083749         2.2789
  33   0.0000       0.110345         3.0026
  34   0.0000       0.127438         3.4678
  35   0.0000       0.136308         3.7091
  36   0.0000       0.149812         4.0766

MULLIKEN ATOMIC CHARGES
-----------------------
   0 C :   -0.273535
   1 N :   -0.296455
   2 C :   -0.189802
   3 C :   -0.098636
   4 H :    0.130946
   5 H :    0.151470
   6 F :   -0.157093
   7 C :    0.383211
   8 C :   -0.598006
   9 N :   -0.481547
  10 H :    0.201828
  11 H :    0.235705
  12 H :    0.184131
  13 H :    0.139958
  14 H :    0.078921
  15 H :    0.202127
  16 H :    0.142974
  17 H :    0.120307
  18 H :    0.123493
Sum of atomic charges:   -0.0000000

LOEWDIN ATOMIC CHARGES
----------------------
   0 C :   -0.289667
   1 N :    0.110735
   2 C :   -0.289459
   3 C :   -0.376876
   4 H :    0.127692
   5 H :    0.138610
   6 F :    0.179697
   7 C :   -0.476990
   8 C :   -0.332768
   9 N :   -0.041819
  10 H :    0.155910
  11 H :    0.169311
  12 H :    0.171772
  13 H :    0.078955
  14 H :    0.100733
  15 H :    0.153274
  16 H :    0.136299
  17 H :    0.141570
  18 H :    0.143021

  Mayer bond orders larger than 0.100000
B(  0-C ,  1-N ) :   0.9011 B(  0-C ,  2-C ) :   0.9058 B(  0-C , 15-H ) :   0.9764
B(  0-C , 16-H ) :   0.9861 B(  1-N ,  7-C ) :   1.1204 B(  1-N , 12-H ) :   0.9337
B(  2-C ,  3-C ) :   0.9452 B(  2-C , 17-H ) :   0.9547 B(  2-C , 18-H ) :   0.9732
B(  3-C ,  4-H ) :   0.9717 B(  3-C ,  5-H ) :   0.9842 B(  3-C ,  6-F ) :   0.9786
B(  7-C ,  8-C ) :   1.6256 B(  7-C ,  9-N ) :   1.0600 B(  8-C , 13-H ) :   0.9890
B(  8-C , 14-H ) :   1.0189 B(  9-N , 10-H ) :   0.9419 B(  9-N , 11-H ) :   0.9282

FINAL SINGLE POINT ENERGY      -405.621203361105

DIPOLE MOMENT
-------------
                                X             Y             Z
Electronic contribution:     -2.24968       2.63137      -0.13082
Nuclear contribution   :      2.43398      -4.26587      -0.19921
                        -----------------------------------------
Total Dipole Moment    :      0.18430      -1.63450      -0.33003
                        -----------------------------------------
Magnitude (a.u.)       :      1.67764
Magnitude (Debye)      :      4.26423

Rotational constants in cm-1:     0.110089     0.049944     0.039407
Rotational constants in MHz :  3300.378855  1497.273856  1181.385913

                             ****ORCA TERMINATED NORMALLY****
TOTAL RUN TIME: 0 days 0 hours 0 minutes 20 seconds 985 msec
