                         Program Version 5.0.0 -  RELEASE  -
|  1> !LC-BLYP RIJCOSX def2-TZVP def2/J TightSCF xyzfile
|  2>
|  3> *xyzfile 0 1 D3.xyz
|  4>
|  5> %MaxCore 64000
|  6>
|  7> %pal nprocs 18
|  8> end
|  9>
| 10> %scf
| 11>   MaxIter 150
| 12> end
| 13>
| 14>
| 15>                          ****END OF INPUT****

CARTESIAN COORDINATES (ANGSTROEM)
---------------------------------
  C      4.999862   -1.596133   -5.924876
  N      5.281560   -1.974132   -4.535764
  C      3.766779   -2.266110   -6.511752
  C      2.496702   -1.844161   -5.735704
  H      1.626416   -2.217434   -6.308950
  H      2.481824   -2.456069   -4.793414
  F      2.459729   -0.509204   -5.505757
  C      4.792500   -1.361316   -3.457295
  N      3.939898   -0.374925   -3.557359
  C      5.259860   -1.754224   -2.239133
  H      5.922824   -2.521451   -2.186720
  H      4.654678   -1.640404   -1.442016
  H      5.709139   -2.875599   -4.387021
  H      3.330101   -0.317639   -4.361247
  H      3.698494    0.114468   -2.708333
  H      4.843333   -0.517930   -5.943019
  H      5.901695   -1.822503   -6.496467
  H      3.886191   -3.357076   -6.533604
  H      3.685602   -1.922168   -7.547128

 Total Charge           Charge          ....    0
 Multiplicity           Mult            ....    1
 Number of Electrons    NEL             ....   64
 Basis Dimension        Dim             ....  314

ORBITAL ENERGIES
----------------

  NO   OCC          E(Eh)            E(eV)
   0   2.0000     -24.489372      -666.3897
   1   2.0000     -14.168393      -385.5416
   2   2.0000     -14.142917      -384.8483
   3   2.0000     -10.170123      -276.7431
   4   2.0000     -10.110034      -275.1080
   5   2.0000     -10.109588      -275.0959
   6   2.0000     -10.090923      -274.5880
   7   2.0000      -9.966385      -271.1991
   8   2.0000      -1.340148       -36.4673
   9   2.0000      -1.065360       -28.9899
  10   2.0000      -0.982706       -26.7408
  11   2.0000      -0.908677       -24.7264
  12   2.0000      -0.837594       -22.7921
  13   2.0000      -0.778492       -21.1838
  14   2.0000      -0.727996       -19.8098
  15   2.0000      -0.703485       -19.1428
  16   2.0000      -0.682485       -18.5714
  17   2.0000      -0.649812       -17.6823
  18   2.0000      -0.622055       -16.9270
  19   2.0000      -0.609249       -16.5785
  20   2.0000      -0.575642       -15.6640
  21   2.0000      -0.571915       -15.5626
  22   2.0000      -0.540805       -14.7160
  23   2.0000      -0.526175       -14.3179
  24   2.0000      -0.490836       -13.3563
  25   2.0000      -0.479438       -13.0462
  26   2.0000      -0.470852       -12.8125
  27   2.0000      -0.454985       -12.3808
  28   2.0000      -0.442272       -12.0348
  29   2.0000      -0.440249       -11.9798
  30   2.0000      -0.345760        -9.4086
  31   2.0000      -0.244972        -6.6660
  32   0.0000       0.085905         2.3376
  33   0.0000       0.115889         3.1535
  34   0.0000       0.121420         3.3040
  35   0.0000       0.125997         3.4286
  36   0.0000       0.147500         4.0137

MULLIKEN ATOMIC CHARGES
-----------------------
   0 C :   -0.326547
   1 N :   -0.277615
   2 C :   -0.179678
   3 C :   -0.114502
   4 H :    0.143701
   5 H :    0.164968
   6 F :   -0.181381
   7 C :    0.320104
   8 N :   -0.442521
   9 C :   -0.567376
  10 H :    0.063837
  11 H :    0.087528
  12 H :    0.218201
  13 H :    0.250925
  14 H :    0.229066
  15 H :    0.197887
  16 H :    0.151914
  17 H :    0.133245
  18 H :    0.128245
Sum of atomic charges:   -0.0000000

LOEWDIN ATOMIC CHARGES
----------------------
   0 C :   -0.303405
   1 N :    0.120520
   2 C :   -0.289084
   3 C :   -0.376005
   4 H :    0.132767
   5 H :    0.142864
   6 F :    0.177700
   7 C :   -0.479633
   8 N :    0.009389
   9 C :   -0.387485
  10 H :    0.092213
  11 H :    0.092422
  12 H :    0.190180
  13 H :    0.122855
  14 H :    0.179059
  15 H :    0.146290
  16 H :    0.139295
  17 H :    0.146081
  18 H :    0.143975

  Mayer bond orders larger than 0.100000
B(  0-C ,  1-N ) :   0.9169 B(  0-C ,  2-C ) :   0.8849 B(  0-C , 15-H ) :   0.9849
B(  0-C , 16-H ) :   0.9867 B(  1-N ,  7-C ) :   1.1369 B(  1-N , 12-H ) :   0.9334
B(  2-C ,  3-C ) :   0.9403 B(  2-C , 17-H ) :   0.9525 B(  2-C , 18-H ) :   0.9731
B(  3-C ,  4-H ) :   0.9748 B(  3-C ,  5-H ) :   0.9807 B(  3-C ,  6-F ) :   0.9443
B(  6-F , 13-H ) :   0.1160 B(  7-C ,  8-N ) :   1.1894 B(  7-C ,  9-C ) :   1.5822
B(  8-N , 13-H ) :   0.8680 B(  8-N , 14-H ) :   0.9326 B(  9-C , 10-H ) :   1.0297
B(  9-C , 11-H ) :   0.9905

FINAL SINGLE POINT ENERGY      -405.635687555778

DIPOLE MOMENT
-------------
                                X             Y             Z
Electronic contribution:     -3.50675       3.85550      -1.54002
Nuclear contribution   :      2.63642      -4.47741       0.00296
                        -----------------------------------------
Total Dipole Moment    :     -0.87033      -0.62190      -1.53706
                        -----------------------------------------
Magnitude (a.u.)       :      1.87265
Magnitude (Debye)      :      4.75989

Rotational constants in cm-1:     0.108041     0.051979     0.040387
Rotational constants in MHz :  3238.993235  1558.297571  1210.782552

                             ****ORCA TERMINATED NORMALLY****
TOTAL RUN TIME: 0 days 0 hours 0 minutes 25 seconds 498 msec
