                         Program Version 5.0.0 -  RELEASE  -
|  1> !CAM-B3LYP RIJCOSX def2-SVPD def2/J TightSCF
|  2> *xyz -1 1
|  3> C         -0.29041        0.95134       -5.15342
|  4> C         -0.05517        1.61942       -3.78858
|  5> H          0.04501        0.86230       -3.00301
|  6> H         -0.92294        2.23033       -3.51703
|  7> C          1.22302        2.46987       -3.75691
|  8> H          1.11470        3.25807       -4.53300
|  9> H          1.23773        3.01124       -2.79216
| 10> O          2.35381        1.71203       -3.93448
| 11> H         -0.38575        1.70447       -5.90748
| 12> H         -1.18723        0.36894       -5.11561
| 13> H          0.53806        0.31571       -5.38692
| 14> *
| 15>
| 16> %MaxCore 64000
| 17>
| 18> %pal nprocs 4
| 19> end
| 20>
| 21> %scf
| 22>   MaxIter 150
| 23> end
| 24>
| 25>
| 26>                          ****END OF INPUT****

CARTESIAN COORDINATES (ANGSTROEM)
---------------------------------
  C     -0.290410    0.951340   -5.153420
  C     -0.055170    1.619420   -3.788580
  H      0.045010    0.862300   -3.003010
  H     -0.922940    2.230330   -3.517030
  C      1.223020    2.469870   -3.756910
  H      1.114700    3.258070   -4.533000
  H      1.237730    3.011240   -2.792160
  O      2.353810    1.712030   -3.934480
  H     -0.385750    1.704470   -5.907480
  H     -1.187230    0.368940   -5.115610
  H      0.538060    0.315710   -5.386920

 Total Charge           Charge          ....   -1
 Multiplicity           Mult            ....    1
 Number of Electrons    NEL             ....   34
 Basis Dimension        Dim             ....  139

ORBITAL ENERGIES
----------------

  NO   OCC          E(Eh)            E(eV)
   0   2.0000     -18.881595      -513.7943
   1   2.0000     -10.077822      -274.2315
   2   2.0000     -10.074559      -274.1427
   3   2.0000     -10.067296      -273.9450
   4   2.0000      -0.754771       -20.5384
   5   2.0000      -0.657748       -17.8982
   6   2.0000      -0.541645       -14.7389
   7   2.0000      -0.437718       -11.9109
   8   2.0000      -0.343814        -9.3556
   9   2.0000      -0.337092        -9.1727
  10   2.0000      -0.289205        -7.8697
  11   2.0000      -0.254668        -6.9299
  12   2.0000      -0.227532        -6.1915
  13   2.0000      -0.219467        -5.9720
  14   2.0000      -0.177259        -4.8235
  15   2.0000      -0.036124        -0.9830
  16   2.0000      -0.033456        -0.9104
  17   0.0000       0.193522         5.2660
  18   0.0000       0.218772         5.9531
  19   0.0000       0.235145         6.3986
  20   0.0000       0.267183         7.2704
  21   0.0000       0.283208         7.7065

MULLIKEN ATOMIC CHARGES
-----------------------
   0 C :    0.790057
   1 C :   -0.348421
   2 H :   -0.126931
   3 H :   -0.155196
   4 C :    0.525175
   5 H :   -0.164706
   6 H :   -0.232511
   7 O :   -0.888638
   8 H :   -0.139019
   9 H :   -0.163988
  10 H :   -0.095822
Sum of atomic charges:   -1.0000000

LOEWDIN ATOMIC CHARGES
----------------------
   0 C :    0.093420
   1 C :   -0.111061
   2 H :    0.002354
   3 H :   -0.014450
   4 C :   -0.220714
   5 H :   -0.026475
   6 H :   -0.032312
   7 O :   -0.571344
   8 H :   -0.036652
   9 H :   -0.050419
  10 H :   -0.032345

  Mayer bond orders larger than 0.100000
B(  0-C ,  1-C ) :   1.2366 B(  0-C ,  8-H ) :   0.7913 B(  0-C ,  9-H ) :   0.7631
B(  0-C , 10-H ) :   0.8132 B(  1-C ,  2-H ) :   0.9545 B(  1-C ,  3-H ) :   0.9819
B(  1-C ,  4-C ) :   1.0414 B(  1-C ,  5-H ) :   0.1257 B(  1-C ,  6-H ) :   0.1531
B(  1-C ,  8-H ) :   0.1973 B(  1-C ,  9-H ) :   0.2120 B(  1-C , 10-H ) :   0.2139
B(  2-H ,  4-C ) :   0.1493 B(  4-C ,  5-H ) :   0.9309 B(  4-C ,  6-H ) :   0.9309
B(  4-C ,  7-O ) :   1.1759

FINAL SINGLE POINT ENERGY      -193.511249818749

DIPOLE MOMENT
-------------
                                X             Y             Z
Electronic contribution:      2.82999      -0.01878       0.71050
Nuclear contribution   :     -4.97104      -0.06484      -1.04325
                        -----------------------------------------
Total Dipole Moment    :     -2.14105      -0.08361      -0.33275
                        -----------------------------------------
Magnitude (a.u.)       :      2.16837
Magnitude (Debye)      :      5.51155

Rotational constants in cm-1:     0.508668     0.174500     0.148765
Rotational constants in MHz : 15249.486055  5231.367342  4459.875680

                             ****ORCA TERMINATED NORMALLY****
TOTAL RUN TIME: 0 days 0 hours 0 minutes 14 seconds 66 msec
