                         Program Version 5.0.0 -  RELEASE  -
|  1> !CAM-B3LYP RIJCOSX def2-SVPD def2/J TightSCF
|  2> *xyz 1 1
|  3> C          1.63556       -1.67040       -5.29211
|  4> C          0.33848       -1.50091       -4.50540
|  5> N          2.48451       -0.50741       -5.14039
|  6> C         -0.68487       -0.52803       -5.09989
|  7> H          1.39834       -1.82924       -6.35259
|  8> H          2.15586       -2.56540       -4.93209
|  9> C          3.45115       -0.14953       -5.95259
| 10> N          3.92267        1.08956       -5.85071
| 11> N          3.96616       -1.00618       -6.86788
| 12> H          3.52139       -1.90647       -6.99527
| 13> H          4.44482       -0.62347       -7.67035
| 14> H          2.25200        0.24080       -4.49879
| 15> H          3.46428        1.64078       -5.13639
| 16> H          4.83447        1.31375       -6.22465
| 17> H          0.59489       -1.21158       -3.48231
| 18> H         -0.12653       -2.48766       -4.43418
| 19> H         -0.92267       -0.82721       -6.09931
| 20> H         -0.27317        0.45953       -5.11162
| 21> H         -1.57350       -0.53693       -4.50394
| 22> *
| 23>
| 24> %MaxCore 64000
| 25>
| 26> %pal nprocs 4
| 27> end
| 28>
| 29> %scf
| 30>   MaxIter 150
| 31> end
| 32>
| 33>
| 34>                          ****END OF INPUT****

CARTESIAN COORDINATES (ANGSTROEM)
---------------------------------
  C      1.635560   -1.670400   -5.292110
  C      0.338480   -1.500910   -4.505400
  N      2.484510   -0.507410   -5.140390
  C     -0.684870   -0.528030   -5.099890
  H      1.398340   -1.829240   -6.352590
  H      2.155860   -2.565400   -4.932090
  C      3.451150   -0.149530   -5.952590
  N      3.922670    1.089560   -5.850710
  N      3.966160   -1.006180   -6.867880
  H      3.521390   -1.906470   -6.995270
  H      4.444820   -0.623470   -7.670350
  H      2.252000    0.240800   -4.498790
  H      3.464280    1.640780   -5.136390
  H      4.834470    1.313750   -6.224650
  H      0.594890   -1.211580   -3.482310
  H     -0.126530   -2.487660   -4.434180
  H     -0.922670   -0.827210   -6.099310
  H     -0.273170    0.459530   -5.111620
  H     -1.573500   -0.536930   -4.503940

 Total Charge           Charge          ....    1
 Multiplicity           Mult            ....    1
 Number of Electrons    NEL             ....   56
 Basis Dimension        Dim             ....  236

ORBITAL ENERGIES
----------------

  NO   OCC          E(Eh)            E(eV)
   0   2.0000     -14.630702      -398.1216
   1   2.0000     -14.628185      -398.0531
   2   2.0000     -14.626394      -398.0044
   3   2.0000     -10.595574      -288.3202
   4   2.0000     -10.463778      -284.7339
   5   2.0000     -10.403525      -283.0943
   6   2.0000     -10.373486      -282.2769
   7   2.0000      -1.295905       -35.2634
   8   2.0000      -1.180313       -32.1180
   9   2.0000      -1.166580       -31.7443
  10   2.0000      -1.020744       -27.7759
  11   2.0000      -0.935512       -25.4566
  12   2.0000      -0.897866       -24.4322
  13   2.0000      -0.855312       -23.2742
  14   2.0000      -0.839184       -22.8354
  15   2.0000      -0.804020       -21.8785
  16   2.0000      -0.760609       -20.6972
  17   2.0000      -0.753545       -20.5050
  18   2.0000      -0.728461       -19.8224
  19   2.0000      -0.714027       -19.4297
  20   2.0000      -0.666267       -18.1300
  21   2.0000      -0.644634       -17.5414
  22   2.0000      -0.622696       -16.9444
  23   2.0000      -0.567949       -15.4547
  24   2.0000      -0.552059       -15.0223
  25   2.0000      -0.549263       -14.9462
  26   2.0000      -0.542596       -14.7648
  27   2.0000      -0.514358       -13.9964
  28   0.0000      -0.124459        -3.3867
  29   0.0000      -0.119681        -3.2567
  30   0.0000      -0.090486        -2.4622
  31   0.0000      -0.072300        -1.9674
  32   0.0000      -0.053251        -1.4490

MULLIKEN ATOMIC CHARGES
-----------------------
   0 C :    0.580866
   1 C :   -0.106911
   2 N :   -0.361343
   3 C :    0.950077
   4 H :   -0.055008
   5 H :   -0.208401
   6 C :    1.040407
   7 N :    0.128046
   8 N :    0.071069
   9 H :   -0.037860
  10 H :   -0.110005
  11 H :   -0.147429
  12 H :   -0.000656
  13 H :   -0.137878
  14 H :   -0.130500
  15 H :   -0.142532
  16 H :   -0.074122
  17 H :   -0.134126
  18 H :   -0.123693
Sum of atomic charges:    1.0000000

LOEWDIN ATOMIC CHARGES
----------------------
   0 C :    0.055848
   1 C :   -0.052877
   2 N :    0.048523
   3 C :    0.144554
   4 H :    0.039001
   5 H :    0.042566
   6 C :   -0.038437
   7 N :    0.267019
   8 N :    0.284826
   9 H :    0.014650
  10 H :    0.035030
  11 H :    0.051473
  12 H :    0.032372
  13 H :    0.043668
  14 H :    0.029608
  15 H :    0.036687
  16 H :   -0.008860
  17 H :   -0.023860
  18 H :   -0.001790

  Mayer bond orders larger than 0.100000
B(  0-C ,  1-C ) :   1.1913 B(  0-C ,  2-N ) :   0.9913 B(  0-C ,  4-H ) :   0.7884
B(  0-C ,  5-H ) :   0.8915 B(  0-C , 11-H ) :  -0.1276 B(  0-C , 14-H ) :   0.1561
B(  0-C , 15-H ) :   0.2299 B(  1-C ,  2-N ) :   0.1115 B(  1-C ,  3-C ) :   1.2595
B(  1-C , 14-H ) :   0.8394 B(  1-C , 15-H ) :   0.8084 B(  1-C , 16-H ) :   0.2027
B(  1-C , 17-H ) :   0.2384 B(  1-C , 18-H ) :   0.2535 B(  2-N ,  4-H ) :   0.1768
B(  2-N ,  5-H ) :   0.1256 B(  2-N ,  6-C ) :   1.1181 B(  2-N ,  7-N ) :   0.2855
B(  2-N ,  8-N ) :   0.1967 B(  2-N , 11-H ) :   1.1630 B(  3-C , 16-H ) :   0.7691
B(  3-C , 17-H ) :   0.7637 B(  3-C , 18-H ) :   0.7270 B(  6-C ,  7-N ) :   1.0103
B(  6-C ,  8-N ) :   0.9843 B(  6-C ,  9-H ) :  -0.1155 B(  6-C , 10-H ) :  -0.1195
B(  6-C , 11-H ) :  -0.2526 B(  6-C , 13-H ) :  -0.1070 B(  7-N ,  8-N ) :   0.1380
B(  7-N , 12-H ) :   1.0691 B(  7-N , 13-H ) :   1.2220 B(  8-N ,  9-H ) :   1.0491
B(  8-N , 10-H ) :   1.2160 B(  9-H , 10-H ) :  -0.1559 B( 12-H , 13-H ) :  -0.1474

FINAL SINGLE POINT ENERGY      -323.326309893752

DIPOLE MOMENT
-------------
                                X             Y             Z
Electronic contribution:      7.35681       1.74506      -1.60276
Nuclear contribution   :     -5.91327      -1.13589       1.03073
                        -----------------------------------------
Total Dipole Moment    :      1.44353       0.60917      -0.57204
                        -----------------------------------------
Magnitude (a.u.)       :      1.66797
Magnitude (Debye)      :      4.23964

Rotational constants in cm-1:     0.176161     0.043658     0.038822
Rotational constants in MHz :  5281.161077  1308.843263  1163.840625

                             ****ORCA TERMINATED NORMALLY****
TOTAL RUN TIME: 0 days 0 hours 0 minutes 48 seconds 779 msec
