                         Program Version 5.0.0 -  RELEASE  -
|  1> !CAM-B3LYP RIJCOSX def2-SVPD def2/J TightSCF
|  2> *xyz 0 1
|  3> C         -0.29041        0.95134       -5.15342
|  4> C         -0.05517        1.61942       -3.78858
|  5> H          0.04501        0.86230       -3.00301
|  6> H         -0.92294        2.23033       -3.51703
|  7> C          1.22302        2.46987       -3.75691
|  8> H          1.11470        3.25807       -4.53300
|  9> H          1.23773        3.01124       -2.79216
| 10> F          2.35381        1.71203       -3.93448
| 11> H         -0.38575        1.70447       -5.90748
| 12> H         -1.18723        0.36894       -5.11561
| 13> H          0.53806        0.31571       -5.38692
| 14> *
| 15>
| 16> %MaxCore 64000
| 17>
| 18> %pal nprocs 4
| 19> end
| 20>
| 21> %scf
| 22>   MaxIter 150
| 23> end
| 24>
| 25>
| 26>                          ****END OF INPUT****

CARTESIAN COORDINATES (ANGSTROEM)
---------------------------------
  C     -0.290410    0.951340   -5.153420
  C     -0.055170    1.619420   -3.788580
  H      0.045010    0.862300   -3.003010
  H     -0.922940    2.230330   -3.517030
  C      1.223020    2.469870   -3.756910
  H      1.114700    3.258070   -4.533000
  H      1.237730    3.011240   -2.792160
  F      2.353810    1.712030   -3.934480
  H     -0.385750    1.704470   -5.907480
  H     -1.187230    0.368940   -5.115610
  H      0.538060    0.315710   -5.386920

 Total Charge           Charge          ....    0
 Multiplicity           Mult            ....    1
 Number of Electrons    NEL             ....   34
 Basis Dimension        Dim             ....  139

ORBITAL ENERGIES
----------------

  NO   OCC          E(Eh)            E(eV)
   0   2.0000     -24.762625      -673.8253
   1   2.0000     -10.338478      -281.3243
   2   2.0000     -10.266110      -279.3551
   3   2.0000     -10.247087      -278.8374
   4   2.0000      -1.265644       -34.4399
   5   2.0000      -0.866411       -23.5762
   6   2.0000      -0.765053       -20.8182
   7   2.0000      -0.672246       -18.2927
   8   2.0000      -0.585080       -15.9208
   9   2.0000      -0.569337       -15.4924
  10   2.0000      -0.542972       -14.7750
  11   2.0000      -0.506465       -13.7816
  12   2.0000      -0.472173       -12.8485
  13   2.0000      -0.446361       -12.1461
  14   2.0000      -0.420148       -11.4328
  15   2.0000      -0.396070       -10.7776
  16   2.0000      -0.394433       -10.7331
  17   0.0000       0.051519         1.4019
  18   0.0000       0.076604         2.0845
  19   0.0000       0.085457         2.3254
  20   0.0000       0.101447         2.7605
  21   0.0000       0.126979         3.4553

MULLIKEN ATOMIC CHARGES
-----------------------
   0 C :    0.816118
   1 C :   -0.321604
   2 H :   -0.135522
   3 H :   -0.141173
   4 C :    0.825673
   5 H :   -0.091924
   6 H :   -0.152029
   7 F :   -0.435579
   8 H :   -0.122628
   9 H :   -0.137126
  10 H :   -0.104206
Sum of atomic charges:    0.0000000

LOEWDIN ATOMIC CHARGES
----------------------
   0 C :    0.126803
   1 C :   -0.063364
   2 H :    0.023319
   3 H :    0.024236
   4 C :    0.092604
   5 H :    0.035055
   6 H :    0.030137
   7 F :   -0.212243
   8 H :   -0.019102
   9 H :   -0.020623
  10 H :   -0.016822

  Mayer bond orders larger than 0.100000
B(  0-C ,  1-C ) :   1.2718 B(  0-C ,  8-H ) :   0.7858 B(  0-C ,  9-H ) :   0.7850
B(  0-C , 10-H ) :   0.8018 B(  1-C ,  2-H ) :   0.9413 B(  1-C ,  3-H ) :   0.9482
B(  1-C ,  4-C ) :   1.1717 B(  1-C ,  5-H ) :   0.1002 B(  1-C ,  6-H ) :   0.1229
B(  1-C ,  8-H ) :   0.1830 B(  1-C ,  9-H ) :   0.2008 B(  1-C , 10-H ) :   0.1958
B(  2-H ,  4-C ) :   0.1040 B(  4-C ,  5-H ) :   0.8942 B(  4-C ,  6-H ) :   0.8913
B(  4-C ,  7-F ) :   0.7437

FINAL SINGLE POINT ENERGY      -218.125177605133

DIPOLE MOMENT
-------------
                                X             Y             Z
Electronic contribution:      6.15223       0.40521       1.40717
Nuclear contribution   :     -6.82889      -0.09322      -1.32039
                        -----------------------------------------
Total Dipole Moment    :     -0.67665       0.31199       0.08678
                        -----------------------------------------
Magnitude (a.u.)       :      0.75015
Magnitude (Debye)      :      1.90673

Rotational constants in cm-1:     0.494282     0.164406     0.140369
Rotational constants in MHz : 14818.207649  4928.760399  4208.156468

                             ****ORCA TERMINATED NORMALLY****
TOTAL RUN TIME: 0 days 0 hours 0 minutes 13 seconds 129 msec
