                         Program Version 5.0.0 -  RELEASE  -
|  1> !CAM-B3LYP RIJCOSX def2-SVPD def2/J TightSCF
|  2> *xyz 0 1
|  3> C          1.63556       -1.67040       -5.29211
|  4> C          0.33848       -1.50091       -4.50540
|  5> C          2.48451       -0.50741       -5.14039
|  6> C         -0.68487       -0.52803       -5.09989
|  7> H          1.39834       -1.82924       -6.35259
|  8> H          2.15586       -2.56540       -4.93209
|  9> C          3.45115       -0.14953       -5.95259
| 10> N          3.92267        1.08956       -5.85071
| 11> N          3.96616       -1.00618       -6.86788
| 12> H          3.52139       -1.90647       -6.99527
| 13> H          4.44482       -0.62347       -7.67035
| 14> H          2.25200        0.24080       -4.49879
| 15> H          3.46428        1.64078       -5.13639
| 16> H          4.83447        1.31375       -6.22465
| 17> H          0.59489       -1.21158       -3.48231
| 18> H         -0.12653       -2.48766       -4.43418
| 19> H         -0.92267       -0.82721       -6.09931
| 20> H         -0.27317        0.45953       -5.11162
| 21> H         -1.57350       -0.53693       -4.50394
| 22> *
| 23>
| 24> %MaxCore 64000
| 25>
| 26> %pal nprocs 4
| 27> end
| 28>
| 29> %scf
| 30>   MaxIter 150
| 31> end
| 32>
| 33>
| 34>                          ****END OF INPUT****

CARTESIAN COORDINATES (ANGSTROEM)
---------------------------------
  C      1.635560   -1.670400   -5.292110
  C      0.338480   -1.500910   -4.505400
  C      2.484510   -0.507410   -5.140390
  C     -0.684870   -0.528030   -5.099890
  H      1.398340   -1.829240   -6.352590
  H      2.155860   -2.565400   -4.932090
  C      3.451150   -0.149530   -5.952590
  N      3.922670    1.089560   -5.850710
  N      3.966160   -1.006180   -6.867880
  H      3.521390   -1.906470   -6.995270
  H      4.444820   -0.623470   -7.670350
  H      2.252000    0.240800   -4.498790
  H      3.464280    1.640780   -5.136390
  H      4.834470    1.313750   -6.224650
  H      0.594890   -1.211580   -3.482310
  H     -0.126530   -2.487660   -4.434180
  H     -0.922670   -0.827210   -6.099310
  H     -0.273170    0.459530   -5.111620
  H     -1.573500   -0.536930   -4.503940

 Total Charge           Charge          ....    0
 Multiplicity           Mult            ....    1
 Number of Electrons    NEL             ....   56
 Basis Dimension        Dim             ....  236

ORBITAL ENERGIES
----------------

  NO   OCC          E(Eh)            E(eV)
   0   2.0000     -14.406766      -392.0280
   1   2.0000     -14.401430      -391.8828
   2   2.0000     -10.299935      -280.2755
   3   2.0000     -10.238358      -278.5999
   4   2.0000     -10.234554      -278.4964
   5   2.0000     -10.229695      -278.3642
   6   2.0000     -10.181486      -277.0523
   7   2.0000      -1.034125       -28.1400
   8   2.0000      -0.943736       -25.6804
   9   2.0000      -0.865437       -23.5497
  10   2.0000      -0.799889       -21.7661
  11   2.0000      -0.734373       -19.9833
  12   2.0000      -0.665289       -18.1034
  13   2.0000      -0.643691       -17.5157
  14   2.0000      -0.605637       -16.4802
  15   2.0000      -0.585303       -15.9269
  16   2.0000      -0.536960       -14.6114
  17   2.0000      -0.514969       -14.0130
  18   2.0000      -0.507151       -13.8003
  19   2.0000      -0.483082       -13.1453
  20   2.0000      -0.457155       -12.4398
  21   2.0000      -0.443675       -12.0730
  22   2.0000      -0.431310       -11.7365
  23   2.0000      -0.393374       -10.7042
  24   2.0000      -0.383148       -10.4260
  25   2.0000      -0.377808       -10.2807
  26   2.0000      -0.331254        -9.0139
  27   2.0000      -0.222039        -6.0420
  28   0.0000       0.048436         1.3180
  29   0.0000       0.069981         1.9043
  30   0.0000       0.072753         1.9797
  31   0.0000       0.091130         2.4798
  32   0.0000       0.100563         2.7365

MULLIKEN ATOMIC CHARGES
-----------------------
   0 C :    0.350555
   1 C :    0.037911
   2 C :   -0.051712
   3 C :    0.951608
   4 H :   -0.104663
   5 H :   -0.212013
   6 C :    0.440778
   7 N :    0.149595
   8 N :    0.034202
   9 H :   -0.040926
  10 H :   -0.196357
  11 H :   -0.509494
  12 H :    0.042964
  13 H :   -0.252135
  14 H :   -0.092042
  15 H :   -0.178677
  16 H :   -0.098658
  17 H :   -0.136395
  18 H :   -0.134541
Sum of atomic charges:   -0.0000000

LOEWDIN ATOMIC CHARGES
----------------------
   0 C :   -0.076939
   1 C :   -0.084481
   2 C :   -0.034897
   3 C :    0.126067
   4 H :    0.018440
   5 H :    0.018822
   6 C :   -0.227867
   7 N :    0.178437
   8 N :    0.207167
   9 H :   -0.016326
  10 H :   -0.013705
  11 H :   -0.051094
  12 H :    0.000533
  13 H :   -0.008328
  14 H :    0.020195
  15 H :    0.012202
  16 H :   -0.020309
  17 H :   -0.025315
  18 H :   -0.022601

  Mayer bond orders larger than 0.100000
B(  0-C ,  1-C ) :   1.1972 B(  0-C ,  2-C ) :   0.8985 B(  0-C ,  4-H ) :   0.7697
B(  0-C ,  5-H ) :   0.7106 B(  0-C , 11-H ) :   0.2967 B(  0-C , 14-H ) :   0.1972
B(  0-C , 15-H ) :   0.2803 B(  1-C ,  2-C ) :   0.2116 B(  1-C ,  3-C ) :   1.2422
B(  1-C , 14-H ) :   0.8168 B(  1-C , 15-H ) :   0.7275 B(  1-C , 16-H ) :   0.2093
B(  1-C , 17-H ) :   0.2471 B(  1-C , 18-H ) :   0.2515 B(  2-C ,  4-H ) :   0.1833
B(  2-C ,  5-H ) :   0.2867 B(  2-C ,  6-C ) :   1.5993 B(  2-C ,  7-N ) :   0.3438
B(  2-C ,  8-N ) :   0.2314 B(  2-C ,  9-H ) :  -0.1200 B(  2-C , 11-H ) :   0.7125
B(  2-C , 12-H ) :  -0.1075 B(  3-C , 16-H ) :   0.7729 B(  3-C , 17-H ) :   0.7758
B(  3-C , 18-H ) :   0.7088 B(  4-H , 11-H ) :   0.1108 B(  6-C ,  7-N ) :   0.9821
B(  6-C ,  8-N ) :   1.0088 B(  7-N ,  8-N ) :   0.1002 B(  7-N , 12-H ) :   1.0430
B(  7-N , 13-H ) :   1.2249 B(  8-N ,  9-H ) :   1.0577 B(  8-N , 10-H ) :   1.2049
B(  9-H , 10-H ) :  -0.1334 B( 12-H , 13-H ) :  -0.1478

FINAL SINGLE POINT ENERGY      -306.855370533508

DIPOLE MOMENT
-------------
                                X             Y             Z
Electronic contribution:      6.37165       1.42598      -1.65109
Nuclear contribution   :     -5.84539      -1.11717       1.11949
                        -----------------------------------------
Total Dipole Moment    :      0.52626       0.30881      -0.53160
                        -----------------------------------------
Magnitude (a.u.)       :      0.80927
Magnitude (Debye)      :      2.05700

Rotational constants in cm-1:     0.177055     0.043715     0.038831
Rotational constants in MHz :  5307.971484  1310.555422  1164.112547

                             ****ORCA TERMINATED NORMALLY****
TOTAL RUN TIME: 0 days 0 hours 0 minutes 49 seconds 934 msec
