                         Program Version 5.0.0 -  RELEASE  -
|  1> !CAM-B3LYP RIJCOSX def2-SVPD def2/J TightSCF
|  2> *xyz 0 1
|  3> C          1.63556       -1.67040       -5.29211
|  4> C          0.33848       -1.50091       -4.50540
|  5> N          2.48451       -0.50741       -5.14039
|  6> C         -0.68487       -0.52803       -5.09989
|  7> H          1.39834       -1.82924       -6.35259
|  8> H          2.15586       -2.56540       -4.93209
|  9> C          3.45115       -0.14953       -5.95259
| 10> C          3.92267        1.08956       -5.85071
| 11> N          3.96616       -1.00618       -6.86788
| 12> H          3.52139       -1.90647       -6.99527
| 13> H          4.44482       -0.62347       -7.67035
| 14> H          2.25200        0.24080       -4.49879
| 15> H          3.46428        1.64078       -5.13639
| 16> H          4.83447        1.31375       -6.22465
| 17> H          0.59489       -1.21158       -3.48231
| 18> H         -0.12653       -2.48766       -4.43418
| 19> H         -0.92267       -0.82721       -6.09931
| 20> H         -0.27317        0.45953       -5.11162
| 21> H         -1.57350       -0.53693       -4.50394
| 22> *
| 23>
| 24> %MaxCore 64000
| 25>
| 26> %pal nprocs 4
| 27> end
| 28>
| 29> %scf
| 30>   MaxIter 150
| 31> end
| 32>
| 33>
| 34>                          ****END OF INPUT****

CARTESIAN COORDINATES (ANGSTROEM)
---------------------------------
  C      1.635560   -1.670400   -5.292110
  C      0.338480   -1.500910   -4.505400
  N      2.484510   -0.507410   -5.140390
  C     -0.684870   -0.528030   -5.099890
  H      1.398340   -1.829240   -6.352590
  H      2.155860   -2.565400   -4.932090
  C      3.451150   -0.149530   -5.952590
  C      3.922670    1.089560   -5.850710
  N      3.966160   -1.006180   -6.867880
  H      3.521390   -1.906470   -6.995270
  H      4.444820   -0.623470   -7.670350
  H      2.252000    0.240800   -4.498790
  H      3.464280    1.640780   -5.136390
  H      4.834470    1.313750   -6.224650
  H      0.594890   -1.211580   -3.482310
  H     -0.126530   -2.487660   -4.434180
  H     -0.922670   -0.827210   -6.099310
  H     -0.273170    0.459530   -5.111620
  H     -1.573500   -0.536930   -4.503940

 Total Charge           Charge          ....    0
 Multiplicity           Mult            ....    1
 Number of Electrons    NEL             ....   56
 Basis Dimension        Dim             ....  236

ORBITAL ENERGIES
----------------

  NO   OCC          E(Eh)            E(eV)
   0   2.0000     -14.404633      -391.9700
   1   2.0000     -14.403982      -391.9523
   2   2.0000     -10.304135      -280.3898
   3   2.0000     -10.298960      -280.2490
   4   2.0000     -10.268524      -279.4207
   5   2.0000     -10.251445      -278.9560
   6   2.0000     -10.167505      -276.6719
   7   2.0000      -1.046504       -28.4768
   8   2.0000      -0.957625       -26.0583
   9   2.0000      -0.872304       -23.7366
  10   2.0000      -0.803804       -21.8726
  11   2.0000      -0.745544       -20.2873
  12   2.0000      -0.679264       -18.4837
  13   2.0000      -0.665058       -18.0971
  14   2.0000      -0.608624       -16.5615
  15   2.0000      -0.570781       -15.5318
  16   2.0000      -0.544480       -14.8161
  17   2.0000      -0.537242       -14.6191
  18   2.0000      -0.515769       -14.0348
  19   2.0000      -0.486819       -13.2470
  20   2.0000      -0.462668       -12.5898
  21   2.0000      -0.452183       -12.3045
  22   2.0000      -0.442075       -12.0295
  23   2.0000      -0.421994       -11.4830
  24   2.0000      -0.416392       -11.3306
  25   2.0000      -0.407985       -11.1018
  26   2.0000      -0.323210        -8.7950
  27   2.0000      -0.219925        -5.9844
  28   0.0000       0.044046         1.1986
  29   0.0000       0.061784         1.6812
  30   0.0000       0.070133         1.9084
  31   0.0000       0.080296         2.1850
  32   0.0000       0.100707         2.7404

MULLIKEN ATOMIC CHARGES
-----------------------
   0 C :    0.595256
   1 C :   -0.099215
   2 N :   -0.272358
   3 C :    0.936390
   4 H :   -0.109372
   5 H :   -0.279282
   6 C :    0.459354
   7 C :    0.596980
   8 N :    0.134102
   9 H :   -0.162979
  10 H :   -0.104932
  11 H :   -0.164150
  12 H :   -0.304247
  13 H :   -0.555720
  14 H :   -0.144904
  15 H :   -0.168222
  16 H :   -0.083256
  17 H :   -0.126696
  18 H :   -0.146749
Sum of atomic charges:    0.0000000

LOEWDIN ATOMIC CHARGES
----------------------
   0 C :    0.027256
   1 C :   -0.070294
   2 N :   -0.014387
   3 C :    0.130033
   4 H :    0.022072
   5 H :    0.020475
   6 C :   -0.233551
   7 C :    0.138625
   8 N :    0.203859
   9 H :   -0.028916
  10 H :    0.002713
  11 H :    0.027059
  12 H :   -0.107035
  13 H :   -0.101023
  14 H :    0.020906
  15 H :    0.019037
  16 H :   -0.017231
  17 H :   -0.021560
  18 H :   -0.018039

  Mayer bond orders larger than 0.100000
B(  0-C ,  1-C ) :   1.1810 B(  0-C ,  2-N ) :   0.9615 B(  0-C ,  4-H ) :   0.8043
B(  0-C ,  5-H ) :   0.8907 B(  0-C , 11-H ) :  -0.1442 B(  0-C , 14-H ) :   0.1740
B(  0-C , 15-H ) :   0.2401 B(  1-C ,  3-C ) :   1.2379 B(  1-C , 14-H ) :   0.8375
B(  1-C , 15-H ) :   0.8095 B(  1-C , 16-H ) :   0.2110 B(  1-C , 17-H ) :   0.2438
B(  1-C , 18-H ) :   0.2579 B(  2-N ,  4-H ) :   0.1733 B(  2-N ,  5-H ) :   0.1536
B(  2-N ,  6-C ) :   1.1637 B(  2-N ,  7-C ) :   0.2636 B(  2-N ,  8-N ) :   0.1095
B(  2-N , 11-H ) :   1.1144 B(  3-C , 16-H ) :   0.7722 B(  3-C , 17-H ) :   0.7697
B(  3-C , 18-H ) :   0.7198 B(  6-C ,  7-C ) :   1.6272 B(  6-C ,  8-N ) :   0.9436
B(  6-C , 10-H ) :  -0.1028 B(  6-C , 11-H ) :  -0.1934 B(  6-C , 12-H ) :   0.2500
B(  6-C , 13-H ) :   0.2940 B(  7-C ,  8-N ) :   0.2418 B(  7-C , 12-H ) :   0.7897
B(  7-C , 13-H ) :   0.5565 B(  8-N ,  9-H ) :   1.0433 B(  8-N , 10-H ) :   1.1778
B(  9-H , 10-H ) :  -0.1456

FINAL SINGLE POINT ENERGY      -306.844769148545

DIPOLE MOMENT
-------------
                                X             Y             Z
Electronic contribution:      4.76669      -0.15537      -1.04911
Nuclear contribution   :     -5.53036      -0.76734       0.96389
                        -----------------------------------------
Total Dipole Moment    :     -0.76367      -0.92271      -0.08522
                        -----------------------------------------
Magnitude (a.u.)       :      1.20077
Magnitude (Debye)      :      3.05211

Rotational constants in cm-1:     0.181901     0.044719     0.039941
Rotational constants in MHz :  5453.254735  1340.639344  1197.391002

                             ****ORCA TERMINATED NORMALLY****
TOTAL RUN TIME: 0 days 0 hours 0 minutes 48 seconds 15 msec
