                         Program Version 5.0.0 -  RELEASE  -
|  1> !CAM-B3LYP RIJCOSX def2-SVPD def2/J TightSCF
|  2> *xyz 0 1
|  3> C          1.63556       -1.67040       -5.29211
|  4> C          0.33848       -1.50091       -4.50540
|  5> N          2.48451       -0.50741       -5.14039
|  6> C         -0.68487       -0.52803       -5.09989
|  7> H          1.39834       -1.82924       -6.35259
|  8> H          2.15586       -2.56540       -4.93209
|  9> C          3.45115       -0.14953       -5.95259
| 10> N          3.92267        1.08956       -5.85071
| 11> C          3.96616       -1.00618       -6.86788
| 12> H          3.52139       -1.90647       -6.99527
| 13> H          4.44482       -0.62347       -7.67035
| 14> H          2.25200        0.24080       -4.49879
| 15> H          3.46428        1.64078       -5.13639
| 16> H          4.83447        1.31375       -6.22465
| 17> H          0.59489       -1.21158       -3.48231
| 18> H         -0.12653       -2.48766       -4.43418
| 19> H         -0.92267       -0.82721       -6.09931
| 20> H         -0.27317        0.45953       -5.11162
| 21> H         -1.57350       -0.53693       -4.50394
| 22> *
| 23>
| 24> %MaxCore 64000
| 25>
| 26> %pal nprocs 4
| 27> end
| 28>
| 29> %scf
| 30>   MaxIter 150
| 31> end
| 32>
| 33>
| 34>                          ****END OF INPUT****

CARTESIAN COORDINATES (ANGSTROEM)
---------------------------------
  C      1.635560   -1.670400   -5.292110
  C      0.338480   -1.500910   -4.505400
  N      2.484510   -0.507410   -5.140390
  C     -0.684870   -0.528030   -5.099890
  H      1.398340   -1.829240   -6.352590
  H      2.155860   -2.565400   -4.932090
  C      3.451150   -0.149530   -5.952590
  N      3.922670    1.089560   -5.850710
  C      3.966160   -1.006180   -6.867880
  H      3.521390   -1.906470   -6.995270
  H      4.444820   -0.623470   -7.670350
  H      2.252000    0.240800   -4.498790
  H      3.464280    1.640780   -5.136390
  H      4.834470    1.313750   -6.224650
  H      0.594890   -1.211580   -3.482310
  H     -0.126530   -2.487660   -4.434180
  H     -0.922670   -0.827210   -6.099310
  H     -0.273170    0.459530   -5.111620
  H     -1.573500   -0.536930   -4.503940

 Total Charge           Charge          ....    0
 Multiplicity           Mult            ....    1
 Number of Electrons    NEL             ....   56
 Basis Dimension        Dim             ....  236

ORBITAL ENERGIES
----------------

  NO   OCC          E(Eh)            E(eV)
   0   2.0000     -14.410620      -392.1329
   1   2.0000     -14.406831      -392.0298
   2   2.0000     -10.305880      -280.4372
   3   2.0000     -10.292240      -280.0661
   4   2.0000     -10.265040      -279.3259
   5   2.0000     -10.250212      -278.9224
   6   2.0000     -10.169624      -276.7295
   7   2.0000      -1.055143       -28.7119
   8   2.0000      -0.963073       -26.2065
   9   2.0000      -0.864250       -23.5174
  10   2.0000      -0.783395       -21.3173
  11   2.0000      -0.770824       -20.9752
  12   2.0000      -0.682865       -18.5817
  13   2.0000      -0.640859       -17.4387
  14   2.0000      -0.608615       -16.5613
  15   2.0000      -0.595830       -16.2134
  16   2.0000      -0.545833       -14.8529
  17   2.0000      -0.539014       -14.6673
  18   2.0000      -0.504813       -13.7367
  19   2.0000      -0.489584       -13.3223
  20   2.0000      -0.456399       -12.4192
  21   2.0000      -0.454564       -12.3693
  22   2.0000      -0.434502       -11.8234
  23   2.0000      -0.420800       -11.4506
  24   2.0000      -0.412593       -11.2272
  25   2.0000      -0.407672       -11.0933
  26   2.0000      -0.316815        -8.6210
  27   2.0000      -0.224316        -6.1040
  28   0.0000       0.040743         1.1087
  29   0.0000       0.060047         1.6340
  30   0.0000       0.074628         2.0307
  31   0.0000       0.079965         2.1760
  32   0.0000       0.100716         2.7406

MULLIKEN ATOMIC CHARGES
-----------------------
   0 C :    0.604710
   1 C :   -0.101409
   2 N :   -0.298088
   3 C :    0.945060
   4 H :   -0.048008
   5 H :   -0.250877
   6 C :    0.339948
   7 N :    0.220447
   8 C :    0.602938
   9 H :   -0.168289
  10 H :   -0.571038
  11 H :   -0.284115
  12 H :   -0.145886
  13 H :   -0.155343
  14 H :   -0.152836
  15 H :   -0.178690
  16 H :   -0.079404
  17 H :   -0.136201
  18 H :   -0.142919
Sum of atomic charges:    0.0000000

LOEWDIN ATOMIC CHARGES
----------------------
   0 C :    0.039279
   1 C :   -0.071379
   2 N :   -0.014644
   3 C :    0.127738
   4 H :    0.029395
   5 H :    0.028447
   6 C :   -0.243410
   7 N :    0.189771
   8 C :    0.159587
   9 H :   -0.124814
  10 H :   -0.109728
  11 H :    0.016224
  12 H :   -0.014606
  13 H :    0.011177
  14 H :    0.017756
  15 H :    0.019876
  16 H :   -0.016156
  17 H :   -0.025649
  18 H :   -0.018864

  Mayer bond orders larger than 0.100000
B(  0-C ,  1-C ) :   1.1737 B(  0-C ,  2-N ) :   1.0207 B(  0-C ,  4-H ) :   0.7863
B(  0-C ,  5-H ) :   0.8904 B(  0-C , 11-H ) :  -0.1291 B(  0-C , 14-H ) :   0.1721
B(  0-C , 15-H ) :   0.2241 B(  1-C ,  3-C ) :   1.2399 B(  1-C , 14-H ) :   0.8305
B(  1-C , 15-H ) :   0.8214 B(  1-C , 16-H ) :   0.2116 B(  1-C , 17-H ) :   0.2455
B(  1-C , 18-H ) :   0.2609 B(  2-N ,  4-H ) :   0.1869 B(  2-N ,  5-H ) :   0.1246
B(  2-N ,  6-C ) :   1.1537 B(  2-N ,  7-N ) :   0.1965 B(  2-N ,  8-C ) :   0.2959
B(  2-N , 11-H ) :   1.1749 B(  3-C , 16-H ) :   0.7737 B(  3-C , 17-H ) :   0.7726
B(  3-C , 18-H ) :   0.7135 B(  6-C ,  7-N ) :   0.9787 B(  6-C ,  8-C ) :   1.7714
B(  6-C ,  9-H ) :   0.3197 B(  6-C , 10-H ) :   0.2483 B(  6-C , 11-H ) :  -0.2615
B(  7-N ,  8-C ) :   0.2494 B(  7-N , 12-H ) :   1.0624 B(  7-N , 13-H ) :   1.2150
B(  8-C ,  9-H ) :   0.6203 B(  8-C , 10-H ) :   0.6252 B(  9-H , 10-H ) :   0.1716
B( 12-H , 13-H ) :  -0.1366

FINAL SINGLE POINT ENERGY      -306.845484954808

DIPOLE MOMENT
-------------
                                X             Y             Z
Electronic contribution:      4.83782       1.89582       0.02931
Nuclear contribution   :     -5.52083      -1.22643       0.74108
                        -----------------------------------------
Total Dipole Moment    :     -0.68301       0.66939       0.77038
                        -----------------------------------------
Magnitude (a.u.)       :      1.22804
Magnitude (Debye)      :      3.12142

Rotational constants in cm-1:     0.181479     0.044588     0.039739
Rotational constants in MHz :  5440.604457  1336.706831  1191.355312

                             ****ORCA TERMINATED NORMALLY****
TOTAL RUN TIME: 0 days 0 hours 0 minutes 49 seconds 680 msec
