                         Program Version 5.0.0 -  RELEASE  -
|  1> !CAM-B3LYP RIJCOSX def2-SVPD def2/J TightSCF xyzfile
|  2>
|  3> *xyzfile 0 1 D1.xyz
|  4>
|  5> %MaxCore 64000
|  6>
|  7> %pal nprocs 4
|  8> end
|  9>
| 10> %scf
| 11>   MaxIter 150
| 12> end
| 13>
| 14>
| 15>                          ****END OF INPUT****

CARTESIAN COORDINATES (ANGSTROEM)
---------------------------------
  C      1.635557   -1.670396   -5.292109
  C      0.338484   -1.500907   -4.505398
  C      2.484511   -0.507410   -5.140392
  C     -0.684873   -0.528026   -5.099889
  C     -0.290406    0.951335   -5.153423
  H      0.607991    1.070692   -5.764412
  C     -0.055168    1.619420   -3.788577
  H     -1.080912    1.483775   -5.689436
  H      0.045006    0.862302   -3.003015
  H     -0.922936    2.230329   -3.517028
  C      1.223022    2.469865   -3.756911
  H      1.114701    3.258074   -4.532999
  H      1.237732    3.011242   -2.792157
  F      2.353815    1.712032   -3.934477
  H      1.398337   -1.829239   -6.352591
  H      2.155864   -2.565398   -4.932091
  C      3.451149   -0.149530   -5.952589
  N      3.922667    1.089559   -5.850711
  N      3.966162   -1.006183   -6.867880
  H      3.521391   -1.906467   -6.995270
  H      4.444824   -0.623472   -7.670348
  H      2.251995    0.240804   -4.498792
  H      3.464277    1.640782   -5.136392
  H      4.834470    1.313745   -6.224653
  H     -0.937999   -0.869056   -6.110838
  H     -1.604638   -0.622496   -4.513132
  H      0.594887   -1.211578   -3.482312
  H     -0.126530   -2.487656   -4.434176

 Total Charge           Charge          ....    0
 Multiplicity           Mult            ....    1
 Number of Electrons    NEL             ....   88
 Basis Dimension        Dim             ....  359

ORBITAL ENERGIES
----------------

  NO   OCC          E(Eh)            E(eV)
   0   2.0000     -24.788879      -674.5397
   1   2.0000     -14.391726      -391.6188
   2   2.0000     -14.374971      -391.1628
   3   2.0000     -10.349959      -281.6367
   4   2.0000     -10.280475      -279.7460
   5   2.0000     -10.265413      -279.3361
   6   2.0000     -10.247428      -278.8467
   7   2.0000     -10.244371      -278.7635
   8   2.0000     -10.234637      -278.4986
   9   2.0000     -10.224165      -278.2137
  10   2.0000     -10.152487      -276.2632
  11   2.0000      -1.301715       -35.4215
  12   2.0000      -1.015584       -27.6355
  13   2.0000      -0.926347       -25.2072
  14   2.0000      -0.887288       -24.1443
  15   2.0000      -0.852910       -23.2089
  16   2.0000      -0.802240       -21.8301
  17   2.0000      -0.767006       -20.8713
  18   2.0000      -0.714440       -19.4409
  19   2.0000      -0.681557       -18.5461
  20   2.0000      -0.651763       -17.7354
  21   2.0000      -0.628103       -17.0916
  22   2.0000      -0.611169       -16.6308
  23   2.0000      -0.594996       -16.1907
  24   2.0000      -0.580777       -15.8038
  25   2.0000      -0.575583       -15.6624
  26   2.0000      -0.557479       -15.1698
  27   2.0000      -0.528639       -14.3850
  28   2.0000      -0.510658       -13.8957
  29   2.0000      -0.508491       -13.8368
  30   2.0000      -0.487054       -13.2534
  31   2.0000      -0.471671       -12.8348
  32   2.0000      -0.460847       -12.5403
  33   2.0000      -0.447394       -12.1742
  34   2.0000      -0.429119       -11.6769
  35   2.0000      -0.426502       -11.6057
  36   2.0000      -0.416777       -11.3411
  37   2.0000      -0.403561       -10.9815
  38   2.0000      -0.385141       -10.4802
  39   2.0000      -0.373157       -10.1541
  40   2.0000      -0.367430        -9.9983
  41   2.0000      -0.355856        -9.6833
  42   2.0000      -0.313599        -8.5335
  43   2.0000      -0.202887        -5.5208
  44   0.0000       0.049371         1.3435
  45   0.0000       0.060149         1.6367
  46   0.0000       0.066480         1.8090
  47   0.0000       0.076230         2.0743
  48   0.0000       0.087867         2.3910

MULLIKEN ATOMIC CHARGES
-----------------------
   0 C :    0.520323
   1 C :    0.522713
   2 C :    0.170504
   3 C :    0.347777
   4 C :    0.265776
   5 H :   -0.081920
   6 C :    0.186904
   7 H :   -0.331962
   8 H :   -0.091537
   9 H :   -0.320016
  10 C :    1.186035
  11 H :   -0.139175
  12 H :   -0.157987
  13 F :   -0.748203
  14 H :   -0.037082
  15 H :   -0.256145
  16 C :    0.365693
  17 N :    0.335384
  18 N :    0.019309
  19 H :   -0.066597
  20 H :   -0.184640
  21 H :   -0.589189
  22 H :   -0.064278
  23 H :   -0.329833
  24 H :    0.027921
  25 H :   -0.205247
  26 H :   -0.060457
  27 H :   -0.284070
Sum of atomic charges:    0.0000000

LOEWDIN ATOMIC CHARGES
----------------------
   0 C :   -0.057950
   1 C :   -0.037640
   2 C :   -0.022326
   3 C :   -0.023517
   4 C :   -0.021066
   5 H :    0.009811
   6 C :    0.001251
   7 H :    0.016604
   8 H :    0.017291
   9 H :    0.028232
  10 C :    0.155939
  11 H :    0.046490
  12 H :    0.036614
  13 F :   -0.218849
  14 H :    0.016667
  15 H :    0.016589
  16 C :   -0.205909
  17 N :    0.199009
  18 N :    0.203694
  19 H :   -0.019928
  20 H :   -0.017661
  21 H :   -0.113605
  22 H :   -0.068877
  23 H :   -0.010440
  24 H :    0.022976
  25 H :    0.018319
  26 H :    0.013214
  27 H :    0.015068

  Mayer bond orders larger than 0.100000
B(  0-C ,  1-C ) :   1.1503 B(  0-C ,  2-C ) :   0.7568 B(  0-C , 14-H ) :   0.7287
B(  0-C , 15-H ) :   0.5573 B(  0-C , 21-H ) :   0.5030 B(  0-C , 26-H ) :   0.1645
B(  0-C , 27-H ) :   0.2464 B(  1-C ,  2-C ) :   0.2784 B(  1-C ,  3-C ) :   1.1995
B(  1-C , 21-H ) :  -0.1819 B(  1-C , 24-H ) :   0.1682 B(  1-C , 25-H ) :   0.2047
B(  1-C , 26-H ) :   0.6741 B(  1-C , 27-H ) :   0.6587 B(  2-C ,  5-H ) :  -0.1034
B(  2-C , 14-H ) :   0.2306 B(  2-C , 15-H ) :   0.3640 B(  2-C , 16-C ) :   1.8192
B(  2-C , 17-N ) :   0.4248 B(  2-C , 18-N ) :   0.2958 B(  2-C , 19-H ) :  -0.1566
B(  3-C ,  4-C ) :   1.2653 B(  3-C ,  5-H ) :   0.1675 B(  3-C ,  7-H ) :   0.1476
B(  3-C , 24-H ) :   0.6391 B(  3-C , 25-H ) :   0.7807 B(  3-C , 26-H ) :   0.1724
B(  3-C , 27-H ) :   0.1597 B(  4-C ,  5-H ) :   0.7768 B(  4-C ,  6-C ) :   1.1843
B(  4-C ,  7-H ) :   0.7525 B(  4-C ,  8-H ) :   0.1375 B(  4-C ,  9-H ) :   0.1722
B(  4-C , 24-H ) :   0.2353 B(  4-C , 25-H ) :   0.1200 B(  5-H ,  7-H ) :  -0.1216
B(  5-H , 21-H ) :   0.1356 B(  6-C ,  7-H ) :   0.1004 B(  6-C ,  8-H ) :   0.8296
B(  6-C ,  9-H ) :   0.8756 B(  6-C , 10-C ) :   1.1509 B(  6-C , 11-H ) :   0.1269
B(  6-C , 12-H ) :   0.1977 B(  6-C , 13-F ) :   0.1402 B(  7-H , 21-H ) :  -0.1131
B(  8-H ,  9-H ) :  -0.1009 B(  8-H , 26-H ) :   0.1043 B( 10-C , 11-H ) :   0.7586
B( 10-C , 12-H ) :   0.7366 B( 10-C , 13-F ) :   0.6141 B( 11-H , 13-F ) :   0.3006
B( 13-F , 22-H ) :   0.1187 B( 14-H , 21-H ) :   0.1562 B( 16-C , 17-N ) :   0.7786
B( 16-C , 18-N ) :   0.9610 B( 16-C , 21-H ) :   0.2773 B( 16-C , 23-H ) :  -0.1663
B( 17-N , 22-H ) :   1.0948 B( 17-N , 23-H ) :   1.2759 B( 18-N , 19-H ) :   1.0964
B( 18-N , 20-H ) :   1.2112 B( 18-N , 21-H ) :  -0.1315 B( 19-H , 20-H ) :  -0.1406
B( 21-H , 22-H ) :  -0.1179 B( 21-H , 27-H ) :  -0.1279 B( 22-H , 23-H ) :  -0.1744
B( 24-H , 25-H ) :  -0.1150 B( 26-H , 27-H ) :  -0.1244

FINAL SINGLE POINT ENERGY      -523.760560105335

DIPOLE MOMENT
-------------
                                X             Y             Z
Electronic contribution:      7.79750       3.84775       1.15682
Nuclear contribution   :     -8.11591      -2.99033      -1.35383
                        -----------------------------------------
Total Dipole Moment    :     -0.31841       0.85743      -0.19702
                        -----------------------------------------
Magnitude (a.u.)       :      0.93562
Magnitude (Debye)      :      2.37815

Rotational constants in cm-1:     0.043530     0.028984     0.019589
Rotational constants in MHz :  1305.007140   868.923804   587.262638

                             ****ORCA TERMINATED NORMALLY****
TOTAL RUN TIME: 0 days 0 hours 2 minutes 46 seconds 856 msec
