                         Program Version 5.0.0 -  RELEASE  -
|  1> !CAM-B3LYP RIJCOSX def2-SVPD def2/J TightSCF xyzfile
|  2>
|  3> *xyzfile 0 1 D2.xyz
|  4>
|  5> %MaxCore 64000
|  6>
|  7> %pal nprocs 4
|  8> end
|  9>
| 10> %scf
| 11>   MaxIter 150
| 12> end
| 13>
| 14>
| 15>                          ****END OF INPUT****

CARTESIAN COORDINATES (ANGSTROEM)
---------------------------------
  C      1.635557   -1.670396   -5.292109
  C      0.338484   -1.500907   -4.505398
  N      2.484511   -0.507410   -5.140392
  C     -0.684873   -0.528026   -5.099889
  C     -0.290406    0.951335   -5.153423
  H      0.607991    1.070692   -5.764412
  C     -0.055168    1.619420   -3.788577
  H     -1.080912    1.483775   -5.689436
  H      0.045006    0.862302   -3.003015
  H     -0.922936    2.230329   -3.517028
  C      1.223022    2.469865   -3.756911
  H      1.114701    3.258074   -4.532999
  H      1.237732    3.011242   -2.792157
  F      2.353815    1.712032   -3.934477
  H      1.398337   -1.829239   -6.352591
  H      2.155864   -2.565398   -4.932091
  C      3.451149   -0.149530   -5.952589
  C      3.922667    1.089559   -5.850711
  N      3.966162   -1.006183   -6.867880
  H      3.521391   -1.906467   -6.995270
  H      4.444824   -0.623472   -7.670348
  H      2.251995    0.240804   -4.498792
  H      3.464277    1.640782   -5.136392
  H      4.834470    1.313745   -6.224653
  H     -0.937999   -0.869056   -6.110838
  H     -1.604638   -0.622496   -4.513132
  H      0.594887   -1.211578   -3.482312
  H     -0.126530   -2.487656   -4.434176

 Total Charge           Charge          ....    0
 Multiplicity           Mult            ....    1
 Number of Electrons    NEL             ....   88
 Basis Dimension        Dim             ....  359

ORBITAL ENERGIES
----------------

  NO   OCC          E(Eh)            E(eV)
   0   2.0000     -24.790057      -674.5717
   1   2.0000     -14.389744      -391.5648
   2   2.0000     -14.375788      -391.1851
   3   2.0000     -10.351637      -281.6824
   4   2.0000     -10.287136      -279.9272
   5   2.0000     -10.285396      -279.8799
   6   2.0000     -10.274015      -279.5702
   7   2.0000     -10.262025      -279.2439
   8   2.0000     -10.261778      -279.2372
   9   2.0000     -10.259920      -279.1866
  10   2.0000     -10.141125      -275.9540
  11   2.0000      -1.302467       -35.4419
  12   2.0000      -1.028535       -27.9879
  13   2.0000      -0.942864       -25.6566
  14   2.0000      -0.897021       -24.4092
  15   2.0000      -0.853835       -23.2340
  16   2.0000      -0.813907       -22.1475
  17   2.0000      -0.759854       -20.6767
  18   2.0000      -0.726310       -19.7639
  19   2.0000      -0.696383       -18.9496
  20   2.0000      -0.658271       -17.9125
  21   2.0000      -0.640957       -17.4413
  22   2.0000      -0.619378       -16.8541
  23   2.0000      -0.592432       -16.1209
  24   2.0000      -0.583876       -15.8881
  25   2.0000      -0.577743       -15.7212
  26   2.0000      -0.556925       -15.1547
  27   2.0000      -0.545314       -14.8387
  28   2.0000      -0.520975       -14.1765
  29   2.0000      -0.511902       -13.9296
  30   2.0000      -0.493372       -13.4253
  31   2.0000      -0.481024       -13.0893
  32   2.0000      -0.468711       -12.7543
  33   2.0000      -0.450292       -12.2531
  34   2.0000      -0.438108       -11.9215
  35   2.0000      -0.431239       -11.7346
  36   2.0000      -0.420025       -11.4295
  37   2.0000      -0.415916       -11.3177
  38   2.0000      -0.399053       -10.8588
  39   2.0000      -0.389577       -10.6009
  40   2.0000      -0.388442       -10.5700
  41   2.0000      -0.384423       -10.4607
  42   2.0000      -0.304889        -8.2965
  43   2.0000      -0.201323        -5.4783
  44   0.0000       0.045013         1.2249
  45   0.0000       0.054901         1.4939
  46   0.0000       0.064855         1.7648
  47   0.0000       0.068205         1.8560
  48   0.0000       0.086749         2.3606

MULLIKEN ATOMIC CHARGES
-----------------------
   0 C :    0.799352
   1 C :    0.323205
   2 N :    0.000461
   3 C :    0.347701
   4 C :    0.264157
   5 H :   -0.006749
   6 C :    0.164901
   7 H :   -0.370950
   8 H :   -0.128553
   9 H :   -0.253305
  10 C :    1.137753
  11 H :   -0.137890
  12 H :   -0.158687
  13 F :   -0.802368
  14 H :   -0.082076
  15 H :   -0.317298
  16 C :    0.590828
  17 C :    0.855227
  18 N :    0.102278
  19 H :   -0.114295
  20 H :   -0.113865
  21 H :   -0.486275
  22 H :   -0.409130
  23 H :   -0.666378
  24 H :    0.024375
  25 H :   -0.201636
  26 H :   -0.094329
  27 H :   -0.266453
Sum of atomic charges:    0.0000000

LOEWDIN ATOMIC CHARGES
----------------------
   0 C :    0.042705
   1 C :   -0.024016
   2 N :    0.003941
   3 C :   -0.025692
   4 C :   -0.020180
   5 H :    0.010999
   6 C :   -0.000969
   7 H :    0.019677
   8 H :    0.014864
   9 H :    0.029947
  10 C :    0.158305
  11 H :    0.050189
  12 H :    0.038257
  13 F :   -0.216615
  14 H :    0.020013
  15 H :    0.017937
  16 C :   -0.212952
  17 C :    0.161900
  18 N :    0.200525
  19 H :   -0.032117
  20 H :   -0.000780
  21 H :   -0.058817
  22 H :   -0.156725
  23 H :   -0.101404
  24 H :    0.024270
  25 H :    0.021487
  26 H :    0.013813
  27 H :    0.021439

  Mayer bond orders larger than 0.100000
B(  0-C ,  1-C ) :   1.1864 B(  0-C ,  2-N ) :   0.9763 B(  0-C , 14-H ) :   0.7221
B(  0-C , 15-H ) :   0.8145 B(  0-C , 21-H ) :  -0.1976 B(  0-C , 26-H ) :   0.1488
B(  0-C , 27-H ) :   0.2265 B(  1-C ,  3-C ) :   1.1973 B(  1-C , 24-H ) :   0.1745
B(  1-C , 25-H ) :   0.2138 B(  1-C , 26-H ) :   0.7365 B(  1-C , 27-H ) :   0.7153
B(  2-N , 14-H ) :   0.3568 B(  2-N , 15-H ) :   0.1991 B(  2-N , 16-C ) :   1.0255
B(  2-N , 17-C ) :   0.3208 B(  2-N , 18-N ) :   0.1307 B(  2-N , 21-H ) :   0.9924
B(  3-C ,  4-C ) :   1.2762 B(  3-C ,  5-H ) :   0.1610 B(  3-C ,  7-H ) :   0.1376
B(  3-C , 24-H ) :   0.6367 B(  3-C , 25-H ) :   0.7882 B(  3-C , 26-H ) :   0.1689
B(  3-C , 27-H ) :   0.1476 B(  4-C ,  5-H ) :   0.8204 B(  4-C ,  6-C ) :   1.1780
B(  4-C ,  7-H ) :   0.7453 B(  4-C ,  8-H ) :   0.1291 B(  4-C ,  9-H ) :   0.1847
B(  4-C , 24-H ) :   0.2480 B(  4-C , 25-H ) :   0.1327 B(  5-H ,  7-H ) :  -0.1106
B(  6-C ,  7-H ) :   0.1033 B(  6-C ,  8-H ) :   0.8429 B(  6-C ,  9-H ) :   0.8647
B(  6-C , 10-C ) :   1.1476 B(  6-C , 11-H ) :   0.1124 B(  6-C , 12-H ) :   0.1964
B(  6-C , 13-F ) :   0.1305 B( 10-C , 11-H ) :   0.7946 B( 10-C , 12-H ) :   0.7598
B( 10-C , 13-F ) :   0.6451 B( 11-H , 13-F ) :   0.2353 B( 13-F , 22-H ) :   0.2199
B( 14-H , 25-H ) :  -0.1056 B( 16-C , 17-C ) :   1.5399 B( 16-C , 18-N ) :   0.8295
B( 16-C , 20-H ) :  -0.1426 B( 16-C , 21-H ) :  -0.3970 B( 16-C , 22-H ) :   0.3164
B( 16-C , 23-H ) :   0.4361 B( 17-C , 18-N ) :   0.3178 B( 17-C , 22-H ) :   0.4975
B( 17-C , 23-H ) :   0.3051 B( 18-N , 19-H ) :   0.9993 B( 18-N , 20-H ) :   1.2133
B( 19-H , 20-H ) :  -0.1584 B( 21-H , 22-H ) :  -0.1346 B( 24-H , 25-H ) :  -0.1185

FINAL SINGLE POINT ENERGY      -523.751893680636

DIPOLE MOMENT
-------------
                                X             Y             Z
Electronic contribution:      6.32475       2.46673       1.71667
Nuclear contribution   :     -7.85451      -2.70006      -1.48294
                        -----------------------------------------
Total Dipole Moment    :     -1.52976      -0.23333       0.23373
                        -----------------------------------------
Magnitude (a.u.)       :      1.56500
Magnitude (Debye)      :      3.97792

Rotational constants in cm-1:     0.044065     0.029250     0.019826
Rotational constants in MHz :  1321.026981   876.903192   594.367265

                             ****ORCA TERMINATED NORMALLY****
TOTAL RUN TIME: 0 days 0 hours 2 minutes 50 seconds 411 msec
