                         Program Version 5.0.0 -  RELEASE  -
|  1> !CAM-B3LYP RIJCOSX def2-SVPD def2/J TightSCF xyzfile
|  2>
|  3> *xyzfile 0 1 D3.xyz
|  4>
|  5> %MaxCore 64000
|  6>
|  7> %pal nprocs 4
|  8> end
|  9>
| 10> %scf
| 11>   MaxIter 150
| 12> end
| 13>
| 14>
| 15>                          ****END OF INPUT****

CARTESIAN COORDINATES (ANGSTROEM)
---------------------------------
  C      1.635557   -1.670396   -5.292109
  C      0.338484   -1.500907   -4.505398
  N      2.484511   -0.507410   -5.140392
  C     -0.684873   -0.528026   -5.099889
  C     -0.290406    0.951335   -5.153423
  H      0.607991    1.070692   -5.764412
  C     -0.055168    1.619420   -3.788577
  H     -1.080912    1.483775   -5.689436
  H      0.045006    0.862302   -3.003015
  H     -0.922936    2.230329   -3.517028
  C      1.223022    2.469865   -3.756911
  H      1.114701    3.258074   -4.532999
  H      1.237732    3.011242   -2.792157
  F      2.353815    1.712032   -3.934477
  H      1.398337   -1.829239   -6.352591
  H      2.155864   -2.565398   -4.932091
  C      3.451149   -0.149530   -5.952589
  N      3.922667    1.089559   -5.850711
  C      3.966162   -1.006183   -6.867880
  H      3.521391   -1.906467   -6.995270
  H      4.444824   -0.623472   -7.670348
  H      2.251995    0.240804   -4.498792
  H      3.464277    1.640782   -5.136392
  H      4.834470    1.313745   -6.224653
  H     -0.937999   -0.869056   -6.110838
  H     -1.604638   -0.622496   -4.513132
  H      0.594887   -1.211578   -3.482312
  H     -0.126530   -2.487656   -4.434176

 Total Charge           Charge          ....    0
 Multiplicity           Mult            ....    1
 Number of Electrons    NEL             ....   88
 Basis Dimension        Dim             ....  359

ORBITAL ENERGIES
----------------

  NO   OCC          E(Eh)            E(eV)
   0   2.0000     -24.818577      -675.3478
   1   2.0000     -14.379826      -391.2950
   2   2.0000     -14.377854      -391.2413
   3   2.0000     -10.368857      -282.1510
   4   2.0000     -10.286678      -279.9147
   5   2.0000     -10.283853      -279.8379
   6   2.0000     -10.279790      -279.7273
   7   2.0000     -10.266013      -279.3524
   8   2.0000     -10.262781      -279.2645
   9   2.0000     -10.259597      -279.1778
  10   2.0000     -10.151697      -276.2417
  11   2.0000      -1.329848       -36.1870
  12   2.0000      -1.033707       -28.1286
  13   2.0000      -0.943837       -25.6831
  14   2.0000      -0.901839       -24.5403
  15   2.0000      -0.857523       -23.3344
  16   2.0000      -0.805797       -21.9268
  17   2.0000      -0.769711       -20.9449
  18   2.0000      -0.735146       -20.0043
  19   2.0000      -0.709527       -19.3072
  20   2.0000      -0.653217       -17.7749
  21   2.0000      -0.646614       -17.5953
  22   2.0000      -0.632604       -17.2140
  23   2.0000      -0.609009       -16.5720
  24   2.0000      -0.602887       -16.4054
  25   2.0000      -0.570795       -15.5321
  26   2.0000      -0.561651       -15.2833
  27   2.0000      -0.546513       -14.8714
  28   2.0000      -0.534656       -14.5487
  29   2.0000      -0.506358       -13.7787
  30   2.0000      -0.499182       -13.5834
  31   2.0000      -0.489818       -13.3286
  32   2.0000      -0.471341       -12.8258
  33   2.0000      -0.446598       -12.1526
  34   2.0000      -0.444920       -12.1069
  35   2.0000      -0.432085       -11.7576
  36   2.0000      -0.428169       -11.6511
  37   2.0000      -0.421805       -11.4779
  38   2.0000      -0.409743       -11.1497
  39   2.0000      -0.398881       -10.8541
  40   2.0000      -0.389547       -10.6001
  41   2.0000      -0.386952       -10.5295
  42   2.0000      -0.294137        -8.0039
  43   2.0000      -0.206162        -5.6100
  44   0.0000       0.038541         1.0488
  45   0.0000       0.054872         1.4932
  46   0.0000       0.062259         1.6941
  47   0.0000       0.067871         1.8469
  48   0.0000       0.080177         2.1817

MULLIKEN ATOMIC CHARGES
-----------------------
   0 C :    0.777110
   1 C :    0.338344
   2 N :    0.313722
   3 C :    0.354231
   4 C :    0.355693
   5 H :   -0.134096
   6 C :    0.150172
   7 H :   -0.350822
   8 H :   -0.120276
   9 H :   -0.244380
  10 C :    1.139905
  11 H :   -0.141203
  12 H :   -0.159405
  13 F :   -0.813258
  14 H :   -0.034833
  15 H :   -0.304775
  16 C :    0.240184
  17 N :    0.561099
  18 C :    0.582417
  19 H :   -0.152788
  20 H :   -0.494222
  21 H :   -0.747427
  22 H :   -0.301965
  23 H :   -0.252907
  24 H :    0.033567
  25 H :   -0.203321
  26 H :   -0.115258
  27 H :   -0.275508
Sum of atomic charges:   -0.0000000

LOEWDIN ATOMIC CHARGES
----------------------
   0 C :    0.053981
   1 C :   -0.024436
   2 N :    0.005639
   3 C :   -0.024560
   4 C :   -0.020824
   5 H :    0.010206
   6 C :    0.000950
   7 H :    0.020133
   8 H :    0.016559
   9 H :    0.032081
  10 C :    0.158348
  11 H :    0.050735
  12 H :    0.040778
  13 F :   -0.207372
  14 H :    0.026540
  15 H :    0.025755
  16 C :   -0.227108
  17 N :    0.209808
  18 C :    0.153678
  19 H :   -0.129844
  20 H :   -0.114486
  21 H :   -0.066607
  22 H :   -0.080559
  23 H :    0.009216
  24 H :    0.026375
  25 H :    0.021413
  26 H :    0.011113
  27 H :    0.022487

  Mayer bond orders larger than 0.100000
B(  0-C ,  1-C ) :   1.1780 B(  0-C ,  2-N ) :   1.0552 B(  0-C , 14-H ) :   0.7248
B(  0-C , 15-H ) :   0.8251 B(  0-C , 21-H ) :  -0.2045 B(  0-C , 26-H ) :   0.1457
B(  0-C , 27-H ) :   0.2093 B(  1-C ,  2-N ) :   0.1177 B(  1-C ,  3-C ) :   1.1974
B(  1-C , 24-H ) :   0.1737 B(  1-C , 25-H ) :   0.2204 B(  1-C , 26-H ) :   0.7251
B(  1-C , 27-H ) :   0.7344 B(  2-N , 13-F ) :  -0.1233 B(  2-N , 14-H ) :   0.2954
B(  2-N , 15-H ) :   0.1379 B(  2-N , 16-C ) :   1.3441 B(  2-N , 18-C ) :   0.1811
B(  2-N , 21-H ) :   0.7223 B(  3-C ,  4-C ) :   1.2718 B(  3-C ,  5-H ) :   0.1717
B(  3-C ,  7-H ) :   0.1457 B(  3-C , 24-H ) :   0.6404 B(  3-C , 25-H ) :   0.7886
B(  3-C , 26-H ) :   0.1647 B(  3-C , 27-H ) :   0.1394 B(  4-C ,  5-H ) :   0.7853
B(  4-C ,  6-C ) :   1.1695 B(  4-C ,  7-H ) :   0.7087 B(  4-C ,  8-H ) :   0.1335
B(  4-C ,  9-H ) :   0.1813 B(  4-C , 24-H ) :   0.2429 B(  4-C , 25-H ) :   0.1188
B(  5-H ,  6-C ) :   0.1068 B(  6-C ,  8-H ) :   0.8462 B(  6-C ,  9-H ) :   0.8684
B(  6-C , 10-C ) :   1.1495 B(  6-C , 11-H ) :   0.1223 B(  6-C , 12-H ) :   0.1922
B(  6-C , 13-F ) :   0.1265 B( 10-C , 11-H ) :   0.7846 B( 10-C , 12-H ) :   0.7632
B( 10-C , 13-F ) :   0.6280 B( 11-H , 13-F ) :   0.2536 B( 13-F , 21-H ) :   0.1676
B( 13-F , 22-H ) :   0.2069 B( 14-H , 25-H ) :  -0.1047 B( 16-C , 17-N ) :   0.8851
B( 16-C , 18-C ) :   1.8373 B( 16-C , 19-H ) :   0.3482 B( 16-C , 20-H ) :   0.2703
B( 16-C , 21-H ) :  -0.4182 B( 16-C , 23-H ) :  -0.1594 B( 17-N , 18-C ) :   0.2024
B( 17-N , 22-H ) :   0.9737 B( 17-N , 23-H ) :   1.2754 B( 18-C , 19-H ) :   0.5764
B( 18-C , 20-H ) :   0.6322 B( 19-H , 20-H ) :   0.2158 B( 22-H , 23-H ) :  -0.1673
B( 24-H , 25-H ) :  -0.1198

FINAL SINGLE POINT ENERGY      -523.764279277937

DIPOLE MOMENT
-------------
                                X             Y             Z
Electronic contribution:      6.23560       4.46086       2.81635
Nuclear contribution   :     -7.84660      -3.08098      -1.66782
                        -----------------------------------------
Total Dipole Moment    :     -1.61100       1.37988       1.14853
                        -----------------------------------------
Magnitude (a.u.)       :      2.41216
Magnitude (Debye)      :      6.13122

Rotational constants in cm-1:     0.043547     0.029898     0.020008
Rotational constants in MHz :  1305.520367   896.323854   599.829375

                             ****ORCA TERMINATED NORMALLY****
TOTAL RUN TIME: 0 days 0 hours 2 minutes 46 seconds 632 msec
