                         Program Version 5.0.0 -  RELEASE  -
|  1> !wB97X-D3 RIJCOSX def2-SVPD def2/J TightSCF CPCM(Water)
|  2> *xyz -1 1
|  3> C         -0.95121        1.33498       -0.97250
|  4> C         -0.77455        2.78833       -0.54394
|  5> H         -1.35261        3.45937       -1.19259
|  6> H         -1.17101        2.90233        0.46997
|  7> C          0.69721        3.22791       -0.52513
|  8> O          1.48929        2.37470        0.19919
|  9> H          0.71600        4.26403       -0.13077
| 10> H          1.03615        3.33092       -1.58367
| 11> H         -0.56808        1.20618       -1.96322
| 12> H         -1.99081        1.08225       -0.95647
| 13> H         -0.41866        0.69710       -0.29841
| 14> *
| 15>
| 16> %MaxCore 64000
| 17> %pal nprocs 18
| 18> end
| 19>
| 20> %scf
| 21>   MaxIter 150
| 22> end
| 23>
| 24>
| 25>                          ****END OF INPUT****

CARTESIAN COORDINATES (ANGSTROEM)
---------------------------------
  C     -0.951210    1.334980   -0.972500
  C     -0.774550    2.788330   -0.543940
  H     -1.352610    3.459370   -1.192590
  H     -1.171010    2.902330    0.469970
  C      0.697210    3.227910   -0.525130
  O      1.489290    2.374700    0.199190
  H      0.716000    4.264030   -0.130770
  H      1.036150    3.330920   -1.583670
  H     -0.568080    1.206180   -1.963220
  H     -1.990810    1.082250   -0.956470
  H     -0.418660    0.697100   -0.298410

 Total Charge           Charge          ....   -1
 Multiplicity           Mult            ....    1
 Number of Electrons    NEL             ....   34
 Basis Dimension        Dim             ....  139

ORBITAL ENERGIES
----------------

  NO   OCC          E(Eh)            E(eV)
   0   2.0000     -19.117950      -520.2259
   1   2.0000     -10.284269      -279.8492
   2   2.0000     -10.254969      -279.0519
   3   2.0000     -10.252700      -278.9901
   4   2.0000      -0.987922       -26.8827
   5   2.0000      -0.849753       -23.1230
   6   2.0000      -0.736685       -20.0462
   7   2.0000      -0.636775       -17.3275
   8   2.0000      -0.535438       -14.5700
   9   2.0000      -0.526278       -14.3207
  10   2.0000      -0.480094       -13.0640
  11   2.0000      -0.451292       -12.2803
  12   2.0000      -0.421358       -11.4657
  13   2.0000      -0.409911       -11.1543
  14   2.0000      -0.398308       -10.8385
  15   2.0000      -0.269758        -7.3405
  16   2.0000      -0.268559        -7.3079
  17   0.0000       0.103518         2.8169
  18   0.0000       0.127200         3.4613
  19   0.0000       0.135797         3.6952
  20   0.0000       0.146776         3.9940
  21   0.0000       0.173374         4.7177

MULLIKEN ATOMIC CHARGES
-----------------------
   0 C :    0.620581
   1 C :   -0.436853
   2 H :   -0.085511
   3 H :   -0.082315
   4 C :    0.406438
   5 O :   -0.958239
   6 H :   -0.158192
   7 H :   -0.117467
   8 H :   -0.059730
   9 H :   -0.056544
  10 H :   -0.072167
Sum of atomic charges:   -1.0000000

LOEWDIN ATOMIC CHARGES
----------------------
   0 C :    0.092734
   1 C :   -0.108115
   2 H :    0.010826
   3 H :    0.007933
   4 C :   -0.228766
   5 O :   -0.657624
   6 H :   -0.017291
   7 H :   -0.010201
   8 H :   -0.021351
   9 H :   -0.026604
  10 H :   -0.041541

  Mayer bond orders larger than 0.100000
B(  0-C ,  1-C ) :   1.2630 B(  0-C ,  8-H ) :   0.8171 B(  0-C ,  9-H ) :   0.8169
B(  0-C , 10-H ) :   0.8316 B(  1-C ,  2-H ) :   0.9815 B(  1-C ,  3-H ) :   0.9421
B(  1-C ,  4-C ) :   1.0987 B(  1-C ,  6-H ) :   0.1145 B(  1-C ,  7-H ) :   0.1042
B(  1-C ,  8-H ) :   0.1766 B(  1-C ,  9-H ) :   0.1795 B(  1-C , 10-H ) :   0.1938
B(  3-H ,  4-C ) :   0.1026 B(  4-C ,  5-O ) :   1.2747 B(  4-C ,  6-H ) :   0.9303
B(  4-C ,  7-H ) :   0.9278

Dispersion correction           -0.001936047
FINAL SINGLE POINT ENERGY      -193.667465492219

DIPOLE MOMENT
-------------
                                X             Y             Z
Electronic contribution:      1.74638       0.26288       0.99380
Nuclear contribution   :     -4.35230      -0.04018      -2.29108
                        -----------------------------------------
Total Dipole Moment    :     -2.60593       0.22270      -1.29728
                        -----------------------------------------
Magnitude (a.u.)       :      2.91949
Magnitude (Debye)      :      7.42075

Rotational constants in cm-1:     0.489965     0.184028     0.151025
Rotational constants in MHz : 14688.769521  5517.006179  4527.605157

                             ****ORCA TERMINATED NORMALLY****
TOTAL RUN TIME: 0 days 0 hours 0 minutes 8 seconds 344 msec
