                         Program Version 5.0.0 -  RELEASE  -
|  1> !wB97X-D3 RIJCOSX def2-SVPD def2/J TightSCF CPCM(Water)
|  2> *xyz 1 1
|  3> C          3.95643        0.50147       -0.37910
|  4> H          3.16840        0.02920        0.20738
|  5> N          3.80389        1.96157       -0.15675
|  6> C          3.84232        0.14849       -1.85406
|  7> H          4.92323        0.17798        0.00937
|  8> H          4.62002        0.69450       -2.40215
|  9> H          4.09601       -0.91093       -1.95510
| 10> C          2.47562        0.41271       -2.48538
| 11> H          4.20643        2.24441        0.74536
| 12> H          2.80827        2.21132       -0.09610
| 13> H          4.28076        2.50155       -0.89104
| 14> H          2.49958        0.13290       -3.51787
| 15> H          2.23992        1.45318       -2.40319
| 16> H          1.73061       -0.16300       -1.97702
| 17> *
| 18>
| 19> %MaxCore 64000
| 20> %pal nprocs 18
| 21> end
| 22>
| 23> %scf
| 24>   MaxIter 150
| 25> end
| 26>
| 27>
| 28>                          ****END OF INPUT****

CARTESIAN COORDINATES (ANGSTROEM)
---------------------------------
  C      3.956430    0.501470   -0.379100
  H      3.168400    0.029200    0.207380
  N      3.803890    1.961570   -0.156750
  C      3.842320    0.148490   -1.854060
  H      4.923230    0.177980    0.009370
  H      4.620020    0.694500   -2.402150
  H      4.096010   -0.910930   -1.955100
  C      2.475620    0.412710   -2.485380
  H      4.206430    2.244410    0.745360
  H      2.808270    2.211320   -0.096100
  H      4.280760    2.501550   -0.891040
  H      2.499580    0.132900   -3.517870
  H      2.239920    1.453180   -2.403190
  H      1.730610   -0.163000   -1.977020

 Total Charge           Charge          ....    1
 Multiplicity           Mult            ....    1
 Number of Electrons    NEL             ....   34
 Basis Dimension        Dim             ....  160

ORBITAL ENERGIES
----------------

  NO   OCC          E(Eh)            E(eV)
   0   2.0000     -14.555818      -396.0839
   1   2.0000     -10.349760      -281.6313
   2   2.0000     -10.300694      -280.2961
   3   2.0000     -10.277420      -279.6628
   4   2.0000      -1.110193       -30.2099
   5   2.0000      -0.907354       -24.6904
   6   2.0000      -0.814210       -22.1558
   7   2.0000      -0.721830       -19.6420
   8   2.0000      -0.685278       -18.6474
   9   2.0000      -0.676219       -18.4008
  10   2.0000      -0.599646       -16.3172
  11   2.0000      -0.552439       -15.0326
  12   2.0000      -0.539974       -14.6934
  13   2.0000      -0.510917       -13.9028
  14   2.0000      -0.454315       -12.3626
  15   2.0000      -0.449491       -12.2313
  16   2.0000      -0.442233       -12.0338
  17   0.0000       0.084787         2.3072
  18   0.0000       0.117998         3.2109
  19   0.0000       0.119317         3.2468
  20   0.0000       0.129059         3.5119
  21   0.0000       0.155066         4.2196

MULLIKEN ATOMIC CHARGES
-----------------------
   0 C :    0.488267
   1 H :   -0.007823
   2 N :   -0.885712
   3 C :   -0.475128
   4 H :    0.000350
   5 H :   -0.001839
   6 H :   -0.027015
   7 C :    0.597269
   8 H :    0.395715
   9 H :    0.453427
  10 H :    0.478972
  11 H :   -0.012261
  12 H :   -0.031872
  13 H :    0.027651
Sum of atomic charges:    1.0000000

LOEWDIN ATOMIC CHARGES
----------------------
   0 C :    0.088276
   1 H :    0.053324
   2 N :    0.354309
   3 C :   -0.059073
   4 H :    0.052369
   5 H :    0.033941
   6 H :    0.034914
   7 C :    0.129945
   8 H :    0.117278
   9 H :    0.114469
  10 H :    0.116423
  11 H :   -0.010083
  12 H :   -0.017455
  13 H :   -0.008636

  Mayer bond orders larger than 0.100000
B(  0-C ,  1-H ) :   0.9017 B(  0-C ,  2-N ) :   0.7682 B(  0-C ,  3-C ) :   1.1468
B(  0-C ,  4-H ) :   0.9517 B(  0-C ,  5-H ) :   0.1004 B(  0-C ,  6-H ) :   0.1078
B(  1-H ,  2-N ) :   0.1187 B(  2-N ,  8-H ) :   0.7374 B(  2-N ,  9-H ) :   0.6956
B(  2-N , 10-H ) :   0.6217 B(  3-C ,  5-H ) :   0.9577 B(  3-C ,  6-H ) :   1.0031
B(  3-C ,  7-C ) :   1.2648 B(  3-C , 11-H ) :   0.1908 B(  3-C , 12-H ) :   0.1812
B(  3-C , 13-H ) :   0.1716 B(  7-C , 11-H ) :   0.8099 B(  7-C , 12-H ) :   0.8495
B(  7-C , 13-H ) :   0.8251

Dispersion correction           -0.002857464
FINAL SINGLE POINT ENERGY      -174.799537104004

DIPOLE MOMENT
-------------
                                X             Y             Z
Electronic contribution:      1.11290       1.58829       2.18658
Nuclear contribution   :     -0.57302       0.26376      -0.39709
                        -----------------------------------------
Total Dipole Moment    :      0.53988       1.85205       1.78948
                        -----------------------------------------
Magnitude (a.u.)       :      2.63132
Magnitude (Debye)      :      6.68828

Rotational constants in cm-1:     0.449370     0.157244     0.134525
Rotational constants in MHz : 13471.775278  4714.062641  4032.958796

                             ****ORCA TERMINATED NORMALLY****
TOTAL RUN TIME: 0 days 0 hours 0 minutes 10 seconds 0 msec
