                         Program Version 5.0.0 -  RELEASE  -
|  1> !wB97X-D3 RIJCOSX def2-SVPD def2/J TightSCF CPCM(Water)
|  2> *xyz 0 1
|  3> C         -0.95121        1.33498       -0.97250
|  4> C         -0.77455        2.78833       -0.54394
|  5> H         -1.35261        3.45937       -1.19259
|  6> H         -1.17101        2.90233        0.46997
|  7> C          0.69721        3.22791       -0.52513
|  8> F          1.48929        2.37470        0.19919
|  9> H          0.71600        4.26403       -0.13077
| 10> H          1.03615        3.33092       -1.58367
| 11> H         -0.56808        1.20618       -1.96322
| 12> H         -1.99081        1.08225       -0.95647
| 13> H         -0.41866        0.69710       -0.29841
| 14> *
| 15>
| 16> %MaxCore 64000
| 17> %pal nprocs 18
| 18> end
| 19>
| 20> %scf
| 21>   MaxIter 150
| 22> end
| 23>
| 24>
| 25>                          ****END OF INPUT****

CARTESIAN COORDINATES (ANGSTROEM)
---------------------------------
  C     -0.951210    1.334980   -0.972500
  C     -0.774550    2.788330   -0.543940
  H     -1.352610    3.459370   -1.192590
  H     -1.171010    2.902330    0.469970
  C      0.697210    3.227910   -0.525130
  F      1.489290    2.374700    0.199190
  H      0.716000    4.264030   -0.130770
  H      1.036150    3.330920   -1.583670
  H     -0.568080    1.206180   -1.963220
  H     -1.990810    1.082250   -0.956470
  H     -0.418660    0.697100   -0.298410

 Total Charge           Charge          ....    0
 Multiplicity           Mult            ....    1
 Number of Electrons    NEL             ....   34
 Basis Dimension        Dim             ....  139

ORBITAL ENERGIES
----------------

  NO   OCC          E(Eh)            E(eV)
   0   2.0000     -24.797612      -674.7773
   1   2.0000     -10.362374      -281.9745
   2   2.0000     -10.286930      -279.9216
   3   2.0000     -10.268482      -279.4196
   4   2.0000      -1.306559       -35.5533
   5   2.0000      -0.893341       -24.3090
   6   2.0000      -0.793350       -21.5882
   7   2.0000      -0.696817       -18.9613
   8   2.0000      -0.614847       -16.7308
   9   2.0000      -0.597647       -16.2628
  10   2.0000      -0.574797       -15.6410
  11   2.0000      -0.532516       -14.4905
  12   2.0000      -0.497039       -13.5251
  13   2.0000      -0.469136       -12.7658
  14   2.0000      -0.443273       -12.0621
  15   2.0000      -0.418309       -11.3828
  16   2.0000      -0.414128       -11.2690
  17   0.0000       0.098474         2.6796
  18   0.0000       0.125060         3.4031
  19   0.0000       0.132330         3.6009
  20   0.0000       0.150366         4.0917
  21   0.0000       0.175695         4.7809

MULLIKEN ATOMIC CHARGES
-----------------------
   0 C :    0.542605
   1 C :   -0.581250
   2 H :   -0.024593
   3 H :   -0.025418
   4 C :    0.636219
   5 F :   -0.479639
   6 H :   -0.010898
   7 H :    0.024403
   8 H :   -0.030776
   9 H :   -0.032438
  10 H :   -0.018215
Sum of atomic charges:   -0.0000000

LOEWDIN ATOMIC CHARGES
----------------------
   0 C :    0.113209
   1 C :   -0.067970
   2 H :    0.034693
   3 H :    0.023919
   4 C :    0.101414
   5 F :   -0.237029
   6 H :    0.036814
   7 H :    0.043861
   8 H :   -0.013201
   9 H :   -0.015698
  10 H :   -0.020013

  Mayer bond orders larger than 0.100000
B(  0-C ,  1-C ) :   1.2726 B(  0-C ,  8-H ) :   0.8385 B(  0-C ,  9-H ) :   0.8402
B(  0-C , 10-H ) :   0.8402 B(  1-C ,  2-H ) :   0.9931 B(  1-C ,  3-H ) :   0.9716
B(  1-C ,  4-C ) :   1.1876 B(  1-C ,  6-H ) :   0.1025 B(  1-C ,  8-H ) :   0.1675
B(  1-C ,  9-H ) :   0.1713 B(  1-C , 10-H ) :   0.1684 B(  4-C ,  5-F ) :   0.6998
B(  4-C ,  6-H ) :   0.9316 B(  4-C ,  7-H ) :   0.9196

Dispersion correction           -0.001927792
FINAL SINGLE POINT ENERGY      -218.170080563650

DIPOLE MOMENT
-------------
                                X             Y             Z
Electronic contribution:      5.38762       0.49556       2.63089
Nuclear contribution   :     -6.00193       0.02246      -3.08821
                        -----------------------------------------
Total Dipole Moment    :     -0.61431       0.51802      -0.45732
                        -----------------------------------------
Magnitude (a.u.)       :      0.92459
Magnitude (Debye)      :      2.35011

Rotational constants in cm-1:     0.475356     0.173608     0.142756
Rotational constants in MHz : 14250.818869  5204.623090  4279.716550

                             ****ORCA TERMINATED NORMALLY****
TOTAL RUN TIME: 0 days 0 hours 0 minutes 7 seconds 18 msec
