                         Program Version 5.0.0 -  RELEASE  -
|  1> !wB97X-D3 RIJCOSX def2-SVPD def2/J TightSCF CPCM(Water)
|  2> *xyz 0 1
|  3> C          3.95643        0.50147       -0.37910
|  4> H          3.16840        0.02920        0.20738
|  5> C          3.80389        1.96157       -0.15675
|  6> C          3.84232        0.14849       -1.85406
|  7> H          4.92323        0.17798        0.00937
|  8> H          4.62002        0.69450       -2.40215
|  9> H          4.09601       -0.91093       -1.95510
| 10> C          2.47562        0.41271       -2.48538
| 11> H          4.20643        2.24441        0.74536
| 12> H          2.80827        2.21132       -0.09610
| 13> H          4.28076        2.50155       -0.89104
| 14> H          2.49958        0.13290       -3.51787
| 15> H          2.23992        1.45318       -2.40319
| 16> H          1.73061       -0.16300       -1.97702
| 17> *
| 18>
| 19> %MaxCore 64000
| 20> %pal nprocs 18
| 21> end
| 22>
| 23> %scf
| 24>   MaxIter 150
| 25> end
| 26>
| 27>
| 28>                          ****END OF INPUT****

CARTESIAN COORDINATES (ANGSTROEM)
---------------------------------
  C      3.956430    0.501470   -0.379100
  H      3.168400    0.029200    0.207380
  C      3.803890    1.961570   -0.156750
  C      3.842320    0.148490   -1.854060
  H      4.923230    0.177980    0.009370
  H      4.620020    0.694500   -2.402150
  H      4.096010   -0.910930   -1.955100
  C      2.475620    0.412710   -2.485380
  H      4.206430    2.244410    0.745360
  H      2.808270    2.211320   -0.096100
  H      4.280760    2.501550   -0.891040
  H      2.499580    0.132900   -3.517870
  H      2.239920    1.453180   -2.403190
  H      1.730610   -0.163000   -1.977020

 Total Charge           Charge          ....    0
 Multiplicity           Mult            ....    1
 Number of Electrons    NEL             ....   34
 Basis Dimension        Dim             ....  160

ORBITAL ENERGIES
----------------

  NO   OCC          E(Eh)            E(eV)
   0   2.0000     -10.274572      -279.5853
   1   2.0000     -10.269546      -279.4486
   2   2.0000     -10.264744      -279.3179
   3   2.0000     -10.244376      -278.7636
   4   2.0000      -0.909876       -24.7590
   5   2.0000      -0.833947       -22.6928
   6   2.0000      -0.747096       -20.3295
   7   2.0000      -0.666709       -18.1421
   8   2.0000      -0.563232       -15.3263
   9   2.0000      -0.560228       -15.2446
  10   2.0000      -0.521431       -14.1889
  11   2.0000      -0.482742       -13.1361
  12   2.0000      -0.475990       -12.9524
  13   2.0000      -0.454272       -12.3614
  14   2.0000      -0.412508       -11.2249
  15   2.0000      -0.409318       -11.1381
  16   2.0000      -0.407313       -11.0835
  17   0.0000       0.100830         2.7437
  18   0.0000       0.125136         3.4051
  19   0.0000       0.125697         3.4204
  20   0.0000       0.137061         3.7296
  21   0.0000       0.176243         4.7958

MULLIKEN ATOMIC CHARGES
-----------------------
   0 C :   -0.283847
   1 H :   -0.044785
   2 C :    0.894398
   3 C :   -0.394824
   4 H :   -0.084387
   5 H :    0.016193
   6 H :   -0.095491
   7 C :    0.606584
   8 H :   -0.257169
   9 H :   -0.101674
  10 H :   -0.175007
  11 H :   -0.018565
  12 H :   -0.058903
  13 H :   -0.002523
Sum of atomic charges:   -0.0000000

LOEWDIN ATOMIC CHARGES
----------------------
   0 C :   -0.083140
   1 H :    0.025056
   2 C :    0.111277
   3 C :   -0.090653
   4 H :    0.023364
   5 H :    0.023363
   6 H :    0.015032
   7 C :    0.120240
   8 H :   -0.033388
   9 H :   -0.029162
  10 H :   -0.026446
  11 H :   -0.018031
  12 H :   -0.023170
  13 H :   -0.014342

  Mayer bond orders larger than 0.100000
B(  0-C ,  1-H ) :   0.8978 B(  0-C ,  2-C ) :   1.2483 B(  0-C ,  3-C ) :   1.1400
B(  0-C ,  4-H ) :   0.9508 B(  0-C ,  6-H ) :   0.1307 B(  0-C ,  8-H ) :   0.2190
B(  0-C ,  9-H ) :   0.2485 B(  0-C , 10-H ) :   0.2286 B(  1-H ,  2-C ) :   0.1333
B(  1-H ,  3-C ) :   0.1167 B(  2-C ,  8-H ) :   0.7447 B(  2-C ,  9-H ) :   0.6961
B(  2-C , 10-H ) :   0.7431 B(  3-C ,  5-H ) :   0.9145 B(  3-C ,  6-H ) :   0.9841
B(  3-C ,  7-C ) :   1.2768 B(  3-C , 11-H ) :   0.1958 B(  3-C , 12-H ) :   0.1901
B(  3-C , 13-H ) :   0.1784 B(  7-C , 11-H ) :   0.7810 B(  7-C , 12-H ) :   0.8570
B(  7-C , 13-H ) :   0.8153

Dispersion correction           -0.002757932
FINAL SINGLE POINT ENERGY      -158.291391702938

DIPOLE MOMENT
-------------
                                X             Y             Z
Electronic contribution:      0.49717      -0.61842       0.10597
Nuclear contribution   :     -0.48267       0.62853      -0.07145
                        -----------------------------------------
Total Dipole Moment    :      0.01450       0.01011       0.03452
                        -----------------------------------------
Magnitude (a.u.)       :      0.03879
Magnitude (Debye)      :      0.09858

Rotational constants in cm-1:     0.457318     0.164089     0.140183
Rotational constants in MHz : 13710.038687  4919.250587  4202.581436

                             ****ORCA TERMINATED NORMALLY****
TOTAL RUN TIME: 0 days 0 hours 0 minutes 8 seconds 829 msec
