                         Program Version 5.0.0 -  RELEASE  -
|  1> !wB97X-D3 RIJCOSX def2-TZVP def2/J TightSCF
|  2> *xyz -1 1
|  3> C         -0.72184       -0.99951       -3.43931
|  4> C          0.28725       -1.71177       -2.52740
|  5> H          1.13178       -2.06738       -3.15940
|  6> H         -0.20414       -2.63733       -2.17048
|  7> O          0.71050       -0.92751       -1.48177
|  8> H         -1.01315       -1.65739       -4.23129
|  9> H         -0.27123       -0.12142       -3.85259
| 10> H         -1.58442       -0.72333       -2.86958
| 11> *
| 12> %MaxCore 64000
| 13>
| 14> %pal nprocs 4
| 15> end
| 16>
| 17> %scf
| 18>   MaxIter 150
| 19> end
| 20>
| 21>
| 22>                          ****END OF INPUT****

CARTESIAN COORDINATES (ANGSTROEM)
---------------------------------
  C     -0.721840   -0.999510   -3.439310
  C      0.287250   -1.711770   -2.527400
  H      1.131780   -2.067380   -3.159400
  H     -0.204140   -2.637330   -2.170480
  O      0.710500   -0.927510   -1.481770
  H     -1.013150   -1.657390   -4.231290
  H     -0.271230   -0.121420   -3.852590
  H     -1.584420   -0.723330   -2.869580

 Total Charge           Charge          ....   -1
 Multiplicity           Mult            ....    1
 Number of Electrons    NEL             ....   26
 Basis Dimension        Dim             ....  123

ORBITAL ENERGIES
----------------

  NO   OCC          E(Eh)            E(eV)
   0   2.0000     -18.868949      -513.4502
   1   2.0000     -10.077554      -274.2242
   2   2.0000     -10.057552      -273.6799
   3   2.0000      -0.775340       -21.0981
   4   2.0000      -0.633059       -17.2264
   5   2.0000      -0.472809       -12.8658
   6   2.0000      -0.344174        -9.3654
   7   2.0000      -0.320719        -8.7272
   8   2.0000      -0.261157        -7.1064
   9   2.0000      -0.243245        -6.6190
  10   2.0000      -0.190768        -5.1911
  11   2.0000      -0.044159        -1.2016
  12   2.0000      -0.041914        -1.1405
  13   0.0000       0.294401         8.0111
  14   0.0000       0.331367         9.0170
  15   0.0000       0.358227         9.7479
  16   0.0000       0.359827         9.7914
  17   0.0000       0.393374        10.7043

MULLIKEN ATOMIC CHARGES
-----------------------
   0 C :   -0.172515
   1 C :    0.086321
   2 H :   -0.077271
   3 H :   -0.075999
   4 O :   -0.807228
   5 H :   -0.020255
   6 H :    0.032443
   7 H :    0.034504
Sum of atomic charges:   -1.0000000

LOEWDIN ATOMIC CHARGES
----------------------
   0 C :   -0.361278
   1 C :   -0.547318
   2 H :    0.052440
   3 H :    0.053683
   4 O :   -0.449715
   5 H :    0.075330
   6 H :    0.088091
   7 H :    0.088767

  Mayer bond orders larger than 0.100000
B(  0-C ,  1-C ) :   0.9075 B(  0-C ,  4-O ) :  -0.1839 B(  0-C ,  5-H ) :   0.9434
B(  0-C ,  6-H ) :   0.9748 B(  0-C ,  7-H ) :   0.9761 B(  1-C ,  2-H ) :   0.9283
B(  1-C ,  3-H ) :   0.9287 B(  1-C ,  4-O ) :   1.5818

Dispersion correction           -0.000859691
FINAL SINGLE POINT ENERGY      -154.431197242085

DIPOLE MOMENT
-------------
                                X             Y             Z
Electronic contribution:      1.46424       0.77841       2.40890
Nuclear contribution   :     -2.24828      -1.06600      -3.62481
                        -----------------------------------------
Total Dipole Moment    :     -0.78404      -0.28758      -1.21591
                        -----------------------------------------
Magnitude (a.u.)       :      1.47507
Magnitude (Debye)      :      3.74934

Rotational constants in cm-1:     1.278116     0.325414     0.286672
Rotational constants in MHz : 38316.964654  9755.653004  8594.216906

                             ****ORCA TERMINATED NORMALLY****
TOTAL RUN TIME: 0 days 0 hours 0 minutes 15 seconds 666 msec
