                         Program Version 5.0.0 -  RELEASE  -
|  1> !wB97X-D3 RIJCOSX def2-TZVP def2/J TightSCF
|  2> *xyz 1 1
|  3> C          3.48828        1.60092       -1.52204
|  4> C          4.34297        1.31342       -2.75683
|  5> N          2.81029        0.42878       -1.01420
|  6> H          2.71455        2.33145       -1.76030
|  7> H          4.09099        2.06315       -0.73338
|  8> C          3.29098       -0.41802       -0.12908
|  9> N          2.51754       -1.43202        0.23936
| 10> N          4.53549       -0.28441        0.39580
| 11> H          5.04363        0.57189        0.22290
| 12> H          4.72335       -0.73327        1.28180
| 13> H          1.93479        0.10230       -1.40379
| 14> H          1.67464       -1.50562       -0.31610
| 15> H          2.92850       -2.21850        0.72549
| 16> H          3.73575        0.86277       -3.51385
| 17> H          5.13754        0.64699       -2.49333
| 18> H          4.75374        2.22930       -3.12740
| 19> *
| 20> %MaxCore 64000
| 21>
| 22> %pal nprocs 4
| 23> end
| 24>
| 25> %scf
| 26>   MaxIter 150
| 27> end
| 28>
| 29>
| 30>                          ****END OF INPUT****

CARTESIAN COORDINATES (ANGSTROEM)
---------------------------------
  C      3.488280    1.600920   -1.522040
  C      4.342970    1.313420   -2.756830
  N      2.810290    0.428780   -1.014200
  H      2.714550    2.331450   -1.760300
  H      4.090990    2.063150   -0.733380
  C      3.290980   -0.418020   -0.129080
  N      2.517540   -1.432020    0.239360
  N      4.535490   -0.284410    0.395800
  H      5.043630    0.571890    0.222900
  H      4.723350   -0.733270    1.281800
  H      1.934790    0.102300   -1.403790
  H      1.674640   -1.505620   -0.316100
  H      2.928500   -2.218500    0.725490
  H      3.735750    0.862770   -3.513850
  H      5.137540    0.646990   -2.493330
  H      4.753740    2.229300   -3.127400

 Total Charge           Charge          ....    1
 Multiplicity           Mult            ....    1
 Number of Electrons    NEL             ....   48
 Basis Dimension        Dim             ....  246

ORBITAL ENERGIES
----------------

  NO   OCC          E(Eh)            E(eV)
   0   2.0000     -14.650883      -398.6708
   1   2.0000     -14.645054      -398.5122
   2   2.0000     -14.642858      -398.4524
   3   2.0000     -10.612403      -288.7782
   4   2.0000     -10.485403      -285.3223
   5   2.0000     -10.408818      -283.2383
   6   2.0000      -1.339072       -36.4380
   7   2.0000      -1.224290       -33.3146
   8   2.0000      -1.210071       -32.9277
   9   2.0000      -1.049260       -28.5518
  10   2.0000      -0.948740       -25.8165
  11   2.0000      -0.916745       -24.9459
  12   2.0000      -0.884933       -24.0803
  13   2.0000      -0.851946       -23.1826
  14   2.0000      -0.791499       -21.5378
  15   2.0000      -0.782229       -21.2855
  16   2.0000      -0.753725       -20.5099
  17   2.0000      -0.742833       -20.2135
  18   2.0000      -0.702804       -19.1243
  19   2.0000      -0.659508       -17.9461
  20   2.0000      -0.629312       -17.1245
  21   2.0000      -0.608487       -16.5578
  22   2.0000      -0.573795       -15.6137
  23   2.0000      -0.544103       -14.8058
  24   0.0000      -0.084952        -2.3117
  25   0.0000      -0.071052        -1.9334
  26   0.0000      -0.040182        -1.0934
  27   0.0000      -0.023845        -0.6489
  28   0.0000       0.003058         0.0832

MULLIKEN ATOMIC CHARGES
-----------------------
   0 C :   -0.193536
   1 C :   -0.304724
   2 N :   -0.262973
   3 H :    0.172513
   4 H :    0.136280
   5 C :    0.468322
   6 N :   -0.423897
   7 N :   -0.446604
   8 H :    0.289385
   9 H :    0.295569
  10 H :    0.257526
  11 H :    0.278173
  12 H :    0.306568
  13 H :    0.137228
  14 H :    0.125539
  15 H :    0.164631
Sum of atomic charges:    1.0000000

LOEWDIN ATOMIC CHARGES
----------------------
   0 C :   -0.283912
   1 C :   -0.280519
   2 N :    0.175123
   3 H :    0.152021
   4 H :    0.139515
   5 C :   -0.394151
   6 N :    0.060807
   7 N :    0.044579
   8 H :    0.192072
   9 H :    0.197742
  10 H :    0.211755
  11 H :    0.199566
  12 H :    0.202702
  13 H :    0.126063
  14 H :    0.120982
  15 H :    0.135656

  Mayer bond orders larger than 0.100000
B(  0-C ,  1-C ) :   0.9790 B(  0-C ,  2-N ) :   0.8662 B(  0-C ,  3-H ) :   0.9559
B(  0-C ,  4-H ) :   0.9744 B(  1-C , 13-H ) :   0.9688 B(  1-C , 14-H ) :   0.9607
B(  1-C , 15-H ) :   0.9702 B(  2-N ,  5-C ) :   1.4076 B(  2-N , 10-H ) :   0.8986
B(  5-C ,  6-N ) :   1.3354 B(  5-C ,  7-N ) :   1.3109 B(  6-N , 11-H ) :   0.8975
B(  6-N , 12-H ) :   0.8859 B(  7-N ,  8-H ) :   0.8913 B(  7-N ,  9-H ) :   0.8920

Dispersion correction           -0.003785614
FINAL SINGLE POINT ENERGY      -284.426532833829

DIPOLE MOMENT
-------------
                                X             Y             Z
Electronic contribution:     -1.94515      -3.02310       3.75336
Nuclear contribution   :      1.59382       2.33278      -3.02574
                        -----------------------------------------
Total Dipole Moment    :     -0.35133      -0.69033       0.72763
                        -----------------------------------------
Magnitude (a.u.)       :      1.06274
Magnitude (Debye)      :      2.70128

Rotational constants in cm-1:     0.232230     0.073139     0.063030
Rotational constants in MHz :  6962.079716  2192.649203  1889.578947

                             ****ORCA TERMINATED NORMALLY****
TOTAL RUN TIME: 0 days 0 hours 0 minutes 53 seconds 582 msec
