                         Program Version 5.0.0 -  RELEASE  -
|  1> !wB97X-D3 RIJCOSX def2-TZVP def2/J TightSCF xyzfile
|  2>
|  3> *xyzfile 0 1 B.xyz
|  4>
|  5> %MaxCore 64000
|  6>
|  7> %pal nprocs 18
|  8> end
|  9>
| 10> %scf
| 11>   MaxIter 150
| 12> end
| 13>
| 14>
| 15>                          ****END OF INPUT****

CARTESIAN COORDINATES (ANGSTROEM)
---------------------------------
  C      3.488276    1.600919   -1.522040
  C      4.342970    1.313419   -2.756826
  N      2.810285    0.428783   -1.014196
  H      5.132033    0.604994   -2.484466
  C      3.535896    0.749253   -3.924604
  H      4.841247    2.242136   -3.054083
  H      2.991617   -0.132199   -3.574137
  H      4.225505    0.392784   -4.695962
  C      2.564776    1.750890   -4.544523
  H      1.918749    2.171679   -3.769419
  C      1.686235    1.161657   -5.650111
  H      3.132494    2.594775   -4.951604
  C      0.839616   -0.037582   -5.220473
  H      2.323886    0.866395   -6.490796
  H      1.029518    1.951850   -6.029329
  C     -0.151019    0.254955   -4.094256
  H      1.499442   -0.857141   -4.922958
  H      0.290097   -0.410143   -6.091131
  H      0.328265    0.833022   -3.299125
  C     -0.721843   -0.999513   -3.439309
  H     -0.957367    0.884951   -4.485450
  H     -1.083403   -1.697555   -4.205656
  H     -1.581056   -0.723848   -2.820490
  C      0.287250   -1.711771   -2.527405
  H      1.131780   -2.067380   -3.159396
  H     -0.204137   -2.637326   -2.170480
  O      0.710505   -0.927506   -1.481767
  H      2.714548    2.331455   -1.760302
  H      4.090991    2.063151   -0.733382
  C      3.290978   -0.418021   -0.129083
  N      2.517536   -1.432017    0.239360
  N      4.535490   -0.284410    0.395800
  H      5.043627    0.571888    0.222899
  H      4.723346   -0.733273    1.281800
  H      1.934787    0.102305   -1.403788
  H      1.674638   -1.505616   -0.316095
  H      2.928503   -2.218502    0.725494

 Total Charge           Charge          ....    0
 Multiplicity           Mult            ....    1
 Number of Electrons    NEL             ....  112
 Basis Dimension        Dim             ....  572

ORBITAL ENERGIES
----------------

  NO   OCC          E(Eh)            E(eV)
   0   2.0000     -19.092165      -519.5242
   1   2.0000     -14.480633      -394.0381
   2   2.0000     -14.442425      -392.9984
   3   2.0000     -14.434200      -392.7745
   4   2.0000     -10.425624      -283.6957
   5   2.0000     -10.328708      -281.0584
   6   2.0000     -10.283730      -279.8345
   7   2.0000     -10.266341      -279.3613
   8   2.0000     -10.260816      -279.2110
   9   2.0000     -10.254019      -279.0261
  10   2.0000     -10.249756      -278.9100
  11   2.0000     -10.241792      -278.6933
  12   2.0000     -10.230861      -278.3959
  13   2.0000     -10.218309      -278.0543
  14   2.0000      -1.151865       -31.3438
  15   2.0000      -1.045099       -28.4386
  16   2.0000      -1.025276       -27.8992
  17   2.0000      -0.993946       -27.0466
  18   2.0000      -0.928900       -25.2766
  19   2.0000      -0.893822       -24.3221
  20   2.0000      -0.854500       -23.2521
  21   2.0000      -0.815653       -22.1951
  22   2.0000      -0.773399       -21.0453
  23   2.0000      -0.758107       -20.6291
  24   2.0000      -0.720310       -19.6006
  25   2.0000      -0.707329       -19.2474
  26   2.0000      -0.701598       -19.0915
  27   2.0000      -0.669988       -18.2313
  28   2.0000      -0.651570       -17.7301
  29   2.0000      -0.623794       -16.9743
  30   2.0000      -0.613532       -16.6951
  31   2.0000      -0.595339       -16.2000
  32   2.0000      -0.584514       -15.9054
  33   2.0000      -0.571622       -15.5546
  34   2.0000      -0.562220       -15.2988
  35   2.0000      -0.554839       -15.0979
  36   2.0000      -0.534084       -14.5332
  37   2.0000      -0.519169       -14.1273
  38   2.0000      -0.511822       -13.9274
  39   2.0000      -0.491320       -13.3695
  40   2.0000      -0.485918       -13.2225
  41   2.0000      -0.474502       -12.9119
  42   2.0000      -0.453947       -12.3525
  43   2.0000      -0.447196       -12.1688
  44   2.0000      -0.439336       -11.9549
  45   2.0000      -0.427005       -11.6194
  46   2.0000      -0.414028       -11.2663
  47   2.0000      -0.404410       -11.0045
  48   2.0000      -0.402601       -10.9553
  49   2.0000      -0.398321       -10.8389
  50   2.0000      -0.380251       -10.3471
  51   2.0000      -0.376114       -10.2346
  52   2.0000      -0.370231       -10.0745
  53   2.0000      -0.356090        -9.6897
  54   2.0000      -0.267375        -7.2757
  55   2.0000      -0.260857        -7.0983
  56   0.0000       0.075807         2.0628
  57   0.0000       0.092377         2.5137
  58   0.0000       0.111054         3.0219
  59   0.0000       0.128359         3.4928
  60   0.0000       0.131382         3.5751

MULLIKEN ATOMIC CHARGES
-----------------------
   0 C :   -0.266537
   1 C :   -0.109406
   2 N :   -0.232863
   3 H :    0.106519
   4 C :   -0.242788
   5 H :    0.103428
   6 H :    0.131804
   7 H :    0.106776
   8 C :   -0.243895
   9 H :    0.103795
  10 C :   -0.131208
  11 H :    0.096583
  12 C :   -0.260638
  13 H :    0.095205
  14 H :    0.096109
  15 C :   -0.176109
  16 H :    0.107261
  17 H :    0.098366
  18 H :    0.084871
  19 C :   -0.092234
  20 H :    0.085746
  21 H :    0.058776
  22 H :    0.074897
  23 C :    0.020457
  24 H :    0.013092
  25 H :    0.040513
  26 O :   -0.782939
  27 H :    0.166015
  28 H :    0.113918
  29 C :    0.437734
  30 N :   -0.442658
  31 N :   -0.489770
  32 H :    0.261073
  33 H :    0.261519
  34 H :    0.271308
  35 H :    0.295881
  36 H :    0.239400
Sum of atomic charges:    0.0000000

LOEWDIN ATOMIC CHARGES
----------------------
   0 C :   -0.280958
   1 C :   -0.269577
   2 N :    0.177203
   3 H :    0.133956
   4 C :   -0.264418
   5 H :    0.138838
   6 H :    0.143054
   7 H :    0.137445
   8 C :   -0.270517
   9 H :    0.131007
  10 C :   -0.268910
  11 H :    0.133070
  12 C :   -0.270937
  13 H :    0.132974
  14 H :    0.134970
  15 C :   -0.273781
  16 H :    0.130699
  17 H :    0.132969
  18 H :    0.131110
  19 C :   -0.281837
  20 H :    0.128422
  21 H :    0.125443
  22 H :    0.130170
  23 C :   -0.469075
  24 H :    0.085320
  25 H :    0.098274
  26 O :   -0.309785
  27 H :    0.142514
  28 H :    0.125127
  29 C :   -0.410074
  30 N :    0.039740
  31 N :   -0.004750
  32 H :    0.175643
  33 H :    0.179153
  34 H :    0.163978
  35 H :    0.152344
  36 H :    0.171194

  Mayer bond orders larger than 0.100000
B(  0-C ,  1-C ) :   0.9282 B(  0-C ,  2-N ) :   0.8845 B(  0-C , 27-H ) :   0.9850
B(  0-C , 28-H ) :   0.9899 B(  1-C ,  3-H ) :   0.9711 B(  1-C ,  4-C ) :   0.9706
B(  1-C ,  5-H ) :   0.9789 B(  2-N , 29-C ) :   1.4602 B(  2-N , 34-H ) :   0.7384
B(  4-C ,  6-H ) :   0.9786 B(  4-C ,  7-H ) :   0.9739 B(  4-C ,  8-C ) :   0.9502
B(  8-C ,  9-H ) :   0.9874 B(  8-C , 10-C ) :   0.9850 B(  8-C , 11-H ) :   0.9699
B( 10-C , 12-C ) :   0.9648 B( 10-C , 13-H ) :   0.9808 B( 10-C , 14-H ) :   0.9797
B( 12-C , 15-C ) :   0.9544 B( 12-C , 16-H ) :   0.9941 B( 12-C , 17-H ) :   0.9722
B( 15-C , 18-H ) :   0.9775 B( 15-C , 19-C ) :   0.9823 B( 15-C , 20-H ) :   0.9687
B( 19-C , 21-H ) :   0.9682 B( 19-C , 22-H ) :   0.9662 B( 19-C , 23-C ) :   0.9726
B( 23-C , 24-H ) :   0.9688 B( 23-C , 25-H ) :   0.9583 B( 23-C , 26-O ) :   1.1283
B( 26-O , 34-H ) :   0.2576 B( 26-O , 35-H ) :   0.2388 B( 29-C , 30-N ) :   1.4034
B( 29-C , 31-N ) :   1.2123 B( 30-N , 35-H ) :   0.7393 B( 30-N , 36-H ) :   0.9165
B( 31-N , 32-H ) :   0.9060 B( 31-N , 33-H ) :   0.9108

Dispersion correction           -0.017848657
FINAL SINGLE POINT ENERGY      -634.467036002172

DIPOLE MOMENT
-------------
                                X             Y             Z
Electronic contribution:      3.65956      -2.05786      11.42037
Nuclear contribution   :     -0.74583       2.62534      -9.91488
                        -----------------------------------------
Total Dipole Moment    :      2.91373       0.56749       1.50548
                        -----------------------------------------
Magnitude (a.u.)       :      3.32842
Magnitude (Debye)      :      8.46016

Rotational constants in cm-1:     0.027028     0.016098     0.010898
Rotational constants in MHz :   810.278072   482.590922   326.703462

                             ****ORCA TERMINATED NORMALLY****
TOTAL RUN TIME: 0 days 0 hours 1 minutes 38 seconds 307 msec
