                         Program Version 5.0.0 -  RELEASE  -
|  1> !wB97X-D3 RIJCOSX def2-TZVP def2/J TightSCF
|  2> *xyz 0 1
|  3> C         -0.72184       -0.99951       -3.43931
|  4> C          0.28725       -1.71177       -2.52740
|  5> H          1.13178       -2.06738       -3.15940
|  6> H         -0.20414       -2.63733       -2.17048
|  7> F          0.71050       -0.92751       -1.48177
|  8> H         -1.01315       -1.65739       -4.23129
|  9> H         -0.27123       -0.12142       -3.85259
| 10> H         -1.58442       -0.72333       -2.86958
| 11> *
| 12> %MaxCore 64000
| 13>
| 14> %pal nprocs 4
| 15> end
| 16>
| 17> %scf
| 18>   MaxIter 150
| 19> end
| 20>
| 21>
| 22>                          ****END OF INPUT****

CARTESIAN COORDINATES (ANGSTROEM)
---------------------------------
  C     -0.721840   -0.999510   -3.439310
  C      0.287250   -1.711770   -2.527400
  H      1.131780   -2.067380   -3.159400
  H     -0.204140   -2.637330   -2.170480
  F      0.710500   -0.927510   -1.481770
  H     -1.013150   -1.657390   -4.231290
  H     -0.271230   -0.121420   -3.852590
  H     -1.584420   -0.723330   -2.869580

 Total Charge           Charge          ....    0
 Multiplicity           Mult            ....    1
 Number of Electrons    NEL             ....   26
 Basis Dimension        Dim             ....  123

ORBITAL ENERGIES
----------------

  NO   OCC          E(Eh)            E(eV)
   0   2.0000     -24.767860      -673.9677
   1   2.0000     -10.353302      -281.7277
   2   2.0000     -10.268289      -279.4143
   3   2.0000      -1.310136       -35.6506
   4   2.0000      -0.881063       -23.9749
   5   2.0000      -0.742029       -20.1916
   6   2.0000      -0.607944       -16.5430
   7   2.0000      -0.597488       -16.2585
   8   2.0000      -0.557489       -15.1701
   9   2.0000      -0.503585       -13.7032
  10   2.0000      -0.497868       -13.5477
  11   2.0000      -0.431490       -11.7414
  12   2.0000      -0.425157       -11.5691
  13   0.0000       0.124086         3.3765
  14   0.0000       0.163015         4.4359
  15   0.0000       0.182546         4.9673
  16   0.0000       0.185671         5.0524
  17   0.0000       0.195972         5.3327

MULLIKEN ATOMIC CHARGES
-----------------------
   0 C :   -0.326970
   1 C :    0.045932
   2 H :    0.088016
   3 H :    0.086636
   4 F :   -0.238856
   5 H :    0.110308
   6 H :    0.117162
   7 H :    0.117772
Sum of atomic charges:    0.0000000

LOEWDIN ATOMIC CHARGES
----------------------
   0 C :   -0.308546
   1 C :   -0.363456
   2 H :    0.116429
   3 H :    0.115836
   4 F :    0.086568
   5 H :    0.120645
   6 H :    0.116110
   7 H :    0.116414

  Mayer bond orders larger than 0.100000
B(  0-C ,  1-C ) :   0.9959 B(  0-C ,  5-H ) :   0.9618 B(  0-C ,  6-H ) :   0.9731
B(  0-C ,  7-H ) :   0.9729 B(  1-C ,  2-H ) :   0.9717 B(  1-C ,  3-H ) :   0.9725
B(  1-C ,  4-F ) :   0.9913

Dispersion correction           -0.000872236
FINAL SINGLE POINT ENERGY      -179.086119947994

DIPOLE MOMENT
-------------
                                X             Y             Z
Electronic contribution:      2.70412       1.04880       4.22687
Nuclear contribution   :     -2.97459      -1.40206      -4.79987
                        -----------------------------------------
Total Dipole Moment    :     -0.27047      -0.35326      -0.57300
                        -----------------------------------------
Magnitude (a.u.)       :      0.72545
Magnitude (Debye)      :      1.84394

Rotational constants in cm-1:     1.257024     0.302702     0.267953
Rotational constants in MHz : 37684.643733  9074.792567  8033.038070

                             ****ORCA TERMINATED NORMALLY****
TOTAL RUN TIME: 0 days 0 hours 0 minutes 13 seconds 700 msec
