                         Program Version 5.0.0 -  RELEASE  -
|  1> !wB97X-D3 RIJCOSX def2-TZVP def2/J TightSCF
|  2> *xyz 0 1
|  3> C          3.48828        1.60092       -1.52204
|  4> C          4.34297        1.31342       -2.75683
|  5> C          2.81029        0.42878       -1.01420
|  6> H          2.71455        2.33145       -1.76030
|  7> H          4.09099        2.06315       -0.73338
|  8> C          3.29098       -0.41802       -0.12908
|  9> N          2.51754       -1.43202        0.23936
| 10> N          4.53549       -0.28441        0.39580
| 11> H          5.04363        0.57189        0.22290
| 12> H          4.72335       -0.73327        1.28180
| 13> H          1.93479        0.10230       -1.40379
| 14> H          1.67464       -1.50562       -0.31610
| 15> H          2.92850       -2.21850        0.72549
| 16> H          3.73575        0.86277       -3.51385
| 17> H          5.13754        0.64699       -2.49333
| 18> H          4.75374        2.22930       -3.12740
| 19> *
| 20> %MaxCore 64000
| 21>
| 22> %pal nprocs 4
| 23> end
| 24>
| 25> %scf
| 26>   MaxIter 150
| 27> end
| 28>
| 29>
| 30>                          ****END OF INPUT****

CARTESIAN COORDINATES (ANGSTROEM)
---------------------------------
  C      3.488280    1.600920   -1.522040
  C      4.342970    1.313420   -2.756830
  C      2.810290    0.428780   -1.014200
  H      2.714550    2.331450   -1.760300
  H      4.090990    2.063150   -0.733380
  C      3.290980   -0.418020   -0.129080
  N      2.517540   -1.432020    0.239360
  N      4.535490   -0.284410    0.395800
  H      5.043630    0.571890    0.222900
  H      4.723350   -0.733270    1.281800
  H      1.934790    0.102300   -1.403790
  H      1.674640   -1.505620   -0.316100
  H      2.928500   -2.218500    0.725490
  H      3.735750    0.862770   -3.513850
  H      5.137540    0.646990   -2.493330
  H      4.753740    2.229300   -3.127400

 Total Charge           Charge          ....    0
 Multiplicity           Mult            ....    1
 Number of Electrons    NEL             ....   48
 Basis Dimension        Dim             ....  246

ORBITAL ENERGIES
----------------

  NO   OCC          E(Eh)            E(eV)
   0   2.0000     -14.419506      -392.3747
   1   2.0000     -14.414598      -392.2411
   2   2.0000     -10.314364      -280.6681
   3   2.0000     -10.250009      -278.9169
   4   2.0000     -10.236896      -278.5601
   5   2.0000     -10.193674      -277.3840
   6   2.0000      -1.075374       -29.2624
   7   2.0000      -0.984775       -26.7971
   8   2.0000      -0.890860       -24.2415
   9   2.0000      -0.808198       -21.9922
  10   2.0000      -0.723740       -19.6940
  11   2.0000      -0.684087       -18.6150
  12   2.0000      -0.638648       -17.3785
  13   2.0000      -0.612353       -16.6630
  14   2.0000      -0.562463       -15.3054
  15   2.0000      -0.537769       -14.6334
  16   2.0000      -0.516765       -14.0619
  17   2.0000      -0.496879       -13.5208
  18   2.0000      -0.477717       -12.9993
  19   2.0000      -0.447645       -12.1810
  20   2.0000      -0.425414       -11.5761
  21   2.0000      -0.413084       -11.2406
  22   2.0000      -0.359360        -9.7787
  23   2.0000      -0.247118        -6.7244
  24   0.0000       0.104071         2.8319
  25   0.0000       0.133130         3.6226
  26   0.0000       0.141641         3.8542
  27   0.0000       0.159378         4.3369
  28   0.0000       0.171789         4.6746

MULLIKEN ATOMIC CHARGES
-----------------------
   0 C :   -0.203774
   1 C :   -0.290893
   2 C :   -0.293772
   3 H :    0.093599
   4 H :    0.064258
   5 C :    0.330578
   6 N :   -0.499583
   7 N :   -0.521851
   8 H :    0.243644
   9 H :    0.227360
  10 H :    0.071250
  11 H :    0.244296
  12 H :    0.232313
  13 H :    0.102657
  14 H :    0.100791
  15 H :    0.099130
Sum of atomic charges:   -0.0000000

LOEWDIN ATOMIC CHARGES
----------------------
   0 C :   -0.306241
   1 C :   -0.300084
   2 C :   -0.280962
   3 H :    0.138482
   4 H :    0.126526
   5 C :   -0.450821
   6 N :   -0.023978
   7 N :   -0.034364
   8 H :    0.170640
   9 H :    0.161162
  10 H :    0.119747
  11 H :    0.182510
  12 H :    0.163917
  13 H :    0.113918
  14 H :    0.112005
  15 H :    0.107543

  Mayer bond orders larger than 0.100000
B(  0-C ,  1-C ) :   0.9586 B(  0-C ,  2-C ) :   1.0029 B(  0-C ,  3-H ) :   0.9843
B(  0-C ,  4-H ) :   0.9930 B(  1-C , 13-H ) :   0.9837 B(  1-C , 14-H ) :   0.9773
B(  1-C , 15-H ) :   0.9831 B(  2-C ,  5-C ) :   1.6914 B(  2-C , 10-H ) :   0.9872
B(  5-C ,  6-N ) :   1.1620 B(  5-C ,  7-N ) :   1.1392 B(  6-N , 11-H ) :   0.9182
B(  6-N , 12-H ) :   0.9213 B(  7-N ,  8-H ) :   0.9210 B(  7-N ,  9-H ) :   0.9238

Dispersion correction           -0.003779931
FINAL SINGLE POINT ENERGY      -267.944139209152

DIPOLE MOMENT
-------------
                                X             Y             Z
Electronic contribution:     -1.25422      -2.96548       3.69398
Nuclear contribution   :      1.44676       2.38443      -3.07370
                        -----------------------------------------
Total Dipole Moment    :      0.19255      -0.58105       0.62028
                        -----------------------------------------
Magnitude (a.u.)       :      0.87146
Magnitude (Debye)      :      2.21508

Rotational constants in cm-1:     0.235977     0.073199     0.063283
Rotational constants in MHz :  7074.404583  2194.453291  1897.179599

                             ****ORCA TERMINATED NORMALLY****
TOTAL RUN TIME: 0 days 0 hours 0 minutes 53 seconds 762 msec
