                         Program Version 5.0.0 -  RELEASE  -
|  1> !wB97X-D3 RIJCOSX def2-TZVP def2/J TightSCF
|  2> *xyz 0 1
|  3> C          3.48828        1.60092       -1.52204
|  4> C          4.34297        1.31342       -2.75683
|  5> N          2.81029        0.42878       -1.01420
|  6> H          2.71455        2.33145       -1.76030
|  7> H          4.09099        2.06315       -0.73338
|  8> C          3.29098       -0.41802       -0.12908
|  9> C          2.51754       -1.43202        0.23936
| 10> N          4.53549       -0.28441        0.39580
| 11> H          5.04363        0.57189        0.22290
| 12> H          4.72335       -0.73327        1.28180
| 13> H          1.93479        0.10230       -1.40379
| 14> H          1.67464       -1.50562       -0.31610
| 15> H          2.92850       -2.21850        0.72549
| 16> H          3.73575        0.86277       -3.51385
| 17> H          5.13754        0.64699       -2.49333
| 18> H          4.75374        2.22930       -3.12740
| 19> *
| 20> %MaxCore 64000
| 21>
| 22> %pal nprocs 4
| 23> end
| 24>
| 25> %scf
| 26>   MaxIter 150
| 27> end
| 28>
| 29>
| 30>                          ****END OF INPUT****

CARTESIAN COORDINATES (ANGSTROEM)
---------------------------------
  C      3.488280    1.600920   -1.522040
  C      4.342970    1.313420   -2.756830
  N      2.810290    0.428780   -1.014200
  H      2.714550    2.331450   -1.760300
  H      4.090990    2.063150   -0.733380
  C      3.290980   -0.418020   -0.129080
  C      2.517540   -1.432020    0.239360
  N      4.535490   -0.284410    0.395800
  H      5.043630    0.571890    0.222900
  H      4.723350   -0.733270    1.281800
  H      1.934790    0.102300   -1.403790
  H      1.674640   -1.505620   -0.316100
  H      2.928500   -2.218500    0.725490
  H      3.735750    0.862770   -3.513850
  H      5.137540    0.646990   -2.493330
  H      4.753740    2.229300   -3.127400

 Total Charge           Charge          ....    0
 Multiplicity           Mult            ....    1
 Number of Electrons    NEL             ....   48
 Basis Dimension        Dim             ....  246

ORBITAL ENERGIES
----------------

  NO   OCC          E(Eh)            E(eV)
   0   2.0000     -14.421854      -392.4386
   1   2.0000     -14.420025      -392.3888
   2   2.0000     -10.319878      -280.8182
   3   2.0000     -10.318321      -280.7758
   4   2.0000     -10.264006      -279.2978
   5   2.0000     -10.179072      -276.9866
   6   2.0000      -1.087477       -29.5917
   7   2.0000      -0.999278       -27.1917
   8   2.0000      -0.892016       -24.2730
   9   2.0000      -0.816005       -22.2046
  10   2.0000      -0.740808       -20.1584
  11   2.0000      -0.703831       -19.1522
  12   2.0000      -0.638713       -17.3803
  13   2.0000      -0.601930       -16.3793
  14   2.0000      -0.577309       -15.7094
  15   2.0000      -0.539779       -14.6881
  16   2.0000      -0.531257       -14.4562
  17   2.0000      -0.502676       -13.6785
  18   2.0000      -0.474350       -12.9077
  19   2.0000      -0.467446       -12.7199
  20   2.0000      -0.460451       -12.5295
  21   2.0000      -0.452000       -12.2995
  22   2.0000      -0.351242        -9.5578
  23   2.0000      -0.247864        -6.7447
  24   0.0000       0.101947         2.7741
  25   0.0000       0.129658         3.5282
  26   0.0000       0.138522         3.7694
  27   0.0000       0.159060         4.3282
  28   0.0000       0.165573         4.5055

MULLIKEN ATOMIC CHARGES
-----------------------
   0 C :   -0.158559
   1 C :   -0.275966
   2 N :   -0.326377
   3 H :    0.117222
   4 H :    0.099223
   5 C :    0.393223
   6 C :   -0.525223
   7 N :   -0.514750
   8 H :    0.224240
   9 H :    0.256814
  10 H :    0.227174
  11 H :    0.053721
  12 H :    0.100662
  13 H :    0.106740
  14 H :    0.113622
  15 H :    0.108233
Sum of atomic charges:    0.0000000

LOEWDIN ATOMIC CHARGES
----------------------
   0 C :   -0.314081
   1 C :   -0.303225
   2 N :    0.122016
   3 H :    0.131393
   4 H :    0.126016
   5 C :   -0.453545
   6 C :   -0.351878
   7 N :   -0.029497
   8 H :    0.157585
   9 H :    0.177559
  10 H :    0.198798
  11 H :    0.096181
  12 H :    0.096318
  13 H :    0.115503
  14 H :    0.115987
  15 H :    0.114870

  Mayer bond orders larger than 0.100000
B(  0-C ,  1-C ) :   0.9598 B(  0-C ,  2-N ) :   0.9355 B(  0-C ,  3-H ) :   0.9775
B(  0-C ,  4-H ) :   0.9851 B(  1-C , 13-H ) :   0.9763 B(  1-C , 14-H ) :   0.9707
B(  1-C , 15-H ) :   0.9757 B(  2-N ,  5-C ) :   1.1968 B(  2-N , 10-H ) :   0.9200
B(  5-C ,  6-C ) :   1.6298 B(  5-C ,  7-N ) :   1.1222 B(  6-C , 11-H ) :   1.0140
B(  6-C , 12-H ) :   1.0105 B(  7-N ,  8-H ) :   0.9242 B(  7-N ,  9-H ) :   0.9195

Dispersion correction           -0.003812158
FINAL SINGLE POINT ENERGY      -267.932117434017

DIPOLE MOMENT
-------------
                                X             Y             Z
Electronic contribution:     -0.84690      -1.02223       2.41560
Nuclear contribution   :      1.38466       1.98967      -2.80776
                        -----------------------------------------
Total Dipole Moment    :      0.53775       0.96744      -0.39216
                        -----------------------------------------
Magnitude (a.u.)       :      1.17427
Magnitude (Debye)      :      2.98476

Rotational constants in cm-1:     0.235618     0.075969     0.065309
Rotational constants in MHz :  7063.646698  2277.495424  1957.925383

                             ****ORCA TERMINATED NORMALLY****
TOTAL RUN TIME: 0 days 0 hours 0 minutes 55 seconds 203 msec
