                         Program Version 5.0.0 -  RELEASE  -
|  1> !wB97X-D3 RIJCOSX def2-TZVP def2/J TightSCF
|  2> *xyz 0 1
|  3> C          3.48828        1.60092       -1.52204
|  4> C          4.34297        1.31342       -2.75683
|  5> N          2.81029        0.42878       -1.01420
|  6> H          2.71455        2.33145       -1.76030
|  7> H          4.09099        2.06315       -0.73338
|  8> C          3.29098       -0.41802       -0.12908
|  9> N          2.51754       -1.43202        0.23936
| 10> C          4.53549       -0.28441        0.39580
| 11> H          5.04363        0.57189        0.22290
| 12> H          4.72335       -0.73327        1.28180
| 13> H          1.93479        0.10230       -1.40379
| 14> H          1.67464       -1.50562       -0.31610
| 15> H          2.92850       -2.21850        0.72549
| 16> H          3.73575        0.86277       -3.51385
| 17> H          5.13754        0.64699       -2.49333
| 18> H          4.75374        2.22930       -3.12740
| 19> *
| 20> %MaxCore 64000
| 21>
| 22> %pal nprocs 4
| 23> end
| 24>
| 25> %scf
| 26>   MaxIter 150
| 27> end
| 28>
| 29>
| 30>                          ****END OF INPUT****

CARTESIAN COORDINATES (ANGSTROEM)
---------------------------------
  C      3.488280    1.600920   -1.522040
  C      4.342970    1.313420   -2.756830
  N      2.810290    0.428780   -1.014200
  H      2.714550    2.331450   -1.760300
  H      4.090990    2.063150   -0.733380
  C      3.290980   -0.418020   -0.129080
  N      2.517540   -1.432020    0.239360
  C      4.535490   -0.284410    0.395800
  H      5.043630    0.571890    0.222900
  H      4.723350   -0.733270    1.281800
  H      1.934790    0.102300   -1.403790
  H      1.674640   -1.505620   -0.316100
  H      2.928500   -2.218500    0.725490
  H      3.735750    0.862770   -3.513850
  H      5.137540    0.646990   -2.493330
  H      4.753740    2.229300   -3.127400

 Total Charge           Charge          ....    0
 Multiplicity           Mult            ....    1
 Number of Electrons    NEL             ....   48
 Basis Dimension        Dim             ....  246

ORBITAL ENERGIES
----------------

  NO   OCC          E(Eh)            E(eV)
   0   2.0000     -14.427793      -392.6002
   1   2.0000     -14.422085      -392.4449
   2   2.0000     -10.322761      -280.8966
   3   2.0000     -10.310249      -280.5561
   4   2.0000     -10.255752      -279.0732
   5   2.0000     -10.179890      -277.0089
   6   2.0000      -1.096612       -29.8403
   7   2.0000      -1.004886       -27.3443
   8   2.0000      -0.871748       -23.7215
   9   2.0000      -0.819328       -22.2950
  10   2.0000      -0.755085       -20.5469
  11   2.0000      -0.668799       -18.1990
  12   2.0000      -0.645457       -17.5638
  13   2.0000      -0.631905       -17.1950
  14   2.0000      -0.566833       -15.4243
  15   2.0000      -0.540342       -14.7034
  16   2.0000      -0.527490       -14.3537
  17   2.0000      -0.491158       -13.3651
  18   2.0000      -0.475177       -12.9302
  19   2.0000      -0.464654       -12.6439
  20   2.0000      -0.456047       -12.4097
  21   2.0000      -0.441551       -12.0152
  22   2.0000      -0.345019        -9.3884
  23   2.0000      -0.250611        -6.8195
  24   0.0000       0.097985         2.6663
  25   0.0000       0.131561         3.5800
  26   0.0000       0.143527         3.9056
  27   0.0000       0.156965         4.2712
  28   0.0000       0.175998         4.7891

MULLIKEN ATOMIC CHARGES
-----------------------
   0 C :   -0.117840
   1 C :   -0.301252
   2 N :   -0.337479
   3 H :    0.109492
   4 H :    0.122716
   5 C :    0.378884
   6 N :   -0.492012
   7 C :   -0.544933
   8 H :    0.077049
   9 H :    0.094048
  10 H :    0.191040
  11 H :    0.210977
  12 H :    0.266778
  13 H :    0.093035
  14 H :    0.140092
  15 H :    0.109403
Sum of atomic charges:   -0.0000000

LOEWDIN ATOMIC CHARGES
----------------------
   0 C :   -0.297121
   1 C :   -0.300931
   2 N :    0.119792
   3 H :    0.128678
   4 H :    0.137457
   5 C :   -0.464137
   6 N :   -0.014117
   7 C :   -0.371019
   8 H :    0.092314
   9 H :    0.094021
  10 H :    0.179130
  11 H :    0.163818
  12 H :    0.182607
  13 H :    0.111595
  14 H :    0.122287
  15 H :    0.115628

  Mayer bond orders larger than 0.100000
B(  0-C ,  1-C ) :   0.9675 B(  0-C ,  2-N ) :   0.9158 B(  0-C ,  3-H ) :   0.9778
B(  0-C ,  4-H ) :   0.9737 B(  1-C , 13-H ) :   0.9768 B(  1-C , 14-H ) :   0.9728
B(  1-C , 15-H ) :   0.9776 B(  2-N ,  5-C ) :   1.1895 B(  2-N , 10-H ) :   0.9276
B(  5-C ,  6-N ) :   1.1464 B(  5-C ,  7-C ) :   1.6153 B(  6-N , 11-H ) :   0.9280
B(  6-N , 12-H ) :   0.9136 B(  7-C ,  8-H ) :   1.0166 B(  7-C ,  9-H ) :   1.0022

Dispersion correction           -0.003779941
FINAL SINGLE POINT ENERGY      -267.931884894845

DIPOLE MOMENT
-------------
                                X             Y             Z
Electronic contribution:     -2.89192      -2.31352       2.16627
Nuclear contribution   :      1.81275       2.23313      -2.77458
                        -----------------------------------------
Total Dipole Moment    :     -1.07916      -0.08039      -0.60830
                        -----------------------------------------
Magnitude (a.u.)       :      1.24141
Magnitude (Debye)      :      3.15540

Rotational constants in cm-1:     0.245202     0.073668     0.064348
Rotational constants in MHz :  7350.977980  2208.513334  1929.108541

                             ****ORCA TERMINATED NORMALLY****
TOTAL RUN TIME: 0 days 0 hours 0 minutes 54 seconds 25 msec
