                         Program Version 5.0.0 -  RELEASE  -
|  1> !M062X D3Zero RIJCOSX def2-SVPD def2/J TightSCF
|  2> *xyz -1 1
|  3> C         -0.77894        0.17197        1.80496
|  4> C         -0.60249       -0.63071        0.49224
|  5> H          0.31389       -1.24035        0.60350
|  6> H         -0.36383        0.11332       -0.30117
|  7> O         -1.71206       -1.37684        0.20253
|  8> H         -1.65864        0.77733        1.73736
|  9> H          0.07466        0.79896        1.95712
| 10> H         -0.87474       -0.50584        2.62734
| 11> *
| 12> %MaxCore 64000
| 13>
| 14> %pal nprocs 4
| 15> end
| 16>
| 17> %scf
| 18>   MaxIter 150
| 19> end
| 20>
| 21>
| 22>                          ****END OF INPUT****

CARTESIAN COORDINATES (ANGSTROEM)
---------------------------------
  C     -0.778940    0.171970    1.804960
  C     -0.602490   -0.630710    0.492240
  H      0.313890   -1.240350    0.603500
  H     -0.363830    0.113320   -0.301170
  O     -1.712060   -1.376840    0.202530
  H     -1.658640    0.777330    1.737360
  H      0.074660    0.798960    1.957120
  H     -0.874740   -0.505840    2.627340

 Total Charge           Charge          ....   -1
 Multiplicity           Mult            ....    1
 Number of Electrons    NEL             ....   26
 Basis Dimension        Dim             ....  103

ORBITAL ENERGIES
----------------

  NO   OCC          E(Eh)            E(eV)
   0   2.0000     -19.298468      -525.1380
   1   2.0000     -10.364128      -282.0223
   2   2.0000     -10.340068      -281.3676
   3   2.0000      -0.777316       -21.1518
   4   2.0000      -0.608362       -16.5544
   5   2.0000      -0.447816       -12.1857
   6   2.0000      -0.317629        -8.6431
   7   2.0000      -0.292368        -7.9557
   8   2.0000      -0.234575        -6.3831
   9   2.0000      -0.220465        -5.9992
  10   2.0000      -0.176673        -4.8075
  11   2.0000      -0.031090        -0.8460
  12   2.0000      -0.030474        -0.8292
  13   0.0000       0.201234         5.4759
  14   0.0000       0.231724         6.3055
  15   0.0000       0.273043         7.4299
  16   0.0000       0.285025         7.7559
  17   0.0000       0.297318         8.0904

MULLIKEN ATOMIC CHARGES
-----------------------
   0 C :    0.332493
   1 C :    0.174118
   2 H :   -0.160409
   3 H :   -0.138896
   4 O :   -0.915585
   5 H :   -0.109514
   6 H :   -0.075778
   7 H :   -0.106429
Sum of atomic charges:   -1.0000000

LOEWDIN ATOMIC CHARGES
----------------------
   0 C :    0.063248
   1 C :   -0.251518
   2 H :   -0.033066
   3 H :   -0.031132
   4 O :   -0.598352
   5 H :   -0.042954
   6 H :   -0.061477
   7 H :   -0.044749

  Mayer bond orders larger than 0.100000
B(  0-C ,  1-C ) :   1.1726 B(  0-C ,  2-H ) :   0.1116 B(  0-C ,  3-H ) :   0.1142
B(  0-C ,  4-O ) :   0.1302 B(  0-C ,  5-H ) :   0.9012 B(  0-C ,  6-H ) :   0.8995
B(  0-C ,  7-H ) :   0.9029 B(  1-C ,  2-H ) :   0.9837 B(  1-C ,  3-H ) :   0.9719
B(  1-C ,  4-O ) :   1.1296 B(  1-C ,  5-H ) :   0.1770 B(  1-C ,  6-H ) :   0.1151
B(  1-C ,  7-H ) :   0.1635

Dispersion correction           -0.000014817
FINAL SINGLE POINT ENERGY      -154.233965936456

DIPOLE MOMENT
-------------
                                X             Y             Z
Electronic contribution:     -1.56909      -1.79692      -1.46666
Nuclear contribution   :      2.47835       2.80827       2.30058
                        -----------------------------------------
Total Dipole Moment    :      0.90926       1.01135       0.83392
                        -----------------------------------------
Magnitude (a.u.)       :      1.59531
Magnitude (Debye)      :      4.05495

Rotational constants in cm-1:     1.255775     0.327783     0.287473
Rotational constants in MHz : 37647.186859  9826.677683  8618.224821

                             ****ORCA TERMINATED NORMALLY****
TOTAL RUN TIME: 0 days 0 hours 0 minutes 11 seconds 628 msec
