                         Program Version 5.0.0 -  RELEASE  -
|  1> !M062X D3Zero RIJCOSX def2-SVPD def2/J TightSCF
|  2> *xyz 1 1
|  3> C         -2.12050        0.88520        1.78951
|  4> C         -0.77894        0.17197        1.80496
|  5> H         -2.32419        1.47265        2.68608
|  6> H         -2.18770        1.54127        0.91948
|  7> N         -3.17690       -0.15948        1.61070
|  8> H         -4.06474        0.23127        1.28675
|  9> H         -3.34407       -0.67151        2.48493
| 10> H         -2.71686       -0.78189        0.93588
| 11> H         -0.65708       -0.37837        0.89547
| 12> H         -0.74207       -0.50050        2.63642
| 13> H          0.00707        0.89251        1.89389
| 14> *
| 15> %MaxCore 64000
| 16>
| 17> %pal nprocs 4
| 18> end
| 19>
| 20> %scf
| 21>   MaxIter 150
| 22> end
| 23>
| 24>
| 25>                          ****END OF INPUT****

CARTESIAN COORDINATES (ANGSTROEM)
---------------------------------
  C     -2.120500    0.885200    1.789510
  C     -0.778940    0.171970    1.804960
  H     -2.324190    1.472650    2.686080
  H     -2.187700    1.541270    0.919480
  N     -3.176900   -0.159480    1.610700
  H     -4.064740    0.231270    1.286750
  H     -3.344070   -0.671510    2.484930
  H     -2.716860   -0.781890    0.935880
  H     -0.657080   -0.378370    0.895470
  H     -0.742070   -0.500500    2.636420
  H      0.007070    0.892510    1.893890

 Total Charge           Charge          ....    1
 Multiplicity           Mult            ....    1
 Number of Electrons    NEL             ....   26
 Basis Dimension        Dim             ....  124

ORBITAL ENERGIES
----------------

  NO   OCC          E(Eh)            E(eV)
   0   2.0000     -15.094762      -410.7493
   1   2.0000     -10.808243      -294.1073
   2   2.0000     -10.731917      -292.0303
   3   2.0000      -1.314242       -35.7623
   4   2.0000      -1.056286       -28.7430
   5   2.0000      -0.926194       -25.2030
   6   2.0000      -0.879899       -23.9433
   7   2.0000      -0.868831       -23.6421
   8   2.0000      -0.760893       -20.7050
   9   2.0000      -0.713254       -19.4086
  10   2.0000      -0.648924       -17.6581
  11   2.0000      -0.641430       -17.4542
  12   2.0000      -0.619800       -16.8656
  13   0.0000      -0.166237        -4.5235
  14   0.0000      -0.107405        -2.9226
  15   0.0000      -0.104239        -2.8365
  16   0.0000      -0.100369        -2.7312
  17   0.0000      -0.067953        -1.8491

MULLIKEN ATOMIC CHARGES
-----------------------
   0 C :    0.160753
   1 C :    0.499403
   2 H :   -0.089713
   3 H :   -0.000371
   4 N :   -0.813087
   5 H :    0.335989
   6 H :    0.386417
   7 H :    0.464526
   8 H :    0.013788
   9 H :    0.070466
  10 H :   -0.028170
Sum of atomic charges:    1.0000000

LOEWDIN ATOMIC CHARGES
----------------------
   0 C :    0.061677
   1 C :    0.170513
   2 H :    0.054419
   3 H :    0.055204
   4 N :    0.324578
   5 H :    0.107633
   6 H :    0.111302
   7 H :    0.089832
   8 H :    0.001456
   9 H :    0.005996
  10 H :    0.017390

  Mayer bond orders larger than 0.100000
B(  0-C ,  1-C ) :   1.2757 B(  0-C ,  2-H ) :   0.9942 B(  0-C ,  3-H ) :   0.9290
B(  0-C ,  4-N ) :   0.8096 B(  0-C ,  8-H ) :   0.1325 B(  0-C ,  9-H ) :   0.1181
B(  0-C , 10-H ) :   0.1668 B(  1-C ,  8-H ) :   0.8576 B(  1-C ,  9-H ) :   0.8308
B(  1-C , 10-H ) :   0.8945 B(  4-N ,  5-H ) :   0.7933 B(  4-N ,  6-H ) :   0.7781
B(  4-N ,  7-H ) :   0.6211

Dispersion correction           -0.000047288
FINAL SINGLE POINT ENERGY      -135.356115415845

DIPOLE MOMENT
-------------
                                X             Y             Z
Electronic contribution:     -1.81490      -0.15072      -0.05769
Nuclear contribution   :      0.50278      -0.30871      -0.06979
                        -----------------------------------------
Total Dipole Moment    :     -1.31212      -0.45944      -0.12748
                        -----------------------------------------
Magnitude (a.u.)       :      1.39606
Magnitude (Debye)      :      3.54851

Rotational constants in cm-1:     0.963746     0.295157     0.256910
Rotational constants in MHz : 28892.375247  8848.576767  7701.963879

                             ****ORCA TERMINATED NORMALLY****
TOTAL RUN TIME: 0 days 0 hours 0 minutes 14 seconds 177 msec
