                         Program Version 5.0.0 -  RELEASE  -
|  1> !M062X D3Zero RIJCOSX def2-SVPD def2/J TightSCF xyzfile
|  2>
|  3> *xyzfile 0 1 B.xyz
|  4>
|  5> %MaxCore 64000
|  6>
|  7> %pal nprocs 4
|  8> end
|  9>
| 10> %scf
| 11>   MaxIter 150
| 12> end
| 13>
| 14>
| 15>                          ****END OF INPUT****

CARTESIAN COORDINATES (ANGSTROEM)
---------------------------------
  C     -2.120502    0.885196    1.789506
  C     -0.778939    0.171966    1.804965
  H     -2.324193    1.472649    2.686078
  H     -2.187698    1.541272    0.919482
  N     -3.176900   -0.159484    1.610700
  H      0.015695    0.910767    1.939153
  H     -0.743553   -0.506827    2.665420
  C     -0.602493   -0.630712    0.492240
  H      0.313894   -1.240346    0.603498
  H     -0.363829    0.113322   -0.301169
  O     -1.712061   -1.376836    0.202535
  H     -4.064736    0.231272    1.286754
  H     -3.344073   -0.671511    2.484928
  H     -2.716861   -0.781886    0.935880

 Total Charge           Charge          ....    0
 Multiplicity           Mult            ....    1
 Number of Electrons    NEL             ....   42
 Basis Dimension        Dim             ....  175

ORBITAL ENERGIES
----------------

  NO   OCC          E(Eh)            E(eV)
   0   2.0000     -19.508367      -530.8497
   1   2.0000     -14.840255      -403.8239
   2   2.0000     -10.616721      -288.8957
   3   2.0000     -10.549814      -287.0750
   4   2.0000     -10.544932      -286.9422
   5   2.0000      -1.090536       -29.6750
   6   2.0000      -0.996648       -27.1202
   7   2.0000      -0.860401       -23.4127
   8   2.0000      -0.736980       -20.0542
   9   2.0000      -0.671812       -18.2809
  10   2.0000      -0.648517       -17.6470
  11   2.0000      -0.619410       -16.8550
  12   2.0000      -0.556316       -15.1381
  13   2.0000      -0.505627       -13.7588
  14   2.0000      -0.472402       -12.8547
  15   2.0000      -0.468486       -12.7481
  16   2.0000      -0.426465       -11.6047
  17   2.0000      -0.405419       -11.0320
  18   2.0000      -0.385055       -10.4779
  19   2.0000      -0.251723        -6.8497
  20   2.0000      -0.244329        -6.6485
  21   0.0000       0.008924         0.2428
  22   0.0000       0.046822         1.2741
  23   0.0000       0.051758         1.4084
  24   0.0000       0.073415         1.9977
  25   0.0000       0.098945         2.6924

MULLIKEN ATOMIC CHARGES
-----------------------
   0 C :    0.563599
   1 C :    0.019883
   2 H :   -0.248850
   3 H :    0.004503
   4 N :   -0.486150
   5 H :   -0.120869
   6 H :    0.004432
   7 C :    0.586514
   8 H :   -0.141352
   9 H :   -0.007100
  10 O :   -0.811582
  11 H :    0.256760
  12 H :    0.390381
  13 H :   -0.010171
Sum of atomic charges:   -0.0000000

LOEWDIN ATOMIC CHARGES
----------------------
   0 C :    0.078636
   1 C :   -0.021782
   2 H :    0.022563
   3 H :    0.042653
   4 N :    0.296229
   5 H :    0.022860
   6 H :    0.024614
   7 C :   -0.064023
   8 H :    0.010814
   9 H :    0.011931
  10 O :   -0.411308
  11 H :    0.080369
  12 H :    0.087819
  13 H :   -0.181374

  Mayer bond orders larger than 0.100000
B(  0-C ,  1-C ) :   1.1449 B(  0-C ,  2-H ) :   0.9616 B(  0-C ,  3-H ) :   0.8619
B(  0-C ,  4-N ) :   0.8442 B(  1-C ,  5-H ) :   0.9612 B(  1-C ,  6-H ) :   0.8898
B(  1-C ,  7-C ) :   1.1238 B(  1-C ,  8-H ) :   0.1243 B(  1-C ,  9-H ) :   0.1045
B(  2-H ,  4-N ) :   0.1349 B(  4-N , 11-H ) :   0.8770 B(  4-N , 12-H ) :   0.7687
B(  4-N , 13-H ) :   0.9813 B(  5-H ,  7-C ) :   0.1025 B(  7-C ,  8-H ) :   0.9367
B(  7-C ,  9-H ) :   0.9132 B(  7-C , 10-O ) :   1.0204 B( 10-O , 13-H ) :   0.5284

Dispersion correction           -0.000151311
FINAL SINGLE POINT ENERGY      -249.361299634638

DIPOLE MOMENT
-------------
                                X             Y             Z
Electronic contribution:     -1.49036      -1.42096      -0.77874
Nuclear contribution   :      0.08650       3.01678       2.47433
                        -----------------------------------------
Total Dipole Moment    :     -1.40386       1.59582       1.69560
                        -----------------------------------------
Magnitude (a.u.)       :      2.71891
Magnitude (Debye)      :      6.91093

Rotational constants in cm-1:     0.238796     0.156489     0.106146
Rotational constants in MHz :  7158.916762  4691.413084  3182.185740

                             ****ORCA TERMINATED NORMALLY****
TOTAL RUN TIME: 0 days 0 hours 0 minutes 24 seconds 293 msec
