                         Program Version 5.0.0 -  RELEASE  -
|  1> !M062X D3Zero RIJCOSX def2-SVPD def2/J TightSCF
|  2> *xyz 0 1
|  3> C         -0.77894        0.17197        1.80496
|  4> C         -0.60249       -0.63071        0.49224
|  5> H          0.31389       -1.24035        0.60350
|  6> H         -0.36383        0.11332       -0.30117
|  7> F         -1.71206       -1.37684        0.20253
|  8> H         -1.65864        0.77733        1.73736
|  9> H          0.07466        0.79896        1.95712
| 10> H         -0.87474       -0.50584        2.62734
| 11> *
| 12> %MaxCore 64000
| 13>
| 14> %pal nprocs 4
| 15> end
| 16>
| 17> %scf
| 18>   MaxIter 150
| 19> end
| 20>
| 21>
| 22>                          ****END OF INPUT****

CARTESIAN COORDINATES (ANGSTROEM)
---------------------------------
  C     -0.778940    0.171970    1.804960
  C     -0.602490   -0.630710    0.492240
  H      0.313890   -1.240350    0.603500
  H     -0.363830    0.113320   -0.301170
  F     -1.712060   -1.376840    0.202530
  H     -1.658640    0.777330    1.737360
  H      0.074660    0.798960    1.957120
  H     -0.874740   -0.505840    2.627340

 Total Charge           Charge          ....    0
 Multiplicity           Mult            ....    1
 Number of Electrons    NEL             ....   26
 Basis Dimension        Dim             ....  103

ORBITAL ENERGIES
----------------

  NO   OCC          E(Eh)            E(eV)
   0   2.0000     -25.245553      -686.9664
   1   2.0000     -10.633457      -289.3511
   2   2.0000     -10.547289      -287.0063
   3   2.0000      -1.321291       -35.9541
   4   2.0000      -0.852953       -23.2100
   5   2.0000      -0.716684       -19.5020
   6   2.0000      -0.592288       -16.1170
   7   2.0000      -0.582249       -15.8438
   8   2.0000      -0.546015       -14.8578
   9   2.0000      -0.481906       -13.1133
  10   2.0000      -0.468095       -12.7375
  11   2.0000      -0.405433       -11.0324
  12   2.0000      -0.401808       -10.9338
  13   0.0000       0.039743         1.0815
  14   0.0000       0.069695         1.8965
  15   0.0000       0.100166         2.7257
  16   0.0000       0.105734         2.8772
  17   0.0000       0.134073         3.6483

MULLIKEN ATOMIC CHARGES
-----------------------
   0 C :    0.247537
   1 C :    0.388415
   2 H :   -0.043430
   3 H :   -0.022268
   4 F :   -0.472525
   5 H :   -0.042576
   6 H :   -0.016690
   7 H :   -0.038462
Sum of atomic charges:   -0.0000000

LOEWDIN ATOMIC CHARGES
----------------------
   0 C :    0.137260
   1 C :    0.079411
   2 H :    0.029350
   3 H :    0.032463
   4 F :   -0.232675
   5 H :   -0.014769
   6 H :   -0.014886
   7 H :   -0.016153

  Mayer bond orders larger than 0.100000
B(  0-C ,  1-C ) :   1.3322 B(  0-C ,  5-H ) :   0.9063 B(  0-C ,  6-H ) :   0.8784
B(  0-C ,  7-H ) :   0.9092 B(  1-C ,  2-H ) :   0.9646 B(  1-C ,  3-H ) :   0.9540
B(  1-C ,  4-F ) :   0.6865 B(  1-C ,  5-H ) :   0.1366 B(  1-C ,  6-H ) :   0.1055
B(  1-C ,  7-H ) :   0.1247

Dispersion correction           -0.000018803
FINAL SINGLE POINT ENERGY      -178.847952969466

DIPOLE MOMENT
-------------
                                X             Y             Z
Electronic contribution:     -2.70785      -3.27149      -2.81736
Nuclear contribution   :      3.27800       3.70743       3.04146
                        -----------------------------------------
Total Dipole Moment    :      0.57016       0.43594       0.22410
                        -----------------------------------------
Magnitude (a.u.)       :      0.75189
Magnitude (Debye)      :      1.91116

Rotational constants in cm-1:     1.234437     0.305084     0.268865
Rotational constants in MHz : 37007.496448  9146.194083  8060.380630

                             ****ORCA TERMINATED NORMALLY****
TOTAL RUN TIME: 0 days 0 hours 0 minutes 11 seconds 247 msec
