                         Program Version 5.0.0 -  RELEASE  -
|  1> !M062X D3Zero RIJCOSX def2-SVPD def2/J TightSCF
|  2> *xyz 0 1
|  3> C         -2.12050        0.88520        1.78951
|  4> C         -0.77894        0.17197        1.80496
|  5> H         -2.32419        1.47265        2.68608
|  6> H         -2.18770        1.54127        0.91948
|  7> C         -3.17690       -0.15948        1.61070
|  8> H         -4.06474        0.23127        1.28675
|  9> H         -3.34407       -0.67151        2.48493
| 10> H         -2.71686       -0.78189        0.93588
| 11> H         -0.65708       -0.37837        0.89547
| 12> H         -0.74207       -0.50050        2.63642
| 13> H          0.00707        0.89251        1.89389
| 14> *
| 15> %MaxCore 64000
| 16>
| 17> %pal nprocs 4
| 18> end
| 19>
| 20> %scf
| 21>   MaxIter 150
| 22> end
| 23>
| 24>
| 25>                          ****END OF INPUT****

CARTESIAN COORDINATES (ANGSTROEM)
---------------------------------
  C     -2.120500    0.885200    1.789510
  C     -0.778940    0.171970    1.804960
  H     -2.324190    1.472650    2.686080
  H     -2.187700    1.541270    0.919480
  C     -3.176900   -0.159480    1.610700
  H     -4.064740    0.231270    1.286750
  H     -3.344070   -0.671510    2.484930
  H     -2.716860   -0.781890    0.935880
  H     -0.657080   -0.378370    0.895470
  H     -0.742070   -0.500500    2.636420
  H      0.007070    0.892510    1.893890

 Total Charge           Charge          ....    0
 Multiplicity           Mult            ....    1
 Number of Electrons    NEL             ....   26
 Basis Dimension        Dim             ....  124

ORBITAL ENERGIES
----------------

  NO   OCC          E(Eh)            E(eV)
   0   2.0000     -10.536624      -286.7161
   1   2.0000     -10.529619      -286.5255
   2   2.0000     -10.510710      -286.0110
   3   2.0000      -0.887340       -24.1457
   4   2.0000      -0.770133       -20.9564
   5   2.0000      -0.662764       -18.0347
   6   2.0000      -0.542872       -14.7723
   7   2.0000      -0.522863       -14.2278
   8   2.0000      -0.465448       -12.6655
   9   2.0000      -0.449849       -12.2410
  10   2.0000      -0.400903       -10.9091
  11   2.0000      -0.391672       -10.6579
  12   2.0000      -0.388287       -10.5658
  13   0.0000       0.045960         1.2506
  14   0.0000       0.070045         1.9060
  15   0.0000       0.077993         2.1223
  16   0.0000       0.111602         3.0368
  17   0.0000       0.127665         3.4739

MULLIKEN ATOMIC CHARGES
-----------------------
   0 C :   -0.582072
   1 C :    0.532616
   2 H :   -0.155286
   3 H :   -0.031821
   4 C :    0.936142
   5 H :   -0.250658
   6 H :   -0.145482
   7 H :   -0.171797
   8 H :   -0.000119
   9 H :   -0.005888
  10 H :   -0.125637
Sum of atomic charges:   -0.0000000

LOEWDIN ATOMIC CHARGES
----------------------
   0 C :   -0.118855
   1 C :    0.109282
   2 H :    0.020060
   3 H :    0.022602
   4 C :    0.119074
   5 H :   -0.034216
   6 H :   -0.027337
   7 H :   -0.042047
   8 H :   -0.016075
   9 H :   -0.010807
  10 H :   -0.021681

  Mayer bond orders larger than 0.100000
B(  0-C ,  1-C ) :   1.2267 B(  0-C ,  2-H ) :   1.0310 B(  0-C ,  3-H ) :   0.9317
B(  0-C ,  4-C ) :   1.2123 B(  0-C ,  5-H ) :   0.1719 B(  0-C ,  6-H ) :   0.2043
B(  0-C ,  7-H ) :   0.2570 B(  0-C ,  8-H ) :   0.1405 B(  0-C ,  9-H ) :   0.1508
B(  0-C , 10-H ) :   0.1666 B(  1-C ,  8-H ) :   0.8567 B(  1-C ,  9-H ) :   0.8375
B(  1-C , 10-H ) :   0.8870 B(  4-C ,  5-H ) :   0.7954 B(  4-C ,  6-H ) :   0.7233
B(  4-C ,  7-H ) :   0.7492

Dispersion correction           -0.000046052
FINAL SINGLE POINT ENERGY      -118.959349969181

DIPOLE MOMENT
-------------
                                X             Y             Z
Electronic contribution:     -0.14225       0.47136       0.11218
Nuclear contribution   :      0.13334      -0.45108      -0.10852
                        -----------------------------------------
Total Dipole Moment    :     -0.00891       0.02028       0.00366
                        -----------------------------------------
Magnitude (a.u.)       :      0.02245
Magnitude (Debye)      :      0.05707

Rotational constants in cm-1:     0.972269     0.310387     0.269029
Rotational constants in MHz : 29147.878530  9305.178981  8065.286472

                             ****ORCA TERMINATED NORMALLY****
TOTAL RUN TIME: 0 days 0 hours 0 minutes 13 seconds 56 msec
