                         Program Version 5.0.0 -  RELEASE  -
|  1> !PBE D3BJ RIJCOSX def2-SVPD def2/J TightSCF
|  2> *xyz -1 1
|  3> C         -0.60249       -0.63071        0.49224
|  4> O         -1.71206       -1.37684        0.20253
|  5> H          0.27695       -1.19720        0.26733
|  6> H         -0.60598       -0.37494        1.53122
|  7> H         -0.61066        0.26355       -0.09525
|  8> *
|  9> %MaxCore 64000
| 10>
| 11> %pal nprocs 4
| 12> end
| 13> %scf
| 14>   MaxIter 150
| 15> end
| 16>
| 17>                          ****END OF INPUT****

CARTESIAN COORDINATES (ANGSTROEM)
---------------------------------
  C     -0.602490   -0.630710    0.492240
  O     -1.712060   -1.376840    0.202530
  H      0.276950   -1.197200    0.267330
  H     -0.605980   -0.374940    1.531220
  H     -0.610660    0.263550   -0.095250

 Total Charge           Charge          ....   -1
 Multiplicity           Mult            ....    1
 Number of Electrons    NEL             ....   18
 Basis Dimension        Dim             ....   67

ORBITAL ENERGIES
----------------

  NO   OCC          E(Eh)            E(eV)
   0   2.0000     -18.417272      -501.1594
   1   2.0000      -9.680519      -263.4203
   2   2.0000      -0.570614       -15.5272
   3   2.0000      -0.327052        -8.8995
   4   2.0000      -0.148595        -4.0435
   5   2.0000      -0.148594        -4.0434
   6   2.0000      -0.056354        -1.5335
   7   2.0000       0.092143         2.5073
   8   2.0000       0.092144         2.5074
   9   0.0000       0.182610         4.9691
  10   0.0000       0.251611         6.8467
  11   0.0000       0.251612         6.8467
  12   0.0000       0.258746         7.0408
  13   0.0000       0.295071         8.0293

MULLIKEN ATOMIC CHARGES
-----------------------
   0 C :    0.826897
   1 O :   -1.008939
   2 H :   -0.272662
   3 H :   -0.272639
   4 H :   -0.272657
Sum of atomic charges:   -1.0000000

LOEWDIN ATOMIC CHARGES
----------------------
   0 C :   -0.128135
   1 O :   -0.620344
   2 H :   -0.083840
   3 H :   -0.083840
   4 H :   -0.083840

  Mayer bond orders larger than 0.100000
B(  0-C ,  1-O ) :   1.1463 B(  0-C ,  2-H ) :   0.9126 B(  0-C ,  3-H ) :   0.9126
B(  0-C ,  4-H ) :   0.9126

Dispersion correction           -0.001471058
FINAL SINGLE POINT ENERGY      -114.883010571927

DIPOLE MOMENT
-------------
                                X             Y             Z
Electronic contribution:     -1.56691      -1.05367      -0.40913
Nuclear contribution   :      2.33640       1.57111       0.61004
                        -----------------------------------------
Total Dipole Moment    :      0.76948       0.51744       0.20091
                        -----------------------------------------
Magnitude (a.u.)       :      0.94880
Magnitude (Debye)      :      2.41165

Rotational constants in cm-1:     5.477665     0.940945     0.940944
Rotational constants in MHz : 164216.266994 28208.811441 28208.799857

                             ****ORCA TERMINATED NORMALLY****
TOTAL RUN TIME: 0 days 0 hours 0 minutes 2 seconds 307 msec
