                         Program Version 5.0.0 -  RELEASE  -
|  1> !PBE D3BJ RIJCOSX def2-SVPD def2/J TightSCF
|  2> *xyz 1 1
|  3> C         -2.12050        0.88520        1.78951
|  4> N         -3.17690       -0.15948        1.61070
|  5> H         -4.06474        0.23127        1.28675
|  6> H         -3.34407       -0.67151        2.48493
|  7> H         -2.71686       -0.78189        0.93588
|  8> H         -1.96853        1.40078        0.86432
|  9> H         -1.20609        0.41954        2.09270
| 10> H         -2.43151        1.58226        2.53937
| 11> *
| 12> %MaxCore 64000
| 13>
| 14> %pal nprocs 4
| 15> end
| 16>
| 17> %scf
| 18>   MaxIter 150
| 19> end
| 20>
| 21>
| 22>                          ****END OF INPUT****

CARTESIAN COORDINATES (ANGSTROEM)
---------------------------------
  C     -2.120500    0.885200    1.789510
  N     -3.176900   -0.159480    1.610700
  H     -4.064740    0.231270    1.286750
  H     -3.344070   -0.671510    2.484930
  H     -2.716860   -0.781890    0.935880
  H     -1.968530    1.400780    0.864320
  H     -1.206090    0.419540    2.092700
  H     -2.431510    1.582260    2.539370

 Total Charge           Charge          ....    1
 Multiplicity           Mult            ....    1
 Number of Electrons    NEL             ....   18
 Basis Dimension        Dim             ....   88

ORBITAL ENERGIES
----------------

  NO   OCC          E(Eh)            E(eV)
   0   2.0000     -14.348424      -390.4405
   1   2.0000     -10.154473      -276.3172
   2   2.0000      -1.140869       -31.0446
   3   2.0000      -0.867848       -23.6153
   4   2.0000      -0.769888       -20.9497
   5   2.0000      -0.758001       -20.6263
   6   2.0000      -0.665907       -18.1202
   7   2.0000      -0.584291       -15.8994
   8   2.0000      -0.580839       -15.8054
   9   0.0000      -0.228577        -6.2199
  10   0.0000      -0.166122        -4.5204
  11   0.0000      -0.160096        -4.3564
  12   0.0000      -0.149537        -4.0691
  13   0.0000      -0.111212        -3.0262

MULLIKEN ATOMIC CHARGES
-----------------------
   0 C :    0.935038
   1 N :   -0.711874
   2 H :    0.324569
   3 H :    0.340486
   4 H :    0.384365
   5 H :   -0.080764
   6 H :   -0.073007
   7 H :   -0.118814
Sum of atomic charges:    1.0000000

LOEWDIN ATOMIC CHARGES
----------------------
   0 C :    0.278788
   1 N :    0.328298
   2 H :    0.106866
   3 H :    0.107664
   4 H :    0.102458
   5 H :    0.026494
   6 H :    0.026757
   7 H :    0.022675

  Mayer bond orders larger than 0.100000
B(  0-C ,  1-N ) :   0.8924 B(  0-C ,  5-H ) :   0.8828 B(  0-C ,  6-H ) :   0.8754
B(  0-C ,  7-H ) :   0.9195 B(  1-N ,  2-H ) :   0.8117 B(  1-N ,  3-H ) :   0.7958
B(  1-N ,  4-H ) :   0.7389 B(  1-N ,  5-H ) :   0.1016 B(  1-N ,  6-H ) :   0.1030

Dispersion correction           -0.003374664
FINAL SINGLE POINT ENERGY       -96.014999319610

DIPOLE MOMENT
-------------
                                X             Y             Z
Electronic contribution:     -0.83977      -0.76822      -0.13061
Nuclear contribution   :      0.30442       0.18283       0.03339
                        -----------------------------------------
Total Dipole Moment    :     -0.53534      -0.58539      -0.09722
                        -----------------------------------------
Magnitude (a.u.)       :      0.79920
Magnitude (Debye)      :      2.03141

Rotational constants in cm-1:     2.844840     0.686092     0.683099
Rotational constants in MHz : 85286.171795 20568.516729 20478.789944

                             ****ORCA TERMINATED NORMALLY****
TOTAL RUN TIME: 0 days 0 hours 0 minutes 2 seconds 760 msec
