                         Program Version 5.0.0 -  RELEASE  -
|  1> !PBE D3BJ RIJCOSX def2-SVPD def2/J TightSCF
|  2> *xyz 0 1
|  3> C         -0.60249       -0.63071        0.49224
|  4> F         -1.71206       -1.37684        0.20253
|  5> H          0.27695       -1.19720        0.26733
|  6> H         -0.60598       -0.37494        1.53122
|  7> H         -0.61066        0.26355       -0.09525
|  8> *
|  9> %MaxCore 64000
| 10>
| 11> %pal nprocs 4
| 12> end
| 13> %scf
| 14>   MaxIter 150
| 15> end
| 16>
| 17>                          ****END OF INPUT****

CARTESIAN COORDINATES (ANGSTROEM)
---------------------------------
  C     -0.602490   -0.630710    0.492240
  F     -1.712060   -1.376840    0.202530
  H      0.276950   -1.197200    0.267330
  H     -0.605980   -0.374940    1.531220
  H     -0.610660    0.263550   -0.095250

 Total Charge           Charge          ....    0
 Multiplicity           Mult            ....    1
 Number of Electrons    NEL             ....   18
 Basis Dimension        Dim             ....   67

ORBITAL ENERGIES
----------------

  NO   OCC          E(Eh)            E(eV)
   0   2.0000     -24.260769      -660.1691
   1   2.0000      -9.963480      -271.1201
   2   2.0000      -1.084944       -29.5228
   3   2.0000      -0.634108       -17.2550
   4   2.0000      -0.448694       -12.2096
   5   2.0000      -0.434933       -11.8351
   6   2.0000      -0.434932       -11.8351
   7   2.0000      -0.297924        -8.1069
   8   2.0000      -0.297921        -8.1068
   9   0.0000       0.009335         0.2540
  10   0.0000       0.034616         0.9420
  11   0.0000       0.082319         2.2400
  12   0.0000       0.082320         2.2400
  13   0.0000       0.128330         3.4920

MULLIKEN ATOMIC CHARGES
-----------------------
   0 C :    0.901341
   1 F :   -0.455239
   2 H :   -0.148706
   3 H :   -0.148682
   4 H :   -0.148714
Sum of atomic charges:    0.0000000

LOEWDIN ATOMIC CHARGES
----------------------
   0 C :    0.253261
   1 F :   -0.230862
   2 H :   -0.007466
   3 H :   -0.007466
   4 H :   -0.007466

  Mayer bond orders larger than 0.100000
B(  0-C ,  1-F ) :   0.8894 B(  0-C ,  2-H ) :   0.9339 B(  0-C ,  3-H ) :   0.9339
B(  0-C ,  4-H ) :   0.9339

Dispersion correction           -0.001294558
FINAL SINGLE POINT ENERGY      -139.489635443355

DIPOLE MOMENT
-------------
                                X             Y             Z
Electronic contribution:     -2.40976      -1.62045      -0.62919
Nuclear contribution   :      2.96306       1.99251       0.77366
                        -----------------------------------------
Total Dipole Moment    :      0.55330       0.37206       0.14447
                        -----------------------------------------
Magnitude (a.u.)       :      0.68224
Magnitude (Debye)      :      1.73411

Rotational constants in cm-1:     5.477665     0.875886     0.875886
Rotational constants in MHz : 164216.266994 26258.396768 26258.386731

                             ****ORCA TERMINATED NORMALLY****
TOTAL RUN TIME: 0 days 0 hours 0 minutes 2 seconds 162 msec
