                         Program Version 5.0.0 -  RELEASE  -
|  1> !PBE D3BJ RIJCOSX def2-SVPD def2/J TightSCF
|  2> *xyz 0 1
|  3> C         -2.12050        0.88520        1.78951
|  4> C         -3.17690       -0.15948        1.61070
|  5> H         -4.06474        0.23127        1.28675
|  6> H         -3.34407       -0.67151        2.48493
|  7> H         -2.71686       -0.78189        0.93588
|  8> H         -1.96853        1.40078        0.86432
|  9> H         -1.20609        0.41954        2.09270
| 10> H         -2.43151        1.58226        2.53937
| 11> *
| 12> %MaxCore 64000
| 13>
| 14> %pal nprocs 4
| 15> end
| 16>
| 17> %scf
| 18>   MaxIter 150
| 19> end
| 20>
| 21>
| 22>                          ****END OF INPUT****

CARTESIAN COORDINATES (ANGSTROEM)
---------------------------------
  C     -2.120500    0.885200    1.789510
  C     -3.176900   -0.159480    1.610700
  H     -4.064740    0.231270    1.286750
  H     -3.344070   -0.671510    2.484930
  H     -2.716860   -0.781890    0.935880
  H     -1.968530    1.400780    0.864320
  H     -1.206090    0.419540    2.092700
  H     -2.431510    1.582260    2.539370

 Total Charge           Charge          ....    0
 Multiplicity           Mult            ....    1
 Number of Electrons    NEL             ....   18
 Basis Dimension        Dim             ....   88

ORBITAL ENERGIES
----------------

  NO   OCC          E(Eh)            E(eV)
   0   2.0000      -9.873707      -268.6772
   1   2.0000      -9.861054      -268.3329
   2   2.0000      -0.692957       -18.8563
   3   2.0000      -0.550907       -14.9909
   4   2.0000      -0.407156       -11.0793
   5   2.0000      -0.398777       -10.8513
   6   2.0000      -0.325028        -8.8445
   7   2.0000      -0.304780        -8.2935
   8   2.0000      -0.296675        -8.0729
   9   0.0000       0.011440         0.3113
  10   0.0000       0.046069         1.2536
  11   0.0000       0.082357         2.2410
  12   0.0000       0.083914         2.2834
  13   0.0000       0.100919         2.7461

MULLIKEN ATOMIC CHARGES
-----------------------
   0 C :    0.202041
   1 C :    0.620584
   2 H :   -0.230774
   3 H :   -0.186472
   4 H :   -0.141835
   5 H :   -0.082128
   6 H :   -0.075830
   7 H :   -0.105585
Sum of atomic charges:   -0.0000000

LOEWDIN ATOMIC CHARGES
----------------------
   0 C :    0.071470
   1 C :    0.087479
   2 H :   -0.034753
   3 H :   -0.034239
   4 H :   -0.036028
   5 H :   -0.016458
   6 H :   -0.015733
   7 H :   -0.021738

  Mayer bond orders larger than 0.100000
B(  0-C ,  1-C ) :   1.4933 B(  0-C ,  2-H ) :   0.1698 B(  0-C ,  3-H ) :   0.1695
B(  0-C ,  4-H ) :   0.2349 B(  0-C ,  5-H ) :   0.8535 B(  0-C ,  6-H ) :   0.8466
B(  0-C ,  7-H ) :   0.9026 B(  1-C ,  2-H ) :   0.7927 B(  1-C ,  3-H ) :   0.7794
B(  1-C ,  4-H ) :   0.7723 B(  1-C ,  5-H ) :   0.1600 B(  1-C ,  6-H ) :   0.1653
B(  1-C ,  7-H ) :   0.1423

Dispersion correction           -0.003366199
FINAL SINGLE POINT ENERGY       -79.629519139922

DIPOLE MOMENT
-------------
                                X             Y             Z
Electronic contribution:     -0.12395      -0.01953      -0.00323
Nuclear contribution   :      0.12022       0.00247       0.00249
                        -----------------------------------------
Total Dipole Moment    :     -0.00374      -0.01706      -0.00074
                        -----------------------------------------
Magnitude (a.u.)       :      0.01748
Magnitude (Debye)      :      0.04443

Rotational constants in cm-1:     2.844858     0.716988     0.713720
Rotational constants in MHz : 85286.697487 21494.771942 21396.773512

                             ****ORCA TERMINATED NORMALLY****
TOTAL RUN TIME: 0 days 0 hours 0 minutes 2 seconds 748 msec
