                         Program Version 5.0.0 -  RELEASE  -
|  1> !PBE D3BJ RIJCOSX def2-SVPD def2/J TightSCF xyzfile
|  2>
|  3> *xyzfile 0 1 D.xyz
|  4>
|  5> %MaxCore 64000
|  6>
|  7> %pal nprocs 4
|  8> end
|  9>
| 10> %scf
| 11>   MaxIter 150
| 12> end
| 13>
| 14>
| 15>                          ****END OF INPUT****

CARTESIAN COORDINATES (ANGSTROEM)
---------------------------------
  C     -2.120502    0.885196    1.789506
  C     -0.778939    0.171966    1.804965
  H     -2.324193    1.472649    2.686078
  H     -2.187698    1.541272    0.919482
  C     -3.176900   -0.159484    1.610700
  H      0.015695    0.910767    1.939153
  H     -0.743553   -0.506827    2.665420
  C     -0.602493   -0.630712    0.492240
  H      0.313894   -1.240346    0.603498
  H     -0.363829    0.113322   -0.301169
  F     -1.712061   -1.376836    0.202535
  H     -4.064736    0.231272    1.286754
  H     -3.344073   -0.671511    2.484928
  H     -2.716861   -0.781886    0.935880

 Total Charge           Charge          ....    0
 Multiplicity           Mult            ....    1
 Number of Electrons    NEL             ....   42
 Basis Dimension        Dim             ....  175

ORBITAL ENERGIES
----------------

  NO   OCC          E(Eh)            E(eV)
   0   2.0000     -24.284127      -660.8047
   1   2.0000      -9.982218      -271.6300
   2   2.0000      -9.902042      -269.4483
   3   2.0000      -9.882736      -268.9229
   4   2.0000      -9.822746      -267.2905
   5   2.0000      -1.119267       -30.4568
   6   2.0000      -0.728207       -19.8155
   7   2.0000      -0.661004       -17.9868
   8   2.0000      -0.569733       -15.5032
   9   2.0000      -0.529852       -14.4180
  10   2.0000      -0.476813       -12.9747
  11   2.0000      -0.472325       -12.8526
  12   2.0000      -0.433965       -11.8088
  13   2.0000      -0.392587       -10.6828
  14   2.0000      -0.364216        -9.9108
  15   2.0000      -0.356612        -9.7039
  16   2.0000      -0.336217        -9.1489
  17   2.0000      -0.300791        -8.1849
  18   2.0000      -0.289445        -7.8762
  19   2.0000      -0.282588        -7.6896
  20   2.0000      -0.233733        -6.3602
  21   0.0000       0.002449         0.0666
  22   0.0000       0.028064         0.7637
  23   0.0000       0.033004         0.8981
  24   0.0000       0.036068         0.9815
  25   0.0000       0.056848         1.5469

MULLIKEN ATOMIC CHARGES
-----------------------
   0 C :   -0.245824
   1 C :    0.000123
   2 H :   -0.280272
   3 H :    0.005927
   4 C :    1.880100
   5 H :   -0.162833
   6 H :    0.022673
   7 C :    0.796722
   8 H :   -0.092224
   9 H :   -0.013370
  10 F :   -0.600951
  11 H :   -0.173442
  12 H :   -0.090906
  13 H :   -1.045723
Sum of atomic charges:    0.0000000

LOEWDIN ATOMIC CHARGES
----------------------
   0 C :   -0.063887
   1 C :   -0.021865
   2 H :    0.017569
   3 H :    0.026700
   4 C :    0.146763
   5 H :    0.025468
   6 H :    0.031530
   7 C :    0.143558
   8 H :    0.032120
   9 H :    0.041651
  10 F :   -0.164937
  11 H :   -0.030475
  12 H :   -0.022856
  13 H :   -0.161338

  Mayer bond orders larger than 0.100000
B(  0-C ,  1-C ) :   1.1529 B(  0-C ,  2-H ) :   1.0241 B(  0-C ,  3-H ) :   0.8445
B(  0-C ,  4-C ) :   1.0323 B(  0-C ,  5-H ) :   0.1056 B(  0-C , 11-H ) :   0.1867
B(  0-C , 12-H ) :   0.2531 B(  0-C , 13-H ) :   0.4548 B(  1-C ,  5-H ) :   0.9411
B(  1-C ,  6-H ) :   0.8575 B(  1-C ,  7-C ) :   1.2330 B(  1-C ,  8-H ) :   0.1285
B(  1-C ,  9-H ) :   0.1237 B(  1-C , 10-F ) :   0.1224 B(  3-H ,  4-C ) :   0.1087
B(  4-C , 10-F ) :  -0.1567 B(  4-C , 11-H ) :   0.4749 B(  4-C , 12-H ) :   0.3198
B(  4-C , 13-H ) :  -0.3927 B(  5-H ,  7-C ) :   0.1157 B(  7-C ,  8-H ) :   0.8545
B(  7-C ,  9-H ) :   0.8596 B(  7-C , 10-F ) :   0.7045 B( 10-F , 13-H ) :   0.3368
B( 11-H , 12-H ) :  -0.1198 B( 11-H , 13-H ) :   0.2742 B( 12-H , 13-H ) :   0.4629

Dispersion correction           -0.009946013
FINAL SINGLE POINT ENERGY      -257.131240038036

DIPOLE MOMENT
-------------
                                X             Y             Z
Electronic contribution:      0.86952      -4.21259      -3.74138
Nuclear contribution   :     -0.20666       4.43855       3.76066
                        -----------------------------------------
Total Dipole Moment    :      0.66286       0.22596       0.01927
                        -----------------------------------------
Magnitude (a.u.)       :      0.70058
Magnitude (Debye)      :      1.78072

Rotational constants in cm-1:     0.236353     0.155239     0.105045
Rotational constants in MHz :  7085.692869  4653.957069  3149.180346

                             ****ORCA TERMINATED NORMALLY****
TOTAL RUN TIME: 0 days 0 hours 0 minutes 9 seconds 755 msec
