                         Program Version 5.0.0 -  RELEASE  -
|  1> !BLYP D3BJ RIJCOSX def2-TZVP def2/J TightSCF
|  2>
|  3> *xyz -1 1
|  4> C          2.95263        1.86308       -3.57485
|  5> C          4.12921        0.89839       -3.41895
|  6> H          3.73369       -0.10060       -3.23763
|  7> H          4.71910        0.86256       -4.33901
|  8> C          5.01734        1.31521       -2.22130
|  9> O          4.73706        0.85411       -1.12283
| 10> O          5.92815        2.16811       -2.49136
| 11> H          2.35067        1.56005       -4.40594
| 12> H          3.32277        2.85258       -3.74453
| 13> H          2.36134        1.85149       -2.68315
| 14> *
| 15> %MaxCore 64000
| 16>
| 17> %pal nprocs 4
| 18> end
| 19>
| 20> %scf
| 21>   MaxIter 150
| 22> end
| 23>
| 24>
| 25>                          ****END OF INPUT****

CARTESIAN COORDINATES (ANGSTROEM)
---------------------------------
  C      2.952630    1.863080   -3.574850
  C      4.129210    0.898390   -3.418950
  H      3.733690   -0.100600   -3.237630
  H      4.719100    0.862560   -4.339010
  C      5.017340    1.315210   -2.221300
  O      4.737060    0.854110   -1.122830
  O      5.928150    2.168110   -2.491360
  H      2.350670    1.560050   -4.405940
  H      3.322770    2.852580   -3.744530
  H      2.361340    1.851490   -2.683150

 Total Charge           Charge          ....   -1
 Multiplicity           Mult            ....    1
 Number of Electrons    NEL             ....   40
 Basis Dimension        Dim             ....  185

ORBITAL ENERGIES
----------------

  NO   OCC          E(Eh)            E(eV)
   0   2.0000     -18.501499      -503.4514
   1   2.0000     -18.491168      -503.1703
   2   2.0000      -9.769568      -265.8435
   3   2.0000      -9.736160      -264.9344
   4   2.0000      -9.719514      -264.4814
   5   2.0000      -0.718913       -19.5626
   6   2.0000      -0.628022       -17.0893
   7   2.0000      -0.520599       -14.1662
   8   2.0000      -0.394269       -10.7286
   9   2.0000      -0.255546        -6.9538
  10   2.0000      -0.232728        -6.3329
  11   2.0000      -0.197643        -5.3781
  12   2.0000      -0.171840        -4.6760
  13   2.0000      -0.152038        -4.1372
  14   2.0000      -0.150127        -4.0852
  15   2.0000      -0.119514        -3.2521
  16   2.0000      -0.110305        -3.0016
  17   2.0000       0.002997         0.0816
  18   2.0000       0.017164         0.4670
  19   2.0000       0.032438         0.8827
  20   0.0000       0.165910         4.5146
  21   0.0000       0.206173         5.6103
  22   0.0000       0.220968         6.0128
  23   0.0000       0.228865         6.2277
  24   0.0000       0.242846         6.6082

MULLIKEN ATOMIC CHARGES
-----------------------
   0 C :   -0.304466
   1 C :   -0.084834
   2 H :   -0.003065
   3 H :    0.004719
   4 C :    0.152073
   5 O :   -0.434078
   6 O :   -0.518966
   7 H :    0.039737
   8 H :    0.073979
   9 H :    0.074900
Sum of atomic charges:   -1.0000000

LOEWDIN ATOMIC CHARGES
----------------------
   0 C :   -0.321017
   1 C :   -0.291863
   2 H :    0.107331
   3 H :    0.108512
   4 C :   -0.730129
   5 O :   -0.045034
   6 O :   -0.129522
   7 H :    0.090055
   8 H :    0.105827
   9 H :    0.105840

  Mayer bond orders larger than 0.100000
B(  0-C ,  1-C ) :   0.9549 B(  0-C ,  7-H ) :   0.9658 B(  0-C ,  8-H ) :   0.9773
B(  0-C ,  9-H ) :   0.9805 B(  1-C ,  2-H ) :   0.9320 B(  1-C ,  3-H ) :   0.9389
B(  1-C ,  4-C ) :   0.8862 B(  4-C ,  5-O ) :   1.9502 B(  4-C ,  6-O ) :   1.8727

Dispersion correction           -0.013582833
FINAL SINGLE POINT ENERGY      -267.876414317629

DIPOLE MOMENT
-------------
                                X             Y             Z
Electronic contribution:      4.54886      -0.14922       4.03045
Nuclear contribution   :     -5.85873      -0.10793      -5.24103
                        -----------------------------------------
Total Dipole Moment    :     -1.30987      -0.25716      -1.21058
                        -----------------------------------------
Magnitude (a.u.)       :      1.80205
Magnitude (Debye)      :      4.58044

Rotational constants in cm-1:     0.292505     0.135951     0.110253
Rotational constants in MHz :  8769.065873  4075.717001  3305.311891

                             ****ORCA TERMINATED NORMALLY****
TOTAL RUN TIME: 0 days 0 hours 0 minutes 10 seconds 235 msec
