                         Program Version 5.0.0 -  RELEASE  -
|  1> !BLYP D3BJ RIJCOSX def2-TZVP def2/J TightSCF
|  2>
|  3> *xyz 1 1
|  4> C          3.34350        3.35457       -3.59200
|  5> C          2.95263        1.86308       -3.57485
|  6> C          4.25587        3.70385       -4.72605
|  7> N          3.73403        4.29378       -5.80077
|  8> N          5.51504        3.40725       -4.63718
|  9> H          6.14919        3.60120       -5.39905
| 10> H          5.81358        2.89950       -3.80879
| 11> H          2.74138        4.51311       -5.82470
| 12> H          4.28755        4.52126       -6.61434
| 13> H          3.86125        3.59725       -2.66298
| 14> H          2.44649        3.97346       -3.65656
| 15> H          2.44395        1.61721       -4.48352
| 16> H          2.30781        1.67290       -2.74242
| 17> H          3.83491        1.26414       -3.48670
| 18> *
| 19> %MaxCore 64000
| 20>
| 21> %pal nprocs 4
| 22> end
| 23>
| 24> %scf
| 25>   MaxIter 150
| 26> end
| 27>
| 28>
| 29>                          ****END OF INPUT****

CARTESIAN COORDINATES (ANGSTROEM)
---------------------------------
  C      3.343500    3.354570   -3.592000
  C      2.952630    1.863080   -3.574850
  C      4.255870    3.703850   -4.726050
  N      3.734030    4.293780   -5.800770
  N      5.515040    3.407250   -4.637180
  H      6.149190    3.601200   -5.399050
  H      5.813580    2.899500   -3.808790
  H      2.741380    4.513110   -5.824700
  H      4.287550    4.521260   -6.614340
  H      3.861250    3.597250   -2.662980
  H      2.446490    3.973460   -3.656560
  H      2.443950    1.617210   -4.483520
  H      2.307810    1.672900   -2.742420
  H      3.834910    1.264140   -3.486700

 Total Charge           Charge          ....    1
 Multiplicity           Mult            ....    1
 Number of Electrons    NEL             ....   40
 Basis Dimension        Dim             ....  209

ORBITAL ENERGIES
----------------

  NO   OCC          E(Eh)            E(eV)
   0   2.0000     -14.251959      -387.8155
   1   2.0000     -14.247855      -387.7038
   2   2.0000     -10.217243      -278.0253
   3   2.0000     -10.101921      -274.8873
   4   2.0000     -10.059233      -273.7257
   5   2.0000      -1.113196       -30.2916
   6   2.0000      -1.026104       -27.9217
   7   2.0000      -0.889522       -24.2051
   8   2.0000      -0.792948       -21.5772
   9   2.0000      -0.751975       -20.4623
  10   2.0000      -0.720418       -19.6036
  11   2.0000      -0.692699       -18.8493
  12   2.0000      -0.650993       -17.7144
  13   2.0000      -0.595273       -16.1982
  14   2.0000      -0.572797       -15.5866
  15   2.0000      -0.562254       -15.2997
  16   2.0000      -0.498905       -13.5759
  17   2.0000      -0.490997       -13.3607
  18   2.0000      -0.483564       -13.1584
  19   2.0000      -0.450143       -12.2490
  20   0.0000      -0.236995        -6.4490
  21   0.0000      -0.185901        -5.0586
  22   0.0000      -0.140930        -3.8349
  23   0.0000      -0.137859        -3.7513
  24   0.0000      -0.111684        -3.0391

MULLIKEN ATOMIC CHARGES
-----------------------
   0 C :   -0.236235
   1 C :   -0.290436
   2 C :    0.310475
   3 N :   -0.298559
   4 N :   -0.249858
   5 H :    0.260428
   6 H :    0.279643
   7 H :    0.278405
   8 H :    0.258792
   9 H :    0.151623
  10 H :    0.130195
  11 H :    0.128429
  12 H :    0.159193
  13 H :    0.117904
Sum of atomic charges:    1.0000000

LOEWDIN ATOMIC CHARGES
----------------------
   0 C :   -0.214707
   1 C :   -0.251576
   2 C :   -0.301899
   3 N :    0.115158
   4 N :    0.140618
   5 H :    0.198157
   6 H :    0.212811
   7 H :    0.205659
   8 H :    0.191034
   9 H :    0.162459
  10 H :    0.157090
  11 H :    0.126362
  12 H :    0.137059
  13 H :    0.121773

  Mayer bond orders larger than 0.100000
B(  0-C ,  1-C ) :   0.9408 B(  0-C ,  2-C ) :   0.9691 B(  0-C ,  9-H ) :   0.9489
B(  0-C , 10-H ) :   0.9604 B(  1-C , 11-H ) :   0.9623 B(  1-C , 12-H ) :   0.9637
B(  1-C , 13-H ) :   0.9671 B(  2-C ,  3-N ) :   1.4281 B(  2-C ,  4-N ) :   1.4698
B(  3-N ,  7-H ) :   0.8934 B(  3-N ,  8-H ) :   0.8994 B(  4-N ,  5-H ) :   0.8971
B(  4-N ,  6-H ) :   0.8911

Dispersion correction           -0.020540732
FINAL SINGLE POINT ENERGY      -229.033150311618

DIPOLE MOMENT
-------------
                                X             Y             Z
Electronic contribution:      2.38101       2.57870      -2.29667
Nuclear contribution   :     -1.74195      -2.09431       1.58516
                        -----------------------------------------
Total Dipole Moment    :      0.63907       0.48439      -0.71150
                        -----------------------------------------
Magnitude (a.u.)       :      1.07205
Magnitude (Debye)      :      2.72492

Rotational constants in cm-1:     0.258965     0.126500     0.098780
Rotational constants in MHz :  7763.584551  3792.383135  2961.336502

                             ****ORCA TERMINATED NORMALLY****
TOTAL RUN TIME: 0 days 0 hours 0 minutes 11 seconds 759 msec
