                         Program Version 5.0.0 -  RELEASE  -
|  1> !BLYP D3BJ RIJCOSX def2-TZVP def2/J TightSCF xyzfile
|  2>
|  3> *xyzfile 0 1 B.xyz
|  4>
|  5> %MaxCore 64000
|  6>
|  7> %pal nprocs 18
|  8> end
|  9>
| 10> %scf
| 11>   MaxIter 150
| 12> end
| 13>
| 14>
| 15>                          ****END OF INPUT****

CARTESIAN COORDINATES (ANGSTROEM)
---------------------------------
  C      3.343500    3.354571   -3.591998
  C      2.952633    1.863077   -3.574849
  C      4.129209    0.898394   -3.418950
  H      3.733687   -0.100605   -3.237633
  H      4.719095    0.862556   -4.339005
  C      5.017344    1.315212   -2.221305
  C      4.255868    3.703851   -4.726054
  N      3.734032    4.293783   -5.800770
  N      5.515039    3.407255   -4.637185
  H      6.149187    3.601203   -5.399053
  H      5.813584    2.899504   -3.808785
  H      2.741380    4.513109   -5.824701
  H      4.287548    4.521260   -6.614341
  H      2.278938    1.735250   -2.725496
  H      2.377466    1.625787   -4.475869
  O      4.737055    0.854112   -1.122825
  O      5.928146    2.168108   -2.491365
  H      3.861246    3.597252   -2.662979
  H      2.446493    3.973461   -3.656556

 Total Charge           Charge          ....    0
 Multiplicity           Mult            ....    1
 Number of Electrons    NEL             ....   70
 Basis Dimension        Dim             ....  339

ORBITAL ENERGIES
----------------

  NO   OCC          E(Eh)            E(eV)
   0   2.0000     -18.680157      -508.3129
   1   2.0000     -18.665459      -507.9130
   2   2.0000     -14.099510      -383.6672
   3   2.0000     -14.059777      -382.5860
   4   2.0000     -10.054378      -273.5935
   5   2.0000      -9.945268      -270.6245
   6   2.0000      -9.942013      -270.5359
   7   2.0000      -9.920600      -269.9533
   8   2.0000      -9.879744      -268.8415
   9   2.0000      -0.951109       -25.8810
  10   2.0000      -0.894088       -24.3294
  11   2.0000      -0.862787       -23.4776
  12   2.0000      -0.810825       -22.0637
  13   2.0000      -0.740896       -20.1608
  14   2.0000      -0.661514       -18.0007
  15   2.0000      -0.609132       -16.5753
  16   2.0000      -0.566163       -15.4061
  17   2.0000      -0.560004       -15.2385
  18   2.0000      -0.524309       -14.2672
  19   2.0000      -0.486396       -13.2355
  20   2.0000      -0.444652       -12.0996
  21   2.0000      -0.426282       -11.5997
  22   2.0000      -0.408920       -11.1273
  23   2.0000      -0.390733       -10.6324
  24   2.0000      -0.371420       -10.1069
  25   2.0000      -0.343276        -9.3410
  26   2.0000      -0.328625        -8.9423
  27   2.0000      -0.319375        -8.6906
  28   2.0000      -0.313465        -8.5298
  29   2.0000      -0.290831        -7.9139
  30   2.0000      -0.283211        -7.7066
  31   2.0000      -0.278540        -7.5794
  32   2.0000      -0.174708        -4.7541
  33   2.0000      -0.163480        -4.4485
  34   2.0000      -0.140283        -3.8173
  35   0.0000      -0.077470        -2.1081
  36   0.0000      -0.051082        -1.3900
  37   0.0000      -0.011768        -0.3202
  38   0.0000       0.010372         0.2822
  39   0.0000       0.030250         0.8231

MULLIKEN ATOMIC CHARGES
-----------------------
   0 C :   -0.197374
   1 C :   -0.156186
   2 C :   -0.180039
   3 H :    0.075918
   4 H :    0.054761
   5 C :    0.212950
   6 C :    0.248157
   7 N :   -0.332667
   8 N :   -0.253081
   9 H :    0.196254
  10 H :    0.281415
  11 H :    0.244848
  12 H :    0.225645
  13 H :    0.100711
  14 H :    0.067329
  15 O :   -0.354753
  16 O :   -0.480449
  17 H :    0.164972
  18 H :    0.081586
Sum of atomic charges:    0.0000000

LOEWDIN ATOMIC CHARGES
----------------------
   0 C :   -0.200087
   1 C :   -0.243619
   2 C :   -0.250298
   3 H :    0.138396
   4 H :    0.120804
   5 C :   -0.678014
   6 C :   -0.315920
   7 N :    0.064877
   8 N :    0.142158
   9 H :    0.169131
  10 H :    0.133535
  11 H :    0.186785
  12 H :    0.173212
  13 H :    0.148184
  14 H :    0.127130
  15 O :    0.029811
  16 O :   -0.056513
  17 H :    0.170127
  18 H :    0.140304

  Mayer bond orders larger than 0.100000
B(  0-C ,  1-C ) :   0.9448 B(  0-C ,  6-C ) :   0.9790 B(  0-C , 17-H ) :   0.9366
B(  0-C , 18-H ) :   0.9567 B(  1-C ,  2-C ) :   1.0012 B(  1-C , 13-H ) :   0.9444
B(  1-C , 14-H ) :   0.9501 B(  2-C ,  3-H ) :   0.9510 B(  2-C ,  4-H ) :   0.9328
B(  2-C ,  5-C ) :   0.9153 B(  5-C , 15-O ) :   2.0227 B(  5-C , 16-O ) :   1.5153
B(  6-C ,  7-N ) :   1.3233 B(  6-C ,  8-N ) :   1.6044 B(  7-N , 11-H ) :   0.9042
B(  7-N , 12-H ) :   0.9099 B(  8-N ,  9-H ) :   0.9097 B(  8-N , 10-H ) :   0.6892
B( 10-H , 16-O ) :   0.3101

Dispersion correction           -0.038375268
FINAL SINGLE POINT ENERGY      -456.577178993728

DIPOLE MOMENT
-------------
                                X             Y             Z
Electronic contribution:      3.98691      -0.02911       2.76654
Nuclear contribution   :     -5.42217       2.65262      -7.07590
                        -----------------------------------------
Total Dipole Moment    :     -1.43525       2.62351      -4.30937
                        -----------------------------------------
Magnitude (a.u.)       :      5.24532
Magnitude (Debye)      :     13.33255

Rotational constants in cm-1:     0.107541     0.035862     0.030371
Rotational constants in MHz :  3223.996852  1075.120464   910.508313

                             ****ORCA TERMINATED NORMALLY****
TOTAL RUN TIME: 0 days 0 hours 0 minutes 12 seconds 507 msec
