                         Program Version 5.0.0 -  RELEASE  -
|  1> !BLYP D3BJ RIJCOSX def2-TZVP def2/J TightSCF
|  2>
|  3> *xyz 0 1
|  4> C          2.95263        1.86308       -3.57485
|  5> C          4.12921        0.89839       -3.41895
|  6> H          3.73369       -0.10060       -3.23763
|  7> H          4.71910        0.86256       -4.33901
|  8> C          5.01734        1.31521       -2.22130
|  9> F          4.73706        0.85411       -1.12283
| 10> O          5.92815        2.16811       -2.49136
| 11> H          2.35067        1.56005       -4.40594
| 12> H          3.32277        2.85258       -3.74453
| 13> H          2.36134        1.85149       -2.68315
| 14> *
| 15> %MaxCore 64000
| 16>
| 17> %pal nprocs 4
| 18> end
| 19>
| 20> %scf
| 21>   MaxIter 150
| 22> end
| 23>
| 24>
| 25>                          ****END OF INPUT****

CARTESIAN COORDINATES (ANGSTROEM)
---------------------------------
  C      2.952630    1.863080   -3.574850
  C      4.129210    0.898390   -3.418950
  H      3.733690   -0.100600   -3.237630
  H      4.719100    0.862560   -4.339010
  C      5.017340    1.315210   -2.221300
  F      4.737060    0.854110   -1.122830
  O      5.928150    2.168110   -2.491360
  H      2.350670    1.560050   -4.405940
  H      3.322770    2.852580   -3.744530
  H      2.361340    1.851490   -2.683150

 Total Charge           Charge          ....    0
 Multiplicity           Mult            ....    1
 Number of Electrons    NEL             ....   40
 Basis Dimension        Dim             ....  185

ORBITAL ENERGIES
----------------

  NO   OCC          E(Eh)            E(eV)
   0   2.0000     -24.363864      -662.9744
   1   2.0000     -18.770233      -510.7640
   2   2.0000     -10.074808      -274.1495
   3   2.0000      -9.932165      -270.2679
   4   2.0000      -9.910514      -269.6788
   5   2.0000      -1.231218       -33.5032
   6   2.0000      -0.923573       -25.1317
   7   2.0000      -0.720019       -19.5927
   8   2.0000      -0.619705       -16.8630
   9   2.0000      -0.578567       -15.7436
  10   2.0000      -0.496625       -13.5138
  11   2.0000      -0.481115       -13.0918
  12   2.0000      -0.444438       -12.0938
  13   2.0000      -0.411129       -11.1874
  14   2.0000      -0.381323       -10.3763
  15   2.0000      -0.350873        -9.5478
  16   2.0000      -0.328562        -8.9406
  17   2.0000      -0.323944        -8.8150
  18   2.0000      -0.297515        -8.0958
  19   2.0000      -0.231298        -6.2939
  20   0.0000      -0.061438        -1.6718
  21   0.0000       0.012601         0.3429
  22   0.0000       0.051788         1.4092
  23   0.0000       0.065931         1.7941
  24   0.0000       0.077354         2.1049

MULLIKEN ATOMIC CHARGES
-----------------------
   0 C :   -0.324772
   1 C :   -0.170225
   2 H :    0.084336
   3 H :    0.109751
   4 C :    0.339786
   5 F :   -0.050231
   6 O :   -0.324059
   7 H :    0.109399
   8 H :    0.121629
   9 H :    0.104384
Sum of atomic charges:   -0.0000000

LOEWDIN ATOMIC CHARGES
----------------------
   0 C :   -0.284433
   1 C :   -0.255449
   2 H :    0.133379
   3 H :    0.145657
   4 C :   -0.536196
   5 F :    0.390587
   6 O :    0.050121
   7 H :    0.118278
   8 H :    0.121385
   9 H :    0.116671

  Mayer bond orders larger than 0.100000
B(  0-C ,  1-C ) :   0.9478 B(  0-C ,  7-H ) :   0.9679 B(  0-C ,  8-H ) :   0.9726
B(  0-C ,  9-H ) :   0.9728 B(  1-C ,  2-H ) :   0.9425 B(  1-C ,  3-H ) :   0.9553
B(  1-C ,  4-C ) :   0.9708 B(  4-C ,  5-F ) :   1.2006 B(  4-C ,  6-O ) :   2.0536

Dispersion correction           -0.012840765
FINAL SINGLE POINT ENERGY      -292.441750404449

DIPOLE MOMENT
-------------
                                X             Y             Z
Electronic contribution:      5.10221      -1.14781       6.55403
Nuclear contribution   :     -6.06116       0.51860      -6.80802
                        -----------------------------------------
Total Dipole Moment    :     -0.95895      -0.62921      -0.25399
                        -----------------------------------------
Magnitude (a.u.)       :      1.17473
Magnitude (Debye)      :      2.98594

Rotational constants in cm-1:     0.276196     0.132056     0.105465
Rotational constants in MHz :  8280.156449  3958.940601  3161.775929

                             ****ORCA TERMINATED NORMALLY****
TOTAL RUN TIME: 0 days 0 hours 0 minutes 9 seconds 436 msec
