                         Program Version 5.0.0 -  RELEASE  -
|  1> !BLYP D3BJ RIJCOSX def2-TZVP def2/J TightSCF
|  2>
|  3> *xyz 0 1
|  4> C          3.34350        3.35457       -3.59200
|  5> C          2.95263        1.86308       -3.57485
|  6> C          4.25587        3.70385       -4.72605
|  7> C          3.73403        4.29378       -5.80077
|  8> N          5.51504        3.40725       -4.63718
|  9> H          6.14919        3.60120       -5.39905
| 10> H          5.81358        2.89950       -3.80879
| 11> H          2.74138        4.51311       -5.82470
| 12> H          4.28755        4.52126       -6.61434
| 13> H          3.86125        3.59725       -2.66298
| 14> H          2.44649        3.97346       -3.65656
| 15> H          2.44395        1.61721       -4.48352
| 16> H          2.30781        1.67290       -2.74242
| 17> H          3.83491        1.26414       -3.48670
| 18> *
| 19> %MaxCore 64000
| 20>
| 21> %pal nprocs 4
| 22> end
| 23>
| 24> %scf
| 25>   MaxIter 150
| 26> end
| 27>
| 28>
| 29>                          ****END OF INPUT****

CARTESIAN COORDINATES (ANGSTROEM)
---------------------------------
  C      3.343500    3.354570   -3.592000
  C      2.952630    1.863080   -3.574850
  C      4.255870    3.703850   -4.726050
  C      3.734030    4.293780   -5.800770
  N      5.515040    3.407250   -4.637180
  H      6.149190    3.601200   -5.399050
  H      5.813580    2.899500   -3.808790
  H      2.741380    4.513110   -5.824700
  H      4.287550    4.521260   -6.614340
  H      3.861250    3.597250   -2.662980
  H      2.446490    3.973460   -3.656560
  H      2.443950    1.617210   -4.483520
  H      2.307810    1.672900   -2.742420
  H      3.834910    1.264140   -3.486700

 Total Charge           Charge          ....    0
 Multiplicity           Mult            ....    1
 Number of Electrons    NEL             ....   40
 Basis Dimension        Dim             ....  209

ORBITAL ENERGIES
----------------

  NO   OCC          E(Eh)            E(eV)
   0   2.0000     -14.007560      -381.1651
   1   2.0000      -9.917595      -269.8715
   2   2.0000      -9.901783      -269.4412
   3   2.0000      -9.888690      -269.0849
   4   2.0000      -9.833360      -267.5793
   5   2.0000      -0.848555       -23.0904
   6   2.0000      -0.697591       -18.9824
   7   2.0000      -0.636406       -17.3175
   8   2.0000      -0.566578       -15.4174
   9   2.0000      -0.508774       -13.8444
  10   2.0000      -0.476151       -12.9567
  11   2.0000      -0.422737       -11.5033
  12   2.0000      -0.386070       -10.5055
  13   2.0000      -0.368929       -10.0391
  14   2.0000      -0.342595        -9.3225
  15   2.0000      -0.332794        -9.0558
  16   2.0000      -0.308281        -8.3888
  17   2.0000      -0.288083        -7.8391
  18   2.0000      -0.283974        -7.7273
  19   2.0000      -0.150419        -4.0931
  20   0.0000       0.000841         0.0229
  21   0.0000       0.023123         0.6292
  22   0.0000       0.045178         1.2293
  23   0.0000       0.056382         1.5342
  24   0.0000       0.066466         1.8086

MULLIKEN ATOMIC CHARGES
-----------------------
   0 C :   -0.190045
   1 C :   -0.280951
   2 C :    0.243723
   3 C :   -0.404278
   4 N :   -0.365018
   5 H :    0.205183
   6 H :    0.203781
   7 H :    0.072597
   8 H :    0.066855
   9 H :    0.070080
  10 H :    0.091294
  11 H :    0.106754
  12 H :    0.097564
  13 H :    0.082460
Sum of atomic charges:   -0.0000000

LOEWDIN ATOMIC CHARGES
----------------------
   0 C :   -0.233062
   1 C :   -0.286851
   2 C :   -0.375658
   3 C :   -0.279118
   4 N :    0.027940
   5 H :    0.171208
   6 H :    0.171202
   7 H :    0.102180
   8 H :    0.091004
   9 H :    0.130567
  10 H :    0.143734
  11 H :    0.116334
  12 H :    0.111727
  13 H :    0.108791

  Mayer bond orders larger than 0.100000
B(  0-C ,  1-C ) :   0.9432 B(  0-C ,  2-C ) :   0.9587 B(  0-C ,  9-H ) :   0.9632
B(  0-C , 10-H ) :   0.9766 B(  1-C , 11-H ) :   0.9776 B(  1-C , 12-H ) :   0.9716
B(  1-C , 13-H ) :   0.9732 B(  2-C ,  3-C ) :   1.6977 B(  2-C ,  4-N ) :   1.2060
B(  3-C ,  7-H ) :   0.9936 B(  3-C ,  8-H ) :   0.9868 B(  4-N ,  5-H ) :   0.9216
B(  4-N ,  6-H ) :   0.9276

Dispersion correction           -0.021432508
FINAL SINGLE POINT ENERGY      -212.550745621744

DIPOLE MOMENT
-------------
                                X             Y             Z
Electronic contribution:      2.38090       1.47690      -0.86138
Nuclear contribution   :     -1.79713      -1.86925       1.28073
                        -----------------------------------------
Total Dipole Moment    :      0.58378      -0.39235       0.41935
                        -----------------------------------------
Magnitude (a.u.)       :      0.81889
Magnitude (Debye)      :      2.08146

Rotational constants in cm-1:     0.269040     0.129645     0.102087
Rotational constants in MHz :  8065.609820  3886.645139  3060.489045

                             ****ORCA TERMINATED NORMALLY****
TOTAL RUN TIME: 0 days 0 hours 0 minutes 12 seconds 500 msec
