                         Program Version 5.0.0 -  RELEASE  -
|  1> !BLYP D3BJ RIJCOSX def2-TZVP def2/J TightSCF
|  2>
|  3> *xyz 0 1
|  4> C          2.95263        1.86308       -3.57485
|  5> C          4.12921        0.89839       -3.41895
|  6> H          3.73369       -0.10060       -3.23763
|  7> H          4.71910        0.86256       -4.33901
|  8> C          5.01734        1.31521       -2.22130
|  9> O          4.73706        0.85411       -1.12283
| 10> F          5.92815        2.16811       -2.49136
| 11> H          2.35067        1.56005       -4.40594
| 12> H          3.32277        2.85258       -3.74453
| 13> H          2.36134        1.85149       -2.68315
| 14> *
| 15> %MaxCore 64000
| 16>
| 17> %pal nprocs 4
| 18> end
| 19>
| 20> %scf
| 21>   MaxIter 150
| 22> end
| 23>
| 24>
| 25>                          ****END OF INPUT****

CARTESIAN COORDINATES (ANGSTROEM)
---------------------------------
  C      2.952630    1.863080   -3.574850
  C      4.129210    0.898390   -3.418950
  H      3.733690   -0.100600   -3.237630
  H      4.719100    0.862560   -4.339010
  C      5.017340    1.315210   -2.221300
  O      4.737060    0.854110   -1.122830
  F      5.928150    2.168110   -2.491360
  H      2.350670    1.560050   -4.405940
  H      3.322770    2.852580   -3.744530
  H      2.361340    1.851490   -2.683150

 Total Charge           Charge          ....    0
 Multiplicity           Mult            ....    1
 Number of Electrons    NEL             ....   40
 Basis Dimension        Dim             ....  185

ORBITAL ENERGIES
----------------

  NO   OCC          E(Eh)            E(eV)
   0   2.0000     -24.343391      -662.4173
   1   2.0000     -18.779353      -511.0122
   2   2.0000     -10.070599      -274.0349
   3   2.0000      -9.931956      -270.2623
   4   2.0000      -9.910900      -269.6893
   5   2.0000      -1.191887       -32.4329
   6   2.0000      -0.955996       -26.0140
   7   2.0000      -0.719955       -19.5910
   8   2.0000      -0.609589       -16.5878
   9   2.0000      -0.566669       -15.4198
  10   2.0000      -0.478368       -13.0171
  11   2.0000      -0.463213       -12.6047
  12   2.0000      -0.442440       -12.0394
  13   2.0000      -0.409834       -11.1522
  14   2.0000      -0.383260       -10.4290
  15   2.0000      -0.352848        -9.6015
  16   2.0000      -0.335063        -9.1175
  17   2.0000      -0.324802        -8.8383
  18   2.0000      -0.313274        -8.5246
  19   2.0000      -0.243493        -6.6258
  20   0.0000      -0.056631        -1.5410
  21   0.0000       0.012756         0.3471
  22   0.0000       0.051678         1.4062
  23   0.0000       0.066137         1.7997
  24   0.0000       0.077530         2.1097

MULLIKEN ATOMIC CHARGES
-----------------------
   0 C :   -0.327032
   1 C :   -0.173088
   2 H :    0.104780
   3 H :    0.091260
   4 C :    0.325547
   5 O :   -0.257157
   6 F :   -0.100990
   7 H :    0.109850
   8 H :    0.106850
   9 H :    0.119980
Sum of atomic charges:    0.0000000

LOEWDIN ATOMIC CHARGES
----------------------
   0 C :   -0.284728
   1 C :   -0.254023
   2 H :    0.145138
   3 H :    0.134695
   4 C :   -0.525634
   5 O :    0.122984
   6 F :    0.305004
   7 H :    0.118402
   8 H :    0.117069
   9 H :    0.121093

  Mayer bond orders larger than 0.100000
B(  0-C ,  1-C ) :   0.9482 B(  0-C ,  7-H ) :   0.9682 B(  0-C ,  8-H ) :   0.9734
B(  0-C ,  9-H ) :   0.9727 B(  1-C ,  2-H ) :   0.9566 B(  1-C ,  3-H ) :   0.9435
B(  1-C ,  4-C ) :   0.9724 B(  4-C ,  5-O ) :   2.1220 B(  4-C ,  6-F ) :   1.1448

Dispersion correction           -0.012839962
FINAL SINGLE POINT ENERGY      -292.457499046349

DIPOLE MOMENT
-------------
                                X             Y             Z
Electronic contribution:      7.06045       1.01588       4.28744
Nuclear contribution   :     -7.35982      -0.91407      -5.31589
                        -----------------------------------------
Total Dipole Moment    :     -0.29936       0.10181      -1.02846
                        -----------------------------------------
Magnitude (a.u.)       :      1.07597
Magnitude (Debye)      :      2.73490

Rotational constants in cm-1:     0.275433     0.132201     0.105422
Rotational constants in MHz :  8257.268192  3963.279062  3160.465566

                             ****ORCA TERMINATED NORMALLY****
TOTAL RUN TIME: 0 days 0 hours 0 minutes 9 seconds 483 msec
