                         Program Version 5.0.0 -  RELEASE  -
|  1> !BLYP D3BJ RIJCOSX def2-TZVP def2/J TightSCF
|  2>
|  3> *xyz 0 1
|  4> C          3.34350        3.35457       -3.59200
|  5> C          2.95263        1.86308       -3.57485
|  6> C          4.25587        3.70385       -4.72605
|  7> N          3.73403        4.29378       -5.80077
|  8> C          5.51504        3.40725       -4.63718
|  9> H          6.14919        3.60120       -5.39905
| 10> H          5.81358        2.89950       -3.80879
| 11> H          2.74138        4.51311       -5.82470
| 12> H          4.28755        4.52126       -6.61434
| 13> H          3.86125        3.59725       -2.66298
| 14> H          2.44649        3.97346       -3.65656
| 15> H          2.44395        1.61721       -4.48352
| 16> H          2.30781        1.67290       -2.74242
| 17> H          3.83491        1.26414       -3.48670
| 18> *
| 19> %MaxCore 64000
| 20>
| 21> %pal nprocs 4
| 22> end
| 23>
| 24> %scf
| 25>   MaxIter 150
| 26> end
| 27>
| 28>
| 29>                          ****END OF INPUT****

CARTESIAN COORDINATES (ANGSTROEM)
---------------------------------
  C      3.343500    3.354570   -3.592000
  C      2.952630    1.863080   -3.574850
  C      4.255870    3.703850   -4.726050
  N      3.734030    4.293780   -5.800770
  C      5.515040    3.407250   -4.637180
  H      6.149190    3.601200   -5.399050
  H      5.813580    2.899500   -3.808790
  H      2.741380    4.513110   -5.824700
  H      4.287550    4.521260   -6.614340
  H      3.861250    3.597250   -2.662980
  H      2.446490    3.973460   -3.656560
  H      2.443950    1.617210   -4.483520
  H      2.307810    1.672900   -2.742420
  H      3.834910    1.264140   -3.486700

 Total Charge           Charge          ....    0
 Multiplicity           Mult            ....    1
 Number of Electrons    NEL             ....   40
 Basis Dimension        Dim             ....  209

ORBITAL ENERGIES
----------------

  NO   OCC          E(Eh)            E(eV)
   0   2.0000     -14.003470      -381.0538
   1   2.0000      -9.915228      -269.8071
   2   2.0000      -9.901487      -269.4332
   3   2.0000      -9.886579      -269.0275
   4   2.0000      -9.831560      -267.5303
   5   2.0000      -0.834290       -22.7022
   6   2.0000      -0.699881       -19.0447
   7   2.0000      -0.639930       -17.4134
   8   2.0000      -0.567387       -15.4394
   9   2.0000      -0.502739       -13.6802
  10   2.0000      -0.464650       -12.6438
  11   2.0000      -0.426062       -11.5937
  12   2.0000      -0.387219       -10.5368
  13   2.0000      -0.362558        -9.8657
  14   2.0000      -0.342980        -9.3330
  15   2.0000      -0.333729        -9.0812
  16   2.0000      -0.304139        -8.2760
  17   2.0000      -0.292328        -7.9547
  18   2.0000      -0.279280        -7.5996
  19   2.0000      -0.153725        -4.1831
  20   0.0000       0.004042         0.1100
  21   0.0000       0.023042         0.6270
  22   0.0000       0.046639         1.2691
  23   0.0000       0.053370         1.4523
  24   0.0000       0.070712         1.9242

MULLIKEN ATOMIC CHARGES
-----------------------
   0 C :   -0.186014
   1 C :   -0.280116
   2 C :    0.284143
   3 N :   -0.413072
   4 C :   -0.393941
   5 H :    0.065067
   6 H :    0.075275
   7 H :    0.201858
   8 H :    0.201857
   9 H :    0.097047
  10 H :    0.059424
  11 H :    0.091192
  12 H :    0.093597
  13 H :    0.103684
Sum of atomic charges:   -0.0000000

LOEWDIN ATOMIC CHARGES
----------------------
   0 C :   -0.231544
   1 C :   -0.283923
   2 C :   -0.364895
   3 N :    0.002586
   4 C :   -0.266139
   5 H :    0.096637
   6 H :    0.109322
   7 H :    0.163318
   8 H :    0.163493
   9 H :    0.144377
  10 H :    0.128363
  11 H :    0.112758
  12 H :    0.110225
  13 H :    0.115421

  Mayer bond orders larger than 0.100000
B(  0-C ,  1-C ) :   0.9507 B(  0-C ,  2-C ) :   0.9366 B(  0-C ,  9-H ) :   0.9795
B(  0-C , 10-H ) :   0.9680 B(  1-C , 11-H ) :   0.9760 B(  1-C , 12-H ) :   0.9706
B(  1-C , 13-H ) :   0.9761 B(  2-C ,  3-N ) :   1.1519 B(  2-C ,  4-C ) :   1.7362
B(  3-N ,  7-H ) :   0.9293 B(  3-N ,  8-H ) :   0.9241 B(  4-C ,  5-H ) :   0.9867
B(  4-C ,  6-H ) :   0.9952

Dispersion correction           -0.021459751
FINAL SINGLE POINT ENERGY      -212.550848592864

DIPOLE MOMENT
-------------
                                X             Y             Z
Electronic contribution:      0.76362       2.29728      -1.90483
Nuclear contribution   :     -1.38463      -2.07457       1.55023
                        -----------------------------------------
Total Dipole Moment    :     -0.62101       0.22270      -0.35460
                        -----------------------------------------
Magnitude (a.u.)       :      0.74899
Magnitude (Debye)      :      1.90378

Rotational constants in cm-1:     0.272312     0.128195     0.101724
Rotational constants in MHz :  8163.717141  3843.180148  3049.598073

                             ****ORCA TERMINATED NORMALLY****
TOTAL RUN TIME: 0 days 0 hours 0 minutes 11 seconds 438 msec
