                         Program Version 5.0.0 -  RELEASE  -
|  1> !BLYP D3BJ RIJCOSX def2-TZVP def2/J TightSCF xyzfile
|  2>
|  3> *xyzfile 0 1 D4.xyz
|  4>
|  5> %MaxCore 64000
|  6>
|  7> %pal nprocs 18
|  8> end
|  9>
| 10> %scf
| 11>   MaxIter 150
| 12> end
| 13>
| 14>
| 15>                          ****END OF INPUT****

CARTESIAN COORDINATES (ANGSTROEM)
---------------------------------
  C      3.343500    3.354571   -3.591998
  C      2.952633    1.863077   -3.574849
  C      4.129209    0.898394   -3.418950
  H      3.733687   -0.100605   -3.237633
  H      4.719095    0.862556   -4.339005
  C      5.017344    1.315212   -2.221305
  C      4.255868    3.703851   -4.726054
  N      3.734032    4.293783   -5.800770
  C      5.515039    3.407255   -4.637185
  H      6.149187    3.601203   -5.399053
  H      5.813584    2.899504   -3.808785
  H      2.741380    4.513109   -5.824701
  H      4.287548    4.521260   -6.614341
  H      2.278938    1.735250   -2.725496
  H      2.377466    1.625787   -4.475869
  O      4.737055    0.854112   -1.122825
  F      5.928146    2.168108   -2.491365
  H      3.861246    3.597252   -2.662979
  H      2.446493    3.973461   -3.656556

 Total Charge           Charge          ....    0
 Multiplicity           Mult            ....    1
 Number of Electrons    NEL             ....   70
 Basis Dimension        Dim             ....  339

ORBITAL ENERGIES
----------------

  NO   OCC          E(Eh)            E(eV)
   0   2.0000     -24.345833      -662.4838
   1   2.0000     -18.780602      -511.0462
   2   2.0000     -14.006613      -381.1393
   3   2.0000     -10.071635      -274.0631
   4   2.0000      -9.925908      -270.0977
   5   2.0000      -9.921374      -269.9743
   6   2.0000      -9.918687      -269.9012
   7   2.0000      -9.912675      -269.7376
   8   2.0000      -9.823562      -267.3127
   9   2.0000      -1.201814       -32.7030
  10   2.0000      -0.957347       -26.0507
  11   2.0000      -0.838398       -22.8140
  12   2.0000      -0.737224       -20.0609
  13   2.0000      -0.675947       -18.3935
  14   2.0000      -0.634045       -17.2533
  15   2.0000      -0.602587       -16.3972
  16   2.0000      -0.551892       -15.0178
  17   2.0000      -0.520163       -14.1544
  18   2.0000      -0.479781       -13.0555
  19   2.0000      -0.472433       -12.8556
  20   2.0000      -0.465112       -12.6563
  21   2.0000      -0.444677       -12.1003
  22   2.0000      -0.425076       -11.5669
  23   2.0000      -0.407188       -11.0801
  24   2.0000      -0.393090       -10.6965
  25   2.0000      -0.365646        -9.9497
  26   2.0000      -0.348450        -9.4818
  27   2.0000      -0.335587        -9.1318
  28   2.0000      -0.327430        -8.9098
  29   2.0000      -0.316643        -8.6163
  30   2.0000      -0.305236        -8.3059
  31   2.0000      -0.286233        -7.7888
  32   2.0000      -0.282758        -7.6942
  33   2.0000      -0.243304        -6.6206
  34   2.0000      -0.156759        -4.2656
  35   0.0000      -0.058610        -1.5949
  36   0.0000      -0.000714        -0.0194
  37   0.0000       0.015406         0.4192
  38   0.0000       0.033528         0.9124
  39   0.0000       0.043074         1.1721

MULLIKEN ATOMIC CHARGES
-----------------------
   0 C :   -0.218149
   1 C :   -0.146043
   2 C :   -0.189859
   3 H :    0.100629
   4 H :    0.120729
   5 C :    0.294753
   6 C :    0.268234
   7 N :   -0.414060
   8 C :   -0.456677
   9 H :    0.061517
  10 H :    0.130106
  11 H :    0.198961
  12 H :    0.203026
  13 H :    0.095950
  14 H :    0.082338
  15 O :   -0.246333
  16 F :   -0.075575
  17 H :    0.119518
  18 H :    0.070936
Sum of atomic charges:   -0.0000000

LOEWDIN ATOMIC CHARGES
----------------------
   0 C :   -0.207448
   1 C :   -0.239878
   2 C :   -0.227106
   3 H :    0.146535
   4 H :    0.144165
   5 C :   -0.519144
   6 C :   -0.368916
   7 N :    0.001714
   8 C :   -0.265797
   9 H :    0.094941
  10 H :    0.089796
  11 H :    0.161842
  12 H :    0.163743
  13 H :    0.140135
  14 H :    0.136752
  15 O :    0.128162
  16 F :    0.336280
  17 H :    0.149250
  18 H :    0.134974

  Mayer bond orders larger than 0.100000
B(  0-C ,  1-C ) :   0.9578 B(  0-C ,  6-C ) :   0.9368 B(  0-C , 17-H ) :   0.9851
B(  0-C , 18-H ) :   0.9658 B(  1-C ,  2-C ) :   0.9771 B(  1-C , 13-H ) :   0.9571
B(  1-C , 14-H ) :   0.9485 B(  2-C ,  3-H ) :   0.9535 B(  2-C ,  4-H ) :   0.9298
B(  2-C ,  5-C ) :   0.9758 B(  5-C , 15-O ) :   2.1359 B(  5-C , 16-F ) :   1.1030
B(  6-C ,  7-N ) :   1.1399 B(  6-C ,  8-C ) :   1.6969 B(  7-N , 11-H ) :   0.9291
B(  7-N , 12-H ) :   0.9253 B(  8-C ,  9-H ) :   0.9827 B(  8-C , 10-H ) :   0.9955

Dispersion correction           -0.038342107
FINAL SINGLE POINT ENERGY      -464.481419777416

DIPOLE MOMENT
-------------
                                X             Y             Z
Electronic contribution:      6.18879      -2.78646       7.11331
Nuclear contribution   :     -6.99695       3.07955      -8.37829
                        -----------------------------------------
Total Dipole Moment    :     -0.80817       0.29309      -1.26498
                        -----------------------------------------
Magnitude (a.u.)       :      1.52945
Magnitude (Debye)      :      3.88755

Rotational constants in cm-1:     0.106302     0.035771     0.030198
Rotational constants in MHz :  3186.860872  1072.397550   905.318354

                             ****ORCA TERMINATED NORMALLY****
TOTAL RUN TIME: 0 days 0 hours 0 minutes 11 seconds 57 msec
