                         Program Version 5.0.0 -  RELEASE  -
|  1> !LC-PBE RIJCOSX def2-SVPD def2/J TightSCF
|  2> *xyz -1 1
|  3> C         -0.87096        0.24804       -2.66280
|  4> C         -0.47749        0.60819       -4.10105
|  5> H          0.20677        1.45830       -4.11875
|  6> H         -1.36844        0.92942       -4.64785
|  7> C          0.18467       -0.50664       -4.91676
|  8> O         -0.15869       -1.70109       -4.65798
|  9> O          1.05594       -0.17441       -5.74037
| 10> C          0.10016       -0.67355       -1.91581
| 11> H         -1.00105        1.18104       -2.10407
| 12> H         -1.84465       -0.24659       -2.66328
| 13> H          0.22336       -1.58297       -2.46597
| 14> H         -0.29270       -0.89423       -0.94532
| 15> H          1.04759       -0.18666       -1.81480
| 16> *
| 17>
| 18> %MaxCore 64000
| 19>
| 20> %pal nprocs 4
| 21> end
| 22>
| 23> %scf
| 24>   MaxIter 150
| 25> end
| 26>
| 27>
| 28>                          ****END OF INPUT****

CARTESIAN COORDINATES (ANGSTROEM)
---------------------------------
  C     -0.870960    0.248040   -2.662800
  C     -0.477490    0.608190   -4.101050
  H      0.206770    1.458300   -4.118750
  H     -1.368440    0.929420   -4.647850
  C      0.184670   -0.506640   -4.916760
  O     -0.158690   -1.701090   -4.657980
  O      1.055940   -0.174410   -5.740370
  C      0.100160   -0.673550   -1.915810
  H     -1.001050    1.181040   -2.104070
  H     -1.844650   -0.246590   -2.663280
  H      0.223360   -1.582970   -2.465970
  H     -0.292700   -0.894230   -0.945320
  H      1.047590   -0.186660   -1.814800

 Total Charge           Charge          ....   -1
 Multiplicity           Mult            ....    1
 Number of Electrons    NEL             ....   48
 Basis Dimension        Dim             ....  182

ORBITAL ENERGIES
----------------

  NO   OCC          E(Eh)            E(eV)
   0   2.0000     -18.732925      -509.7488
   1   2.0000     -18.729055      -509.6435
   2   2.0000     -10.023448      -272.7519
   3   2.0000      -9.980277      -271.5771
   4   2.0000      -9.960405      -271.0364
   5   2.0000      -9.957731      -270.9636
   6   2.0000      -0.985688       -26.8219
   7   2.0000      -0.881601       -23.9896
   8   2.0000      -0.806018       -21.9329
   9   2.0000      -0.706137       -19.2150
  10   2.0000      -0.601490       -16.3674
  11   2.0000      -0.469959       -12.7882
  12   2.0000      -0.451247       -12.2791
  13   2.0000      -0.436906       -11.8888
  14   2.0000      -0.397857       -10.8262
  15   2.0000      -0.376040       -10.2326
  16   2.0000      -0.354686        -9.6515
  17   2.0000      -0.342579        -9.3220
  18   2.0000      -0.325037        -8.8447
  19   2.0000      -0.311362        -8.4726
  20   2.0000      -0.295651        -8.0451
  21   2.0000      -0.182246        -4.9592
  22   2.0000      -0.178240        -4.8502
  23   2.0000      -0.168189        -4.5766
  24   0.0000       0.214702         5.8424
  25   0.0000       0.237866         6.4727
  26   0.0000       0.253953         6.9104
  27   0.0000       0.264851         7.2070
  28   0.0000       0.287804         7.8316

MULLIKEN ATOMIC CHARGES
-----------------------
   0 C :   -0.479142
   1 C :   -0.019250
   2 H :    0.114958
   3 H :    0.029552
   4 C :    0.237976
   5 O :   -0.688155
   6 O :   -0.616859
   7 C :    0.461622
   8 H :   -0.064804
   9 H :    0.038902
  10 H :   -0.026327
  11 H :    0.006767
  12 H :    0.004760
Sum of atomic charges:   -1.0000000

LOEWDIN ATOMIC CHARGES
----------------------
   0 C :   -0.108212
   1 C :   -0.022098
   2 H :    0.016489
   3 H :    0.025523
   4 C :   -0.311816
   5 O :   -0.318751
   6 O :   -0.313594
   7 C :    0.079147
   8 H :    0.009695
   9 H :    0.020482
  10 H :   -0.038244
  11 H :   -0.026306
  12 H :   -0.012313

  Mayer bond orders larger than 0.100000
B(  0-C ,  1-C ) :   1.2074 B(  0-C ,  3-H ) :   0.1041 B(  0-C ,  7-C ) :   1.3339
B(  0-C ,  8-H ) :   0.9688 B(  0-C ,  9-H ) :   0.9242 B(  0-C , 10-H ) :   0.1627
B(  0-C , 11-H ) :   0.1830 B(  0-C , 12-H ) :   0.1590 B(  1-C ,  2-H ) :   0.8756
B(  1-C ,  3-H ) :   0.8682 B(  1-C ,  4-C ) :   1.0493 B(  2-H ,  4-C ) :   0.1668
B(  4-C ,  5-O ) :   1.5789 B(  4-C ,  6-O ) :   1.5284 B(  7-C , 10-H ) :   0.8939
B(  7-C , 11-H ) :   0.7687 B(  7-C , 12-H ) :   0.8145

FINAL SINGLE POINT ENERGY      -306.022511609245

DIPOLE MOMENT
-------------
                                X             Y             Z
Electronic contribution:      1.76799      -1.93625      -6.65355
Nuclear contribution   :     -2.71698       3.10699       8.64748
                        -----------------------------------------
Total Dipole Moment    :     -0.94900       1.17074       1.99392
                        -----------------------------------------
Magnitude (a.u.)       :      2.49939
Magnitude (Debye)      :      6.35296

Rotational constants in cm-1:     0.212307     0.084237     0.072775
Rotational constants in MHz :  6364.813744  2525.362351  2181.751235

                             ****ORCA TERMINATED NORMALLY****
TOTAL RUN TIME: 0 days 0 hours 0 minutes 20 seconds 446 msec
