                         Program Version 5.0.0 -  RELEASE  -
|  1> !LC-PBE RIJCOSX def2-SVPD def2/J TightSCF
|  2> *xyz 1 1
|  3> C          2.48645       -2.67712       -2.56345
|  4> C          3.03764       -2.36672       -3.92351
|  5> N          2.28036       -2.45441       -4.96769
|  6> N          4.32174       -2.01793       -4.01664
|  7> H          4.87994       -1.91167       -3.17382
|  8> H          4.71015       -1.67088       -4.88356
|  9> H          1.27042       -2.41265       -4.86614
| 10> H          2.58183       -2.05528       -5.84688
| 11> C          2.49799       -1.46946       -1.61030
| 12> C          1.58284       -0.32199       -2.04262
| 13> H          2.19308       -1.83391       -0.62542
| 14> H          3.52336       -1.10398       -1.49039
| 15> H          1.47259       -3.05153       -2.69437
| 16> H          3.08320       -3.49064       -2.14147
| 17> H          1.88480        0.03130       -3.00642
| 18> H          1.65140        0.47571       -1.33278
| 19> H          0.57235       -0.67052       -2.09099
| 20> *
| 21>
| 22> %MaxCore 64000
| 23>
| 24> %pal nprocs 4
| 25> end
| 26>
| 27> %scf
| 28>   MaxIter 150
| 29> end
| 30>
| 31>
| 32>                          ****END OF INPUT****

CARTESIAN COORDINATES (ANGSTROEM)
---------------------------------
  C      2.486450   -2.677120   -2.563450
  C      3.037640   -2.366720   -3.923510
  N      2.280360   -2.454410   -4.967690
  N      4.321740   -2.017930   -4.016640
  H      4.879940   -1.911670   -3.173820
  H      4.710150   -1.670880   -4.883560
  H      1.270420   -2.412650   -4.866140
  H      2.581830   -2.055280   -5.846880
  C      2.497990   -1.469460   -1.610300
  C      1.582840   -0.321990   -2.042620
  H      2.193080   -1.833910   -0.625420
  H      3.523360   -1.103980   -1.490390
  H      1.472590   -3.051530   -2.694370
  H      3.083200   -3.490640   -2.141470
  H      1.884800    0.031300   -3.006420
  H      1.651400    0.475710   -1.332780
  H      0.572350   -0.670520   -2.090990

 Total Charge           Charge          ....    1
 Multiplicity           Mult            ....    1
 Number of Electrons    NEL             ....   48
 Basis Dimension        Dim             ....  208

ORBITAL ENERGIES
----------------

  NO   OCC          E(Eh)            E(eV)
   0   2.0000     -14.477828      -393.9617
   1   2.0000     -14.471945      -393.8016
   2   2.0000     -10.459990      -284.6308
   3   2.0000     -10.322866      -280.8995
   4   2.0000     -10.292604      -280.0760
   5   2.0000     -10.254747      -279.0458
   6   2.0000      -1.377194       -37.4754
   7   2.0000      -1.270350       -34.5680
   8   2.0000      -1.147590       -31.2275
   9   2.0000      -1.055079       -28.7102
  10   2.0000      -0.992040       -26.9948
  11   2.0000      -0.937193       -25.5023
  12   2.0000      -0.921851       -25.0848
  13   2.0000      -0.884188       -24.0600
  14   2.0000      -0.840195       -22.8629
  15   2.0000      -0.805973       -21.9316
  16   2.0000      -0.771575       -20.9956
  17   2.0000      -0.734698       -19.9921
  18   2.0000      -0.715555       -19.4712
  19   2.0000      -0.700156       -19.0522
  20   2.0000      -0.636783       -17.3277
  21   2.0000      -0.631641       -17.1878
  22   2.0000      -0.628332       -17.0978
  23   2.0000      -0.619468       -16.8566
  24   0.0000      -0.121356        -3.3023
  25   0.0000      -0.075020        -2.0414
  26   0.0000      -0.038306        -1.0424
  27   0.0000      -0.033178        -0.9028
  28   0.0000      -0.010708        -0.2914

MULLIKEN ATOMIC CHARGES
-----------------------
   0 C :   -0.081830
   1 C :    0.589380
   2 N :    0.021879
   3 N :   -0.018791
   4 H :    0.088081
   5 H :   -0.077586
   6 H :    0.085129
   7 H :   -0.030118
   8 C :   -0.457348
   9 C :    0.488333
  10 H :    0.041386
  11 H :    0.014627
  12 H :    0.145159
  13 H :    0.107452
  14 H :   -0.033798
  15 H :    0.029964
  16 H :    0.088081
Sum of atomic charges:    1.0000000

LOEWDIN ATOMIC CHARGES
----------------------
   0 C :    0.022396
   1 C :   -0.049274
   2 N :    0.270923
   3 N :    0.273632
   4 H :    0.056264
   5 H :    0.053645
   6 H :    0.067536
   7 H :    0.060356
   8 C :   -0.070251
   9 C :    0.112267
  10 H :    0.051670
  11 H :    0.031252
  12 H :    0.048666
  13 H :    0.065215
  14 H :   -0.010416
  15 H :    0.011125
  16 H :    0.004995

  Mayer bond orders larger than 0.100000
B(  0-C ,  1-C ) :   1.1584 B(  0-C ,  8-C ) :   1.1818 B(  0-C , 12-H ) :   0.8197
B(  0-C , 13-H ) :   0.8707 B(  1-C ,  2-N ) :   1.1027 B(  1-C ,  3-N ) :   1.1212
B(  1-C ,  5-H ) :  -0.1363 B(  1-C ,  7-H ) :  -0.1015 B(  1-C , 12-H ) :   0.1386
B(  1-C , 13-H ) :   0.1109 B(  2-N ,  3-N ) :   0.1376 B(  2-N ,  6-H ) :   1.0409
B(  2-N ,  7-H ) :   1.1691 B(  3-N ,  4-H ) :   1.0720 B(  3-N ,  5-H ) :   1.2776
B(  4-H ,  5-H ) :  -0.1701 B(  6-H ,  7-H ) :  -0.1230 B(  8-C ,  9-C ) :   1.3629
B(  8-C , 10-H ) :   0.9882 B(  8-C , 11-H ) :   0.9233 B(  8-C , 12-H ) :   0.1258
B(  8-C , 14-H ) :   0.1908 B(  8-C , 15-H ) :   0.1774 B(  8-C , 16-H ) :   0.1663
B(  9-C , 14-H ) :   0.8525 B(  9-C , 15-H ) :   0.8247 B(  9-C , 16-H ) :   0.8059

FINAL SINGLE POINT ENERGY      -267.283907063064

DIPOLE MOMENT
-------------
                                X             Y             Z
Electronic contribution:      2.37348      -2.81328      -4.29436
Nuclear contribution   :     -1.82438       2.64851       2.98450
                        -----------------------------------------
Total Dipole Moment    :      0.54910      -0.16477      -1.30986
                        -----------------------------------------
Magnitude (a.u.)       :      1.42982
Magnitude (Debye)      :      3.63432

Rotational constants in cm-1:     0.176712     0.077069     0.069669
Rotational constants in MHz :  5297.698588  2310.466480  2088.633881

                             ****ORCA TERMINATED NORMALLY****
TOTAL RUN TIME: 0 days 0 hours 0 minutes 26 seconds 295 msec
