                         Program Version 5.0.0 -  RELEASE  -
|  1> !LC-PBE RIJCOSX def2-SVPD def2/J TightSCF
|  2> *xyz 0 1
|  3> C         -0.87096        0.24804       -2.66280
|  4> C         -0.47749        0.60819       -4.10105
|  5> H          0.20677        1.45830       -4.11875
|  6> H         -1.36844        0.92942       -4.64785
|  7> C          0.18467       -0.50664       -4.91676
|  8> F         -0.15869       -1.70109       -4.65798
|  9> O          1.05594       -0.17441       -5.74037
| 10> C          0.10016       -0.67355       -1.91581
| 11> H         -1.00105        1.18104       -2.10407
| 12> H         -1.84465       -0.24659       -2.66328
| 13> H          0.22336       -1.58297       -2.46597
| 14> H         -0.29270       -0.89423       -0.94532
| 15> H          1.04759       -0.18666       -1.81480
| 16> *
| 17>
| 18> %MaxCore 64000
| 19>
| 20> %pal nprocs 4
| 21> end
| 22>
| 23> %scf
| 24>   MaxIter 150
| 25> end
| 26>
| 27>
| 28>                          ****END OF INPUT****

CARTESIAN COORDINATES (ANGSTROEM)
---------------------------------
  C     -0.870960    0.248040   -2.662800
  C     -0.477490    0.608190   -4.101050
  H      0.206770    1.458300   -4.118750
  H     -1.368440    0.929420   -4.647850
  C      0.184670   -0.506640   -4.916760
  F     -0.158690   -1.701090   -4.657980
  O      1.055940   -0.174410   -5.740370
  C      0.100160   -0.673550   -1.915810
  H     -1.001050    1.181040   -2.104070
  H     -1.844650   -0.246590   -2.663280
  H      0.223360   -1.582970   -2.465970
  H     -0.292700   -0.894230   -0.945320
  H      1.047590   -0.186660   -1.814800

 Total Charge           Charge          ....    0
 Multiplicity           Mult            ....    1
 Number of Electrons    NEL             ....   48
 Basis Dimension        Dim             ....  182

ORBITAL ENERGIES
----------------

  NO   OCC          E(Eh)            E(eV)
   0   2.0000     -24.578176      -668.8062
   1   2.0000     -19.005907      -517.1770
   2   2.0000     -10.319507      -280.8081
   3   2.0000     -10.161742      -276.5151
   4   2.0000     -10.147458      -276.1264
   5   2.0000     -10.122365      -275.4436
   6   2.0000      -1.459458       -39.7139
   7   2.0000      -1.200237       -32.6601
   8   2.0000      -0.992398       -27.0045
   9   2.0000      -0.897530       -24.4230
  10   2.0000      -0.817028       -22.2325
  11   2.0000      -0.778000       -21.1705
  12   2.0000      -0.707796       -19.2601
  13   2.0000      -0.696100       -18.9419
  14   2.0000      -0.641662       -17.4605
  15   2.0000      -0.624277       -16.9874
  16   2.0000      -0.596742       -16.2382
  17   2.0000      -0.563010       -15.3203
  18   2.0000      -0.548742       -14.9320
  19   2.0000      -0.518174       -14.1002
  20   2.0000      -0.500348       -13.6152
  21   2.0000      -0.489903       -13.3309
  22   2.0000      -0.469678       -12.7806
  23   2.0000      -0.431914       -11.7530
  24   0.0000       0.065814         1.7909
  25   0.0000       0.080896         2.2013
  26   0.0000       0.110840         3.0161
  27   0.0000       0.113002         3.0749
  28   0.0000       0.127698         3.4748

MULLIKEN ATOMIC CHARGES
-----------------------
   0 C :   -0.452844
   1 C :   -0.120529
   2 H :    0.165037
   3 H :    0.100587
   4 C :    0.605217
   5 F :   -0.379831
   6 O :   -0.416517
   7 C :    0.461706
   8 H :   -0.035484
   9 H :    0.057115
  10 H :   -0.054507
  11 H :    0.035810
  12 H :    0.034240
Sum of atomic charges:   -0.0000000

LOEWDIN ATOMIC CHARGES
----------------------
   0 C :   -0.088280
   1 C :    0.025317
   2 H :    0.048470
   3 H :    0.052624
   4 C :   -0.021083
   5 F :   -0.032128
   6 O :   -0.123656
   7 C :    0.098831
   8 H :    0.034915
   9 H :    0.032617
  10 H :   -0.026523
  11 H :   -0.002401
  12 H :    0.001297

  Mayer bond orders larger than 0.100000
B(  0-C ,  1-C ) :   1.2283 B(  0-C ,  7-C ) :   1.3434 B(  0-C ,  8-H ) :   0.9706
B(  0-C ,  9-H ) :   0.9290 B(  0-C , 10-H ) :   0.1423 B(  0-C , 11-H ) :   0.1750
B(  0-C , 12-H ) :   0.1544 B(  1-C ,  2-H ) :   0.8881 B(  1-C ,  3-H ) :   0.8616
B(  1-C ,  4-C ) :   1.0776 B(  2-H ,  4-C ) :   0.1160 B(  4-C ,  5-F ) :   0.7755
B(  4-C ,  6-O ) :   1.8769 B(  7-C , 10-H ) :   0.8984 B(  7-C , 11-H ) :   0.7853
B(  7-C , 12-H ) :   0.8215

FINAL SINGLE POINT ENERGY      -330.529216087943

DIPOLE MOMENT
-------------
                                X             Y             Z
Electronic contribution:      1.70318      -4.29034      -8.44023
Nuclear contribution   :     -2.55684       4.59749       9.38828
                        -----------------------------------------
Total Dipole Moment    :     -0.85366       0.30715       0.94805
                        -----------------------------------------
Magnitude (a.u.)       :      1.31220
Magnitude (Debye)      :      3.33535

Rotational constants in cm-1:     0.200184     0.083263     0.071070
Rotational constants in MHz :  6001.373539  2496.169674  2130.635527

                             ****ORCA TERMINATED NORMALLY****
TOTAL RUN TIME: 0 days 0 hours 0 minutes 21 seconds 100 msec
