                         Program Version 5.0.0 -  RELEASE  -
|  1> !LC-PBE RIJCOSX def2-SVPD def2/J TightSCF
|  2> *xyz 0 1
|  3> C          2.48645       -2.67712       -2.56345
|  4> C          3.03764       -2.36672       -3.92351
|  5> C          2.28036       -2.45441       -4.96769
|  6> N          4.32174       -2.01793       -4.01664
|  7> H          4.87994       -1.91167       -3.17382
|  8> H          4.71015       -1.67088       -4.88356
|  9> H          1.27042       -2.41265       -4.86614
| 10> H          2.58183       -2.05528       -5.84688
| 11> C          2.49799       -1.46946       -1.61030
| 12> C          1.58284       -0.32199       -2.04262
| 13> H          2.19308       -1.83391       -0.62542
| 14> H          3.52336       -1.10398       -1.49039
| 15> H          1.47259       -3.05153       -2.69437
| 16> H          3.08320       -3.49064       -2.14147
| 17> H          1.88480        0.03130       -3.00642
| 18> H          1.65140        0.47571       -1.33278
| 19> H          0.57235       -0.67052       -2.09099
| 20> *
| 21>
| 22> %MaxCore 64000
| 23>
| 24> %pal nprocs 4
| 25> end
| 26>
| 27> %scf
| 28>   MaxIter 150
| 29> end
| 30>
| 31>
| 32>                          ****END OF INPUT****

CARTESIAN COORDINATES (ANGSTROEM)
---------------------------------
  C      2.486450   -2.677120   -2.563450
  C      3.037640   -2.366720   -3.923510
  C      2.280360   -2.454410   -4.967690
  N      4.321740   -2.017930   -4.016640
  H      4.879940   -1.911670   -3.173820
  H      4.710150   -1.670880   -4.883560
  H      1.270420   -2.412650   -4.866140
  H      2.581830   -2.055280   -5.846880
  C      2.497990   -1.469460   -1.610300
  C      1.582840   -0.321990   -2.042620
  H      2.193080   -1.833910   -0.625420
  H      3.523360   -1.103980   -1.490390
  H      1.472590   -3.051530   -2.694370
  H      3.083200   -3.490640   -2.141470
  H      1.884800    0.031300   -3.006420
  H      1.651400    0.475710   -1.332780
  H      0.572350   -0.670520   -2.090990

 Total Charge           Charge          ....    0
 Multiplicity           Mult            ....    1
 Number of Electrons    NEL             ....   48
 Basis Dimension        Dim             ....  208

ORBITAL ENERGIES
----------------

  NO   OCC          E(Eh)            E(eV)
   0   2.0000     -14.229058      -387.1924
   1   2.0000     -10.153364      -276.2871
   2   2.0000     -10.128766      -275.6177
   3   2.0000     -10.125607      -275.5318
   4   2.0000     -10.106987      -275.0251
   5   2.0000     -10.057553      -273.6799
   6   2.0000      -1.093296       -29.7501
   7   2.0000      -0.966127       -26.2897
   8   2.0000      -0.905252       -24.6332
   9   2.0000      -0.850279       -23.1373
  10   2.0000      -0.756101       -20.5746
  11   2.0000      -0.716376       -19.4936
  12   2.0000      -0.672687       -18.3048
  13   2.0000      -0.618724       -16.8363
  14   2.0000      -0.597870       -16.2689
  15   2.0000      -0.593425       -16.1479
  16   2.0000      -0.534348       -14.5403
  17   2.0000      -0.525618       -14.3028
  18   2.0000      -0.506511       -13.7829
  19   2.0000      -0.503025       -13.6880
  20   2.0000      -0.464649       -12.6437
  21   2.0000      -0.455923       -12.4063
  22   2.0000      -0.448971       -12.2171
  23   2.0000      -0.318102        -8.6560
  24   0.0000       0.088139         2.3984
  25   0.0000       0.111076         3.0225
  26   0.0000       0.116475         3.1694
  27   0.0000       0.119983         3.2649
  28   0.0000       0.144073         3.9204

MULLIKEN ATOMIC CHARGES
-----------------------
   0 C :    0.006884
   1 C :   -0.148183
   2 C :    0.248276
   3 N :    0.105524
   4 H :   -0.066301
   5 H :   -0.135926
   6 H :    0.003558
   7 H :   -0.322706
   8 C :   -0.451941
   9 C :    0.499601
  10 H :   -0.015601
  11 H :    0.009696
  12 H :    0.195579
  13 H :    0.019467
  14 H :   -0.015767
  15 H :    0.006991
  16 H :    0.060849
Sum of atomic charges:    0.0000000

LOEWDIN ATOMIC CHARGES
----------------------
   0 C :   -0.017767
   1 C :   -0.270569
   2 C :    0.136580
   3 N :    0.162537
   4 H :    0.005514
   5 H :    0.014168
   6 H :   -0.062235
   7 H :   -0.068974
   8 C :   -0.093665
   9 C :    0.095806
  10 H :    0.028848
  11 H :    0.018899
  12 H :    0.034852
  13 H :    0.038154
  14 H :   -0.008766
  15 H :   -0.009168
  16 H :   -0.004213

  Mayer bond orders larger than 0.100000
B(  0-C ,  1-C ) :   1.2040 B(  0-C ,  8-C ) :   1.1595 B(  0-C , 10-H ) :   0.1246
B(  0-C , 11-H ) :   0.1233 B(  0-C , 12-H ) :   0.8030 B(  0-C , 13-H ) :   0.9238
B(  1-C ,  2-C ) :   2.1320 B(  1-C ,  3-N ) :   1.1567 B(  1-C ,  6-H ) :   0.1250
B(  1-C ,  7-H ) :   0.2610 B(  1-C , 12-H ) :   0.1013 B(  1-C , 13-H ) :   0.1449
B(  2-C ,  3-N ) :   0.2539 B(  2-C ,  6-H ) :   0.8778 B(  2-C ,  7-H ) :   0.6953
B(  3-N ,  4-H ) :   1.1327 B(  3-N ,  5-H ) :   1.2096 B(  4-H ,  5-H ) :  -0.1494
B(  6-H ,  7-H ) :   0.1184 B(  8-C ,  9-C ) :   1.3364 B(  8-C , 10-H ) :   0.9713
B(  8-C , 11-H ) :   0.9087 B(  8-C , 12-H ) :   0.1297 B(  8-C , 14-H ) :   0.2020
B(  8-C , 15-H ) :   0.1827 B(  8-C , 16-H ) :   0.1727 B(  9-C , 14-H ) :   0.8621
B(  9-C , 15-H ) :   0.8089 B(  9-C , 16-H ) :   0.8104

FINAL SINGLE POINT ENERGY      -250.842140183253

DIPOLE MOMENT
-------------
                                X             Y             Z
Electronic contribution:      2.44635      -2.09970      -2.12279
Nuclear contribution   :     -1.92525       2.50924       2.56958
                        -----------------------------------------
Total Dipole Moment    :      0.52110       0.40954       0.44679
                        -----------------------------------------
Magnitude (a.u.)       :      0.79931
Magnitude (Debye)      :      2.03168

Rotational constants in cm-1:     0.181985     0.078726     0.071856
Rotational constants in MHz :  5455.785660  2360.157292  2154.177820

                             ****ORCA TERMINATED NORMALLY****
TOTAL RUN TIME: 0 days 0 hours 0 minutes 26 seconds 627 msec
