                         Program Version 5.0.0 -  RELEASE  -
|  1> !LC-PBE RIJCOSX def2-SVPD def2/J TightSCF
|  2> *xyz 0 1
|  3> C         -0.87096        0.24804       -2.66280
|  4> C         -0.47749        0.60819       -4.10105
|  5> H          0.20677        1.45830       -4.11875
|  6> H         -1.36844        0.92942       -4.64785
|  7> C          0.18467       -0.50664       -4.91676
|  8> O         -0.15869       -1.70109       -4.65798
|  9> F          1.05594       -0.17441       -5.74037
| 10> C          0.10016       -0.67355       -1.91581
| 11> H         -1.00105        1.18104       -2.10407
| 12> H         -1.84465       -0.24659       -2.66328
| 13> H          0.22336       -1.58297       -2.46597
| 14> H         -0.29270       -0.89423       -0.94532
| 15> H          1.04759       -0.18666       -1.81480
| 16> *
| 17>
| 18> %MaxCore 64000
| 19>
| 20> %pal nprocs 4
| 21> end
| 22>
| 23> %scf
| 24>   MaxIter 150
| 25> end
| 26>
| 27>
| 28>                          ****END OF INPUT****

CARTESIAN COORDINATES (ANGSTROEM)
---------------------------------
  C     -0.870960    0.248040   -2.662800
  C     -0.477490    0.608190   -4.101050
  H      0.206770    1.458300   -4.118750
  H     -1.368440    0.929420   -4.647850
  C      0.184670   -0.506640   -4.916760
  O     -0.158690   -1.701090   -4.657980
  F      1.055940   -0.174410   -5.740370
  C      0.100160   -0.673550   -1.915810
  H     -1.001050    1.181040   -2.104070
  H     -1.844650   -0.246590   -2.663280
  H      0.223360   -1.582970   -2.465970
  H     -0.292700   -0.894230   -0.945320
  H      1.047590   -0.186660   -1.814800

 Total Charge           Charge          ....    0
 Multiplicity           Mult            ....    1
 Number of Electrons    NEL             ....   48
 Basis Dimension        Dim             ....  182

ORBITAL ENERGIES
----------------

  NO   OCC          E(Eh)            E(eV)
   0   2.0000     -24.587785      -669.0676
   1   2.0000     -19.003073      -517.0999
   2   2.0000     -10.322670      -280.8941
   3   2.0000     -10.163705      -276.5685
   4   2.0000     -10.141913      -275.9755
   5   2.0000     -10.109242      -275.0865
   6   2.0000      -1.477944       -40.2169
   7   2.0000      -1.187381       -32.3103
   8   2.0000      -0.985332       -26.8122
   9   2.0000      -0.897522       -24.4228
  10   2.0000      -0.824327       -22.4311
  11   2.0000      -0.771613       -20.9967
  12   2.0000      -0.716569       -19.4988
  13   2.0000      -0.689692       -18.7675
  14   2.0000      -0.659813       -17.9544
  15   2.0000      -0.617724       -16.8091
  16   2.0000      -0.600132       -16.3304
  17   2.0000      -0.556002       -15.1296
  18   2.0000      -0.539954       -14.6929
  19   2.0000      -0.500794       -13.6273
  20   2.0000      -0.490220       -13.3396
  21   2.0000      -0.479146       -13.0382
  22   2.0000      -0.469811       -12.7842
  23   2.0000      -0.429174       -11.6784
  24   0.0000       0.061720         1.6795
  25   0.0000       0.082575         2.2470
  26   0.0000       0.108495         2.9523
  27   0.0000       0.116201         3.1620
  28   0.0000       0.131338         3.5739

MULLIKEN ATOMIC CHARGES
-----------------------
   0 C :   -0.468555
   1 C :   -0.139355
   2 H :    0.171359
   3 H :    0.116082
   4 C :    0.589932
   5 O :   -0.486030
   6 F :   -0.305099
   7 C :    0.472826
   8 H :   -0.021832
   9 H :    0.066477
  10 H :   -0.048892
  11 H :    0.037069
  12 H :    0.016016
Sum of atomic charges:   -0.0000000

LOEWDIN ATOMIC CHARGES
----------------------
   0 C :   -0.079084
   1 C :    0.018425
   2 H :    0.038826
   3 H :    0.052990
   4 C :   -0.014022
   5 O :   -0.136740
   6 F :   -0.011955
   7 C :    0.099102
   8 H :    0.034360
   9 H :    0.037101
  10 H :   -0.032410
  11 H :   -0.003643
  12 H :   -0.002949

  Mayer bond orders larger than 0.100000
B(  0-C ,  1-C ) :   1.2571 B(  0-C ,  3-H ) :   0.1103 B(  0-C ,  7-C ) :   1.3530
B(  0-C ,  8-H ) :   0.9615 B(  0-C ,  9-H ) :   0.9196 B(  0-C , 10-H ) :   0.1476
B(  0-C , 11-H ) :   0.1729 B(  0-C , 12-H ) :   0.1504 B(  1-C ,  2-H ) :   0.8605
B(  1-C ,  3-H ) :   0.8417 B(  1-C ,  4-C ) :   1.1204 B(  4-C ,  5-O ) :   1.8902
B(  4-C ,  6-F ) :   0.8048 B(  7-C , 10-H ) :   0.8961 B(  7-C , 11-H ) :   0.7781
B(  7-C , 12-H ) :   0.8167

FINAL SINGLE POINT ENERGY      -330.522390885226

DIPOLE MOMENT
-------------
                                X             Y             Z
Electronic contribution:      3.79645      -1.70409     -10.36925
Nuclear contribution   :     -3.92885       2.87300      10.61091
                        -----------------------------------------
Total Dipole Moment    :     -0.13241       1.16890       0.24167
                        -----------------------------------------
Magnitude (a.u.)       :      1.20094
Magnitude (Debye)      :      3.05256

Rotational constants in cm-1:     0.209332     0.079487     0.069375
Rotational constants in MHz :  6275.605762  2382.960864  2079.805430

                             ****ORCA TERMINATED NORMALLY****
TOTAL RUN TIME: 0 days 0 hours 0 minutes 21 seconds 579 msec
