                         Program Version 5.0.0 -  RELEASE  -
|  1> !LC-PBE RIJCOSX def2-SVPD def2/J TightSCF
|  2> *xyz 0 1
|  3> C          2.48645       -2.67712       -2.56345
|  4> C          3.03764       -2.36672       -3.92351
|  5> N          2.28036       -2.45441       -4.96769
|  6> C          4.32174       -2.01793       -4.01664
|  7> H          4.87994       -1.91167       -3.17382
|  8> H          4.71015       -1.67088       -4.88356
|  9> H          1.27042       -2.41265       -4.86614
| 10> H          2.58183       -2.05528       -5.84688
| 11> C          2.49799       -1.46946       -1.61030
| 12> C          1.58284       -0.32199       -2.04262
| 13> H          2.19308       -1.83391       -0.62542
| 14> H          3.52336       -1.10398       -1.49039
| 15> H          1.47259       -3.05153       -2.69437
| 16> H          3.08320       -3.49064       -2.14147
| 17> H          1.88480        0.03130       -3.00642
| 18> H          1.65140        0.47571       -1.33278
| 19> H          0.57235       -0.67052       -2.09099
| 20> *
| 21>
| 22> %MaxCore 64000
| 23>
| 24> %pal nprocs 4
| 25> end
| 26>
| 27> %scf
| 28>   MaxIter 150
| 29> end
| 30>
| 31>
| 32>                          ****END OF INPUT****

CARTESIAN COORDINATES (ANGSTROEM)
---------------------------------
  C      2.486450   -2.677120   -2.563450
  C      3.037640   -2.366720   -3.923510
  N      2.280360   -2.454410   -4.967690
  C      4.321740   -2.017930   -4.016640
  H      4.879940   -1.911670   -3.173820
  H      4.710150   -1.670880   -4.883560
  H      1.270420   -2.412650   -4.866140
  H      2.581830   -2.055280   -5.846880
  C      2.497990   -1.469460   -1.610300
  C      1.582840   -0.321990   -2.042620
  H      2.193080   -1.833910   -0.625420
  H      3.523360   -1.103980   -1.490390
  H      1.472590   -3.051530   -2.694370
  H      3.083200   -3.490640   -2.141470
  H      1.884800    0.031300   -3.006420
  H      1.651400    0.475710   -1.332780
  H      0.572350   -0.670520   -2.090990

 Total Charge           Charge          ....    0
 Multiplicity           Mult            ....    1
 Number of Electrons    NEL             ....   48
 Basis Dimension        Dim             ....  208

ORBITAL ENERGIES
----------------

  NO   OCC          E(Eh)            E(eV)
   0   2.0000     -14.232944      -387.2981
   1   2.0000     -10.154307      -276.3127
   2   2.0000     -10.126339      -275.5517
   3   2.0000     -10.124906      -275.5127
   4   2.0000     -10.108210      -275.0584
   5   2.0000     -10.057869      -273.6885
   6   2.0000      -1.108059       -30.1518
   7   2.0000      -0.968197       -26.3460
   8   2.0000      -0.896437       -24.3933
   9   2.0000      -0.844952       -22.9923
  10   2.0000      -0.766818       -20.8662
  11   2.0000      -0.713884       -19.4258
  12   2.0000      -0.666714       -18.1422
  13   2.0000      -0.634636       -17.2693
  14   2.0000      -0.600304       -16.3351
  15   2.0000      -0.574846       -15.6424
  16   2.0000      -0.539901       -14.6914
  17   2.0000      -0.528702       -14.3867
  18   2.0000      -0.510894       -13.9021
  19   2.0000      -0.492030       -13.3888
  20   2.0000      -0.465630       -12.6704
  21   2.0000      -0.461217       -12.5504
  22   2.0000      -0.453150       -12.3308
  23   2.0000      -0.307439        -8.3658
  24   0.0000       0.088899         2.4191
  25   0.0000       0.109073         2.9680
  26   0.0000       0.117734         3.2037
  27   0.0000       0.120492         3.2788
  28   0.0000       0.140830         3.8322

MULLIKEN ATOMIC CHARGES
-----------------------
   0 C :    0.202056
   1 C :   -0.077802
   2 N :    0.040379
   3 C :    0.256905
   4 H :   -0.083797
   5 H :   -0.406204
   6 H :    0.005408
   7 H :   -0.063436
   8 C :   -0.529872
   9 C :    0.478787
  10 H :    0.005648
  11 H :    0.005433
  12 H :    0.014388
  13 H :    0.102707
  14 H :   -0.008672
  15 H :   -0.007307
  16 H :    0.065380
Sum of atomic charges:    0.0000000

LOEWDIN ATOMIC CHARGES
----------------------
   0 C :   -0.017189
   1 C :   -0.272121
   2 N :    0.152950
   3 C :    0.151504
   4 H :   -0.070877
   5 H :   -0.076845
   6 H :    0.014731
   7 H :    0.021042
   8 C :   -0.089179
   9 C :    0.092681
  10 H :    0.029022
  11 H :    0.025522
  12 H :    0.023964
  13 H :    0.042331
  14 H :   -0.010373
  15 H :   -0.008309
  16 H :   -0.008854

  Mayer bond orders larger than 0.100000
B(  0-C ,  1-C ) :   1.0954 B(  0-C ,  2-N ) :   0.1070 B(  0-C ,  3-C ) :   0.1340
B(  0-C ,  8-C ) :   1.1887 B(  0-C , 11-H ) :   0.1129 B(  0-C , 12-H ) :   0.7305
B(  0-C , 13-H ) :   0.8361 B(  1-C ,  2-N ) :   1.0019 B(  1-C ,  3-C ) :   1.8743
B(  1-C ,  5-H ) :   0.1417 B(  1-C , 12-H ) :   0.2034 B(  1-C , 13-H ) :   0.1174
B(  2-N ,  3-C ) :   0.2662 B(  2-N ,  6-H ) :   0.9989 B(  2-N ,  7-H ) :   1.1072
B(  3-C ,  4-H ) :   0.8369 B(  3-C ,  5-H ) :   0.8589 B(  6-H ,  7-H ) :  -0.1125
B(  8-C ,  9-C ) :   1.3401 B(  8-C , 10-H ) :   0.9713 B(  8-C , 11-H ) :   0.9556
B(  8-C , 12-H ) :   0.1667 B(  8-C , 14-H ) :   0.2014 B(  8-C , 15-H ) :   0.1828
B(  8-C , 16-H ) :   0.1787 B(  9-C , 14-H ) :   0.8535 B(  9-C , 15-H ) :   0.8249
B(  9-C , 16-H ) :   0.8134

FINAL SINGLE POINT ENERGY      -250.842246697906

DIPOLE MOMENT
-------------
                                X             Y             Z
Electronic contribution:      0.69305      -2.40638      -2.93814
Nuclear contribution   :     -1.44240       2.61248       2.79453
                        -----------------------------------------
Total Dipole Moment    :     -0.74935       0.20609      -0.14360
                        -----------------------------------------
Magnitude (a.u.)       :      0.79033
Magnitude (Debye)      :      2.00886

Rotational constants in cm-1:     0.182540     0.078634     0.071436
Rotational constants in MHz :  5472.425685  2357.397154  2141.608207

                             ****ORCA TERMINATED NORMALLY****
TOTAL RUN TIME: 0 days 0 hours 0 minutes 26 seconds 855 msec
