                         Program Version 5.0.0 -  RELEASE  -
|  1> !LC-PBE RIJCOSX def2-SVPD def2/J TightSCF xyzfile
|  2>
|  3> *xyzfile 0 1 D3.xyz
|  4>
|  5> %MaxCore 64000
|  6>
|  7> %pal nprocs 4
|  8> end
|  9>
| 10> %scf
| 11>   MaxIter 150
| 12> end
| 13>
| 14>
| 15>                          ****END OF INPUT****

CARTESIAN COORDINATES (ANGSTROEM)
---------------------------------
  C      2.486452   -2.677121   -2.563447
  C     -0.870963    0.248043   -2.662804
  C     -0.477492    0.608191   -4.101052
  H      0.206773    1.458299   -4.118748
  H     -1.368442    0.929419   -4.647855
  C      0.184673   -0.506640   -4.916760
  C      3.037640   -2.366715   -3.923509
  C      2.280360   -2.454408   -4.967692
  N      4.321736   -2.017932   -4.016641
  H      4.879940   -1.911668   -3.173823
  H      4.710148   -1.670882   -4.883561
  H      1.270423   -2.412650   -4.866143
  H      2.581829   -2.055282   -5.846878
  O     -0.158685   -1.701088   -4.657981
  F      1.055938   -0.174410   -5.740373
  C      2.497991   -1.469464   -1.610303
  C      1.582841   -0.321986   -2.042619
  H      2.193083   -1.833912   -0.625420
  H      3.523356   -1.103982   -1.490392
  C      0.100160   -0.673551   -1.915815
  H      1.822311   -0.040361   -3.072834
  H      1.813180    0.557019   -1.433266
  H     -0.063284   -1.679120   -2.301112
  H     -0.168820   -0.691680   -0.853831
  H     -1.001048    1.181040   -2.104071
  H     -1.844645   -0.246592   -2.663281
  H      1.472592   -3.051527   -2.694366
  H      3.083201   -3.490638   -2.141472

 Total Charge           Charge          ....    0
 Multiplicity           Mult            ....    1
 Number of Electrons    NEL             ....   94
 Basis Dimension        Dim             ....  374

ORBITAL ENERGIES
----------------

  NO   OCC          E(Eh)            E(eV)
   0   2.0000     -24.587141      -669.0501
   1   2.0000     -19.001480      -517.0566
   2   2.0000     -14.215803      -386.8317
   3   2.0000     -10.324143      -280.9342
   4   2.0000     -10.162493      -276.5355
   5   2.0000     -10.140540      -275.9381
   6   2.0000     -10.135361      -275.7972
   7   2.0000     -10.125164      -275.5197
   8   2.0000     -10.124707      -275.5073
   9   2.0000     -10.121797      -275.4281
  10   2.0000     -10.115997      -275.2703
  11   2.0000     -10.028550      -272.8907
  12   2.0000      -1.477080       -40.1934
  13   2.0000      -1.194098       -32.4930
  14   2.0000      -1.079870       -29.3847
  15   2.0000      -0.999457       -27.1966
  16   2.0000      -0.963206       -26.2102
  17   2.0000      -0.909074       -24.7372
  18   2.0000      -0.885230       -24.0883
  19   2.0000      -0.841512       -22.8987
  20   2.0000      -0.813374       -22.1330
  21   2.0000      -0.773057       -21.0360
  22   2.0000      -0.732224       -19.9248
  23   2.0000      -0.723166       -19.6783
  24   2.0000      -0.705715       -19.2035
  25   2.0000      -0.683780       -18.6066
  26   2.0000      -0.669885       -18.2285
  27   2.0000      -0.654610       -17.8129
  28   2.0000      -0.627952       -17.0874
  29   2.0000      -0.618134       -16.8203
  30   2.0000      -0.598858       -16.2958
  31   2.0000      -0.582953       -15.8630
  32   2.0000      -0.577400       -15.7119
  33   2.0000      -0.543451       -14.7881
  34   2.0000      -0.538589       -14.6558
  35   2.0000      -0.534774       -14.5519
  36   2.0000      -0.513954       -13.9854
  37   2.0000      -0.501909       -13.6576
  38   2.0000      -0.491271       -13.3682
  39   2.0000      -0.488719       -13.2987
  40   2.0000      -0.467220       -12.7137
  41   2.0000      -0.461309       -12.5528
  42   2.0000      -0.444223       -12.0879
  43   2.0000      -0.440850       -11.9961
  44   2.0000      -0.436079       -11.8663
  45   2.0000      -0.399064       -10.8591
  46   2.0000      -0.300870        -8.1871
  47   0.0000       0.059582         1.6213
  48   0.0000       0.083484         2.2717
  49   0.0000       0.096939         2.6378
  50   0.0000       0.102801         2.7974
  51   0.0000       0.110054         2.9947

MULLIKEN ATOMIC CHARGES
-----------------------
   0 C :    0.097856
   1 C :    0.319595
   2 C :    0.022871
   3 H :    0.280795
   4 H :   -0.132124
   5 C :    0.393709
   6 C :   -0.240699
   7 C :    0.850847
   8 N :    0.126250
   9 H :   -0.044682
  10 H :   -0.131635
  11 H :   -0.400225
  12 H :   -0.322960
  13 O :   -0.596477
  14 F :   -0.328835
  15 C :    0.141011
  16 C :    0.027413
  17 H :   -0.001299
  18 H :   -0.011145
  19 C :   -0.128983
  20 H :   -0.042865
  21 H :   -0.093618
  22 H :    0.035426
  23 H :   -0.091387
  24 H :   -0.013517
  25 H :    0.143904
  26 H :    0.204174
  27 H :   -0.063402
Sum of atomic charges:    0.0000000

LOEWDIN ATOMIC CHARGES
----------------------
   0 C :    0.004755
   1 C :   -0.029630
   2 C :    0.028854
   3 H :    0.040541
   4 H :    0.052048
   5 C :    0.006955
   6 C :   -0.250681
   7 C :    0.152408
   8 N :    0.156726
   9 H :    0.000631
  10 H :    0.010930
  11 H :   -0.161712
  12 H :   -0.057894
  13 O :   -0.128597
  14 F :    0.002844
  15 C :   -0.041560
  16 C :   -0.037020
  17 H :    0.034371
  18 H :    0.021458
  19 C :   -0.046266
  20 H :    0.017017
  21 H :    0.036417
  22 H :    0.004249
  23 H :    0.039676
  24 H :    0.037273
  25 H :    0.040147
  26 H :    0.027202
  27 H :    0.038859

  Mayer bond orders larger than 0.100000
B(  0-C ,  6-C ) :   1.2493 B(  0-C ,  7-C ) :   0.1277 B(  0-C ,  8-N ) :   0.1132
B(  0-C , 15-C ) :   1.1483 B(  0-C , 17-H ) :   0.1544 B(  0-C , 18-H ) :   0.1882
B(  0-C , 26-H ) :   0.7672 B(  0-C , 27-H ) :   0.8824 B(  1-C ,  2-C ) :   1.2256
B(  1-C ,  4-H ) :   0.1170 B(  1-C , 19-C ) :   1.3230 B(  1-C , 24-H ) :   0.8200
B(  1-C , 25-H ) :   0.7116 B(  2-C ,  3-H ) :   0.7957 B(  2-C ,  4-H ) :   0.7995
B(  2-C ,  5-C ) :   1.2528 B(  2-C , 24-H ) :   0.1171 B(  3-H ,  5-C ) :   0.1309
B(  4-H ,  5-C ) :   0.2486 B(  5-C , 13-O ) :   1.7627 B(  5-C , 14-F ) :   0.7657
B(  6-C ,  7-C ) :   2.1076 B(  6-C ,  8-N ) :   1.0736 B(  6-C , 11-H ) :   0.2034
B(  6-C , 12-H ) :   0.4100 B(  6-C , 15-C ) :   0.1119 B(  6-C , 26-H ) :   0.1169
B(  6-C , 27-H ) :   0.1986 B(  7-C ,  8-N ) :   0.3724 B(  7-C , 11-H ) :   0.5103
B(  7-C , 12-H ) :   0.2744 B(  7-C , 26-H ) :  -0.1320 B(  8-N ,  9-H ) :   1.1253
B(  8-N , 10-H ) :   1.1873 B(  9-H , 10-H ) :  -0.1568 B( 11-H , 12-H ) :   0.2329
B( 11-H , 13-O ) :   0.1614 B( 15-C , 16-C ) :   1.2299 B( 15-C , 17-H ) :   0.8895
B( 15-C , 18-H ) :   0.7467 B( 15-C , 20-H ) :   0.1464 B( 15-C , 26-H ) :   0.1525
B( 16-C , 18-H ) :   0.1918 B( 16-C , 19-C ) :   1.1955 B( 16-C , 20-H ) :   0.8829
B( 16-C , 21-H ) :   0.9152 B( 16-C , 23-H ) :   0.2024 B( 19-C , 21-H ) :   0.1101
B( 19-C , 22-H ) :   0.9033 B( 19-C , 23-H ) :   0.8650 B( 19-C , 24-H ) :   0.1709
B( 19-C , 25-H ) :   0.1911 B( 22-H , 26-H ) :   0.1088

FINAL SINGLE POINT ENERGY      -580.160855384344

DIPOLE MOMENT
-------------
                                X             Y             Z
Electronic contribution:     -1.77300       0.96560     -12.07662
Nuclear contribution   :      1.88979       0.56282      12.66056
                        -----------------------------------------
Total Dipole Moment    :      0.11678       1.52842       0.58394
                        -----------------------------------------
Magnitude (a.u.)       :      1.64033
Magnitude (Debye)      :      4.16939

Rotational constants in cm-1:     0.040271     0.025954     0.018866
Rotational constants in MHz :  1207.302496   778.083475   565.600538

                             ****ORCA TERMINATED NORMALLY****
TOTAL RUN TIME: 0 days 0 hours 2 minutes 29 seconds 17 msec
