                         Program Version 5.0.0 -  RELEASE  -
|  1> !LC-PBE RIJCOSX def2-SVPD def2/J TightSCF xyzfile
|  2>
|  3> *xyzfile 0 1 D4.xyz
|  4>
|  5> %MaxCore 64000
|  6>
|  7> %pal nprocs 4
|  8> end
|  9>
| 10> %scf
| 11>   MaxIter 150
| 12> end
| 13>
| 14>
| 15>                          ****END OF INPUT****

CARTESIAN COORDINATES (ANGSTROEM)
---------------------------------
  C      2.486452   -2.677121   -2.563447
  C     -0.870963    0.248043   -2.662804
  C     -0.477492    0.608191   -4.101052
  H      0.206773    1.458299   -4.118748
  H     -1.368442    0.929419   -4.647855
  C      0.184673   -0.506640   -4.916760
  C      3.037640   -2.366715   -3.923509
  N      2.280360   -2.454408   -4.967692
  C      4.321736   -2.017932   -4.016641
  H      4.879940   -1.911668   -3.173823
  H      4.710148   -1.670882   -4.883561
  H      1.270423   -2.412650   -4.866143
  H      2.581829   -2.055282   -5.846878
  O     -0.158685   -1.701088   -4.657981
  F      1.055938   -0.174410   -5.740373
  C      2.497991   -1.469464   -1.610303
  C      1.582841   -0.321986   -2.042619
  H      2.193083   -1.833912   -0.625420
  H      3.523356   -1.103982   -1.490392
  C      0.100160   -0.673551   -1.915815
  H      1.822311   -0.040361   -3.072834
  H      1.813180    0.557019   -1.433266
  H     -0.063284   -1.679120   -2.301112
  H     -0.168820   -0.691680   -0.853831
  H     -1.001048    1.181040   -2.104071
  H     -1.844645   -0.246592   -2.663281
  H      1.472592   -3.051527   -2.694366
  H      3.083201   -3.490638   -2.141472

 Total Charge           Charge          ....    0
 Multiplicity           Mult            ....    1
 Number of Electrons    NEL             ....   94
 Basis Dimension        Dim             ....  374

ORBITAL ENERGIES
----------------

  NO   OCC          E(Eh)            E(eV)
   0   2.0000     -24.609285      -669.6527
   1   2.0000     -19.028349      -517.7877
   2   2.0000     -14.196652      -386.3105
   3   2.0000     -10.347766      -281.5770
   4   2.0000     -10.175454      -276.8882
   5   2.0000     -10.148960      -276.1672
   6   2.0000     -10.139760      -275.9169
   7   2.0000     -10.127543      -275.5845
   8   2.0000     -10.127436      -275.5815
   9   2.0000     -10.122219      -275.4396
  10   2.0000     -10.116330      -275.2793
  11   2.0000     -10.042170      -273.2613
  12   2.0000      -1.499176       -40.7947
  13   2.0000      -1.220230       -33.2041
  14   2.0000      -1.085355       -29.5340
  15   2.0000      -1.008769       -27.4500
  16   2.0000      -0.966208       -26.2918
  17   2.0000      -0.921092       -25.0642
  18   2.0000      -0.874527       -23.7971
  19   2.0000      -0.846580       -23.0366
  20   2.0000      -0.826167       -22.4812
  21   2.0000      -0.782841       -21.3022
  22   2.0000      -0.744728       -20.2651
  23   2.0000      -0.737928       -20.0800
  24   2.0000      -0.712569       -19.3900
  25   2.0000      -0.702725       -19.1221
  26   2.0000      -0.677233       -18.4284
  27   2.0000      -0.646510       -17.5924
  28   2.0000      -0.632337       -17.2068
  29   2.0000      -0.625187       -17.0122
  30   2.0000      -0.617815       -16.8116
  31   2.0000      -0.590749       -16.0751
  32   2.0000      -0.568307       -15.4644
  33   2.0000      -0.554076       -15.0772
  34   2.0000      -0.546542       -14.8722
  35   2.0000      -0.533917       -14.5286
  36   2.0000      -0.517646       -14.0859
  37   2.0000      -0.510428       -13.8894
  38   2.0000      -0.495918       -13.4946
  39   2.0000      -0.491801       -13.3826
  40   2.0000      -0.471858       -12.8399
  41   2.0000      -0.468089       -12.7373
  42   2.0000      -0.455201       -12.3866
  43   2.0000      -0.449294       -12.2259
  44   2.0000      -0.443185       -12.0597
  45   2.0000      -0.428196       -11.6518
  46   2.0000      -0.288870        -7.8606
  47   0.0000       0.039069         1.0631
  48   0.0000       0.075484         2.0540
  49   0.0000       0.096685         2.6309
  50   0.0000       0.103864         2.8263
  51   0.0000       0.105333         2.8663

MULLIKEN ATOMIC CHARGES
-----------------------
   0 C :    0.369711
   1 C :    0.314444
   2 C :   -0.026139
   3 H :    0.316701
   4 H :   -0.114486
   5 C :    0.496190
   6 C :   -0.156720
   7 N :    0.249303
   8 C :    0.221028
   9 H :   -0.090446
  10 H :   -0.310990
  11 H :   -0.308040
  12 H :    0.026853
  13 O :   -0.582031
  14 F :   -0.305811
  15 C :    0.068108
  16 C :   -0.005387
  17 H :    0.010946
  18 H :    0.012420
  19 C :   -0.103872
  20 H :   -0.057401
  21 H :   -0.124489
  22 H :    0.056602
  23 H :   -0.104864
  24 H :   -0.009865
  25 H :    0.141073
  26 H :   -0.022809
  27 H :    0.039970
Sum of atomic charges:    0.0000000

LOEWDIN ATOMIC CHARGES
----------------------
   0 C :    0.004966
   1 C :   -0.028349
   2 C :    0.031689
   3 H :    0.044138
   4 H :    0.054609
   5 C :    0.011096
   6 C :   -0.251336
   7 N :    0.177172
   8 C :    0.142344
   9 H :   -0.077637
  10 H :   -0.081116
  11 H :   -0.113980
  12 H :    0.021140
  13 O :   -0.119066
  14 F :    0.005070
  15 C :   -0.036003
  16 C :   -0.036687
  17 H :    0.034856
  18 H :    0.028066
  19 C :   -0.047863
  20 H :    0.015727
  21 H :    0.037989
  22 H :    0.001707
  23 H :    0.040999
  24 H :    0.039322
  25 H :    0.040594
  26 H :    0.016754
  27 H :    0.043798

  Mayer bond orders larger than 0.100000
B(  0-C ,  6-C ) :   1.0323 B(  0-C ,  7-N ) :   0.1171 B(  0-C , 15-C ) :   1.1872
B(  0-C , 17-H ) :   0.1247 B(  0-C , 18-H ) :   0.1487 B(  0-C , 26-H ) :   0.6877
B(  0-C , 27-H ) :   0.7980 B(  1-C ,  2-C ) :   1.2313 B(  1-C ,  4-H ) :   0.1259
B(  1-C , 19-C ) :   1.3129 B(  1-C , 24-H ) :   0.8212 B(  1-C , 25-H ) :   0.7172
B(  2-C ,  3-H ) :   0.7714 B(  2-C ,  4-H ) :   0.8173 B(  2-C ,  5-C ) :   1.2737
B(  2-C , 24-H ) :   0.1196 B(  3-H ,  5-C ) :   0.1325 B(  4-H ,  5-C ) :   0.2336
B(  5-C , 13-O ) :   1.7012 B(  5-C , 14-F ) :   0.7681 B(  6-C ,  7-N ) :   1.0844
B(  6-C ,  8-C ) :   1.8944 B(  6-C ,  9-H ) :   0.1409 B(  6-C , 10-H ) :   0.1824
B(  6-C , 26-H ) :   0.2007 B(  6-C , 27-H ) :   0.1217 B(  7-N ,  8-C ) :   0.2547
B(  7-N , 11-H ) :   0.9198 B(  7-N , 12-H ) :   0.9728 B(  8-C ,  9-H ) :   0.8414
B(  8-C , 10-H ) :   0.7509 B( 11-H , 12-H ) :  -0.1323 B( 11-H , 13-O ) :   0.1743
B( 15-C , 16-C ) :   1.2531 B( 15-C , 17-H ) :   0.8864 B( 15-C , 18-H ) :   0.7799
B( 15-C , 20-H ) :   0.1568 B( 15-C , 26-H ) :   0.1812 B( 15-C , 27-H ) :   0.1107
B( 16-C , 17-H ) :   0.1244 B( 16-C , 18-H ) :   0.1899 B( 16-C , 19-C ) :   1.1842
B( 16-C , 20-H ) :   0.8705 B( 16-C , 21-H ) :   0.9629 B( 16-C , 23-H ) :   0.2026
B( 19-C , 21-H ) :   0.1073 B( 19-C , 22-H ) :   0.9075 B( 19-C , 23-H ) :   0.8777
B( 19-C , 24-H ) :   0.1670 B( 19-C , 25-H ) :   0.1904 B( 22-H , 26-H ) :   0.1029

FINAL SINGLE POINT ENERGY      -580.179357537657

DIPOLE MOMENT
-------------
                                X             Y             Z
Electronic contribution:     -3.44903       0.85641     -12.70887
Nuclear contribution   :      2.21030       0.63135      12.80988
                        -----------------------------------------
Total Dipole Moment    :     -1.23873       1.48776       0.10101
                        -----------------------------------------
Magnitude (a.u.)       :      1.93858
Magnitude (Debye)      :      4.92747

Rotational constants in cm-1:     0.039980     0.026547     0.019089
Rotational constants in MHz :  1198.568620   795.867393   572.288555

                             ****ORCA TERMINATED NORMALLY****
TOTAL RUN TIME: 0 days 0 hours 2 minutes 43 seconds 31 msec
