                         Program Version 5.0.0 -  RELEASE  -
|  1> !TPSS D3BJ RIJCOSX def2-SVPD def2/J TightSCF
|  2> *xyz -1 1
|  3> C          4.08422        1.74208       -2.11472
|  4> C          4.26524        2.50052       -0.79589
|  5> H          4.86853        3.39267       -0.98113
|  6> H          3.30764        2.82457       -0.38781
|  7> C          4.98224        1.65026        0.24742
|  8> O          4.36806        1.38927        1.31371
|  9> O          6.12892        1.23351       -0.04562
| 10> H          3.57911        2.36849       -2.81997
| 11> H          3.50424        0.85965       -1.94198
| 12> H          5.04288        1.46841       -2.50327
| 13> *
| 14> %MaxCore 64000
| 15> %pal nprocs 8
| 16> end
| 17> %scf
| 18>   MaxIter 150
| 19> end
| 20>
| 21>
| 22>                          ****END OF INPUT****

CARTESIAN COORDINATES (ANGSTROEM)
---------------------------------
  C      4.084220    1.742080   -2.114720
  C      4.265240    2.500520   -0.795890
  H      4.868530    3.392670   -0.981130
  H      3.307640    2.824570   -0.387810
  C      4.982240    1.650260    0.247420
  O      4.368060    1.389270    1.313710
  O      6.128920    1.233510   -0.045620
  H      3.579110    2.368490   -2.819970
  H      3.504240    0.859650   -1.941980
  H      5.042880    1.468410   -2.503270

 Total Charge           Charge          ....   -1
 Multiplicity           Mult            ....    1
 Number of Electrons    NEL             ....   40
 Basis Dimension        Dim             ....  146

ORBITAL ENERGIES
----------------

  NO   OCC          E(Eh)            E(eV)
   0   2.0000     -18.637541      -507.1533
   1   2.0000     -18.637259      -507.1456
   2   2.0000      -9.874660      -268.7031
   3   2.0000      -9.840209      -267.7657
   4   2.0000      -9.825625      -267.3688
   5   2.0000      -0.739538       -20.1238
   6   2.0000      -0.649808       -17.6822
   7   2.0000      -0.542475       -14.7615
   8   2.0000      -0.418008       -11.3746
   9   2.0000      -0.272912        -7.4263
  10   2.0000      -0.250572        -6.8184
  11   2.0000      -0.212796        -5.7905
  12   2.0000      -0.187435        -5.1004
  13   2.0000      -0.172802        -4.7022
  14   2.0000      -0.164160        -4.4670
  15   2.0000      -0.134150        -3.6504
  16   2.0000      -0.122596        -3.3360
  17   2.0000      -0.012675        -0.3449
  18   2.0000      -0.000003        -0.0001
  19   2.0000       0.016368         0.4454
  20   0.0000       0.146295         3.9809
  21   0.0000       0.179543         4.8856
  22   0.0000       0.193248         5.2586
  23   0.0000       0.206168         5.6101
  24   0.0000       0.222211         6.0467

MULLIKEN ATOMIC CHARGES
-----------------------
   0 C :    0.463963
   1 C :   -0.326868
   2 H :    0.016779
   3 H :   -0.036361
   4 C :    0.463096
   5 O :   -0.706552
   6 O :   -0.731366
   7 H :   -0.067041
   8 H :   -0.060892
   9 H :   -0.014759
Sum of atomic charges:   -1.0000000

LOEWDIN ATOMIC CHARGES
----------------------
   0 C :    0.108319
   1 C :   -0.035177
   2 H :    0.002124
   3 H :   -0.007535
   4 C :   -0.308259
   5 O :   -0.329797
   6 O :   -0.321146
   7 H :   -0.049299
   8 H :   -0.026984
   9 H :   -0.032245

  Mayer bond orders larger than 0.100000
B(  0-C ,  1-C ) :   1.2788 B(  0-C ,  7-H ) :   0.8660 B(  0-C ,  8-H ) :   0.8754
B(  0-C ,  9-H ) :   0.8468 B(  1-C ,  2-H ) :   0.9037 B(  1-C ,  3-H ) :   0.9881
B(  1-C ,  4-C ) :   1.0619 B(  1-C ,  7-H ) :   0.1529 B(  1-C ,  8-H ) :   0.1629
B(  1-C ,  9-H ) :   0.1856 B(  3-H ,  4-C ) :   0.1725 B(  4-C ,  5-O ) :   1.4211
B(  4-C ,  6-O ) :   1.4561

Dispersion correction           -0.008070933
FINAL SINGLE POINT ENERGY      -267.703359125857

DIPOLE MOMENT
-------------
                                X             Y             Z
Electronic contribution:      2.45651      -1.49229       5.13991
Nuclear contribution   :     -3.31311       2.28398      -6.76358
                        -----------------------------------------
Total Dipole Moment    :     -0.85660       0.79169      -1.62367
                        -----------------------------------------
Magnitude (a.u.)       :      1.99921
Magnitude (Debye)      :      5.08159

Rotational constants in cm-1:     0.309287     0.135287     0.107346
Rotational constants in MHz :  9272.201029  4055.789113  3218.155789

                             ****ORCA TERMINATED NORMALLY****
TOTAL RUN TIME: 0 days 0 hours 0 minutes 10 seconds 40 msec
