                         Program Version 5.0.0 -  RELEASE  -
|  1> !TPSS D3BJ RIJCOSX def2-SVPD def2/J TightSCF
|  2> *xyz 1 1
|  3> C          3.91385       -1.65829        3.01513
|  4> N          5.03927       -0.90115        2.49282
|  5> C          6.21038       -1.41726        2.17824
|  6> N          6.53591       -2.67712        2.55608
|  7> N          7.07675       -0.70082        1.47891
|  8> H          7.95464       -1.12155        1.20755
|  9> H          6.75616        0.10664        0.96028
| 10> H          4.84217        0.01761        2.11519
| 11> H          5.99388       -3.12692        3.28278
| 12> C          3.13916       -2.37657        1.91061
| 13> H          3.26723       -0.93940        3.52069
| 14> H          4.24720       -2.35509        3.79006
| 15> H          7.49844       -2.97548        2.46878
| 16> H          2.82969       -1.66654        1.17238
| 17> H          2.27790       -2.85264        2.33072
| 18> H          3.76754       -3.11338        1.45548
| 19> *
| 20> %MaxCore 64000
| 21> %pal nprocs 8
| 22> end
| 23> %scf
| 24>   MaxIter 150
| 25> end
| 26>
| 27>
| 28>                          ****END OF INPUT****

CARTESIAN COORDINATES (ANGSTROEM)
---------------------------------
  C      3.913850   -1.658290    3.015130
  N      5.039270   -0.901150    2.492820
  C      6.210380   -1.417260    2.178240
  N      6.535910   -2.677120    2.556080
  N      7.076750   -0.700820    1.478910
  H      7.954640   -1.121550    1.207550
  H      6.756160    0.106640    0.960280
  H      4.842170    0.017610    2.115190
  H      5.993880   -3.126920    3.282780
  C      3.139160   -2.376570    1.910610
  H      3.267230   -0.939400    3.520690
  H      4.247200   -2.355090    3.790060
  H      7.498440   -2.975480    2.468780
  H      2.829690   -1.666540    1.172380
  H      2.277900   -2.852640    2.330720
  H      3.767540   -3.113380    1.455480

 Total Charge           Charge          ....    1
 Multiplicity           Mult            ....    1
 Number of Electrons    NEL             ....   48
 Basis Dimension        Dim             ....  200

ORBITAL ENERGIES
----------------

  NO   OCC          E(Eh)            E(eV)
   0   2.0000     -14.341955      -390.2644
   1   2.0000     -14.341913      -390.2633
   2   2.0000     -14.339598      -390.2003
   3   2.0000     -10.324617      -280.9471
   4   2.0000     -10.210870      -277.8519
   5   2.0000     -10.139933      -275.9216
   6   2.0000      -1.140826       -31.0434
   7   2.0000      -1.038217       -28.2513
   8   2.0000      -1.022774       -27.8311
   9   2.0000      -0.870995       -23.7010
  10   2.0000      -0.788402       -21.4535
  11   2.0000      -0.751715       -20.4552
  12   2.0000      -0.739373       -20.1194
  13   2.0000      -0.698006       -18.9937
  14   2.0000      -0.649676       -17.6786
  15   2.0000      -0.645201       -17.5568
  16   2.0000      -0.612517       -16.6674
  17   2.0000      -0.586913       -15.9707
  18   2.0000      -0.563578       -15.3357
  19   2.0000      -0.523096       -14.2342
  20   2.0000      -0.496672       -13.5151
  21   2.0000      -0.479229       -13.0405
  22   2.0000      -0.439867       -11.9694
  23   2.0000      -0.415782       -11.3140
  24   0.0000      -0.197814        -5.3828
  25   0.0000      -0.168006        -4.5717
  26   0.0000      -0.136715        -3.7202
  27   0.0000      -0.127902        -3.4804
  28   0.0000      -0.107358        -2.9214

MULLIKEN ATOMIC CHARGES
-----------------------
   0 C :    0.277088
   1 N :   -0.381190
   2 C :    1.429205
   3 N :   -0.017599
   4 N :   -0.097449
   5 H :   -0.006229
   6 H :   -0.042368
   7 H :   -0.237757
   8 H :   -0.028748
   9 C :    0.605395
  10 H :   -0.271552
  11 H :   -0.052456
  12 H :   -0.152519
  13 H :   -0.018877
  14 H :    0.038310
  15 H :   -0.043253
Sum of atomic charges:    1.0000000

LOEWDIN ATOMIC CHARGES
----------------------
   0 C :    0.051037
   1 N :    0.042618
   2 C :   -0.037413
   3 N :    0.284191
   4 N :    0.264573
   5 H :    0.038820
   6 H :    0.040537
   7 H :    0.062048
   8 H :    0.013336
   9 C :    0.173579
  10 H :    0.038811
  11 H :    0.021581
  12 H :    0.033828
  13 H :   -0.009043
  14 H :   -0.000049
  15 H :   -0.018456

  Mayer bond orders larger than 0.100000
B(  0-C ,  1-N ) :   0.9439 B(  0-C ,  2-C ) :  -0.1047 B(  0-C ,  7-H ) :  -0.1597
B(  0-C ,  9-C ) :   1.2555 B(  0-C , 10-H ) :   0.8991 B(  0-C , 11-H ) :   0.8963
B(  0-C , 13-H ) :   0.2165 B(  0-C , 14-H ) :   0.1552 B(  0-C , 15-H ) :   0.1814
B(  1-N ,  2-C ) :   1.0091 B(  1-N ,  3-N ) :   0.2147 B(  1-N ,  4-N ) :   0.2791
B(  1-N ,  7-H ) :   1.3117 B(  1-N , 10-H ) :   0.1884 B(  1-N , 11-H ) :   0.1216
B(  2-C ,  3-N ) :   0.8946 B(  2-C ,  4-N ) :   0.7844 B(  2-C ,  6-H ) :  -0.1685
B(  2-C ,  7-H ) :  -0.2599 B(  2-C ,  8-H ) :  -0.1090 B(  2-C , 12-H ) :  -0.1532
B(  3-N ,  4-N ) :   0.1640 B(  3-N ,  8-H ) :   1.0595 B(  3-N , 12-H ) :   1.2640
B(  4-N ,  5-H ) :   1.1373 B(  4-N ,  6-H ) :   1.1929 B(  5-H ,  6-H ) :  -0.1572
B(  8-H , 12-H ) :  -0.1879 B(  9-C , 13-H ) :   0.8161 B(  9-C , 14-H ) :   0.8074
B(  9-C , 15-H ) :   0.8559

Dispersion correction           -0.015272354
FINAL SINGLE POINT ENERGY      -284.268092833399

DIPOLE MOMENT
-------------
                                X             Y             Z
Electronic contribution:      4.68616       1.90392       0.07854
Nuclear contribution   :     -3.67981      -1.62355      -0.28562
                        -----------------------------------------
Total Dipole Moment    :      1.00635       0.28038      -0.20707
                        -----------------------------------------
Magnitude (a.u.)       :      1.06500
Magnitude (Debye)      :      2.70702

Rotational constants in cm-1:     0.222027     0.074735     0.065694
Rotational constants in MHz :  6656.200457  2240.503315  1969.451902

                             ****ORCA TERMINATED NORMALLY****
TOTAL RUN TIME: 0 days 0 hours 0 minutes 13 seconds 900 msec
