                         Program Version 5.0.0 -  RELEASE  -
|  1> !TPSS D3BJ RIJCOSX def2-SVPD def2/J TightSCF
|  2> *xyz 0 1
|  3> C          4.08422        1.74208       -2.11472
|  4> C          4.26524        2.50052       -0.79589
|  5> H          4.86853        3.39267       -0.98113
|  6> H          3.30764        2.82457       -0.38781
|  7> C          4.98224        1.65026        0.24742
|  8> F          4.36806        1.38927        1.31371
|  9> O          6.12892        1.23351       -0.04562
| 10> H          3.57911        2.36849       -2.81997
| 11> H          3.50424        0.85965       -1.94198
| 12> H          5.04288        1.46841       -2.50327
| 13> *
| 14> %MaxCore 64000
| 15> %pal nprocs 8
| 16> end
| 17> %scf
| 18>   MaxIter 150
| 19> end
| 20>
| 21>
| 22>                          ****END OF INPUT****

CARTESIAN COORDINATES (ANGSTROEM)
---------------------------------
  C      4.084220    1.742080   -2.114720
  C      4.265240    2.500520   -0.795890
  H      4.868530    3.392670   -0.981130
  H      3.307640    2.824570   -0.387810
  C      4.982240    1.650260    0.247420
  F      4.368060    1.389270    1.313710
  O      6.128920    1.233510   -0.045620
  H      3.579110    2.368490   -2.819970
  H      3.504240    0.859650   -1.941980
  H      5.042880    1.468410   -2.503270

 Total Charge           Charge          ....    0
 Multiplicity           Mult            ....    1
 Number of Electrons    NEL             ....   40
 Basis Dimension        Dim             ....  146

ORBITAL ENERGIES
----------------

  NO   OCC          E(Eh)            E(eV)
   0   2.0000     -24.496232      -666.5764
   1   2.0000     -18.906613      -514.4751
   2   2.0000     -10.170513      -276.7537
   3   2.0000     -10.034105      -273.0419
   4   2.0000     -10.010009      -272.3862
   5   2.0000      -1.224093       -33.3093
   6   2.0000      -0.955614       -26.0036
   7   2.0000      -0.738771       -20.1030
   8   2.0000      -0.630761       -17.1639
   9   2.0000      -0.582972       -15.8635
  10   2.0000      -0.496341       -13.5061
  11   2.0000      -0.481694       -13.1076
  12   2.0000      -0.457136       -12.4393
  13   2.0000      -0.424288       -11.5455
  14   2.0000      -0.391413       -10.6509
  15   2.0000      -0.361222        -9.8293
  16   2.0000      -0.342089        -9.3087
  17   2.0000      -0.337216        -9.1761
  18   2.0000      -0.311997        -8.4899
  19   2.0000      -0.250784        -6.8242
  20   0.0000      -0.065905        -1.7934
  21   0.0000       0.004108         0.1118
  22   0.0000       0.034922         0.9503
  23   0.0000       0.046296         1.2598
  24   0.0000       0.061389         1.6705

MULLIKEN ATOMIC CHARGES
-----------------------
   0 C :    0.494435
   1 C :   -0.376004
   2 H :    0.077701
   3 H :   -0.004752
   4 C :    0.784929
   5 F :   -0.374196
   6 O :   -0.531659
   7 H :   -0.028083
   8 H :   -0.040520
   9 H :   -0.001851
Sum of atomic charges:    0.0000000

LOEWDIN ATOMIC CHARGES
----------------------
   0 C :    0.151904
   1 C :    0.010799
   2 H :    0.036133
   3 H :    0.016828
   4 C :   -0.014963
   5 F :   -0.030746
   6 O :   -0.129655
   7 H :   -0.016087
   8 H :   -0.012400
   9 H :   -0.011813

  Mayer bond orders larger than 0.100000
B(  0-C ,  1-C ) :   1.3162 B(  0-C ,  7-H ) :   0.8610 B(  0-C ,  8-H ) :   0.8687
B(  0-C ,  9-H ) :   0.8449 B(  1-C ,  2-H ) :   0.8843 B(  1-C ,  3-H ) :   0.9739
B(  1-C ,  4-C ) :   1.0882 B(  1-C ,  7-H ) :   0.1401 B(  1-C ,  8-H ) :   0.1486
B(  1-C ,  9-H ) :   0.1652 B(  4-C ,  5-F ) :   0.7210 B(  4-C ,  6-O ) :   1.7487

Dispersion correction           -0.007654442
FINAL SINGLE POINT ENERGY      -292.239550123706

DIPOLE MOMENT
-------------
                                X             Y             Z
Electronic contribution:      1.93945      -2.05641       8.13976
Nuclear contribution   :     -2.87511       2.61564      -8.50037
                        -----------------------------------------
Total Dipole Moment    :     -0.93566       0.55923      -0.36061
                        -----------------------------------------
Magnitude (a.u.)       :      1.14814
Magnitude (Debye)      :      2.91835

Rotational constants in cm-1:     0.297822     0.128965     0.102219
Rotational constants in MHz :  8928.481997  3866.271686  3064.463504

                             ****ORCA TERMINATED NORMALLY****
TOTAL RUN TIME: 0 days 0 hours 0 minutes 9 seconds 807 msec
