                         Program Version 5.0.0 -  RELEASE  -
|  1> !TPSS D3BJ RIJCOSX def2-SVPD def2/J TightSCF
|  2> *xyz 0 1
|  3> C          3.91385       -1.65829        3.01513
|  4> C          5.03927       -0.90115        2.49282
|  5> C          6.21038       -1.41726        2.17824
|  6> N          6.53591       -2.67712        2.55608
|  7> N          7.07675       -0.70082        1.47891
|  8> H          7.95464       -1.12155        1.20755
|  9> H          6.75616        0.10664        0.96028
| 10> H          4.84217        0.01761        2.11519
| 11> H          5.99388       -3.12692        3.28278
| 12> C          3.13916       -2.37657        1.91061
| 13> H          3.26723       -0.93940        3.52069
| 14> H          4.24720       -2.35509        3.79006
| 15> H          7.49844       -2.97548        2.46878
| 16> H          2.82969       -1.66654        1.17238
| 17> H          2.27790       -2.85264        2.33072
| 18> H          3.76754       -3.11338        1.45548
| 19> *
| 20> %MaxCore 64000
| 21> %pal nprocs 8
| 22> end
| 23> %scf
| 24>   MaxIter 150
| 25> end
| 26>
| 27>
| 28>                          ****END OF INPUT****

CARTESIAN COORDINATES (ANGSTROEM)
---------------------------------
  C      3.913850   -1.658290    3.015130
  C      5.039270   -0.901150    2.492820
  C      6.210380   -1.417260    2.178240
  N      6.535910   -2.677120    2.556080
  N      7.076750   -0.700820    1.478910
  H      7.954640   -1.121550    1.207550
  H      6.756160    0.106640    0.960280
  H      4.842170    0.017610    2.115190
  H      5.993880   -3.126920    3.282780
  C      3.139160   -2.376570    1.910610
  H      3.267230   -0.939400    3.520690
  H      4.247200   -2.355090    3.790060
  H      7.498440   -2.975480    2.468780
  H      2.829690   -1.666540    1.172380
  H      2.277900   -2.852640    2.330720
  H      3.767540   -3.113380    1.455480

 Total Charge           Charge          ....    0
 Multiplicity           Mult            ....    1
 Number of Electrons    NEL             ....   48
 Basis Dimension        Dim             ....  200

ORBITAL ENERGIES
----------------

  NO   OCC          E(Eh)            E(eV)
   0   2.0000     -14.119554      -384.2126
   1   2.0000     -14.118084      -384.1726
   2   2.0000     -10.034952      -273.0649
   3   2.0000      -9.976761      -271.4815
   4   2.0000      -9.966790      -271.2101
   5   2.0000      -9.921248      -269.9709
   6   2.0000      -0.886148       -24.1133
   7   2.0000      -0.801905       -21.8209
   8   2.0000      -0.709262       -19.3000
   9   2.0000      -0.633411       -17.2360
  10   2.0000      -0.562708       -15.3121
  11   2.0000      -0.527381       -14.3508
  12   2.0000      -0.494202       -13.4479
  13   2.0000      -0.464508       -12.6399
  14   2.0000      -0.431526       -11.7424
  15   2.0000      -0.396911       -10.8005
  16   2.0000      -0.376287       -10.2393
  17   2.0000      -0.346948        -9.4409
  18   2.0000      -0.341022        -9.2797
  19   2.0000      -0.314958        -8.5704
  20   2.0000      -0.291245        -7.9252
  21   2.0000      -0.285128        -7.7587
  22   2.0000      -0.226289        -6.1576
  23   2.0000      -0.131083        -3.5670
  24   0.0000       0.001304         0.0355
  25   0.0000       0.029298         0.7972
  26   0.0000       0.033003         0.8981
  27   0.0000       0.047636         1.2962
  28   0.0000       0.061837         1.6827

MULLIKEN ATOMIC CHARGES
-----------------------
   0 C :   -0.183987
   1 C :   -0.478953
   2 C :    0.991648
   3 N :   -0.072877
   4 N :   -0.057360
   5 H :   -0.131291
   6 H :   -0.042524
   7 H :   -0.132577
   8 H :   -0.017497
   9 C :    0.599142
  10 H :   -0.073054
  11 H :   -0.066061
  12 H :   -0.266751
  13 H :   -0.022615
  14 H :    0.002540
  15 H :   -0.047781
Sum of atomic charges:    0.0000000

LOEWDIN ATOMIC CHARGES
----------------------
   0 C :   -0.092877
   1 C :   -0.037673
   2 C :   -0.220429
   3 N :    0.204062
   4 N :    0.178382
   5 H :   -0.011678
   6 H :    0.007049
   7 H :   -0.047486
   8 H :   -0.016819
   9 C :    0.130294
  10 H :    0.009464
  11 H :   -0.003330
  12 H :   -0.016467
  13 H :   -0.022334
  14 H :   -0.031653
  15 H :   -0.028506

  Mayer bond orders larger than 0.100000
B(  0-C ,  1-C ) :   1.2955 B(  0-C ,  7-H ) :   0.3075 B(  0-C ,  9-C ) :   1.2179
B(  0-C , 10-H ) :   0.8214 B(  0-C , 11-H ) :   0.8873 B(  0-C , 13-H ) :   0.2218
B(  0-C , 14-H ) :   0.1663 B(  0-C , 15-H ) :   0.1938 B(  1-C ,  2-C ) :   1.6394
B(  1-C ,  3-N ) :   0.2192 B(  1-C ,  4-N ) :   0.3670 B(  1-C ,  7-H ) :   0.8603
B(  1-C , 10-H ) :   0.2657 B(  1-C , 11-H ) :   0.2103 B(  2-C ,  3-N ) :   0.8441
B(  2-C ,  4-N ) :   0.7341 B(  2-C ,  6-H ) :  -0.1149 B(  2-C ,  7-H ) :   0.2008
B(  2-C , 12-H ) :  -0.1799 B(  3-N ,  4-N ) :   0.1247 B(  3-N ,  8-H ) :   1.0127
B(  3-N , 12-H ) :   1.3380 B(  4-N ,  5-H ) :   1.1539 B(  4-N ,  6-H ) :   1.1641
B(  5-H ,  6-H ) :  -0.1485 B(  8-H , 12-H ) :  -0.1793 B(  9-C , 13-H ) :   0.8390
B(  9-C , 14-H ) :   0.8114 B(  9-C , 15-H ) :   0.8536

Dispersion correction           -0.015890231
FINAL SINGLE POINT ENERGY      -267.792945040856

DIPOLE MOMENT
-------------
                                X             Y             Z
Electronic contribution:      4.61903       1.24563      -0.03872
Nuclear contribution   :     -3.74303      -1.46908      -0.23637
                        -----------------------------------------
Total Dipole Moment    :      0.87600      -0.22345      -0.27509
                        -----------------------------------------
Magnitude (a.u.)       :      0.94497
Magnitude (Debye)      :      2.40193

Rotational constants in cm-1:     0.225937     0.074877     0.065953
Rotational constants in MHz :  6773.424301  2244.750632  1977.214101

                             ****ORCA TERMINATED NORMALLY****
TOTAL RUN TIME: 0 days 0 hours 0 minutes 14 seconds 734 msec
