                         Program Version 5.0.0 -  RELEASE  -
|  1> !TPSS D3BJ RIJCOSX def2-SVPD def2/J TightSCF
|  2> *xyz 0 1
|  3> C          4.08422        1.74208       -2.11472
|  4> C          4.26524        2.50052       -0.79589
|  5> H          4.86853        3.39267       -0.98113
|  6> H          3.30764        2.82457       -0.38781
|  7> C          4.98224        1.65026        0.24742
|  8> O          4.36806        1.38927        1.31371
|  9> F          6.12892        1.23351       -0.04562
| 10> H          3.57911        2.36849       -2.81997
| 11> H          3.50424        0.85965       -1.94198
| 12> H          5.04288        1.46841       -2.50327
| 13> *
| 14> %MaxCore 64000
| 15> %pal nprocs 8
| 16> end
| 17> %scf
| 18>   MaxIter 150
| 19> end
| 20>
| 21>
| 22>                          ****END OF INPUT****

CARTESIAN COORDINATES (ANGSTROEM)
---------------------------------
  C      4.084220    1.742080   -2.114720
  C      4.265240    2.500520   -0.795890
  H      4.868530    3.392670   -0.981130
  H      3.307640    2.824570   -0.387810
  C      4.982240    1.650260    0.247420
  O      4.368060    1.389270    1.313710
  F      6.128920    1.233510   -0.045620
  H      3.579110    2.368490   -2.819970
  H      3.504240    0.859650   -1.941980
  H      5.042880    1.468410   -2.503270

 Total Charge           Charge          ....    0
 Multiplicity           Mult            ....    1
 Number of Electrons    NEL             ....   40
 Basis Dimension        Dim             ....  146

ORBITAL ENERGIES
----------------

  NO   OCC          E(Eh)            E(eV)
   0   2.0000     -24.497441      -666.6093
   1   2.0000     -18.905856      -514.4545
   2   2.0000     -10.170170      -276.7444
   3   2.0000     -10.033886      -273.0359
   4   2.0000     -10.014392      -272.5055
   5   2.0000      -1.226703       -33.3803
   6   2.0000      -0.952594       -25.9214
   7   2.0000      -0.742612       -20.2075
   8   2.0000      -0.628689       -17.1075
   9   2.0000      -0.588018       -16.0008
  10   2.0000      -0.499196       -13.5838
  11   2.0000      -0.486406       -13.2358
  12   2.0000      -0.452341       -12.3088
  13   2.0000      -0.423780       -11.5316
  14   2.0000      -0.393624       -10.7111
  15   2.0000      -0.363639        -9.8951
  16   2.0000      -0.345078        -9.3900
  17   2.0000      -0.340778        -9.2731
  18   2.0000      -0.315193        -8.5768
  19   2.0000      -0.246106        -6.6969
  20   0.0000      -0.063457        -1.7268
  21   0.0000       0.002067         0.0562
  22   0.0000       0.035888         0.9766
  23   0.0000       0.045180         1.2294
  24   0.0000       0.061915         1.6848

MULLIKEN ATOMIC CHARGES
-----------------------
   0 C :    0.484539
   1 C :   -0.353419
   2 H :    0.065910
   3 H :   -0.015928
   4 C :    0.803125
   5 O :   -0.514904
   6 F :   -0.392321
   7 H :   -0.026580
   8 H :   -0.035996
   9 H :   -0.014426
Sum of atomic charges:   -0.0000000

LOEWDIN ATOMIC CHARGES
----------------------
   0 C :    0.146705
   1 C :    0.015281
   2 H :    0.030750
   3 H :    0.029453
   4 C :   -0.019222
   5 O :   -0.132499
   6 F :   -0.026838
   7 H :   -0.015815
   8 H :   -0.010636
   9 H :   -0.017178

  Mayer bond orders larger than 0.100000
B(  0-C ,  1-C ) :   1.2932 B(  0-C ,  7-H ) :   0.8674 B(  0-C ,  8-H ) :   0.8805
B(  0-C ,  9-H ) :   0.8396 B(  1-C ,  2-H ) :   0.8817 B(  1-C ,  3-H ) :   0.9982
B(  1-C ,  4-C ) :   1.0651 B(  1-C ,  7-H ) :   0.1408 B(  1-C ,  8-H ) :   0.1435
B(  1-C ,  9-H ) :   0.1579 B(  3-H ,  4-C ) :   0.1195 B(  4-C ,  5-O ) :   1.7370
B(  4-C ,  6-F ) :   0.7021 B(  5-O ,  6-F ) :   0.1064

Dispersion correction           -0.007609457
FINAL SINGLE POINT ENERGY      -292.238810610844

DIPOLE MOMENT
-------------
                                X             Y             Z
Electronic contribution:      4.84157      -2.30347       5.86948
Nuclear contribution   :     -4.79499       2.78546      -7.01827
                        -----------------------------------------
Total Dipole Moment    :      0.04658       0.48200      -1.14880
                        -----------------------------------------
Magnitude (a.u.)       :      1.24669
Magnitude (Debye)      :      3.16882

Rotational constants in cm-1:     0.286098     0.133492     0.103343
Rotational constants in MHz :  8577.003657  4001.981591  3098.148068

                             ****ORCA TERMINATED NORMALLY****
TOTAL RUN TIME: 0 days 0 hours 0 minutes 9 seconds 677 msec
