                         Program Version 5.0.0 -  RELEASE  -
|  1> !TPSS D3BJ RIJCOSX def2-SVPD def2/J TightSCF
|  2> *xyz 0 1
|  3> C          3.91385       -1.65829        3.01513
|  4> N          5.03927       -0.90115        2.49282
|  5> C          6.21038       -1.41726        2.17824
|  6> C          6.53591       -2.67712        2.55608
|  7> N          7.07675       -0.70082        1.47891
|  8> H          7.95464       -1.12155        1.20755
|  9> H          6.75616        0.10664        0.96028
| 10> H          4.84217        0.01761        2.11519
| 11> H          5.99388       -3.12692        3.28278
| 12> C          3.13916       -2.37657        1.91061
| 13> H          3.26723       -0.93940        3.52069
| 14> H          4.24720       -2.35509        3.79006
| 15> H          7.49844       -2.97548        2.46878
| 16> H          2.82969       -1.66654        1.17238
| 17> H          2.27790       -2.85264        2.33072
| 18> H          3.76754       -3.11338        1.45548
| 19> *
| 20> %MaxCore 64000
| 21> %pal nprocs 8
| 22> end
| 23> %scf
| 24>   MaxIter 150
| 25> end
| 26>
| 27>
| 28>                          ****END OF INPUT****

CARTESIAN COORDINATES (ANGSTROEM)
---------------------------------
  C      3.913850   -1.658290    3.015130
  N      5.039270   -0.901150    2.492820
  C      6.210380   -1.417260    2.178240
  C      6.535910   -2.677120    2.556080
  N      7.076750   -0.700820    1.478910
  H      7.954640   -1.121550    1.207550
  H      6.756160    0.106640    0.960280
  H      4.842170    0.017610    2.115190
  H      5.993880   -3.126920    3.282780
  C      3.139160   -2.376570    1.910610
  H      3.267230   -0.939400    3.520690
  H      4.247200   -2.355090    3.790060
  H      7.498440   -2.975480    2.468780
  H      2.829690   -1.666540    1.172380
  H      2.277900   -2.852640    2.330720
  H      3.767540   -3.113380    1.455480

 Total Charge           Charge          ....    0
 Multiplicity           Mult            ....    1
 Number of Electrons    NEL             ....   48
 Basis Dimension        Dim             ....  200

ORBITAL ENERGIES
----------------

  NO   OCC          E(Eh)            E(eV)
   0   2.0000     -14.121312      -384.2604
   1   2.0000     -14.120521      -384.2389
   2   2.0000     -10.039796      -273.1967
   3   2.0000     -10.034579      -273.0548
   4   2.0000      -9.984564      -271.6938
   5   2.0000      -9.913244      -269.7531
   6   2.0000      -0.898598       -24.4521
   7   2.0000      -0.820109       -22.3163
   8   2.0000      -0.692375       -18.8405
   9   2.0000      -0.644477       -17.5371
  10   2.0000      -0.587381       -15.9834
  11   2.0000      -0.515518       -14.0280
  12   2.0000      -0.504330       -13.7235
  13   2.0000      -0.476131       -12.9562
  14   2.0000      -0.424581       -11.5534
  15   2.0000      -0.399339       -10.8666
  16   2.0000      -0.375279       -10.2119
  17   2.0000      -0.357471        -9.7273
  18   2.0000      -0.341186        -9.2841
  19   2.0000      -0.329133        -8.9562
  20   2.0000      -0.322111        -8.7651
  21   2.0000      -0.310773        -8.4566
  22   2.0000      -0.213595        -5.8122
  23   2.0000      -0.133710        -3.6384
  24   0.0000       0.000713         0.0194
  25   0.0000       0.026069         0.7094
  26   0.0000       0.034604         0.9416
  27   0.0000       0.040916         1.1134
  28   0.0000       0.062356         1.6968

MULLIKEN ATOMIC CHARGES
-----------------------
   0 C :    0.267344
   1 N :   -0.387547
   2 C :    0.798707
   3 C :    0.320158
   4 N :   -0.063255
   5 H :   -0.016474
   6 H :   -0.161397
   7 H :   -0.350018
   8 H :   -0.145059
   9 C :    0.596479
  10 H :   -0.316207
  11 H :    0.046056
  12 H :   -0.460999
  13 H :   -0.058773
  14 H :   -0.002660
  15 H :   -0.066355
Sum of atomic charges:   -0.0000000

LOEWDIN ATOMIC CHARGES
----------------------
   0 C :    0.027060
   1 N :   -0.023002
   2 C :   -0.236773
   3 C :    0.162261
   4 N :    0.183303
   5 H :    0.007777
   6 H :   -0.009725
   7 H :    0.021612
   8 H :   -0.121087
   9 C :    0.147134
  10 H :    0.014376
  11 H :    0.011610
  12 H :   -0.108566
  13 H :   -0.025734
  14 H :   -0.023930
  15 H :   -0.026316

  Mayer bond orders larger than 0.100000
B(  0-C ,  1-N ) :   0.9052 B(  0-C ,  3-C ) :   0.1143 B(  0-C ,  7-H ) :  -0.1594
B(  0-C ,  8-H ) :   0.1006 B(  0-C ,  9-C ) :   1.2066 B(  0-C , 10-H ) :   0.9467
B(  0-C , 11-H ) :   0.8661 B(  0-C , 13-H ) :   0.2089 B(  0-C , 14-H ) :   0.1674
B(  0-C , 15-H ) :   0.1885 B(  1-N ,  2-C ) :   0.9095 B(  1-N ,  3-C ) :   0.3673
B(  1-N ,  4-N ) :   0.1850 B(  1-N ,  7-H ) :   1.3888 B(  1-N , 10-H ) :   0.1650
B(  1-N , 11-H ) :   0.1041 B(  2-C ,  3-C ) :   1.6320 B(  2-C ,  4-N ) :   0.8001
B(  2-C ,  6-H ) :  -0.1055 B(  2-C ,  7-H ) :  -0.2871 B(  2-C ,  8-H ) :   0.2787
B(  2-C , 12-H ) :   0.1741 B(  3-C ,  4-N ) :   0.2505 B(  3-C ,  8-H ) :   0.6752
B(  3-C , 12-H ) :   0.8763 B(  4-N ,  5-H ) :   1.1197 B(  4-N ,  6-H ) :   1.2294
B(  5-H ,  6-H ) :  -0.1501 B(  8-H , 12-H ) :   0.1179 B(  9-C , 13-H ) :   0.8321
B(  9-C , 14-H ) :   0.8266 B(  9-C , 15-H ) :   0.8663

Dispersion correction           -0.015843126
FINAL SINGLE POINT ENERGY      -267.785894337950

DIPOLE MOMENT
-------------
                                X             Y             Z
Electronic contribution:      3.07929       2.79319      -0.19227
Nuclear contribution   :     -3.42552      -1.84584      -0.22295
                        -----------------------------------------
Total Dipole Moment    :     -0.34624       0.94735      -0.41523
                        -----------------------------------------
Magnitude (a.u.)       :      1.09076
Magnitude (Debye)      :      2.77249

Rotational constants in cm-1:     0.233526     0.075277     0.067092
Rotational constants in MHz :  7000.931279  2256.752901  2011.361214

                             ****ORCA TERMINATED NORMALLY****
TOTAL RUN TIME: 0 days 0 hours 0 minutes 14 seconds 712 msec
