                         Program Version 5.0.0 -  RELEASE  -
|  1> !TPSS D3BJ RIJCOSX def2-SVPD def2/J TightSCF
|  2> *xyz 0 1
|  3> C          3.91385       -1.65829        3.01513
|  4> N          5.03927       -0.90115        2.49282
|  5> C          6.21038       -1.41726        2.17824
|  6> N          6.53591       -2.67712        2.55608
|  7> C          7.07675       -0.70082        1.47891
|  8> H          7.95464       -1.12155        1.20755
|  9> H          6.75616        0.10664        0.96028
| 10> H          4.84217        0.01761        2.11519
| 11> H          5.99388       -3.12692        3.28278
| 12> C          3.13916       -2.37657        1.91061
| 13> H          3.26723       -0.93940        3.52069
| 14> H          4.24720       -2.35509        3.79006
| 15> H          7.49844       -2.97548        2.46878
| 16> H          2.82969       -1.66654        1.17238
| 17> H          2.27790       -2.85264        2.33072
| 18> H          3.76754       -3.11338        1.45548
| 19> *
| 20> %MaxCore 64000
| 21> %pal nprocs 8
| 22> end
| 23> %scf
| 24>   MaxIter 150
| 25> end
| 26>
| 27>
| 28>                          ****END OF INPUT****

CARTESIAN COORDINATES (ANGSTROEM)
---------------------------------
  C      3.913850   -1.658290    3.015130
  N      5.039270   -0.901150    2.492820
  C      6.210380   -1.417260    2.178240
  N      6.535910   -2.677120    2.556080
  C      7.076750   -0.700820    1.478910
  H      7.954640   -1.121550    1.207550
  H      6.756160    0.106640    0.960280
  H      4.842170    0.017610    2.115190
  H      5.993880   -3.126920    3.282780
  C      3.139160   -2.376570    1.910610
  H      3.267230   -0.939400    3.520690
  H      4.247200   -2.355090    3.790060
  H      7.498440   -2.975480    2.468780
  H      2.829690   -1.666540    1.172380
  H      2.277900   -2.852640    2.330720
  H      3.767540   -3.113380    1.455480

 Total Charge           Charge          ....    0
 Multiplicity           Mult            ....    1
 Number of Electrons    NEL             ....   48
 Basis Dimension        Dim             ....  200

ORBITAL ENERGIES
----------------

  NO   OCC          E(Eh)            E(eV)
   0   2.0000     -14.118328      -384.1792
   1   2.0000     -14.117699      -384.1621
   2   2.0000     -10.042541      -273.2714
   3   2.0000     -10.036956      -273.1194
   4   2.0000      -9.991903      -271.8935
   5   2.0000      -9.911075      -269.6941
   6   2.0000      -0.893832       -24.3224
   7   2.0000      -0.813232       -22.1292
   8   2.0000      -0.708358       -19.2754
   9   2.0000      -0.641186       -17.4476
  10   2.0000      -0.575594       -15.6627
  11   2.0000      -0.550020       -14.9668
  12   2.0000      -0.489114       -13.3095
  13   2.0000      -0.453426       -12.3384
  14   2.0000      -0.436399       -11.8750
  15   2.0000      -0.400391       -10.8952
  16   2.0000      -0.388097       -10.5606
  17   2.0000      -0.363792        -9.8993
  18   2.0000      -0.342015        -9.3067
  19   2.0000      -0.333317        -9.0700
  20   2.0000      -0.323545        -8.8041
  21   2.0000      -0.317728        -8.6458
  22   2.0000      -0.216308        -5.8860
  23   2.0000      -0.132242        -3.5985
  24   0.0000       0.000613         0.0167
  25   0.0000       0.026705         0.7267
  26   0.0000       0.031874         0.8673
  27   0.0000       0.040025         1.0891
  28   0.0000       0.058052         1.5797

MULLIKEN ATOMIC CHARGES
-----------------------
   0 C :    0.272267
   1 N :   -0.293668
   2 C :    0.803493
   3 N :    0.057139
   4 C :    0.225266
   5 H :   -0.302439
   6 H :   -0.233728
   7 H :   -0.297026
   8 H :   -0.144144
   9 C :    0.589566
  10 H :   -0.313961
  11 H :   -0.088558
  12 H :   -0.165638
  13 H :   -0.048774
  14 H :   -0.016227
  15 H :   -0.043567
Sum of atomic charges:    0.0000000

LOEWDIN ATOMIC CHARGES
----------------------
   0 C :    0.019081
   1 N :   -0.018124
   2 C :   -0.236653
   3 N :    0.203327
   4 C :    0.140994
   5 H :   -0.103455
   6 H :   -0.101254
   7 H :    0.036895
   8 H :   -0.032519
   9 C :    0.143955
  10 H :    0.014502
  11 H :    0.003542
  12 H :    0.002296
  13 H :   -0.021400
  14 H :   -0.025461
  15 H :   -0.025726

  Mayer bond orders larger than 0.100000
B(  0-C ,  1-N ) :   0.9345 B(  0-C ,  7-H ) :  -0.1666 B(  0-C ,  9-C ) :   1.2238
B(  0-C , 10-H ) :   0.9025 B(  0-C , 11-H ) :   0.8997 B(  0-C , 13-H ) :   0.2333
B(  0-C , 14-H ) :   0.1681 B(  0-C , 15-H ) :   0.1863 B(  1-N ,  2-C ) :   1.0330
B(  1-N ,  3-N ) :   0.1537 B(  1-N ,  4-C ) :   0.2663 B(  1-N ,  7-H ) :   1.2574
B(  1-N , 10-H ) :   0.1950 B(  1-N , 11-H ) :   0.1328 B(  2-C ,  3-N ) :   0.8602
B(  2-C ,  4-C ) :   1.3889 B(  2-C ,  5-H ) :   0.1591 B(  2-C ,  7-H ) :  -0.2103
B(  3-N ,  4-C ) :   0.2144 B(  3-N ,  8-H ) :   1.0509 B(  3-N , 12-H ) :   1.2266
B(  4-C ,  5-H ) :   0.8189 B(  4-C ,  6-H ) :   0.9000 B(  5-H ,  6-H ) :   0.1401
B(  8-H , 12-H ) :  -0.1792 B(  9-C , 13-H ) :   0.8135 B(  9-C , 14-H ) :   0.8370
B(  9-C , 15-H ) :   0.8511

Dispersion correction           -0.015749999
FINAL SINGLE POINT ENERGY      -267.785631824007

DIPOLE MOMENT
-------------
                                X             Y             Z
Electronic contribution:      2.54189       0.93474       0.95197
Nuclear contribution   :     -3.31079      -1.42658      -0.45147
                        -----------------------------------------
Total Dipole Moment    :     -0.76890      -0.49184       0.50050
                        -----------------------------------------
Magnitude (a.u.)       :      1.04097
Magnitude (Debye)      :      2.64593

Rotational constants in cm-1:     0.225507     0.077571     0.068070
Rotational constants in MHz :  6760.542142  2325.533779  2040.680522

                             ****ORCA TERMINATED NORMALLY****
TOTAL RUN TIME: 0 days 0 hours 0 minutes 16 seconds 248 msec
