                         Program Version 5.0.0 -  RELEASE  -
|  1> !TPSS D3BJ RIJCOSX def2-SVPD def2/J TightSCF xyzfile
|  2>
|  3> *xyzfile 0 1 D2.xyz
|  4>
|  5> %MaxCore 64000
|  6>
|  7> %pal nprocs 4
|  8> end
|  9>
| 10> %scf
| 11>   MaxIter 150
| 12> end
| 13>
| 14>
| 15>                          ****END OF INPUT****

CARTESIAN COORDINATES (ANGSTROEM)
---------------------------------
  C      3.913853   -1.658291    3.015134
  N      5.039266   -0.901154    2.492821
  C      4.084215    1.742081   -2.114724
  C      4.265245    2.500518   -0.795890
  H      4.868534    3.392674   -0.981134
  H      3.307640    2.824571   -0.387809
  C      4.982240    1.650257    0.247422
  C      6.210384   -1.417261    2.178244
  C      6.535913   -2.677122    2.556078
  N      7.076754   -0.700820    1.478906
  H      7.954643   -1.121554    1.207554
  H      6.756161    0.106637    0.960278
  H      4.842168    0.017609    2.115191
  H      5.993876   -3.126918    3.282784
  H      7.498441   -2.975482    2.468776
  F      4.368065    1.389270    1.313706
  O      6.128919    1.233512   -0.045620
  C      3.139159   -2.376572    1.910609
  H      3.267235   -0.939401    3.520693
  H      4.247195   -2.355095    3.790065
  C      1.997274    0.430918   -1.399218
  C      3.412746    0.376886   -1.965497
  H      4.047407   -0.246590   -1.326706
  H      3.390774   -0.118719   -2.942839
  H      5.068475    1.598504   -2.565728
  H      3.503356    2.363939   -2.804565
  C      2.399946   -1.389579    1.009490
  H      2.440750   -3.087118    2.362976
  H      3.844475   -2.970462    1.318677
  C      2.070177   -1.936705   -0.372401
  H      1.481611   -1.061542    1.509912
  H      3.008628   -0.490001    0.897451
  C      1.322238   -0.935775   -1.256413
  H      1.472747   -2.850902   -0.283997
  H      3.003539   -2.234041   -0.862535
  H      1.376444    1.058920   -2.047420
  H      2.015341    0.929780   -0.426535
  H      0.316648   -0.787213   -0.848278
  H      1.185611   -1.379252   -2.248613

 Total Charge           Charge          ....    0
 Multiplicity           Mult            ....    1
 Number of Electrons    NEL             ....  126
 Basis Dimension        Dim             ....  510

ORBITAL ENERGIES
----------------

  NO   OCC          E(Eh)            E(eV)
   0   2.0000     -24.532739      -667.5698
   1   2.0000     -18.937626      -515.3190
   2   2.0000     -14.100071      -383.6824
   3   2.0000     -14.082196      -383.1960
   4   2.0000     -10.196251      -277.4541
   5   2.0000     -10.046489      -273.3789
   6   2.0000     -10.026206      -272.8269
   7   2.0000     -10.022900      -272.7370
   8   2.0000     -10.021134      -272.6889
   9   2.0000     -10.011736      -272.4332
  10   2.0000     -10.007357      -272.3140
  11   2.0000     -10.001336      -272.1502
  12   2.0000      -9.995912      -272.0026
  13   2.0000      -9.994791      -271.9721
  14   2.0000      -9.986835      -271.7556
  15   2.0000      -9.899262      -269.3726
  16   2.0000      -1.261996       -34.3406
  17   2.0000      -0.990877       -26.9631
  18   2.0000      -0.878711       -23.9109
  19   2.0000      -0.798005       -21.7148
  20   2.0000      -0.774534       -21.0762
  21   2.0000      -0.746164       -20.3042
  22   2.0000      -0.713661       -19.4197
  23   2.0000      -0.681217       -18.5368
  24   2.0000      -0.653514       -17.7830
  25   2.0000      -0.634193       -17.2573
  26   2.0000      -0.620276       -16.8786
  27   2.0000      -0.599159       -16.3039
  28   2.0000      -0.565307       -15.3828
  29   2.0000      -0.546625       -14.8744
  30   2.0000      -0.531361       -14.4591
  31   2.0000      -0.520272       -14.1573
  32   2.0000      -0.516422       -14.0526
  33   2.0000      -0.499952       -13.6044
  34   2.0000      -0.487433       -13.2637
  35   2.0000      -0.467041       -12.7088
  36   2.0000      -0.453339       -12.3360
  37   2.0000      -0.443930       -12.0800
  38   2.0000      -0.443696       -12.0736
  39   2.0000      -0.424957       -11.5637
  40   2.0000      -0.410309       -11.1651
  41   2.0000      -0.406729       -11.0677
  42   2.0000      -0.390797       -10.6341
  43   2.0000      -0.386401       -10.5145
  44   2.0000      -0.379350       -10.3226
  45   2.0000      -0.369250       -10.0478
  46   2.0000      -0.362627        -9.8676
  47   2.0000      -0.355403        -9.6710
  48   2.0000      -0.340489        -9.2652
  49   2.0000      -0.338142        -9.2013
  50   2.0000      -0.332430        -9.0459
  51   2.0000      -0.327024        -8.8988
  52   2.0000      -0.322509        -8.7759
  53   2.0000      -0.316091        -8.6013
  54   2.0000      -0.307628        -8.3710
  55   2.0000      -0.301966        -8.2169
  56   2.0000      -0.296264        -8.0618
  57   2.0000      -0.285156        -7.7595
  58   2.0000      -0.284716        -7.7475
  59   2.0000      -0.278449        -7.5770
  60   2.0000      -0.271430        -7.3860
  61   2.0000      -0.192298        -5.2327
  62   2.0000      -0.118796        -3.2326
  63   0.0000      -0.093633        -2.5479
  64   0.0000      -0.005185        -0.1411
  65   0.0000       0.012739         0.3466
  66   0.0000       0.015349         0.4177
  67   0.0000       0.020199         0.5496

MULLIKEN ATOMIC CHARGES
-----------------------
   0 C :    1.092010
   1 N :    0.301122
   2 C :    0.342449
   3 C :    0.208302
   4 H :   -0.089508
   5 H :    0.188875
   6 C :    0.617291
   7 C :    0.699703
   8 C :    0.480892
   9 N :    0.383375
  10 H :   -0.088191
  11 H :   -0.492830
  12 H :   -1.108069
  13 H :   -0.038101
  14 H :   -0.589024
  15 F :   -0.546494
  16 O :   -0.548637
  17 C :    0.249439
  18 H :   -0.340107
  19 H :   -0.106177
  20 C :   -0.137560
  21 C :   -0.157157
  22 H :   -0.005206
  23 H :   -0.127241
  24 H :    0.057808
  25 H :   -0.088270
  26 C :    0.531491
  27 H :   -0.103644
  28 H :    0.002598
  29 C :   -0.036753
  30 H :   -0.003327
  31 H :   -0.836081
  32 C :    0.623598
  33 H :   -0.361052
  34 H :    0.153601
  35 H :   -0.367230
  36 H :    0.185408
  37 H :    0.037883
  38 H :    0.014814
Sum of atomic charges:   -0.0000000

LOEWDIN ATOMIC CHARGES
----------------------
   0 C :    0.072743
   1 N :    0.010667
   2 C :   -0.002882
   3 C :    0.066572
   4 H :    0.039522
   5 H :    0.018508
   6 C :    0.037630
   7 C :   -0.216249
   8 C :    0.161966
   9 N :    0.219826
  10 H :    0.009729
  11 H :   -0.129521
  12 H :   -0.058978
  13 H :   -0.124737
  14 H :   -0.109800
  15 F :   -0.024509
  16 O :   -0.096635
  17 C :   -0.003361
  18 H :    0.018772
  19 H :    0.009000
  20 C :   -0.028178
  21 C :   -0.018248
  22 H :    0.011630
  23 H :    0.029976
  24 H :    0.026534
  25 H :    0.026469
  26 C :   -0.030660
  27 H :    0.020051
  28 H :    0.016525
  29 C :   -0.028127
  30 H :    0.029843
  31 H :   -0.030112
  32 C :   -0.021809
  33 H :    0.022490
  34 H :    0.017077
  35 H :    0.021489
  36 H :   -0.000671
  37 H :    0.019107
  38 H :    0.018351

  Mayer bond orders larger than 0.100000
B(  0-C ,  1-N ) :   0.9049 B(  0-C , 12-H ) :  -0.4307 B(  0-C , 17-C ) :   1.0185
B(  0-C , 18-H ) :   0.7366 B(  0-C , 19-H ) :   0.7674 B(  0-C , 26-C ) :   0.1428
B(  1-N ,  7-C ) :   0.8798 B(  1-N ,  8-C ) :   0.4462 B(  1-N ,  9-N ) :   0.1004
B(  1-N , 12-H ) :   0.7522 B(  1-N , 18-H ) :   0.2088 B(  2-C ,  3-C ) :   1.1672
B(  2-C ,  4-H ) :   0.1688 B(  2-C , 21-C ) :   1.2607 B(  2-C , 22-H ) :   0.1026
B(  2-C , 24-H ) :   0.6930 B(  2-C , 25-H ) :   0.8397 B(  3-C ,  4-H ) :   0.6878
B(  3-C ,  5-H ) :   0.7584 B(  3-C ,  6-C ) :   1.2166 B(  3-C , 21-C ) :   0.1014
B(  3-C , 24-H ) :   0.1057 B(  3-C , 25-H ) :   0.1384 B(  4-H ,  6-C ) :   0.2487
B(  5-H ,  6-C ) :   0.1691 B(  6-C , 15-F ) :   0.6303 B(  6-C , 16-O ) :   1.5671
B(  7-C ,  8-C ) :   1.5028 B(  7-C ,  9-N ) :   0.8990 B(  7-C , 11-H ) :  -0.1346
B(  7-C , 12-H ) :  -0.5182 B(  7-C , 13-H ) :   0.3316 B(  7-C , 14-H ) :   0.3680
B(  8-C ,  9-N ) :   0.2681 B(  8-C , 13-H ) :   0.6078 B(  8-C , 14-H ) :   0.6535
B(  9-N , 10-H ) :   1.1551 B(  9-N , 11-H ) :   1.0126 B( 10-H , 11-H ) :  -0.2541
B( 12-H , 15-F ) :   0.2575 B( 12-H , 18-H ) :   0.1264 B( 13-H , 19-H ) :   0.1434
B( 17-C , 19-H ) :   0.1267 B( 17-C , 26-C ) :   1.1393 B( 17-C , 27-H ) :   0.9215
B( 17-C , 28-H ) :   0.9240 B( 17-C , 30-H ) :   0.1232 B( 18-H , 19-H ) :  -0.2402
B( 20-C , 21-C ) :   1.2133 B( 20-C , 23-H ) :   0.1450 B( 20-C , 29-C ) :   0.1231
B( 20-C , 32-C ) :   1.1638 B( 20-C , 35-H ) :   1.0447 B( 20-C , 36-H ) :   0.8160
B( 20-C , 37-H ) :   0.2538 B( 20-C , 38-H ) :   0.1363 B( 21-C , 22-H ) :   0.9354
B( 21-C , 23-H ) :   0.8890 B( 21-C , 24-H ) :   0.2140 B( 21-C , 25-H ) :   0.1722
B( 21-C , 35-H ) :   0.1145 B( 24-H , 25-H ) :  -0.1043 B( 26-C , 27-H ) :   0.1537
B( 26-C , 29-C ) :   1.2472 B( 26-C , 30-H ) :   0.6431 B( 26-C , 31-H ) :   0.3921
B( 26-C , 33-H ) :   0.1023 B( 26-C , 34-H ) :   0.1414 B( 27-H , 31-H ) :   0.1010
B( 29-C , 31-H ) :   0.1475 B( 29-C , 32-C ) :   1.1123 B( 29-C , 33-H ) :   1.0555
B( 29-C , 34-H ) :   0.8259 B( 29-C , 37-H ) :   0.1150 B( 29-C , 38-H ) :   0.2103
B( 30-H , 31-H ) :   0.2890 B( 32-C , 37-H ) :   0.6761 B( 32-C , 38-H ) :   0.7083

Dispersion correction           -0.055265220
FINAL SINGLE POINT ENERGY      -755.313614815720

DIPOLE MOMENT
-------------
                                X             Y             Z
Electronic contribution:      9.86530      10.32815       5.67735
Nuclear contribution   :    -11.22009      -8.67117      -6.77523
                        -----------------------------------------
Total Dipole Moment    :     -1.35479       1.65698      -1.09788
                        -----------------------------------------
Magnitude (a.u.)       :      2.40548
Magnitude (Debye)      :      6.11426

Rotational constants in cm-1:     0.020086     0.013778     0.009581
Rotational constants in MHz :   602.172053   413.051122   287.243919

                             ****ORCA TERMINATED NORMALLY****
TOTAL RUN TIME: 0 days 0 hours 1 minutes 51 seconds 378 msec
