                         Program Version 5.0.0 -  RELEASE  -
|  1> !TPSS D3BJ RIJCOSX def2-SVPD def2/J TightSCF xyzfile
|  2>
|  3> *xyzfile 0 1 D5.xyz
|  4>
|  5> %MaxCore 64000
|  6>
|  7> %pal nprocs 4
|  8> end
|  9>
| 10> %scf
| 11>   MaxIter 150
| 12> end
| 13>
| 14>
| 15>                          ****END OF INPUT****

CARTESIAN COORDINATES (ANGSTROEM)
---------------------------------
  C      3.913853   -1.658291    3.015134
  N      5.039266   -0.901154    2.492821
  C      4.084215    1.742081   -2.114724
  C      4.265245    2.500518   -0.795890
  H      4.868534    3.392674   -0.981134
  H      3.307640    2.824571   -0.387809
  C      4.982240    1.650257    0.247422
  C      6.210384   -1.417261    2.178244
  C      6.535913   -2.677122    2.556078
  N      7.076754   -0.700820    1.478906
  H      7.954643   -1.121554    1.207554
  H      6.756161    0.106637    0.960278
  H      4.842168    0.017609    2.115191
  H      5.993876   -3.126918    3.282784
  H      7.498441   -2.975482    2.468776
  O      4.368065    1.389270    1.313706
  F      6.128919    1.233512   -0.045620
  C      3.139159   -2.376572    1.910609
  H      3.267235   -0.939401    3.520693
  H      4.247195   -2.355095    3.790065
  C      1.997274    0.430918   -1.399218
  C      3.412746    0.376886   -1.965497
  H      4.047407   -0.246590   -1.326706
  H      3.390774   -0.118719   -2.942839
  H      5.068475    1.598504   -2.565728
  H      3.503356    2.363939   -2.804565
  C      2.399946   -1.389579    1.009490
  H      2.440750   -3.087118    2.362976
  H      3.844475   -2.970462    1.318677
  C      2.070177   -1.936705   -0.372401
  H      1.481611   -1.061542    1.509912
  H      3.008628   -0.490001    0.897451
  C      1.322238   -0.935775   -1.256413
  H      1.472747   -2.850902   -0.283997
  H      3.003539   -2.234041   -0.862535
  H      1.376444    1.058920   -2.047420
  H      2.015341    0.929780   -0.426535
  H      0.316648   -0.787213   -0.848278
  H      1.185611   -1.379252   -2.248613

 Total Charge           Charge          ....    0
 Multiplicity           Mult            ....    1
 Number of Electrons    NEL             ....  126
 Basis Dimension        Dim             ....  510

ORBITAL ENERGIES
----------------

  NO   OCC          E(Eh)            E(eV)
   0   2.0000     -24.535032      -667.6322
   1   2.0000     -18.939113      -515.3595
   2   2.0000     -14.097688      -383.6176
   3   2.0000     -14.086435      -383.3114
   4   2.0000     -10.197441      -277.4865
   5   2.0000     -10.047137      -273.3965
   6   2.0000     -10.030137      -272.9339
   7   2.0000     -10.021470      -272.6981
   8   2.0000     -10.014255      -272.5017
   9   2.0000     -10.013719      -272.4871
  10   2.0000     -10.003851      -272.2186
  11   2.0000      -9.997614      -272.0489
  12   2.0000      -9.990782      -271.8630
  13   2.0000      -9.984491      -271.6918
  14   2.0000      -9.980170      -271.5742
  15   2.0000      -9.899413      -269.3767
  16   2.0000      -1.265619       -34.4392
  17   2.0000      -0.989983       -26.9388
  18   2.0000      -0.876794       -23.8588
  19   2.0000      -0.800373       -21.7793
  20   2.0000      -0.776781       -21.1373
  21   2.0000      -0.743169       -20.2227
  22   2.0000      -0.709182       -19.2978
  23   2.0000      -0.680306       -18.5121
  24   2.0000      -0.646330       -17.5875
  25   2.0000      -0.635633       -17.2965
  26   2.0000      -0.622007       -16.9257
  27   2.0000      -0.594759       -16.1842
  28   2.0000      -0.564772       -15.3682
  29   2.0000      -0.541959       -14.7475
  30   2.0000      -0.532745       -14.4967
  31   2.0000      -0.530154       -14.4262
  32   2.0000      -0.506503       -13.7827
  33   2.0000      -0.500998       -13.6329
  34   2.0000      -0.487913       -13.2768
  35   2.0000      -0.459877       -12.5139
  36   2.0000      -0.457479       -12.4486
  37   2.0000      -0.446031       -12.1371
  38   2.0000      -0.442462       -12.0400
  39   2.0000      -0.424976       -11.5642
  40   2.0000      -0.406200       -11.0533
  41   2.0000      -0.403720       -10.9858
  42   2.0000      -0.388551       -10.5730
  43   2.0000      -0.380670       -10.3585
  44   2.0000      -0.374980       -10.2037
  45   2.0000      -0.372468       -10.1354
  46   2.0000      -0.360907        -9.8208
  47   2.0000      -0.353465        -9.6183
  48   2.0000      -0.347497        -9.4559
  49   2.0000      -0.338140        -9.2013
  50   2.0000      -0.330249        -8.9865
  51   2.0000      -0.324840        -8.8393
  52   2.0000      -0.319003        -8.6805
  53   2.0000      -0.313486        -8.5304
  54   2.0000      -0.306693        -8.3455
  55   2.0000      -0.301793        -8.2122
  56   2.0000      -0.291639        -7.9359
  57   2.0000      -0.280454        -7.6316
  58   2.0000      -0.279398        -7.6028
  59   2.0000      -0.273898        -7.4531
  60   2.0000      -0.265004        -7.2111
  61   2.0000      -0.192399        -5.2354
  62   2.0000      -0.118786        -3.2323
  63   0.0000      -0.092849        -2.5266
  64   0.0000      -0.008725        -0.2374
  65   0.0000       0.013927         0.3790
  66   0.0000       0.015670         0.4264
  67   0.0000       0.021646         0.5890

MULLIKEN ATOMIC CHARGES
-----------------------
   0 C :    1.089165
   1 N :    0.238465
   2 C :    0.348174
   3 C :    0.218229
   4 H :   -0.076881
   5 H :    0.155162
   6 C :    0.697279
   7 C :    0.685202
   8 C :    0.463884
   9 N :    0.424718
  10 H :   -0.096642
  11 H :   -0.470692
  12 H :   -1.095430
  13 H :   -0.028480
  14 H :   -0.580073
  15 O :   -0.662114
  16 F :   -0.490030
  17 C :    0.246152
  18 H :   -0.320675
  19 H :   -0.109616
  20 C :   -0.154495
  21 C :   -0.141160
  22 H :    0.000464
  23 H :   -0.135460
  24 H :    0.017824
  25 H :   -0.089334
  26 C :    0.557736
  27 H :   -0.110290
  28 H :   -0.004198
  29 C :   -0.030743
  30 H :   -0.019151
  31 H :   -0.832518
  32 C :    0.639531
  33 H :   -0.373711
  34 H :    0.153006
  35 H :   -0.371238
  36 H :    0.206872
  37 H :    0.042972
  38 H :    0.008094
Sum of atomic charges:    0.0000000

LOEWDIN ATOMIC CHARGES
----------------------
   0 C :    0.075480
   1 N :    0.016629
   2 C :   -0.010462
   3 C :    0.070747
   4 H :    0.034826
   5 H :    0.029908
   6 C :    0.036717
   7 C :   -0.216132
   8 C :    0.162209
   9 N :    0.213902
  10 H :    0.008911
  11 H :   -0.090686
  12 H :   -0.095404
  13 H :   -0.122907
  14 H :   -0.112024
  15 O :   -0.107161
  16 F :   -0.016271
  17 C :   -0.003797
  18 H :    0.021446
  19 H :    0.007010
  20 C :   -0.023613
  21 C :   -0.019721
  22 H :    0.010626
  23 H :    0.028943
  24 H :    0.020913
  25 H :    0.026334
  26 C :   -0.026501
  27 H :    0.018550
  28 H :    0.014503
  29 C :   -0.029901
  30 H :    0.030720
  31 H :   -0.030184
  32 C :   -0.022006
  33 H :    0.021144
  34 H :    0.014936
  35 H :    0.021307
  36 H :    0.004625
  37 H :    0.019468
  38 H :    0.016916

  Mayer bond orders larger than 0.100000
B(  0-C ,  1-N ) :   0.9000 B(  0-C , 12-H ) :  -0.4592 B(  0-C , 17-C ) :   1.0129
B(  0-C , 18-H ) :   0.7415 B(  0-C , 19-H ) :   0.7672 B(  0-C , 26-C ) :   0.1415
B(  1-N ,  7-C ) :   0.8731 B(  1-N ,  8-C ) :   0.4393 B(  1-N , 12-H ) :   0.8614
B(  1-N , 18-H ) :   0.2103 B(  2-C ,  3-C ) :   1.1687 B(  2-C ,  4-H ) :   0.1665
B(  2-C , 21-C ) :   1.2431 B(  2-C , 24-H ) :   0.6989 B(  2-C , 25-H ) :   0.8458
B(  3-C ,  4-H ) :   0.7010 B(  3-C ,  5-H ) :   0.7806 B(  3-C ,  6-C ) :   1.1601
B(  3-C , 24-H ) :   0.1016 B(  3-C , 25-H ) :   0.1369 B(  4-H ,  6-C ) :   0.2303
B(  5-H ,  6-C ) :   0.1669 B(  6-C , 15-O ) :   1.6193 B(  6-C , 16-F ) :   0.4724
B(  7-C ,  8-C ) :   1.5087 B(  7-C ,  9-N ) :   0.8932 B(  7-C , 11-H ) :  -0.1207
B(  7-C , 12-H ) :  -0.5519 B(  7-C , 13-H ) :   0.3305 B(  7-C , 14-H ) :   0.3793
B(  8-C ,  9-N ) :   0.2715 B(  8-C , 13-H ) :   0.6024 B(  8-C , 14-H ) :   0.6557
B(  9-N , 10-H ) :   1.1664 B(  9-N , 11-H ) :   1.0042 B( 10-H , 11-H ) :  -0.2356
B( 11-H , 16-F ) :   0.1135 B( 12-H , 15-O ) :   0.1831 B( 12-H , 18-H ) :   0.1250
B( 13-H , 19-H ) :   0.1389 B( 17-C , 19-H ) :   0.1297 B( 17-C , 26-C ) :   1.1492
B( 17-C , 27-H ) :   0.9165 B( 17-C , 28-H ) :   0.9267 B( 17-C , 30-H ) :   0.1244
B( 18-H , 19-H ) :  -0.2373 B( 20-C , 21-C ) :   1.2318 B( 20-C , 22-H ) :   0.1129
B( 20-C , 23-H ) :   0.1406 B( 20-C , 29-C ) :   0.1203 B( 20-C , 32-C ) :   1.1571
B( 20-C , 35-H ) :   1.0486 B( 20-C , 36-H ) :   0.8099 B( 20-C , 37-H ) :   0.2496
B( 20-C , 38-H ) :   0.1358 B( 21-C , 22-H ) :   0.9107 B( 21-C , 23-H ) :   0.9020
B( 21-C , 24-H ) :   0.2205 B( 21-C , 25-H ) :   0.1611 B( 21-C , 35-H ) :   0.1143
B( 21-C , 36-H ) :   0.1031 B( 24-H , 25-H ) :  -0.1008 B( 26-C , 27-H ) :   0.1638
B( 26-C , 29-C ) :   1.2458 B( 26-C , 30-H ) :   0.6192 B( 26-C , 31-H ) :   0.3774
B( 26-C , 34-H ) :   0.1420 B( 29-C , 31-H ) :   0.1464 B( 29-C , 32-C ) :   1.1124
B( 29-C , 33-H ) :   1.0577 B( 29-C , 34-H ) :   0.8228 B( 29-C , 37-H ) :   0.1154
B( 29-C , 38-H ) :   0.2098 B( 30-H , 31-H ) :   0.3231 B( 32-C , 37-H ) :   0.6799
B( 32-C , 38-H ) :   0.7031

Dispersion correction           -0.055433909
FINAL SINGLE POINT ENERGY      -755.313580058129

DIPOLE MOMENT
-------------
                                X             Y             Z
Electronic contribution:     12.85673      10.16651       3.40340
Nuclear contribution   :    -13.35170      -8.48261      -5.12969
                        -----------------------------------------
Total Dipole Moment    :     -0.49497       1.68390      -1.72629
                        -----------------------------------------
Magnitude (a.u.)       :      2.46182
Magnitude (Debye)      :      6.25746

Rotational constants in cm-1:     0.019886     0.013843     0.009504
Rotational constants in MHz :   596.157485   415.004628   284.931121

                             ****ORCA TERMINATED NORMALLY****
TOTAL RUN TIME: 0 days 0 hours 1 minutes 51 seconds 146 msec
