                         Program Version 5.0.0 -  RELEASE  -
|  1> !TPSS D3BJ RIJCOSX def2-SVPD def2/J TightSCF xyzfile
|  2>
|  3> *xyzfile 0 1 D6.xyz
|  4>
|  5> %MaxCore 64000
|  6>
|  7> %pal nprocs 4
|  8> end
|  9>
| 10> %scf
| 11>   MaxIter 150
| 12> end
| 13>
| 14>
| 15>                          ****END OF INPUT****

CARTESIAN COORDINATES (ANGSTROEM)
---------------------------------
  C      3.913853   -1.658291    3.015134
  N      5.039266   -0.901154    2.492821
  C      4.084215    1.742081   -2.114724
  C      4.265245    2.500518   -0.795890
  H      4.868534    3.392674   -0.981134
  H      3.307640    2.824571   -0.387809
  C      4.982240    1.650257    0.247422
  C      6.210384   -1.417261    2.178244
  N      6.535913   -2.677122    2.556078
  C      7.076754   -0.700820    1.478906
  H      7.954643   -1.121554    1.207554
  H      6.756161    0.106637    0.960278
  H      4.842168    0.017609    2.115191
  H      5.993876   -3.126918    3.282784
  H      7.498441   -2.975482    2.468776
  O      4.368065    1.389270    1.313706
  F      6.128919    1.233512   -0.045620
  C      3.139159   -2.376572    1.910609
  H      3.267235   -0.939401    3.520693
  H      4.247195   -2.355095    3.790065
  C      1.997274    0.430918   -1.399218
  C      3.412746    0.376886   -1.965497
  H      4.047407   -0.246590   -1.326706
  H      3.390774   -0.118719   -2.942839
  H      5.068475    1.598504   -2.565728
  H      3.503356    2.363939   -2.804565
  C      2.399946   -1.389579    1.009490
  H      2.440750   -3.087118    2.362976
  H      3.844475   -2.970462    1.318677
  C      2.070177   -1.936705   -0.372401
  H      1.481611   -1.061542    1.509912
  H      3.008628   -0.490001    0.897451
  C      1.322238   -0.935775   -1.256413
  H      1.472747   -2.850902   -0.283997
  H      3.003539   -2.234041   -0.862535
  H      1.376444    1.058920   -2.047420
  H      2.015341    0.929780   -0.426535
  H      0.316648   -0.787213   -0.848278
  H      1.185611   -1.379252   -2.248613

 Total Charge           Charge          ....    0
 Multiplicity           Mult            ....    1
 Number of Electrons    NEL             ....  126
 Basis Dimension        Dim             ....  510

ORBITAL ENERGIES
----------------

  NO   OCC          E(Eh)            E(eV)
   0   2.0000     -24.509167      -666.9283
   1   2.0000     -18.928205      -515.0627
   2   2.0000     -14.101308      -383.7161
   3   2.0000     -14.080721      -383.1559
   4   2.0000     -10.189624      -277.2738
   5   2.0000     -10.039015      -273.1755
   6   2.0000     -10.023825      -272.7622
   7   2.0000     -10.020351      -272.6676
   8   2.0000     -10.016642      -272.5667
   9   2.0000     -10.008408      -272.3426
  10   2.0000     -10.000685      -272.1325
  11   2.0000      -9.996484      -272.0182
  12   2.0000      -9.991258      -271.8760
  13   2.0000      -9.986480      -271.7459
  14   2.0000      -9.985438      -271.7176
  15   2.0000      -9.886736      -269.0318
  16   2.0000      -1.241807       -33.7913
  17   2.0000      -0.979319       -26.6486
  18   2.0000      -0.870459       -23.6864
  19   2.0000      -0.792995       -21.5785
  20   2.0000      -0.770674       -20.9711
  21   2.0000      -0.740863       -20.1599
  22   2.0000      -0.711535       -19.3619
  23   2.0000      -0.677243       -18.4287
  24   2.0000      -0.652474       -17.7547
  25   2.0000      -0.618545       -16.8315
  26   2.0000      -0.614064       -16.7095
  27   2.0000      -0.583278       -15.8718
  28   2.0000      -0.557600       -15.1731
  29   2.0000      -0.542310       -14.7570
  30   2.0000      -0.523260       -14.2386
  31   2.0000      -0.514942       -14.0123
  32   2.0000      -0.509225       -13.8567
  33   2.0000      -0.499581       -13.5943
  34   2.0000      -0.474888       -12.9224
  35   2.0000      -0.461923       -12.5696
  36   2.0000      -0.443495       -12.0681
  37   2.0000      -0.440681       -11.9916
  38   2.0000      -0.431335       -11.7372
  39   2.0000      -0.420233       -11.4351
  40   2.0000      -0.413502       -11.2520
  41   2.0000      -0.394622       -10.7382
  42   2.0000      -0.389682       -10.6038
  43   2.0000      -0.382246       -10.4014
  44   2.0000      -0.375389       -10.2149
  45   2.0000      -0.370083       -10.0705
  46   2.0000      -0.355967        -9.6864
  47   2.0000      -0.348104        -9.4724
  48   2.0000      -0.342698        -9.3253
  49   2.0000      -0.336582        -9.1589
  50   2.0000      -0.328702        -8.9444
  51   2.0000      -0.317550        -8.6410
  52   2.0000      -0.315715        -8.5910
  53   2.0000      -0.306871        -8.3504
  54   2.0000      -0.304452        -8.2846
  55   2.0000      -0.296341        -8.0639
  56   2.0000      -0.291474        -7.9314
  57   2.0000      -0.280390        -7.6298
  58   2.0000      -0.279477        -7.6050
  59   2.0000      -0.274039        -7.4570
  60   2.0000      -0.259313        -7.0563
  61   2.0000      -0.195294        -5.3142
  62   2.0000      -0.113201        -3.0803
  63   0.0000      -0.082223        -2.2374
  64   0.0000       0.000691         0.0188
  65   0.0000       0.016030         0.4362
  66   0.0000       0.019002         0.5171
  67   0.0000       0.020033         0.5451

MULLIKEN ATOMIC CHARGES
-----------------------
   0 C :    1.125837
   1 N :    0.184129
   2 C :    0.349901
   3 C :    0.216892
   4 H :   -0.071465
   5 H :    0.160465
   6 C :    0.695566
   7 C :    0.856130
   8 N :    0.091006
   9 C :    0.866239
  10 H :   -0.259355
  11 H :   -0.856241
  12 H :   -0.930560
  13 H :   -0.106882
  14 H :   -0.200901
  15 O :   -0.628710
  16 F :   -0.539305
  17 C :    0.219904
  18 H :   -0.302030
  19 H :   -0.228191
  20 C :   -0.153651
  21 C :   -0.145783
  22 H :   -0.000070
  23 H :   -0.134339
  24 H :    0.021524
  25 H :   -0.091508
  26 C :    0.556798
  27 H :   -0.142834
  28 H :    0.006775
  29 C :   -0.031247
  30 H :    0.001818
  31 H :   -0.841684
  32 C :    0.641984
  33 H :   -0.372834
  34 H :    0.150444
  35 H :   -0.372008
  36 H :    0.213420
  37 H :    0.043227
  38 H :    0.007537
Sum of atomic charges:   -0.0000000

LOEWDIN ATOMIC CHARGES
----------------------
   0 C :    0.066330
   1 N :    0.014671
   2 C :   -0.009345
   3 C :    0.069896
   4 H :    0.035547
   5 H :    0.028202
   6 C :    0.050182
   7 C :   -0.214866
   8 N :    0.201455
   9 C :    0.168156
  10 H :   -0.101682
  11 H :   -0.168368
  12 H :   -0.085741
  13 H :   -0.035081
  14 H :   -0.002046
  15 O :   -0.105875
  16 F :   -0.020812
  17 C :   -0.011125
  18 H :    0.021233
  19 H :   -0.001378
  20 C :   -0.023913
  21 C :   -0.019161
  22 H :    0.012142
  23 H :    0.028344
  24 H :    0.022174
  25 H :    0.025488
  26 C :   -0.024211
  27 H :    0.015381
  28 H :    0.015393
  29 C :   -0.030118
  30 H :    0.031796
  31 H :   -0.027555
  32 C :   -0.022114
  33 H :    0.020135
  34 H :    0.015214
  35 H :    0.021049
  36 H :    0.004621
  37 H :    0.019044
  38 H :    0.016936

  Mayer bond orders larger than 0.100000
B(  0-C ,  1-N ) :   0.9052 B(  0-C , 12-H ) :  -0.4159 B(  0-C , 17-C ) :   1.0192
B(  0-C , 18-H ) :   0.6601 B(  0-C , 19-H ) :   0.8017 B(  0-C , 26-C ) :   0.1423
B(  1-N ,  7-C ) :   1.0849 B(  1-N ,  8-N ) :   0.2031 B(  1-N ,  9-C ) :   0.1171
B(  1-N , 12-H ) :   0.9481 B(  1-N , 18-H ) :   0.2083 B(  1-N , 19-H ) :   0.1032
B(  2-C ,  3-C ) :   1.1686 B(  2-C ,  4-H ) :   0.1665 B(  2-C , 21-C ) :   1.2495
B(  2-C , 24-H ) :   0.6976 B(  2-C , 25-H ) :   0.8427 B(  3-C ,  4-H ) :   0.6861
B(  3-C ,  5-H ) :   0.7637 B(  3-C ,  6-C ) :   1.1921 B(  3-C , 24-H ) :   0.1066
B(  3-C , 25-H ) :   0.1385 B(  4-H ,  6-C ) :   0.2499 B(  5-H ,  6-C ) :   0.1784
B(  6-C , 15-O ) :   1.6263 B(  6-C , 16-F ) :   0.5328 B(  7-C ,  8-N ) :   0.7849
B(  7-C ,  9-C ) :   1.4716 B(  7-C , 10-H ) :   0.2650 B(  7-C , 12-H ) :  -0.6171
B(  7-C , 14-H ) :  -0.1008 B(  7-C , 19-H ) :  -0.1025 B(  8-N ,  9-C ) :   0.2841
B(  8-N , 13-H ) :   1.0042 B(  8-N , 14-H ) :   1.2485 B(  8-N , 19-H ) :   0.1079
B(  9-C , 10-H ) :   0.5653 B(  9-C , 11-H ) :   0.2878 B( 10-H , 11-H ) :   0.2562
B( 11-H , 16-F ) :   0.2528 B( 12-H , 15-O ) :   0.1051 B( 12-H , 18-H ) :   0.1590
B( 13-H , 14-H ) :  -0.1819 B( 15-O , 16-F ) :   0.1197 B( 17-C , 19-H ) :   0.1511
B( 17-C , 26-C ) :   1.1228 B( 17-C , 27-H ) :   0.9392 B( 17-C , 28-H ) :   0.8920
B( 17-C , 30-H ) :   0.1285 B( 18-H , 19-H ) :  -0.2035 B( 20-C , 21-C ) :   1.2302
B( 20-C , 22-H ) :   0.1082 B( 20-C , 23-H ) :   0.1403 B( 20-C , 29-C ) :   0.1209
B( 20-C , 32-C ) :   1.1539 B( 20-C , 35-H ) :   1.0485 B( 20-C , 36-H ) :   0.8092
B( 20-C , 37-H ) :   0.2486 B( 20-C , 38-H ) :   0.1357 B( 21-C , 22-H ) :   0.9111
B( 21-C , 23-H ) :   0.8970 B( 21-C , 24-H ) :   0.2190 B( 21-C , 25-H ) :   0.1613
B( 21-C , 35-H ) :   0.1170 B( 21-C , 36-H ) :   0.1026 B( 24-H , 25-H ) :  -0.1004
B( 26-C , 27-H ) :   0.1640 B( 26-C , 29-C ) :   1.2441 B( 26-C , 30-H ) :   0.6397
B( 26-C , 31-H ) :   0.3796 B( 26-C , 34-H ) :   0.1451 B( 29-C , 31-H ) :   0.1466
B( 29-C , 32-C ) :   1.1111 B( 29-C , 33-H ) :   1.0576 B( 29-C , 34-H ) :   0.8217
B( 29-C , 37-H ) :   0.1155 B( 29-C , 38-H ) :   0.2075 B( 30-H , 31-H ) :   0.2772
B( 32-C , 37-H ) :   0.6806 B( 32-C , 38-H ) :   0.7051

Dispersion correction           -0.055495596
FINAL SINGLE POINT ENERGY      -755.305738853824

DIPOLE MOMENT
-------------
                                X             Y             Z
Electronic contribution:     12.41467       8.52784       4.40889
Nuclear contribution   :    -13.25777      -8.13937      -5.31678
                        -----------------------------------------
Total Dipole Moment    :     -0.84310       0.38848      -0.90788
                        -----------------------------------------
Magnitude (a.u.)       :      1.29845
Magnitude (Debye)      :      3.30040

Rotational constants in cm-1:     0.020021     0.013636     0.009443
Rotational constants in MHz :   600.208195   408.782966   283.102361

                             ****ORCA TERMINATED NORMALLY****
TOTAL RUN TIME: 0 days 0 hours 1 minutes 45 seconds 518 msec
