                         Program Version 5.0.0 -  RELEASE  -
|  1> !B3LYP D3BJ RIJCOSX def2-TZVPD def2/J TightSCF
|  2> *xyz -1 1
|  3> C          1.44442        5.26658       -0.97546
|  4> O          1.56525        4.23349       -1.86489
|  5> C          0.14812        5.21087       -0.13809
|  6> H          1.47425        6.26464       -1.47692
|  7> H          2.28962        5.30327       -0.26445
|  8> H         -0.69779        5.17417       -0.79230
|  9> H          0.08430        6.08276        0.47887
| 10> H          0.15965        4.33708        0.47938
| 11> *
| 12> %MaxCore 64000
| 13>
| 14> %pal nprocs 4
| 15> end
| 16>
| 17> %scf
| 18>   MaxIter 150
| 19> end
| 20>
| 21>
| 22>                          ****END OF INPUT****

CARTESIAN COORDINATES (ANGSTROEM)
---------------------------------
  C      1.444420    5.266580   -0.975460
  O      1.565250    4.233490   -1.864890
  C      0.148120    5.210870   -0.138090
  H      1.474250    6.264640   -1.476920
  H      2.289620    5.303270   -0.264450
  H     -0.697790    5.174170   -0.792300
  H      0.084300    6.082760    0.478870
  H      0.159650    4.337080    0.479380

 Total Charge           Charge          ....   -1
 Multiplicity           Mult            ....    1
 Number of Electrons    NEL             ....   26
 Basis Dimension        Dim             ....  159

ORBITAL ENERGIES
----------------

  NO   OCC          E(Eh)            E(eV)
   0   2.0000     -18.798475      -511.5325
   1   2.0000      -9.984495      -271.6919
   2   2.0000      -9.960105      -271.0282
   3   2.0000      -0.683157       -18.5896
   4   2.0000      -0.526671       -14.3315
   5   2.0000      -0.374132       -10.1806
   6   2.0000      -0.249960        -6.8018
   7   2.0000      -0.228790        -6.2257
   8   2.0000      -0.174455        -4.7472
   9   2.0000      -0.158568        -4.3149
  10   2.0000      -0.116604        -3.1730
  11   2.0000       0.025687         0.6990
  12   2.0000       0.028508         0.7757
  13   0.0000       0.153924         4.1885
  14   0.0000       0.177537         4.8310
  15   0.0000       0.203829         5.5465
  16   0.0000       0.207863         5.6562
  17   0.0000       0.228592         6.2203

MULLIKEN ATOMIC CHARGES
-----------------------
   0 C :   -0.219452
   1 O :   -0.932510
   2 C :   -0.951343
   3 H :    0.167656
   4 H :    0.166387
   5 H :    0.222694
   6 H :    0.325855
   7 H :    0.220715
Sum of atomic charges:   -1.0000000

LOEWDIN ATOMIC CHARGES
----------------------
   0 C :   -0.616737
   1 O :   -0.408916
   2 C :   -0.166590
   3 H :    0.052306
   4 H :    0.048843
   5 H :    0.035223
   6 H :    0.021795
   7 H :    0.034076

  Mayer bond orders larger than 0.100000
B(  0-C ,  1-O ) :   0.9025 B(  0-C ,  2-C ) :   0.7597 B(  0-C ,  3-H ) :   1.0572
B(  0-C ,  4-H ) :   1.0643 B(  1-O ,  2-C ) :   0.3969 B(  2-C ,  5-H ) :   1.0104
B(  2-C ,  6-H ) :   0.9540 B(  2-C ,  7-H ) :   1.0059

Dispersion correction           -0.006225260
FINAL SINGLE POINT ENERGY      -154.406906330276

DIPOLE MOMENT
-------------
                                X             Y             Z
Electronic contribution:      1.22875      -1.66449      -2.11878
Nuclear contribution   :     -1.83256       2.47114       3.17273
                        -----------------------------------------
Total Dipole Moment    :     -0.60380       0.80666       1.05396
                        -----------------------------------------
Magnitude (a.u.)       :      1.45812
Magnitude (Debye)      :      3.70624

Rotational constants in cm-1:     1.286062     0.322579     0.284728
Rotational constants in MHz : 38555.180127  9670.683110  8535.939140

                             ****ORCA TERMINATED NORMALLY****
TOTAL RUN TIME: 0 days 0 hours 0 minutes 16 seconds 203 msec
