                         Program Version 5.0.0 -  RELEASE  -
|  1> !B3LYP D3BJ RIJCOSX def2-TZVPD def2/J TightSCF
|  2> *xyz 1 1
|  3> C         -0.70169        4.07250       -4.00392
|  4> N          0.68053        4.61482       -4.04800
|  5> H          0.69993        5.58489       -4.38827
|  6> H          1.27804        4.05598       -4.66824
|  7> H          1.08573        4.53358       -3.10652
|  8> C         -1.70347        5.09320       -3.47740
|  9> H         -0.99590        3.74039       -5.00065
| 10> H         -0.64358        3.20191       -3.35153
| 11> H         -1.73704        5.93384       -4.13853
| 12> H         -1.40338        5.41759       -2.50291
| 13> H         -2.67335        4.64479       -3.42108
| 14> *
| 15> %MaxCore 64000
| 16>
| 17> %pal nprocs 4
| 18> end
| 19>
| 20> %scf
| 21>   MaxIter 150
| 22> end
| 23>
| 24>
| 25>                          ****END OF INPUT****

CARTESIAN COORDINATES (ANGSTROEM)
---------------------------------
  C     -0.701690    4.072500   -4.003920
  N      0.680530    4.614820   -4.048000
  H      0.699930    5.584890   -4.388270
  H      1.278040    4.055980   -4.668240
  H      1.085730    4.533580   -3.106520
  C     -1.703470    5.093200   -3.477400
  H     -0.995900    3.740390   -5.000650
  H     -0.643580    3.201910   -3.351530
  H     -1.737040    5.933840   -4.138530
  H     -1.403380    5.417590   -2.502910
  H     -2.673350    4.644790   -3.421080

 Total Charge           Charge          ....    1
 Multiplicity           Mult            ....    1
 Number of Electrons    NEL             ....   26
 Basis Dimension        Dim             ....  183

ORBITAL ENERGIES
----------------

  NO   OCC          E(Eh)            E(eV)
   0   2.0000     -14.650286      -398.6545
   1   2.0000     -10.422301      -283.6052
   2   2.0000     -10.342897      -281.4445
   3   2.0000      -1.217372       -33.1264
   4   2.0000      -0.965157       -26.2633
   5   2.0000      -0.845039       -22.9947
   6   2.0000      -0.804832       -21.9006
   7   2.0000      -0.786994       -21.4152
   8   2.0000      -0.696874       -18.9629
   9   2.0000      -0.643314       -17.5055
  10   2.0000      -0.584249       -15.8982
  11   2.0000      -0.568794       -15.4777
  12   2.0000      -0.552786       -15.0421
  13   0.0000      -0.203861        -5.5473
  14   0.0000      -0.145491        -3.9590
  15   0.0000      -0.141504        -3.8505
  16   0.0000      -0.133143        -3.6230
  17   0.0000      -0.103244        -2.8094

MULLIKEN ATOMIC CHARGES
-----------------------
   0 C :   -0.281724
   1 N :   -0.248971
   2 H :    0.314189
   3 H :    0.335435
   4 H :    0.345263
   5 C :   -1.066282
   6 H :    0.289878
   7 H :    0.294897
   8 H :    0.357256
   9 H :    0.347276
  10 H :    0.312782
Sum of atomic charges:    1.0000000

LOEWDIN ATOMIC CHARGES
----------------------
   0 C :   -0.198460
   1 N :    0.185261
   2 H :    0.179562
   3 H :    0.179152
   4 H :    0.181539
   5 C :   -0.048767
   6 H :    0.134600
   7 H :    0.133626
   8 H :    0.081251
   9 H :    0.080905
  10 H :    0.091332

  Mayer bond orders larger than 0.100000
B(  0-C ,  1-N ) :   0.9512 B(  0-C ,  5-C ) :   0.6598 B(  0-C ,  6-H ) :   0.9293
B(  0-C ,  7-H ) :   0.9294 B(  1-N ,  2-H ) :   0.8786 B(  1-N ,  3-H ) :   0.8762
B(  1-N ,  4-H ) :   0.8616 B(  5-C ,  8-H ) :   0.9137 B(  5-C ,  9-H ) :   0.9421
B(  5-C , 10-H ) :   0.9803

Dispersion correction           -0.010029090
FINAL SINGLE POINT ENERGY      -135.505187253869

DIPOLE MOMENT
-------------
                                X             Y             Z
Electronic contribution:      1.74333      -0.32904      -0.45147
Nuclear contribution   :     -0.23930       0.27560       0.19485
                        -----------------------------------------
Total Dipole Moment    :      1.50403      -0.05343      -0.25662
                        -----------------------------------------
Magnitude (a.u.)       :      1.52670
Magnitude (Debye)      :      3.88057

Rotational constants in cm-1:     1.018556     0.279088     0.248454
Rotational constants in MHz : 30535.536069  8366.847891  7448.451392

                             ****ORCA TERMINATED NORMALLY****
TOTAL RUN TIME: 0 days 0 hours 0 minutes 17 seconds 90 msec
