                         Program Version 5.0.0 -  RELEASE  -
|  1> !B3LYP D3BJ RIJCOSX def2-TZVPD def2/J TightSCF xyzfile
|  2>
|  3> *xyzfile 0 1 B.xyz
|  4>
|  5> %MaxCore 64000
|  6>
|  7> %pal nprocs 4
|  8> end
|  9>
| 10> %scf
| 11>   MaxIter 150
| 12> end
| 13>
| 14>
| 15>                          ****END OF INPUT****

CARTESIAN COORDINATES (ANGSTROEM)
---------------------------------
  C     -0.701686    4.072499   -4.003920
  N      0.680528    4.614820   -4.048005
  C      1.444422    5.266576   -0.975463
  O      1.565248    4.233493   -1.864885
  H      0.699926    5.584890   -4.388272
  H      1.278044    4.055977   -4.668235
  H      1.085729    4.533581   -3.106524
  C     -1.703475    5.093197   -3.477396
  H     -0.995895    3.740394   -5.000654
  H     -0.643580    3.201910   -3.351533
  C     -1.313997    5.785995   -2.169271
  H     -1.877057    5.850103   -4.251154
  H     -2.653264    4.564475   -3.354796
  H     -2.097137    6.509395   -1.929558
  H     -0.416875    6.387594   -2.339097
  C     -1.073895    4.844728   -0.979904
  H     -1.968893    4.809608   -0.352568
  C      0.148120    5.210874   -0.138092
  H     -0.909754    3.827531   -1.338975
  H      1.474250    6.264638   -1.476917
  H      2.289622    5.303267   -0.264450
  H      0.261827    4.450942    0.640711
  H     -0.002516    6.171031    0.371483

 Total Charge           Charge          ....    0
 Multiplicity           Mult            ....    1
 Number of Electrons    NEL             ....   66
 Basis Dimension        Dim             ....  434

ORBITAL ENERGIES
----------------

  NO   OCC          E(Eh)            E(eV)
   0   2.0000     -18.995148      -516.8843
   1   2.0000     -14.395073      -391.7098
   2   2.0000     -10.234186      -278.4864
   3   2.0000     -10.189200      -277.2622
   4   2.0000     -10.164130      -276.5800
   5   2.0000     -10.153034      -276.2781
   6   2.0000     -10.142791      -275.9994
   7   2.0000     -10.124723      -275.5077
   8   2.0000      -0.989179       -26.9169
   9   2.0000      -0.891779       -24.2665
  10   2.0000      -0.809457       -22.0264
  11   2.0000      -0.746619       -20.3165
  12   2.0000      -0.694122       -18.8880
  13   2.0000      -0.635830       -17.3018
  14   2.0000      -0.588879       -16.0242
  15   2.0000      -0.570858       -15.5338
  16   2.0000      -0.567576       -15.4445
  17   2.0000      -0.519844       -14.1457
  18   2.0000      -0.490843       -13.3565
  19   2.0000      -0.463993       -12.6259
  20   2.0000      -0.455886       -12.4053
  21   2.0000      -0.419107       -11.4045
  22   2.0000      -0.407734       -11.0950
  23   2.0000      -0.395416       -10.7598
  24   2.0000      -0.375888       -10.2284
  25   2.0000      -0.355504        -9.6738
  26   2.0000      -0.350501        -9.5376
  27   2.0000      -0.331577        -9.0227
  28   2.0000      -0.309560        -8.4236
  29   2.0000      -0.301789        -8.2121
  30   2.0000      -0.294788        -8.0216
  31   2.0000      -0.181759        -4.9459
  32   2.0000      -0.175960        -4.7881
  33   0.0000      -0.026073        -0.7095
  34   0.0000       0.005564         0.1514
  35   0.0000       0.011194         0.3046
  36   0.0000       0.027207         0.7403
  37   0.0000       0.041748         1.1360

MULLIKEN ATOMIC CHARGES
-----------------------
   0 C :   -0.614575
   1 N :   -0.123143
   2 C :   -0.384496
   3 O :   -0.951409
   4 H :    0.303584
   5 H :    0.326601
   6 H :    0.164875
   7 C :   -0.346820
   8 H :    0.266474
   9 H :    0.323290
  10 C :   -0.530760
  11 H :    0.227878
  12 H :    0.205215
  13 H :    0.279092
  14 H :    0.204338
  15 C :   -0.196084
  16 H :    0.276541
  17 C :   -0.478450
  18 H :    0.131125
  19 H :    0.224989
  20 H :    0.225503
  21 H :    0.273254
  22 H :    0.192977
Sum of atomic charges:   -0.0000000

LOEWDIN ATOMIC CHARGES
----------------------
   0 C :   -0.172700
   1 N :    0.145435
   2 C :   -0.418042
   3 O :   -0.274152
   4 H :    0.159230
   5 H :    0.159257
   6 H :   -0.042821
   7 C :   -0.189199
   8 H :    0.115215
   9 H :    0.120921
  10 C :   -0.200499
  11 H :    0.107609
  12 H :    0.116239
  13 H :    0.109262
  14 H :    0.089076
  15 C :   -0.208644
  16 H :    0.104002
  17 C :   -0.196416
  18 H :    0.092398
  19 H :    0.085996
  20 H :    0.094165
  21 H :    0.101271
  22 H :    0.102396

  Mayer bond orders larger than 0.100000
B(  0-C ,  1-N ) :   0.9956 B(  0-C ,  7-C ) :   0.8043 B(  0-C ,  8-H ) :   0.9591
B(  0-C ,  9-H ) :   0.9070 B(  1-N ,  4-H ) :   0.8501 B(  1-N ,  5-H ) :   0.8659
B(  1-N ,  6-H ) :   0.7912 B(  2-C ,  3-O ) :   0.9455 B(  2-C , 17-C ) :   0.8377
B(  2-C , 19-H ) :   0.9945 B(  2-C , 20-H ) :   1.0010 B(  3-O ,  6-H ) :   0.2958
B(  3-O , 15-C ) :  -0.1008 B(  7-C , 10-C ) :   0.8403 B(  7-C , 11-H ) :   0.9487
B(  7-C , 12-H ) :   0.9958 B(  7-C , 15-C ) :   0.1355 B( 10-C , 13-H ) :   0.9512
B( 10-C , 14-H ) :   1.0088 B( 10-C , 15-C ) :   0.7733 B( 10-C , 17-C ) :   0.2322
B( 15-C , 16-H ) :   0.9526 B( 15-C , 17-C ) :   0.8852 B( 15-C , 18-H ) :   0.9767
B( 17-C , 21-H ) :   0.9205 B( 17-C , 22-H ) :   1.0235

Dispersion correction           -0.035848341
FINAL SINGLE POINT ENERGY      -367.535547005822

DIPOLE MOMENT
-------------
                                X             Y             Z
Electronic contribution:      2.00267      -1.56230      -1.27985
Nuclear contribution   :     -3.16446       1.92310      -1.11926
                        -----------------------------------------
Total Dipole Moment    :     -1.16179       0.36080      -2.39911
                        -----------------------------------------
Magnitude (a.u.)       :      2.68992
Magnitude (Debye)      :      6.83723

Rotational constants in cm-1:     0.085554     0.055600     0.038553
Rotational constants in MHz :  2564.854379  1666.836664  1155.798427

                             ****ORCA TERMINATED NORMALLY****
TOTAL RUN TIME: 0 days 0 hours 2 minutes 20 seconds 647 msec
