                         Program Version 5.0.0 -  RELEASE  -
|  1> !B3LYP D3BJ RIJCOSX def2-TZVPD def2/J TightSCF
|  2> *xyz 0 1
|  3> C          1.44442        5.26658       -0.97546
|  4> F          1.56525        4.23349       -1.86489
|  5> C          0.14812        5.21087       -0.13809
|  6> H          1.47425        6.26464       -1.47692
|  7> H          2.28962        5.30327       -0.26445
|  8> H         -0.69779        5.17417       -0.79230
|  9> H          0.08430        6.08276        0.47887
| 10> H          0.15965        4.33708        0.47938
| 11> *
| 12> %MaxCore 64000
| 13>
| 14> %pal nprocs 4
| 15> end
| 16>
| 17> %scf
| 18>   MaxIter 150
| 19> end
| 20>
| 21>
| 22>                          ****END OF INPUT****

CARTESIAN COORDINATES (ANGSTROEM)
---------------------------------
  C      1.444420    5.266580   -0.975460
  F      1.565250    4.233490   -1.864890
  C      0.148120    5.210870   -0.138090
  H      1.474250    6.264640   -1.476920
  H      2.289620    5.303270   -0.264450
  H     -0.697790    5.174170   -0.792300
  H      0.084300    6.082760    0.478870
  H      0.159650    4.337080    0.479380

 Total Charge           Charge          ....    0
 Multiplicity           Mult            ....    1
 Number of Electrons    NEL             ....   26
 Basis Dimension        Dim             ....  159

ORBITAL ENERGIES
----------------

  NO   OCC          E(Eh)            E(eV)
   0   2.0000     -24.670505      -671.3186
   1   2.0000     -10.248404      -278.8733
   2   2.0000     -10.164064      -276.5782
   3   2.0000      -1.200641       -32.6711
   4   2.0000      -0.763348       -20.7717
   5   2.0000      -0.632976       -17.2242
   6   2.0000      -0.509736       -13.8706
   7   2.0000      -0.494819       -13.4647
   8   2.0000      -0.459196       -12.4954
   9   2.0000      -0.407161       -11.0794
  10   2.0000      -0.403189       -10.9713
  11   2.0000      -0.337622        -9.1871
  12   2.0000      -0.331944        -9.0326
  13   0.0000       0.008578         0.2334
  14   0.0000       0.035099         0.9551
  15   0.0000       0.052378         1.4253
  16   0.0000       0.056128         1.5273
  17   0.0000       0.082525         2.2456

MULLIKEN ATOMIC CHARGES
-----------------------
   0 C :   -0.055034
   1 F :   -0.303898
   2 C :   -0.862425
   3 H :    0.203018
   4 H :    0.203471
   5 H :    0.260209
   6 H :    0.298773
   7 H :    0.255886
Sum of atomic charges:    0.0000000

LOEWDIN ATOMIC CHARGES
----------------------
   0 C :   -0.286277
   1 F :   -0.043403
   2 C :   -0.076725
   3 H :    0.112101
   4 H :    0.106807
   5 H :    0.062125
   6 H :    0.064121
   7 H :    0.061251

  Mayer bond orders larger than 0.100000
B(  0-C ,  1-F ) :   0.8118 B(  0-C ,  2-C ) :   0.7757 B(  0-C ,  3-H ) :   0.9790
B(  0-C ,  4-H ) :   0.9837 B(  2-C ,  5-H ) :   0.9686 B(  2-C ,  6-H ) :   0.9411
B(  2-C ,  7-H ) :   0.9695

Dispersion correction           -0.005732959
FINAL SINGLE POINT ENERGY      -179.049048545934

DIPOLE MOMENT
-------------
                                X             Y             Z
Electronic contribution:      2.30051      -2.74745      -3.70340
Nuclear contribution   :     -2.43357       3.25919       4.19687
                        -----------------------------------------
Total Dipole Moment    :     -0.13306       0.51174       0.49347
                        -----------------------------------------
Magnitude (a.u.)       :      0.72325
Magnitude (Debye)      :      1.83836

Rotational constants in cm-1:     1.264662     0.300144     0.266170
Rotational constants in MHz : 37913.611527  8998.095216  7979.576054

                             ****ORCA TERMINATED NORMALLY****
TOTAL RUN TIME: 0 days 0 hours 0 minutes 13 seconds 674 msec
