                         Program Version 5.0.0 -  RELEASE  -
|  1> !B3LYP D3BJ RIJCOSX def2-TZVPD def2/J TightSCF
|  2> *xyz 0 1
|  3> C         -0.70169        4.07250       -4.00392
|  4> C          0.68053        4.61482       -4.04800
|  5> H          0.69993        5.58489       -4.38827
|  6> H          1.27804        4.05598       -4.66824
|  7> H          1.08573        4.53358       -3.10652
|  8> C         -1.70347        5.09320       -3.47740
|  9> H         -0.99590        3.74039       -5.00065
| 10> H         -0.64358        3.20191       -3.35153
| 11> H         -1.73704        5.93384       -4.13853
| 12> H         -1.40338        5.41759       -2.50291
| 13> H         -2.67335        4.64479       -3.42108
| 14> *
| 15> %MaxCore 64000
| 16>
| 17> %pal nprocs 4
| 18> end
| 19>
| 20> %scf
| 21>   MaxIter 150
| 22> end
| 23>
| 24>
| 25>                          ****END OF INPUT****

CARTESIAN COORDINATES (ANGSTROEM)
---------------------------------
  C     -0.701690    4.072500   -4.003920
  C      0.680530    4.614820   -4.048000
  H      0.699930    5.584890   -4.388270
  H      1.278040    4.055980   -4.668240
  H      1.085730    4.533580   -3.106520
  C     -1.703470    5.093200   -3.477400
  H     -0.995900    3.740390   -5.000650
  H     -0.643580    3.201910   -3.351530
  H     -1.737040    5.933840   -4.138530
  H     -1.403380    5.417590   -2.502910
  H     -2.673350    4.644790   -3.421080

 Total Charge           Charge          ....    0
 Multiplicity           Mult            ....    1
 Number of Electrons    NEL             ....   26
 Basis Dimension        Dim             ....  183

ORBITAL ENERGIES
----------------

  NO   OCC          E(Eh)            E(eV)
   0   2.0000     -10.152981      -276.2767
   1   2.0000     -10.144708      -276.0516
   2   2.0000     -10.126354      -275.5521
   3   2.0000      -0.790310       -21.5054
   4   2.0000      -0.689663       -18.7667
   5   2.0000      -0.583909       -15.8890
   6   2.0000      -0.468836       -12.7577
   7   2.0000      -0.444047       -12.0831
   8   2.0000      -0.401841       -10.9346
   9   2.0000      -0.391656       -10.6575
  10   2.0000      -0.336781        -9.1643
  11   2.0000      -0.334113        -9.0917
  12   2.0000      -0.326585        -8.8868
  13   0.0000       0.012745         0.3468
  14   0.0000       0.036644         0.9971
  15   0.0000       0.040038         1.0895
  16   0.0000       0.058538         1.5929
  17   0.0000       0.080900         2.2014

MULLIKEN ATOMIC CHARGES
-----------------------
   0 C :    0.077387
   1 C :   -1.225991
   2 H :    0.315098
   3 H :    0.327287
   4 H :    0.323604
   5 C :   -1.066828
   6 H :    0.212689
   7 H :    0.187080
   8 H :    0.285534
   9 H :    0.289240
  10 H :    0.274899
Sum of atomic charges:   -0.0000000

LOEWDIN ATOMIC CHARGES
----------------------
   0 C :   -0.313924
   1 C :   -0.123185
   2 H :    0.053574
   3 H :    0.049938
   4 H :    0.054989
   5 C :   -0.110616
   6 H :    0.100735
   7 H :    0.100916
   8 H :    0.063902
   9 H :    0.064987
  10 H :    0.058685

  Mayer bond orders larger than 0.100000
B(  0-C ,  1-C ) :   0.6134 B(  0-C ,  5-C ) :   0.6195 B(  0-C ,  6-H ) :   0.9837
B(  0-C ,  7-H ) :   0.9919 B(  1-C ,  2-H ) :   0.9442 B(  1-C ,  3-H ) :   0.9638
B(  1-C ,  4-H ) :   0.9687 B(  1-C ,  5-C ) :   0.1241 B(  5-C ,  8-H ) :   0.9846
B(  5-C ,  9-H ) :   0.9822 B(  5-C , 10-H ) :   0.9941

Dispersion correction           -0.010106681
FINAL SINGLE POINT ENERGY      -119.094087612120

DIPOLE MOMENT
-------------
                                X             Y             Z
Electronic contribution:     -0.13610      -0.30919      -0.13758
Nuclear contribution   :      0.16058       0.27975       0.12812
                        -----------------------------------------
Total Dipole Moment    :      0.02448      -0.02944      -0.00947
                        -----------------------------------------
Magnitude (a.u.)       :      0.03944
Magnitude (Debye)      :      0.10025

Rotational constants in cm-1:     1.027122     0.293327     0.260229
Rotational constants in MHz : 30792.337141  8793.723318  7801.458329

                             ****ORCA TERMINATED NORMALLY****
TOTAL RUN TIME: 0 days 0 hours 0 minutes 18 seconds 852 msec
