                         Program Version 5.0.0 -  RELEASE  -
|  1> !B3LYP D3BJ RIJCOSX def2-TZVPD def2/J TightSCF xyzfile
|  2>
|  3> *xyzfile 0 1 D.xyz
|  4>
|  5> %MaxCore 64000
|  6>
|  7> %pal nprocs 4
|  8> end
|  9>
| 10> %scf
| 11>   MaxIter 150
| 12> end
| 13>
| 14>
| 15>                          ****END OF INPUT****

CARTESIAN COORDINATES (ANGSTROEM)
---------------------------------
  C     -0.701686    4.072499   -4.003920
  C      0.680528    4.614820   -4.048005
  C      1.444422    5.266576   -0.975463
  F      1.565248    4.233493   -1.864885
  H      0.699926    5.584890   -4.388272
  H      1.278044    4.055977   -4.668235
  H      1.085729    4.533581   -3.106524
  C     -1.703475    5.093197   -3.477396
  H     -0.995895    3.740394   -5.000654
  H     -0.643580    3.201910   -3.351533
  C     -1.313997    5.785995   -2.169271
  H     -1.877057    5.850103   -4.251154
  H     -2.653264    4.564475   -3.354796
  H     -2.097137    6.509395   -1.929558
  H     -0.416875    6.387594   -2.339097
  C     -1.073895    4.844728   -0.979904
  H     -1.968893    4.809608   -0.352568
  C      0.148120    5.210874   -0.138092
  H     -0.909754    3.827531   -1.338975
  H      1.474250    6.264638   -1.476917
  H      2.289622    5.303267   -0.264450
  H      0.261827    4.450942    0.640711
  H     -0.002516    6.171031    0.371483

 Total Charge           Charge          ....    0
 Multiplicity           Mult            ....    1
 Number of Electrons    NEL             ....   66
 Basis Dimension        Dim             ....  434

ORBITAL ENERGIES
----------------

  NO   OCC          E(Eh)            E(eV)
   0   2.0000     -24.689164      -671.8263
   1   2.0000     -10.255210      -279.0585
   2   2.0000     -10.178092      -276.9600
   3   2.0000     -10.163536      -276.5639
   4   2.0000     -10.156960      -276.3849
   5   2.0000     -10.150088      -276.1979
   6   2.0000     -10.137228      -275.8480
   7   2.0000     -10.083215      -274.3782
   8   2.0000      -1.233533       -33.5661
   9   2.0000      -0.812915       -22.1205
  10   2.0000      -0.782875       -21.3031
  11   2.0000      -0.722997       -19.6737
  12   2.0000      -0.690339       -18.7851
  13   2.0000      -0.630222       -17.1492
  14   2.0000      -0.596534       -16.2325
  15   2.0000      -0.542692       -14.7674
  16   2.0000      -0.536198       -14.5907
  17   2.0000      -0.520348       -14.1594
  18   2.0000      -0.492695       -13.4069
  19   2.0000      -0.458510       -12.4767
  20   2.0000      -0.451585       -12.2883
  21   2.0000      -0.428264       -11.6536
  22   2.0000      -0.414046       -11.2668
  23   2.0000      -0.388950       -10.5839
  24   2.0000      -0.380844       -10.3633
  25   2.0000      -0.368732       -10.0337
  26   2.0000      -0.359637        -9.7862
  27   2.0000      -0.340878        -9.2758
  28   2.0000      -0.330538        -8.9944
  29   2.0000      -0.315310        -8.5800
  30   2.0000      -0.303627        -8.2621
  31   2.0000      -0.301236        -8.1970
  32   2.0000      -0.277951        -7.5634
  33   0.0000       0.005421         0.1475
  34   0.0000       0.017836         0.4854
  35   0.0000       0.022317         0.6073
  36   0.0000       0.030620         0.8332
  37   0.0000       0.044702         1.2164

MULLIKEN ATOMIC CHARGES
-----------------------
   0 C :   -0.206657
   1 C :   -1.084799
   2 C :   -0.311516
   3 F :   -0.362100
   4 H :    0.319905
   5 H :    0.369955
   6 H :    0.179218
   7 C :   -0.460364
   8 H :    0.195247
   9 H :    0.238751
  10 C :   -0.474426
  11 H :    0.245118
  12 H :    0.182830
  13 H :    0.280740
  14 H :    0.209239
  15 C :   -0.359180
  16 H :    0.284656
  17 C :   -0.472809
  18 H :    0.189700
  19 H :    0.301742
  20 H :    0.248232
  21 H :    0.276000
  22 H :    0.210519
Sum of atomic charges:    0.0000000

LOEWDIN ATOMIC CHARGES
----------------------
   0 C :   -0.250903
   1 C :   -0.105502
   2 C :   -0.202526
   3 F :   -0.032454
   4 H :    0.063269
   5 H :    0.059069
   6 H :   -0.036487
   7 C :   -0.209238
   8 H :    0.103497
   9 H :    0.099020
  10 C :   -0.201253
  11 H :    0.109263
  12 H :    0.105210
  13 H :    0.106792
  14 H :    0.090309
  15 C :   -0.198084
  16 H :    0.110045
  17 C :   -0.172310
  18 H :    0.099045
  19 H :    0.122457
  20 H :    0.118795
  21 H :    0.105536
  22 H :    0.116450

  Mayer bond orders larger than 0.100000
B(  0-C ,  1-C ) :   0.5349 B(  0-C ,  7-C ) :   0.8745 B(  0-C ,  8-H ) :   1.0165
B(  0-C ,  9-H ) :   0.9354 B(  1-C ,  2-C ) :   0.1172 B(  1-C ,  3-F ) :   0.1118
B(  1-C ,  4-H ) :   1.0164 B(  1-C ,  5-H ) :   0.9764 B(  1-C ,  6-H ) :   1.0792
B(  1-C ,  7-C ) :   0.1212 B(  2-C ,  3-F ) :   0.7592 B(  2-C , 17-C ) :   0.8888
B(  2-C , 19-H ) :   0.9452 B(  2-C , 20-H ) :   0.9595 B(  3-F ,  6-H ) :  -0.1698
B(  7-C , 10-C ) :   0.9282 B(  7-C , 11-H ) :   0.9474 B(  7-C , 12-H ) :   0.9776
B(  7-C , 15-C ) :   0.1456 B( 10-C , 13-H ) :   0.9326 B( 10-C , 14-H ) :   1.0155
B( 10-C , 15-C ) :   0.7536 B( 10-C , 17-C ) :   0.1705 B( 15-C , 16-H ) :   0.9520
B( 15-C , 17-C ) :   0.8506 B( 15-C , 18-H ) :   1.0117 B( 17-C , 21-H ) :   0.9317
B( 17-C , 22-H ) :   0.9901

Dispersion correction           -0.034913072
FINAL SINGLE POINT ENERGY      -375.503164914778

DIPOLE MOMENT
-------------
                                X             Y             Z
Electronic contribution:      5.12959      -2.27323       2.77426
Nuclear contribution   :     -5.08831       2.68947      -1.99048
                        -----------------------------------------
Total Dipole Moment    :      0.04128       0.41625       0.78379
                        -----------------------------------------
Magnitude (a.u.)       :      0.88842
Magnitude (Debye)      :      2.25818

Rotational constants in cm-1:     0.084646     0.055672     0.038419
Rotational constants in MHz :  2537.625105  1668.992890  1151.781380

                             ****ORCA TERMINATED NORMALLY****
TOTAL RUN TIME: 0 days 0 hours 2 minutes 7 seconds 240 msec
