                         Program Version 5.0.0 -  RELEASE  -
|  1> !TPSS D3BJ RIJCOSX def2-SVP def2/J TightSCF
|  2> *xyz -1 1
|  3> C         -0.77455        2.78833       -0.54394
|  4> C          0.69721        3.22791       -0.52513
|  5> O          1.48929        2.37470        0.19919
|  6> H          0.71600        4.26403       -0.13077
|  7> H          1.03615        3.33092       -1.58367
|  8> H         -1.34746        3.48478       -1.11982
|  9> H         -1.15078        2.75876        0.45729
| 10> H         -0.85058        1.81526       -0.98241
| 11> *
| 12>
| 13> %MaxCore 64000
| 14> %pal nprocs 4
| 15> end
| 16>
| 17> %scf
| 18>   MaxIter 150
| 19> end
| 20>
| 21>
| 22>                          ****END OF INPUT****

CARTESIAN COORDINATES (ANGSTROEM)
---------------------------------
  C     -0.774550    2.788330   -0.543940
  C      0.697210    3.227910   -0.525130
  O      1.489290    2.374700    0.199190
  H      0.716000    4.264030   -0.130770
  H      1.036150    3.330920   -1.583670
  H     -1.347460    3.484780   -1.119820
  H     -1.150780    2.758760    0.457290
  H     -0.850580    1.815260   -0.982410

 Total Charge           Charge          ....   -1
 Multiplicity           Mult            ....    1
 Number of Electrons    NEL             ....   26
 Basis Dimension        Dim             ....   67

ORBITAL ENERGIES
----------------

  NO   OCC          E(Eh)            E(eV)
   0   2.0000     -18.512765      -503.7579
   1   2.0000      -9.788846      -266.3681
   2   2.0000      -9.777232      -266.0520
   3   2.0000      -0.562411       -15.3040
   4   2.0000      -0.443089       -12.0571
   5   2.0000      -0.296700        -8.0736
   6   2.0000      -0.190025        -5.1708
   7   2.0000      -0.168940        -4.5971
   8   2.0000      -0.112693        -3.0665
   9   2.0000      -0.097994        -2.6666
  10   2.0000      -0.026772        -0.7285
  11   2.0000       0.115911         3.1541
  12   2.0000       0.119440         3.2501
  13   0.0000       0.243839         6.6352
  14   0.0000       0.284518         7.7421
  15   0.0000       0.296103         8.0574
  16   0.0000       0.305872         8.3232
  17   0.0000       0.346365         9.4251

MULLIKEN ATOMIC CHARGES
-----------------------
   0 C :    0.084909
   1 C :    0.236161
   2 O :   -0.684376
   3 H :   -0.175675
   4 H :   -0.176511
   5 H :   -0.138757
   6 H :   -0.072284
   7 H :   -0.073468
Sum of atomic charges:   -1.0000000

LOEWDIN ATOMIC CHARGES
----------------------
   0 C :   -0.099709
   1 C :    0.012208
   2 O :   -0.640678
   3 H :   -0.089579
   4 H :   -0.090612
   5 H :   -0.048099
   6 H :   -0.021406
   7 H :   -0.022125

  Mayer bond orders larger than 0.100000
B(  0-C ,  1-C ) :   0.9976 B(  0-C ,  2-O ) :  -0.1009 B(  0-C ,  5-H ) :   0.8956
B(  0-C ,  6-H ) :   0.9524 B(  0-C ,  7-H ) :   0.9516 B(  1-C ,  2-O ) :   1.5112
B(  1-C ,  3-H ) :   0.8521 B(  1-C ,  4-H ) :   0.8507 B(  2-O ,  5-H ) :   0.1020

Dispersion correction           -0.004556434
FINAL SINGLE POINT ENERGY      -154.304156771394

DIPOLE MOMENT
-------------
                                X             Y             Z
Electronic contribution:      2.72664      -1.32325       1.43708
Nuclear contribution   :     -3.69910       1.55962      -1.78699
                        -----------------------------------------
Total Dipole Moment    :     -0.97245       0.23638      -0.34991
                        -----------------------------------------
Magnitude (a.u.)       :      1.06018
Magnitude (Debye)      :      2.69475

Rotational constants in cm-1:     1.268893     0.327436     0.287754
Rotational constants in MHz : 38040.440181  9816.269339  8626.646564

                             ****ORCA TERMINATED NORMALLY****
TOTAL RUN TIME: 0 days 0 hours 0 minutes 6 seconds 672 msec
