                         Program Version 5.0.0 -  RELEASE  -
|  1> !TPSS D3BJ RIJCOSX def2-SVP def2/J TightSCF
|  2> *xyz 1 1
|  3> C          3.95643        0.50147       -0.37910
|  4> H          3.16840        0.02920        0.20738
|  5> N          3.80389        1.96157       -0.15675
|  6> C          3.84232        0.14849       -1.85406
|  7> H          4.92323        0.17798        0.00937
|  8> H          4.20643        2.24441        0.74536
|  9> H          2.80827        2.21132       -0.09610
| 10> H          4.28076        2.50155       -0.89104
| 11> H          4.62951        0.62800       -2.39748
| 12> H          2.89665        0.48102       -2.22825
| 13> H          3.92053       -0.91187       -1.97413
| 14> *
| 15>
| 16> %MaxCore 64000
| 17> %pal nprocs 4
| 18> end
| 19>
| 20> %scf
| 21>   MaxIter 150
| 22> end
| 23>
| 24>
| 25>                          ****END OF INPUT****

CARTESIAN COORDINATES (ANGSTROEM)
---------------------------------
  C      3.956430    0.501470   -0.379100
  H      3.168400    0.029200    0.207380
  N      3.803890    1.961570   -0.156750
  C      3.842320    0.148490   -1.854060
  H      4.923230    0.177980    0.009370
  H      4.206430    2.244410    0.745360
  H      2.808270    2.211320   -0.096100
  H      4.280760    2.501550   -0.891040
  H      4.629510    0.628000   -2.397480
  H      2.896650    0.481020   -2.228250
  H      3.920530   -0.911870   -1.974130

 Total Charge           Charge          ....    1
 Multiplicity           Mult            ....    1
 Number of Electrons    NEL             ....   26
 Basis Dimension        Dim             ....   82

ORBITAL ENERGIES
----------------

  NO   OCC          E(Eh)            E(eV)
   0   2.0000     -14.455594      -393.3567
   1   2.0000     -10.254209      -279.0312
   2   2.0000     -10.178869      -276.9811
   3   2.0000      -1.150100       -31.2958
   4   2.0000      -0.906428       -24.6652
   5   2.0000      -0.793056       -21.5802
   6   2.0000      -0.761115       -20.7110
   7   2.0000      -0.743202       -20.2236
   8   2.0000      -0.657280       -17.8855
   9   2.0000      -0.603828       -16.4310
  10   2.0000      -0.544930       -14.8283
  11   2.0000      -0.531521       -14.4634
  12   2.0000      -0.515810       -14.0359
  13   0.0000      -0.197761        -5.3814
  14   0.0000      -0.144248        -3.9252
  15   0.0000      -0.137761        -3.7487
  16   0.0000      -0.104713        -2.8494
  17   0.0000      -0.067849        -1.8463

MULLIKEN ATOMIC CHARGES
-----------------------
   0 C :   -0.045991
   1 H :    0.097643
   2 N :    0.029217
   3 C :   -0.025322
   4 H :    0.104457
   5 H :    0.208077
   6 H :    0.211626
   7 H :    0.207278
   8 H :    0.061308
   9 H :    0.057101
  10 H :    0.094605
Sum of atomic charges:    1.0000000

LOEWDIN ATOMIC CHARGES
----------------------
   0 C :    0.055105
   1 H :    0.050870
   2 N :    0.303330
   3 C :   -0.028138
   4 H :    0.052998
   5 H :    0.145105
   6 H :    0.145500
   7 H :    0.141027
   8 H :    0.036823
   9 H :    0.035941
  10 H :    0.061439

  Mayer bond orders larger than 0.100000
B(  0-C ,  1-H ) :   0.9505 B(  0-C ,  2-N ) :   0.9293 B(  0-C ,  3-C ) :   1.1038
B(  0-C ,  4-H ) :   0.9516 B(  2-N ,  5-H ) :   0.9347 B(  2-N ,  6-H ) :   0.9372
B(  2-N ,  7-H ) :   0.9331 B(  3-C ,  8-H ) :   0.9656 B(  3-C ,  9-H ) :   0.9701
B(  3-C , 10-H ) :   0.9562

Dispersion correction           -0.007447576
FINAL SINGLE POINT ENERGY      -135.462757004244

DIPOLE MOMENT
-------------
                                X             Y             Z
Electronic contribution:     -0.01439       1.38083       1.26905
Nuclear contribution   :     -0.06214      -0.04120      -0.39947
                        -----------------------------------------
Total Dipole Moment    :     -0.07653       1.33963       0.86958
                        -----------------------------------------
Magnitude (a.u.)       :      1.59895
Magnitude (Debye)      :      4.06420

Rotational constants in cm-1:     1.011771     0.281435     0.249812
Rotational constants in MHz : 30332.138762  8437.210602  7489.166323

                             ****ORCA TERMINATED NORMALLY****
TOTAL RUN TIME: 0 days 0 hours 0 minutes 7 seconds 198 msec
