                         Program Version 5.0.0 -  RELEASE  -
|  1> !TPSS D3BJ RIJCOSX def2-SVP def2/J TightSCF
|  2> *xyz 0 1
|  3> C         -0.77455        2.78833       -0.54394
|  4> C          0.69721        3.22791       -0.52513
|  5> F          1.48929        2.37470        0.19919
|  6> H          0.71600        4.26403       -0.13077
|  7> H          1.03615        3.33092       -1.58367
|  8> H         -1.34746        3.48478       -1.11982
|  9> H         -1.15078        2.75876        0.45729
| 10> H         -0.85058        1.81526       -0.98241
| 11> *
| 12>
| 13> %MaxCore 64000
| 14> %pal nprocs 4
| 15> end
| 16>
| 17> %scf
| 18>   MaxIter 150
| 19> end
| 20>
| 21>
| 22>                          ****END OF INPUT****

CARTESIAN COORDINATES (ANGSTROEM)
---------------------------------
  C     -0.774550    2.788330   -0.543940
  C      0.697210    3.227910   -0.525130
  F      1.489290    2.374700    0.199190
  H      0.716000    4.264030   -0.130770
  H      1.036150    3.330920   -1.583670
  H     -1.347460    3.484780   -1.119820
  H     -1.150780    2.758760    0.457290
  H     -0.850580    1.815260   -0.982410

 Total Charge           Charge          ....    0
 Multiplicity           Mult            ....    1
 Number of Electrons    NEL             ....   26
 Basis Dimension        Dim             ....   67

ORBITAL ENERGIES
----------------

  NO   OCC          E(Eh)            E(eV)
   0   2.0000     -24.392093      -663.7426
   1   2.0000     -10.072454      -274.0854
   2   2.0000      -9.995740      -271.9979
   3   2.0000      -1.089329       -29.6422
   4   2.0000      -0.697626       -18.9834
   5   2.0000      -0.569176       -15.4881
   6   2.0000      -0.449135       -12.2216
   7   2.0000      -0.439324       -11.9546
   8   2.0000      -0.397790       -10.8244
   9   2.0000      -0.358176        -9.7465
  10   2.0000      -0.353019        -9.6061
  11   2.0000      -0.280813        -7.6413
  12   2.0000      -0.278925        -7.5899
  13   0.0000       0.054057         1.4710
  14   0.0000       0.097085         2.6418
  15   0.0000       0.101733         2.7683
  16   0.0000       0.110479         3.0063
  17   0.0000       0.130378         3.5478

MULLIKEN ATOMIC CHARGES
-----------------------
   0 C :   -0.041801
   1 C :    0.211801
   2 F :   -0.255865
   3 H :    0.007907
   4 H :    0.009579
   5 H :    0.014920
   6 H :    0.026864
   7 H :    0.026594
Sum of atomic charges:   -0.0000000

LOEWDIN ATOMIC CHARGES
----------------------
   0 C :   -0.062273
   1 C :    0.110959
   2 F :   -0.129113
   3 H :    0.005405
   4 H :    0.006418
   5 H :    0.025840
   6 H :    0.021552
   7 H :    0.021213

  Mayer bond orders larger than 0.100000
B(  0-C ,  1-C ) :   1.0961 B(  0-C ,  5-H ) :   0.9574 B(  0-C ,  6-H ) :   0.9705
B(  0-C ,  7-H ) :   0.9707 B(  1-C ,  2-F ) :   1.0092 B(  1-C ,  3-H ) :   0.9527
B(  1-C ,  4-H ) :   0.9524

Dispersion correction           -0.004202318
FINAL SINGLE POINT ENERGY      -178.945168086812

DIPOLE MOMENT
-------------
                                X             Y             Z
Electronic contribution:      4.47419      -1.69746       2.04229
Nuclear contribution   :     -4.89513       2.05627      -2.36166
                        -----------------------------------------
Total Dipole Moment    :     -0.42094       0.35881      -0.31938
                        -----------------------------------------
Magnitude (a.u.)       :      0.63870
Magnitude (Debye)      :      1.62345

Rotational constants in cm-1:     1.247826     0.304622     0.269019
Rotational constants in MHz : 37408.889506  9132.346906  8064.979146

                             ****ORCA TERMINATED NORMALLY****
TOTAL RUN TIME: 0 days 0 hours 0 minutes 6 seconds 371 msec
