                         Program Version 5.0.0 -  RELEASE  -
|  1> !TPSS D3BJ RIJCOSX def2-SVP def2/J TightSCF
|  2> *xyz 0 1
|  3> C          3.95643        0.50147       -0.37910
|  4> H          3.16840        0.02920        0.20738
|  5> C          3.80389        1.96157       -0.15675
|  6> C          3.84232        0.14849       -1.85406
|  7> H          4.92323        0.17798        0.00937
|  8> H          4.20643        2.24441        0.74536
|  9> H          2.80827        2.21132       -0.09610
| 10> H          4.28076        2.50155       -0.89104
| 11> H          4.62951        0.62800       -2.39748
| 12> H          2.89665        0.48102       -2.22825
| 13> H          3.92053       -0.91187       -1.97413
| 14> *
| 15>
| 16> %MaxCore 64000
| 17> %pal nprocs 4
| 18> end
| 19>
| 20> %scf
| 21>   MaxIter 150
| 22> end
| 23>
| 24>
| 25>                          ****END OF INPUT****

CARTESIAN COORDINATES (ANGSTROEM)
---------------------------------
  C      3.956430    0.501470   -0.379100
  H      3.168400    0.029200    0.207380
  C      3.803890    1.961570   -0.156750
  C      3.842320    0.148490   -1.854060
  H      4.923230    0.177980    0.009370
  H      4.206430    2.244410    0.745360
  H      2.808270    2.211320   -0.096100
  H      4.280760    2.501550   -0.891040
  H      4.629510    0.628000   -2.397480
  H      2.896650    0.481020   -2.228250
  H      3.920530   -0.911870   -1.974130

 Total Charge           Charge          ....    0
 Multiplicity           Mult            ....    1
 Number of Electrons    NEL             ....   26
 Basis Dimension        Dim             ....   82

ORBITAL ENERGIES
----------------

  NO   OCC          E(Eh)            E(eV)
   0   2.0000      -9.985009      -271.7059
   1   2.0000      -9.980347      -271.5790
   2   2.0000      -9.963529      -271.1214
   3   2.0000      -0.725581       -19.7441
   4   2.0000      -0.629687       -17.1346
   5   2.0000      -0.530759       -14.4427
   6   2.0000      -0.424404       -11.5486
   7   2.0000      -0.401578       -10.9275
   8   2.0000      -0.360586        -9.8120
   9   2.0000      -0.350533        -9.5385
  10   2.0000      -0.298132        -8.1126
  11   2.0000      -0.296692        -8.0734
  12   2.0000      -0.288699        -7.8559
  13   0.0000       0.054642         1.4869
  14   0.0000       0.098110         2.6697
  15   0.0000       0.101549         2.7633
  16   0.0000       0.106855         2.9077
  17   0.0000       0.134205         3.6519

MULLIKEN ATOMIC CHARGES
-----------------------
   0 C :   -0.091802
   1 H :    0.007295
   2 C :    0.079760
   3 C :    0.009891
   4 H :    0.008429
   5 H :   -0.017335
   6 H :   -0.009845
   7 H :   -0.013517
   8 H :    0.010369
   9 H :    0.007974
  10 H :    0.008781
Sum of atomic charges:    0.0000000

LOEWDIN ATOMIC CHARGES
----------------------
   0 C :   -0.035929
   1 H :    0.016535
   2 C :   -0.034380
   3 C :   -0.041325
   4 H :    0.014836
   5 H :    0.012074
   6 H :    0.011740
   7 H :    0.008597
   8 H :    0.015876
   9 H :    0.015684
  10 H :    0.016292

  Mayer bond orders larger than 0.100000
B(  0-C ,  1-H ) :   0.9538 B(  0-C ,  2-C ) :   1.1119 B(  0-C ,  3-C ) :   1.1082
B(  0-C ,  4-H ) :   0.9553 B(  2-C ,  5-H ) :   0.9578 B(  2-C ,  6-H ) :   0.9674
B(  2-C ,  7-H ) :   0.9688 B(  3-C ,  8-H ) :   0.9708 B(  3-C ,  9-H ) :   0.9737
B(  3-C , 10-H ) :   0.9680

Dispersion correction           -0.007471764
FINAL SINGLE POINT ENERGY      -119.065131850342

DIPOLE MOMENT
-------------
                                X             Y             Z
Electronic contribution:      0.07877      -0.28986       0.22193
Nuclear contribution   :     -0.08172       0.30475      -0.19303
                        -----------------------------------------
Total Dipole Moment    :     -0.00295       0.01489       0.02890
                        -----------------------------------------
Magnitude (a.u.)       :      0.03264
Magnitude (Debye)      :      0.08297

Rotational constants in cm-1:     1.020248     0.295755     0.261591
Rotational constants in MHz : 30586.266829  8866.511639  7842.297953

                             ****ORCA TERMINATED NORMALLY****
TOTAL RUN TIME: 0 days 0 hours 0 minutes 7 seconds 613 msec
