                         Program Version 5.0.0 -  RELEASE  -
|  1> !wB97X-D3 RIJCOSX def2-SVPD def2/J TightSCF CPCM(Water)
|  2> * xyz -1 1
|  3> C         -4.99100        1.96800        2.18000
|  4> O         -5.06400        1.07900        3.01200
|  5> N         -6.07000        2.34200        1.45100
|  6> C         -7.35500        1.67300        1.69600
|  7> C         -7.27200        0.15600        1.55100
|  8> O         -7.54200       -0.50100        2.54400
|  9> C         -8.58000        2.23900        0.91700
| 10> C         -9.05400        3.62500        1.44000
| 11> C         -7.97200        4.66700        1.33200
| 12> O         -7.89100        5.32200        0.26000
| 13> O         -7.19600        4.83900        2.31300
| 14> H         -6.00400        3.09700        0.79200
| 15> H         -7.59300        1.86000        2.76400
| 16> H         -8.35300        2.32300       -0.15800
| 17> H         -9.42800        1.54200        1.03400
| 18> H         -9.91600        3.96200        0.83900
| 19> H         -9.38500        3.56000        2.49000
| 20> N         -6.92900       -0.49900        0.41300
| 21> H         -4.08861        2.44516        2.02823
| 22> H         -6.70723        0.00988       -0.40008
| 23> H         -6.90194       -1.48305        0.40052
| 24> *
| 25> %MaxCore 64000
| 26> %scf
| 27>   Convergence VeryTight
| 28>   MaxIter 400
| 29> end
| 30> %pal nprocs 4
| 31> end
| 32>
| 33>                          ****END OF INPUT****

CARTESIAN COORDINATES (ANGSTROEM)
---------------------------------
  C     -4.991000    1.968000    2.180000
  O     -5.064000    1.079000    3.012000
  N     -6.070000    2.342000    1.451000
  C     -7.355000    1.673000    1.696000
  C     -7.272000    0.156000    1.551000
  O     -7.542000   -0.501000    2.544000
  C     -8.580000    2.239000    0.917000
  C     -9.054000    3.625000    1.440000
  C     -7.972000    4.667000    1.332000
  O     -7.891000    5.322000    0.260000
  O     -7.196000    4.839000    2.313000
  H     -6.004000    3.097000    0.792000
  H     -7.593000    1.860000    2.764000
  H     -8.353000    2.323000   -0.158000
  H     -9.428000    1.542000    1.034000
  H     -9.916000    3.962000    0.839000
  H     -9.385000    3.560000    2.490000
  N     -6.929000   -0.499000    0.413000
  H     -4.088610    2.445160    2.028230
  H     -6.707230    0.009880   -0.400080
  H     -6.901940   -1.483050    0.400520

 Total Charge           Charge          ....   -1
 Multiplicity           Mult            ....    1
 Number of Electrons    NEL             ....   92
 Basis Dimension        Dim             ....  324

ORBITAL ENERGIES
----------------

  NO   OCC          E(Eh)            E(eV)
   0   2.0000     -19.221432      -523.0417
   1   2.0000     -19.214625      -522.8565
   2   2.0000     -19.180532      -521.9288
   3   2.0000     -19.177963      -521.8589
   4   2.0000     -14.467406      -393.6781
   5   2.0000     -14.453941      -393.3117
   6   2.0000     -10.403467      -283.0927
   7   2.0000     -10.390698      -282.7453
   8   2.0000     -10.368787      -282.1491
   9   2.0000     -10.346538      -281.5436
  10   2.0000     -10.307297      -280.4758
  11   2.0000     -10.282496      -279.8009
  12   2.0000      -1.160882       -31.5892
  13   2.0000      -1.149166       -31.2704
  14   2.0000      -1.126038       -30.6411
  15   2.0000      -1.036052       -28.1924
  16   2.0000      -1.026277       -27.9264
  17   2.0000      -1.011630       -27.5279
  18   2.0000      -0.902262       -24.5518
  19   2.0000      -0.828066       -22.5328
  20   2.0000      -0.735922       -20.0254
  21   2.0000      -0.726355       -19.7651
  22   2.0000      -0.692355       -18.8400
  23   2.0000      -0.657792       -17.8994
  24   2.0000      -0.646523       -17.5928
  25   2.0000      -0.604314       -16.4442
  26   2.0000      -0.591612       -16.0986
  27   2.0000      -0.576560       -15.6890
  28   2.0000      -0.547559       -14.8998
  29   2.0000      -0.539166       -14.6715
  30   2.0000      -0.534162       -14.5353
  31   2.0000      -0.530141       -14.4259
  32   2.0000      -0.512042       -13.9334
  33   2.0000      -0.499529       -13.5929
  34   2.0000      -0.497317       -13.5327
  35   2.0000      -0.474846       -12.9212
  36   2.0000      -0.471079       -12.8187
  37   2.0000      -0.439277       -11.9533
  38   2.0000      -0.436272       -11.8716
  39   2.0000      -0.377560       -10.2739
  40   2.0000      -0.372646       -10.1402
  41   2.0000      -0.363592        -9.8939
  42   2.0000      -0.353253        -9.6125
  43   2.0000      -0.338276        -9.2049
  44   2.0000      -0.335373        -9.1260
  45   2.0000      -0.322206        -8.7677
  46   0.0000       0.083308         2.2669
  47   0.0000       0.089000         2.4218
  48   0.0000       0.096014         2.6127
  49   0.0000       0.105506         2.8710
  50   0.0000       0.107413         2.9229

MULLIKEN ATOMIC CHARGES
-----------------------
   0 C :    0.936354
   1 O :   -0.450086
   2 N :    0.086938
   3 C :   -0.105711
   4 C :    0.360005
   5 O :   -0.547656
   6 C :    0.142394
   7 C :    0.266927
   8 C :    0.365729
   9 O :   -0.695762
  10 O :   -0.696353
  11 H :   -0.363127
  12 H :    0.066772
  13 H :   -0.021170
  14 H :    0.042399
  15 H :   -0.003332
  16 H :    0.035424
  17 N :    0.476894
  18 H :   -0.605576
  19 H :   -0.126532
  20 H :   -0.164530
Sum of atomic charges:   -1.0000000

LOEWDIN ATOMIC CHARGES
----------------------
   0 C :    0.069873
   1 O :   -0.255489
   2 N :    0.061210
   3 C :   -0.031034
   4 C :   -0.136865
   5 O :   -0.264159
   6 C :    0.044366
   7 C :    0.016838
   8 C :   -0.333036
   9 O :   -0.358638
  10 O :   -0.359284
  11 H :    0.034280
  12 H :    0.060168
  13 H :    0.035720
  14 H :    0.040364
  15 H :    0.029822
  16 H :    0.031532
  17 N :    0.280345
  18 H :    0.016109
  19 H :    0.006101
  20 H :    0.011778

  Mayer bond orders larger than 0.100000
B(  0-C ,  1-O ) :   1.7011 B(  0-C ,  2-N ) :   1.0936 B(  0-C ,  3-C ) :   0.1117
B(  0-C , 11-H ) :  -0.2440 B(  0-C , 18-H ) :   1.0102 B(  1-O , 18-H ) :  -0.1102
B(  2-N ,  3-C ) :   0.8467 B(  2-N , 11-H ) :   1.2075 B(  2-N , 12-H ) :   0.2613
B(  2-N , 18-H ) :  -0.1446 B(  3-C ,  4-C ) :   1.0202 B(  3-C ,  6-C ) :   1.2741
B(  3-C , 11-H ) :  -0.1172 B(  3-C , 12-H ) :   0.8538 B(  3-C , 13-H ) :   0.2637
B(  3-C , 14-H ) :   0.1944 B(  4-C ,  5-O ) :   1.6044 B(  4-C , 17-N ) :   1.4685
B(  4-C , 20-H ) :   0.1336 B(  5-O , 17-N ) :   0.1133 B(  6-C ,  7-C ) :   1.1875
B(  6-C , 13-H ) :   0.8246 B(  6-C , 14-H ) :   0.8039 B(  6-C , 15-H ) :   0.2229
B(  6-C , 16-H ) :   0.1174 B(  7-C ,  8-C ) :   0.9938 B(  7-C , 15-H ) :   0.7990
B(  7-C , 16-H ) :   0.8353 B(  8-C ,  9-O ) :   1.5188 B(  8-C , 10-O ) :   1.5360
B(  8-C , 15-H ) :   0.1220 B(  8-C , 16-H ) :   0.1361 B(  9-O , 10-O ) :   0.1179
B( 17-N , 19-H ) :   1.1133 B( 17-N , 20-H ) :   1.0888 B( 19-H , 20-H ) :  -0.1264

Dispersion correction           -0.009464076
FINAL SINGLE POINT ENERGY      -644.067804226376

DIPOLE MOMENT
-------------
                                X             Y             Z
Electronic contribution:      3.79443      -1.11280       1.57957
Nuclear contribution   :     -3.79470      -2.62319      -4.23276
                        -----------------------------------------
Total Dipole Moment    :     -0.00027      -3.73599      -2.65319
                        -----------------------------------------
Magnitude (a.u.)       :      4.58225
Magnitude (Debye)      :     11.64716

Rotational constants in cm-1:     0.049792     0.020629     0.017097
Rotational constants in MHz :  1492.728682   618.455210   512.542017

                             ****ORCA TERMINATED NORMALLY****
TOTAL RUN TIME: 0 days 0 hours 2 minutes 28 seconds 324 msec
