                         Program Version 5.0.0 -  RELEASE  -
|  1> !wB97X-D3 RIJCOSX def2-SVPD def2/J TightSCF CPCM(Water)
|  2> * xyz 1 1
|  3> C         -1.57500        6.32600       -0.43200
|  4> O         -1.75300        5.23200        0.08000
|  5> N         -2.52300        7.28900       -0.40500
|  6> C         -3.82700        7.01700        0.20700
|  7> C         -4.61300        5.97800       -0.57500
|  8> O         -5.28800        5.18100        0.05800
|  9> C         -4.59200        8.36400        0.37100
| 10> C         -6.01000        8.22600        1.00300
| 11> C         -7.13600        8.26100       -0.06800
| 12> N         -8.43900        8.07000        0.57500
| 13> C         -9.09500        9.01200        1.21400
| 14> N         -8.69500       10.25200        1.36600
| 15> N        -10.23900        8.63800        1.72700
| 16> H         -2.35700        8.18800       -0.81500
| 17> H         -3.66300        6.62700        1.22900
| 18> H         -3.97000        9.00100        1.02500
| 19> H         -4.66600        8.87500       -0.60100
| 20> H         -6.08000        7.29700        1.59000
| 21> H         -6.17500        9.05900        1.70400
| 22> H         -7.11400        9.18600       -0.66400
| 23> H         -6.95400        7.44200       -0.78200
| 24> H         -8.87200        7.13500        0.50700
| 25> H         -7.80900       10.58900        0.97300
| 26> H         -9.27300       10.92700        1.88900
| 27> H        -10.59900        7.67600        1.63600
| 28> H        -10.80200        9.33100        2.24000
| 29> N         -4.56100        5.91900       -1.92600
| 30> H         -0.67535        6.52091       -0.89854
| 31> H         -5.07993        5.23604       -2.40923
| 32> H         -4.00424        6.55904       -2.42560
| 33> *
| 34> %MaxCore 64000
| 35> %scf
| 36>   Convergence VeryTight
| 37>   MaxIter 400
| 38> end
| 39> %pal nprocs 4
| 40> end
| 41>
| 42>                          ****END OF INPUT****

CARTESIAN COORDINATES (ANGSTROEM)
---------------------------------
  C     -1.575000    6.326000   -0.432000
  O     -1.753000    5.232000    0.080000
  N     -2.523000    7.289000   -0.405000
  C     -3.827000    7.017000    0.207000
  C     -4.613000    5.978000   -0.575000
  O     -5.288000    5.181000    0.058000
  C     -4.592000    8.364000    0.371000
  C     -6.010000    8.226000    1.003000
  C     -7.136000    8.261000   -0.068000
  N     -8.439000    8.070000    0.575000
  C     -9.095000    9.012000    1.214000
  N     -8.695000   10.252000    1.366000
  N    -10.239000    8.638000    1.727000
  H     -2.357000    8.188000   -0.815000
  H     -3.663000    6.627000    1.229000
  H     -3.970000    9.001000    1.025000
  H     -4.666000    8.875000   -0.601000
  H     -6.080000    7.297000    1.590000
  H     -6.175000    9.059000    1.704000
  H     -7.114000    9.186000   -0.664000
  H     -6.954000    7.442000   -0.782000
  H     -8.872000    7.135000    0.507000
  H     -7.809000   10.589000    0.973000
  H     -9.273000   10.927000    1.889000
  H    -10.599000    7.676000    1.636000
  H    -10.802000    9.331000    2.240000
  N     -4.561000    5.919000   -1.926000
  H     -0.675350    6.520910   -0.898540
  H     -5.079930    5.236040   -2.409230
  H     -4.004240    6.559040   -2.425600

 Total Charge           Charge          ....    1
 Multiplicity           Mult            ....    1
 Number of Electrons    NEL             ....  108
 Basis Dimension        Dim             ....  414

ORBITAL ENERGIES
----------------

  NO   OCC          E(Eh)            E(eV)
   0   2.0000     -19.229588      -523.2637
   1   2.0000     -19.224946      -523.1374
   2   2.0000     -14.489558      -394.2809
   3   2.0000     -14.489042      -394.2669
   4   2.0000     -14.479357      -394.0033
   5   2.0000     -14.475024      -393.8854
   6   2.0000     -14.459674      -393.4677
   7   2.0000     -10.449832      -284.3544
   8   2.0000     -10.409665      -283.2614
   9   2.0000     -10.398113      -282.9470
  10   2.0000     -10.352204      -281.6978
  11   2.0000     -10.344333      -281.4836
  12   2.0000     -10.310323      -280.5582
  13   2.0000     -10.302867      -280.3553
  14   2.0000      -1.166498       -31.7420
  15   2.0000      -1.160395       -31.5760
  16   2.0000      -1.157487       -31.4968
  17   2.0000      -1.048120       -28.5208
  18   2.0000      -1.042210       -28.3600
  19   2.0000      -1.022758       -27.8307
  20   2.0000      -1.018683       -27.7198
  21   2.0000      -0.917149       -24.9569
  22   2.0000      -0.862651       -23.4739
  23   2.0000      -0.801248       -21.8031
  24   2.0000      -0.758277       -20.6338
  25   2.0000      -0.738107       -20.0849
  26   2.0000      -0.718868       -19.5614
  27   2.0000      -0.710360       -19.3299
  28   2.0000      -0.700252       -19.0548
  29   2.0000      -0.676776       -18.4160
  30   2.0000      -0.667774       -18.1711
  31   2.0000      -0.649431       -17.6719
  32   2.0000      -0.622290       -16.9334
  33   2.0000      -0.607304       -16.5256
  34   2.0000      -0.603718       -16.4280
  35   2.0000      -0.586932       -15.9712
  36   2.0000      -0.583058       -15.8658
  37   2.0000      -0.575790       -15.6680
  38   2.0000      -0.561718       -15.2851
  39   2.0000      -0.543822       -14.7982
  40   2.0000      -0.528563       -14.3829
  41   2.0000      -0.525489       -14.2993
  42   2.0000      -0.515755       -14.0344
  43   2.0000      -0.496674       -13.5152
  44   2.0000      -0.483259       -13.1501
  45   2.0000      -0.466056       -12.6820
  46   2.0000      -0.448225       -12.1968
  47   2.0000      -0.439540       -11.9605
  48   2.0000      -0.397396       -10.8137
  49   2.0000      -0.388943       -10.5837
  50   2.0000      -0.379800       -10.3349
  51   2.0000      -0.375370       -10.2143
  52   2.0000      -0.369620       -10.0579
  53   2.0000      -0.356632        -9.7044
  54   0.0000       0.074997         2.0408
  55   0.0000       0.082763         2.2521
  56   0.0000       0.087114         2.3705
  57   0.0000       0.094319         2.5666
  58   0.0000       0.096528         2.6267

MULLIKEN ATOMIC CHARGES
-----------------------
   0 C :    1.009461
   1 O :   -0.460936
   2 N :   -0.016289
   3 C :    0.279964
   4 C :   -0.037848
   5 O :   -0.491501
   6 C :    0.165030
   7 C :    0.183865
   8 C :    0.519209
   9 N :   -0.571540
  10 C :    1.472084
  11 N :   -0.210968
  12 N :   -0.228584
  13 H :   -0.335727
  14 H :    0.081191
  15 H :    0.054314
  16 H :    0.011519
  17 H :    0.035164
  18 H :   -0.009129
  19 H :    0.078088
  20 H :   -0.263157
  21 H :   -0.083428
  22 H :    0.074608
  23 H :   -0.037986
  24 H :    0.027016
  25 H :    0.052034
  26 N :    0.496130
  27 H :   -0.555480
  28 H :   -0.147466
  29 H :   -0.089639
Sum of atomic charges:    1.0000000

LOEWDIN ATOMIC CHARGES
----------------------
   0 C :    0.065518
   1 O :   -0.255836
   2 N :    0.050348
   3 C :   -0.037581
   4 C :   -0.139250
   5 O :   -0.248622
   6 C :    0.039719
   7 C :    0.007076
   8 C :    0.083997
   9 N :    0.037452
  10 C :   -0.072219
  11 N :    0.272812
  12 N :    0.237905
  13 H :    0.048947
  14 H :    0.069898
  15 H :    0.039650
  16 H :    0.034651
  17 H :    0.024017
  18 H :    0.016287
  19 H :    0.040493
  20 H :    0.030288
  21 H :    0.089417
  22 H :    0.043837
  23 H :    0.069836
  24 H :    0.065180
  25 H :    0.061079
  26 N :    0.286974
  27 H :    0.017195
  28 H :    0.016540
  29 H :    0.004394

  Mayer bond orders larger than 0.100000
B(  0-C ,  1-O ) :   1.7202 B(  0-C ,  2-N ) :   1.0652 B(  0-C ,  3-C ) :   0.1101
B(  0-C , 13-H ) :  -0.2502 B(  0-C , 27-H ) :   0.9553 B(  2-N ,  3-C ) :   0.6990
B(  2-N ,  6-C ) :   0.1914 B(  2-N , 13-H ) :   1.2914 B(  2-N , 14-H ) :   0.1146
B(  3-C ,  4-C ) :   1.0593 B(  3-C ,  6-C ) :   1.1155 B(  3-C ,  7-C ) :   0.1085
B(  3-C , 13-H ) :  -0.1886 B(  3-C , 14-H ) :   0.7533 B(  3-C , 16-H ) :   0.1469
B(  4-C ,  5-O ) :   1.4942 B(  4-C , 14-H ) :   0.3358 B(  4-C , 26-N ) :   1.4540
B(  4-C , 28-H ) :   0.1864 B(  5-O , 26-N ) :   0.1213 B(  6-C ,  7-C ) :   1.1921
B(  6-C , 15-H ) :   0.9172 B(  6-C , 16-H ) :   0.8038 B(  7-C ,  8-C ) :   1.1379
B(  7-C , 17-H ) :   0.8762 B(  7-C , 18-H ) :   0.8410 B(  7-C , 20-H ) :   0.1361
B(  8-C ,  9-N ) :   0.8482 B(  8-C , 17-H ) :   0.1276 B(  8-C , 18-H ) :   0.1244
B(  8-C , 19-H ) :   0.8947 B(  8-C , 20-H ) :   0.9161 B(  8-C , 21-H ) :  -0.1706
B(  9-N , 10-C ) :   0.8601 B(  9-N , 11-N ) :   0.2517 B(  9-N , 12-N ) :   0.3067
B(  9-N , 20-H ) :   0.1138 B(  9-N , 21-H ) :   1.3323 B( 10-C , 11-N ) :   0.8197
B( 10-C , 12-N ) :   0.7707 B( 10-C , 21-H ) :  -0.2434 B( 10-C , 22-H ) :  -0.1281
B( 10-C , 23-H ) :  -0.2066 B( 10-C , 24-H ) :  -0.1749 B( 10-C , 25-H ) :  -0.1206
B( 11-N , 12-N ) :   0.1741 B( 11-N , 22-H ) :   1.0656 B( 11-N , 23-H ) :   1.3359
B( 12-N , 24-H ) :   1.1809 B( 12-N , 25-H ) :   1.1909 B( 22-H , 23-H ) :  -0.1996
B( 24-H , 25-H ) :  -0.1662 B( 26-N , 28-H ) :   1.0815 B( 26-N , 29-H ) :   1.0684
B( 28-H , 29-H ) :  -0.1456

Dispersion correction           -0.012665087
FINAL SINGLE POINT ENERGY      -699.895988752275

DIPOLE MOMENT
-------------
                                X             Y             Z
Electronic contribution:      1.80854      -4.23565      -0.73736
Nuclear contribution   :     -7.62843      10.34601       0.53326
                        -----------------------------------------
Total Dipole Moment    :     -5.81989       6.11036      -0.20410
                        -----------------------------------------
Magnitude (a.u.)       :      8.44092
Magnitude (Debye)      :     21.45513

Rotational constants in cm-1:     0.056702     0.008659     0.008117
Rotational constants in MHz :  1699.880931   259.602734   243.335068

                             ****ORCA TERMINATED NORMALLY****
TOTAL RUN TIME: 0 days 0 hours 3 minutes 51 seconds 957 msec
