                         Program Version 5.0.0 -  RELEASE  -
|  1> !wB97X-D3 RIJCOSX def2-SVPD def2/J TightSCF CPCM(Water)
|  2> * xyz 0 1
|  3> C         -4.99100        1.96800        2.18000
|  4> O         -5.06400        1.07900        3.01200
|  5> N         -6.07000        2.34200        1.45100
|  6> C         -7.35500        1.67300        1.69600
|  7> C         -7.27200        0.15600        1.55100
|  8> O         -7.54200       -0.50100        2.54400
|  9> C         -8.58000        2.23900        0.91700
| 10> C         -9.05400        3.62500        1.44000
| 11> C         -7.97200        4.66700        1.33200
| 12> F         -7.89100        5.32200        0.26000
| 13> O         -7.19600        4.83900        2.31300
| 14> H         -6.00400        3.09700        0.79200
| 15> H         -7.59300        1.86000        2.76400
| 16> H         -8.35300        2.32300       -0.15800
| 17> H         -9.42800        1.54200        1.03400
| 18> H         -9.91600        3.96200        0.83900
| 19> H         -9.38500        3.56000        2.49000
| 20> N         -6.92900       -0.49900        0.41300
| 21> H         -4.08861        2.44516        2.02823
| 22> H         -6.70723        0.00988       -0.40008
| 23> H         -6.90194       -1.48305        0.40052
| 24> *
| 25> %MaxCore 64000
| 26> %scf
| 27>   Convergence VeryTight
| 28>   MaxIter 400
| 29> end
| 30> %pal nprocs 4
| 31> end
| 32>
| 33>                          ****END OF INPUT****

CARTESIAN COORDINATES (ANGSTROEM)
---------------------------------
  C     -4.991000    1.968000    2.180000
  O     -5.064000    1.079000    3.012000
  N     -6.070000    2.342000    1.451000
  C     -7.355000    1.673000    1.696000
  C     -7.272000    0.156000    1.551000
  O     -7.542000   -0.501000    2.544000
  C     -8.580000    2.239000    0.917000
  C     -9.054000    3.625000    1.440000
  C     -7.972000    4.667000    1.332000
  F     -7.891000    5.322000    0.260000
  O     -7.196000    4.839000    2.313000
  H     -6.004000    3.097000    0.792000
  H     -7.593000    1.860000    2.764000
  H     -8.353000    2.323000   -0.158000
  H     -9.428000    1.542000    1.034000
  H     -9.916000    3.962000    0.839000
  H     -9.385000    3.560000    2.490000
  N     -6.929000   -0.499000    0.413000
  H     -4.088610    2.445160    2.028230
  H     -6.707230    0.009880   -0.400080
  H     -6.901940   -1.483050    0.400520

 Total Charge           Charge          ....    0
 Multiplicity           Mult            ....    1
 Number of Electrons    NEL             ....   92
 Basis Dimension        Dim             ....  324

ORBITAL ENERGIES
----------------

  NO   OCC          E(Eh)            E(eV)
   0   2.0000     -24.879265      -676.9992
   1   2.0000     -19.266791      -524.2760
   2   2.0000     -19.226734      -523.1860
   3   2.0000     -19.218357      -522.9581
   4   2.0000     -14.475779      -393.9060
   5   2.0000     -14.457195      -393.4003
   6   2.0000     -10.485213      -285.3172
   7   2.0000     -10.408358      -283.2258
   8   2.0000     -10.396629      -282.9067
   9   2.0000     -10.356408      -281.8122
  10   2.0000     -10.325760      -280.9782
  11   2.0000     -10.323537      -280.9177
  12   2.0000      -1.427767       -38.8515
  13   2.0000      -1.165946       -31.7270
  14   2.0000      -1.153713       -31.3941
  15   2.0000      -1.151761       -31.3410
  16   2.0000      -1.043987       -28.4083
  17   2.0000      -1.015231       -27.6258
  18   2.0000      -0.929005       -25.2795
  19   2.0000      -0.859339       -23.3838
  20   2.0000      -0.783620       -21.3234
  21   2.0000      -0.747691       -20.3457
  22   2.0000      -0.734519       -19.9873
  23   2.0000      -0.698639       -19.0109
  24   2.0000      -0.668962       -18.2034
  25   2.0000      -0.659243       -17.9389
  26   2.0000      -0.651723       -17.7343
  27   2.0000      -0.645659       -17.5693
  28   2.0000      -0.616566       -16.7776
  29   2.0000      -0.604502       -16.4493
  30   2.0000      -0.586593       -15.9620
  31   2.0000      -0.550982       -14.9930
  32   2.0000      -0.543624       -14.7928
  33   2.0000      -0.533145       -14.5076
  34   2.0000      -0.531906       -14.4739
  35   2.0000      -0.512661       -13.9502
  36   2.0000      -0.501607       -13.6494
  37   2.0000      -0.486030       -13.2255
  38   2.0000      -0.481079       -13.0908
  39   2.0000      -0.458083       -12.4651
  40   2.0000      -0.454023       -12.3546
  41   2.0000      -0.403739       -10.9863
  42   2.0000      -0.381008       -10.3678
  43   2.0000      -0.376047       -10.2328
  44   2.0000      -0.367867       -10.0102
  45   2.0000      -0.355366        -9.6700
  46   0.0000       0.037718         1.0264
  47   0.0000       0.079069         2.1516
  48   0.0000       0.087933         2.3928
  49   0.0000       0.090210         2.4547
  50   0.0000       0.103898         2.8272

MULLIKEN ATOMIC CHARGES
-----------------------
   0 C :    0.932790
   1 O :   -0.444475
   2 N :    0.070128
   3 C :   -0.095962
   4 C :    0.363809
   5 O :   -0.544364
   6 C :    0.117369
   7 C :    0.111852
   8 C :    0.839985
   9 F :   -0.405190
  10 O :   -0.531928
  11 H :   -0.358616
  12 H :    0.085871
  13 H :   -0.010502
  14 H :    0.088847
  15 H :    0.088928
  16 H :    0.097994
  17 N :    0.476385
  18 H :   -0.596948
  19 H :   -0.123386
  20 H :   -0.162587
Sum of atomic charges:   -0.0000000

LOEWDIN ATOMIC CHARGES
----------------------
   0 C :    0.076901
   1 O :   -0.247622
   2 N :    0.057336
   3 C :   -0.028527
   4 C :   -0.133793
   5 O :   -0.259189
   6 C :    0.059308
   7 C :    0.064134
   8 C :   -0.009549
   9 F :   -0.028894
  10 O :   -0.181218
  11 H :    0.039002
  12 H :    0.064723
  13 H :    0.044785
  14 H :    0.051589
  15 H :    0.052568
  16 H :    0.056250
  17 N :    0.282681
  18 H :    0.018539
  19 H :    0.007538
  20 H :    0.013438

  Mayer bond orders larger than 0.100000
B(  0-C ,  1-O ) :   1.7043 B(  0-C ,  2-N ) :   1.0857 B(  0-C ,  3-C ) :   0.1111
B(  0-C , 11-H ) :  -0.2393 B(  0-C , 18-H ) :   1.0163 B(  1-O , 18-H ) :  -0.1092
B(  2-N ,  3-C ) :   0.8368 B(  2-N , 11-H ) :   1.2106 B(  2-N , 12-H ) :   0.2576
B(  2-N , 18-H ) :  -0.1449 B(  3-C ,  4-C ) :   1.0246 B(  3-C ,  6-C ) :   1.2778
B(  3-C , 11-H ) :  -0.1198 B(  3-C , 12-H ) :   0.8621 B(  3-C , 13-H ) :   0.2531
B(  3-C , 14-H ) :   0.1935 B(  4-C ,  5-O ) :   1.6032 B(  4-C , 17-N ) :   1.4664
B(  4-C , 20-H ) :   0.1344 B(  5-O , 17-N ) :   0.1144 B(  6-C ,  7-C ) :   1.2041
B(  6-C , 13-H ) :   0.8409 B(  6-C , 14-H ) :   0.8006 B(  6-C , 15-H ) :   0.2071
B(  6-C , 16-H ) :   0.1120 B(  7-C ,  8-C ) :   1.0502 B(  7-C ,  9-F ) :   0.1015
B(  7-C , 15-H ) :   0.8113 B(  7-C , 16-H ) :   0.8600 B(  8-C ,  9-F ) :   0.6521
B(  8-C , 10-O ) :   1.7917 B(  8-C , 16-H ) :   0.1083 B( 17-N , 19-H ) :   1.1134
B( 17-N , 20-H ) :   1.0885 B( 19-H , 20-H ) :  -0.1270

Dispersion correction           -0.009335644
FINAL SINGLE POINT ENERGY      -668.497363931515

DIPOLE MOMENT
-------------
                                X             Y             Z
Electronic contribution:      1.69080       7.22323      -1.18944
Nuclear contribution   :     -2.99694      -5.92587      -2.80797
                        -----------------------------------------
Total Dipole Moment    :     -1.30614       1.29736      -3.99741
                        -----------------------------------------
Magnitude (a.u.)       :      4.40096
Magnitude (Debye)      :     11.18636

Rotational constants in cm-1:     0.049461     0.019786     0.016547
Rotational constants in MHz :  1482.795593   593.174209   496.053561

                             ****ORCA TERMINATED NORMALLY****
TOTAL RUN TIME: 0 days 0 hours 2 minutes 37 seconds 6 msec
