                         Program Version 5.0.0 -  RELEASE  -
|  1> !wB97X-D3 RIJCOSX def2-SVPD def2/J TightSCF CPCM(Water)
|  2> * xyz 0 1
|  3> C         -1.57500        6.32600       -0.43200
|  4> O         -1.75300        5.23200        0.08000
|  5> N         -2.52300        7.28900       -0.40500
|  6> C         -3.82700        7.01700        0.20700
|  7> C         -4.61300        5.97800       -0.57500
|  8> O         -5.28800        5.18100        0.05800
|  9> C         -4.59200        8.36400        0.37100
| 10> C         -6.01000        8.22600        1.00300
| 11> C         -7.13600        8.26100       -0.06800
| 12> C         -8.43900        8.07000        0.57500
| 13> C         -9.09500        9.01200        1.21400
| 14> N         -8.69500       10.25200        1.36600
| 15> N        -10.23900        8.63800        1.72700
| 16> H         -2.35700        8.18800       -0.81500
| 17> H         -3.66300        6.62700        1.22900
| 18> H         -3.97000        9.00100        1.02500
| 19> H         -4.66600        8.87500       -0.60100
| 20> H         -6.08000        7.29700        1.59000
| 21> H         -6.17500        9.05900        1.70400
| 22> H         -7.11400        9.18600       -0.66400
| 23> H         -6.95400        7.44200       -0.78200
| 24> H         -8.87200        7.13500        0.50700
| 25> H         -7.80900       10.58900        0.97300
| 26> H         -9.27300       10.92700        1.88900
| 27> H        -10.59900        7.67600        1.63600
| 28> H        -10.80200        9.33100        2.24000
| 29> N         -4.56100        5.91900       -1.92600
| 30> H         -0.67535        6.52091       -0.89854
| 31> H         -5.07993        5.23604       -2.40923
| 32> H         -4.00424        6.55904       -2.42560
| 33> *
| 34> %MaxCore 64000
| 35> %scf
| 36>   Convergence VeryTight
| 37>   MaxIter 400
| 38> end
| 39> %pal nprocs 4
| 40> end
| 41>
| 42>                          ****END OF INPUT****

CARTESIAN COORDINATES (ANGSTROEM)
---------------------------------
  C     -1.575000    6.326000   -0.432000
  O     -1.753000    5.232000    0.080000
  N     -2.523000    7.289000   -0.405000
  C     -3.827000    7.017000    0.207000
  C     -4.613000    5.978000   -0.575000
  O     -5.288000    5.181000    0.058000
  C     -4.592000    8.364000    0.371000
  C     -6.010000    8.226000    1.003000
  C     -7.136000    8.261000   -0.068000
  C     -8.439000    8.070000    0.575000
  C     -9.095000    9.012000    1.214000
  N     -8.695000   10.252000    1.366000
  N    -10.239000    8.638000    1.727000
  H     -2.357000    8.188000   -0.815000
  H     -3.663000    6.627000    1.229000
  H     -3.970000    9.001000    1.025000
  H     -4.666000    8.875000   -0.601000
  H     -6.080000    7.297000    1.590000
  H     -6.175000    9.059000    1.704000
  H     -7.114000    9.186000   -0.664000
  H     -6.954000    7.442000   -0.782000
  H     -8.872000    7.135000    0.507000
  H     -7.809000   10.589000    0.973000
  H     -9.273000   10.927000    1.889000
  H    -10.599000    7.676000    1.636000
  H    -10.802000    9.331000    2.240000
  N     -4.561000    5.919000   -1.926000
  H     -0.675350    6.520910   -0.898540
  H     -5.079930    5.236040   -2.409230
  H     -4.004240    6.559040   -2.425600

 Total Charge           Charge          ....    0
 Multiplicity           Mult            ....    1
 Number of Electrons    NEL             ....  108
 Basis Dimension        Dim             ....  414

ORBITAL ENERGIES
----------------

  NO   OCC          E(Eh)            E(eV)
   0   2.0000     -19.227551      -523.2083
   1   2.0000     -19.221150      -523.0341
   2   2.0000     -14.471995      -393.8030
   3   2.0000     -14.456509      -393.3816
   4   2.0000     -14.437834      -392.8734
   5   2.0000     -14.426373      -392.5616
   6   2.0000     -10.405871      -283.1581
   7   2.0000     -10.395875      -282.8861
   8   2.0000     -10.346429      -281.5406
   9   2.0000     -10.332405      -281.1590
  10   2.0000     -10.297336      -280.2048
  11   2.0000     -10.280374      -279.7432
  12   2.0000     -10.271293      -279.4961
  13   2.0000     -10.210127      -277.8317
  14   2.0000      -1.163498       -31.6604
  15   2.0000      -1.154416       -31.4133
  16   2.0000      -1.075492       -29.2656
  17   2.0000      -1.044695       -28.4276
  18   2.0000      -1.015538       -27.6342
  19   2.0000      -0.970947       -26.4208
  20   2.0000      -0.909296       -24.7432
  21   2.0000      -0.868545       -23.6343
  22   2.0000      -0.812225       -22.1018
  23   2.0000      -0.757876       -20.6229
  24   2.0000      -0.730711       -19.8836
  25   2.0000      -0.699334       -19.0298
  26   2.0000      -0.696647       -18.9567
  27   2.0000      -0.683362       -18.5952
  28   2.0000      -0.663419       -18.0525
  29   2.0000      -0.644817       -17.5464
  30   2.0000      -0.640894       -17.4396
  31   2.0000      -0.605297       -16.4710
  32   2.0000      -0.600412       -16.3381
  33   2.0000      -0.572099       -15.5676
  34   2.0000      -0.568155       -15.4603
  35   2.0000      -0.558195       -15.1892
  36   2.0000      -0.541158       -14.7256
  37   2.0000      -0.528259       -14.3747
  38   2.0000      -0.522253       -14.2112
  39   2.0000      -0.511640       -13.9224
  40   2.0000      -0.510334       -13.8869
  41   2.0000      -0.499920       -13.6035
  42   2.0000      -0.484010       -13.1706
  43   2.0000      -0.469386       -12.7726
  44   2.0000      -0.457105       -12.4385
  45   2.0000      -0.430541       -11.7156
  46   2.0000      -0.418101       -11.3771
  47   2.0000      -0.408789       -11.1237
  48   2.0000      -0.385035       -10.4773
  49   2.0000      -0.376223       -10.2375
  50   2.0000      -0.371669       -10.1136
  51   2.0000      -0.355916        -9.6850
  52   2.0000      -0.352516        -9.5925
  53   2.0000      -0.245629        -6.6839
  54   0.0000       0.078935         2.1479
  55   0.0000       0.087853         2.3906
  56   0.0000       0.094775         2.5790
  57   0.0000       0.100332         2.7302
  58   0.0000       0.106271         2.8918

MULLIKEN ATOMIC CHARGES
-----------------------
   0 C :    1.002526
   1 O :   -0.462368
   2 N :   -0.008629
   3 C :    0.278446
   4 C :   -0.048535
   5 O :   -0.489436
   6 C :    0.221813
   7 C :    0.155862
   8 C :    0.004298
   9 C :   -0.188801
  10 C :    1.028601
  11 N :   -0.186088
  12 N :   -0.183700
  13 H :   -0.339579
  14 H :    0.073898
  15 H :    0.039679
  16 H :   -0.000167
  17 H :   -0.036378
  18 H :   -0.086790
  19 H :    0.032591
  20 H :    0.017628
  21 H :   -0.421506
  22 H :    0.056572
  23 H :   -0.160193
  24 H :    0.025252
  25 H :   -0.032819
  26 N :    0.501451
  27 H :   -0.556761
  28 H :   -0.147944
  29 H :   -0.088923
Sum of atomic charges:   -0.0000000

LOEWDIN ATOMIC CHARGES
----------------------
   0 C :    0.063271
   1 O :   -0.257994
   2 N :    0.048878
   3 C :   -0.040302
   4 C :   -0.139263
   5 O :   -0.251899
   6 C :    0.027763
   7 C :   -0.011342
   8 C :   -0.065638
   9 C :   -0.064497
  10 C :   -0.271677
  11 N :    0.201200
  12 N :    0.151172
  13 H :    0.047549
  14 H :    0.067848
  15 H :    0.032206
  16 H :    0.028479
  17 H :    0.014703
  18 H :    0.010237
  19 H :    0.017157
  20 H :    0.006895
  21 H :   -0.042795
  22 H :    0.019301
  23 H :    0.032402
  24 H :    0.034893
  25 H :    0.021967
  26 N :    0.284790
  27 H :    0.016305
  28 H :    0.015222
  29 H :    0.003168

  Mayer bond orders larger than 0.100000
B(  0-C ,  1-O ) :   1.7194 B(  0-C ,  2-N ) :   1.0693 B(  0-C ,  3-C ) :   0.1124
B(  0-C , 13-H ) :  -0.2492 B(  0-C , 27-H ) :   0.9576 B(  2-N ,  3-C ) :   0.7013
B(  2-N ,  6-C ) :   0.1917 B(  2-N , 13-H ) :   1.2837 B(  2-N , 14-H ) :   0.1085
B(  3-C ,  4-C ) :   1.0487 B(  3-C ,  6-C ) :   1.1088 B(  3-C ,  7-C ) :   0.1213
B(  3-C , 13-H ) :  -0.1875 B(  3-C , 14-H ) :   0.7566 B(  3-C , 16-H ) :   0.1395
B(  4-C ,  5-O ) :   1.4888 B(  4-C , 14-H ) :   0.3467 B(  4-C , 26-N ) :   1.4324
B(  4-C , 28-H ) :   0.1922 B(  4-C , 29-H ) :   0.1038 B(  5-O , 26-N ) :   0.1227
B(  6-C ,  7-C ) :   1.1658 B(  6-C , 15-H ) :   0.8838 B(  6-C , 16-H ) :   0.8123
B(  7-C ,  8-C ) :   1.1499 B(  7-C , 15-H ) :   0.1385 B(  7-C , 17-H ) :   0.8960
B(  7-C , 18-H ) :   0.8579 B(  7-C , 20-H ) :   0.1631 B(  8-C ,  9-C ) :   1.2025
B(  8-C , 17-H ) :   0.1220 B(  8-C , 18-H ) :   0.1535 B(  8-C , 19-H ) :   0.8932
B(  8-C , 20-H ) :   0.7959 B(  8-C , 21-H ) :   0.3634 B(  9-C , 10-C ) :   1.5061
B(  9-C , 11-N ) :   0.1544 B(  9-C , 12-N ) :   0.4844 B(  9-C , 20-H ) :   0.1801
B(  9-C , 21-H ) :   1.0809 B(  9-C , 22-H ) :  -0.1512 B( 10-C , 11-N ) :   0.9072
B( 10-C , 12-N ) :   0.6333 B( 10-C , 21-H ) :  -0.1399 B( 10-C , 23-H ) :  -0.2427
B( 10-C , 24-H ) :  -0.1544 B( 11-N , 12-N ) :   0.1169 B( 11-N , 22-H ) :   1.0505
B( 11-N , 23-H ) :   1.4452 B( 12-N , 21-H ) :   0.1806 B( 12-N , 24-H ) :   1.1704
B( 12-N , 25-H ) :   1.1822 B( 20-H , 21-H ) :  -0.1487 B( 22-H , 23-H ) :  -0.1997
B( 24-H , 25-H ) :  -0.1627 B( 26-N , 28-H ) :   1.0808 B( 26-N , 29-H ) :   1.0639
B( 28-H , 29-H ) :  -0.1473

Dispersion correction           -0.012702092
FINAL SINGLE POINT ENERGY      -683.340999480838

DIPOLE MOMENT
-------------
                                X             Y             Z
Electronic contribution:      7.74874      -6.26691      -1.88837
Nuclear contribution   :     -8.03603      10.44137       0.58365
                        -----------------------------------------
Total Dipole Moment    :     -0.28729       4.17446      -1.30472
                        -----------------------------------------
Magnitude (a.u.)       :      4.38303
Magnitude (Debye)      :     11.14077

Rotational constants in cm-1:     0.056874     0.008732     0.008184
Rotational constants in MHz :  1705.027719   261.790320   245.354956

                             ****ORCA TERMINATED NORMALLY****
TOTAL RUN TIME: 0 days 0 hours 4 minutes 38 seconds 87 msec
