                         Program Version 5.0.0 -  RELEASE  -
|  1> !wB97X-D3 RIJCOSX def2-SVPD def2/J TightSCF CPCM(Water)
|  2> * xyz 0 1
|  3> C         -4.99100        1.96800        2.18000
|  4> O         -5.06400        1.07900        3.01200
|  5> N         -6.07000        2.34200        1.45100
|  6> C         -7.35500        1.67300        1.69600
|  7> C         -7.27200        0.15600        1.55100
|  8> O         -7.54200       -0.50100        2.54400
|  9> C         -8.58000        2.23900        0.91700
| 10> C         -9.05400        3.62500        1.44000
| 11> C         -7.97200        4.66700        1.33200
| 12> O         -7.89100        5.32200        0.26000
| 13> F         -7.19600        4.83900        2.31300
| 14> H         -6.00400        3.09700        0.79200
| 15> H         -7.59300        1.86000        2.76400
| 16> H         -8.35300        2.32300       -0.15800
| 17> H         -9.42800        1.54200        1.03400
| 18> H         -9.91600        3.96200        0.83900
| 19> H         -9.38500        3.56000        2.49000
| 20> N         -6.92900       -0.49900        0.41300
| 21> H         -4.08861        2.44516        2.02823
| 22> H         -6.70723        0.00988       -0.40008
| 23> H         -6.90194       -1.48305        0.40052
| 24> *
| 25> %MaxCore 64000
| 26> %scf
| 27>   Convergence VeryTight
| 28>   MaxIter 400
| 29> end
| 30> %pal nprocs 4
| 31> end
| 32>
| 33>                          ****END OF INPUT****

CARTESIAN COORDINATES (ANGSTROEM)
---------------------------------
  C     -4.991000    1.968000    2.180000
  O     -5.064000    1.079000    3.012000
  N     -6.070000    2.342000    1.451000
  C     -7.355000    1.673000    1.696000
  C     -7.272000    0.156000    1.551000
  O     -7.542000   -0.501000    2.544000
  C     -8.580000    2.239000    0.917000
  C     -9.054000    3.625000    1.440000
  C     -7.972000    4.667000    1.332000
  O     -7.891000    5.322000    0.260000
  F     -7.196000    4.839000    2.313000
  H     -6.004000    3.097000    0.792000
  H     -7.593000    1.860000    2.764000
  H     -8.353000    2.323000   -0.158000
  H     -9.428000    1.542000    1.034000
  H     -9.916000    3.962000    0.839000
  H     -9.385000    3.560000    2.490000
  N     -6.929000   -0.499000    0.413000
  H     -4.088610    2.445160    2.028230
  H     -6.707230    0.009880   -0.400080
  H     -6.901940   -1.483050    0.400520

 Total Charge           Charge          ....    0
 Multiplicity           Mult            ....    1
 Number of Electrons    NEL             ....   92
 Basis Dimension        Dim             ....  324

ORBITAL ENERGIES
----------------

  NO   OCC          E(Eh)            E(eV)
   0   2.0000     -24.878912      -676.9896
   1   2.0000     -19.268813      -524.3311
   2   2.0000     -19.229227      -523.2539
   3   2.0000     -19.218937      -522.9739
   4   2.0000     -14.479673      -394.0119
   5   2.0000     -14.457653      -393.4127
   6   2.0000     -10.486278      -285.3461
   7   2.0000     -10.409207      -283.2489
   8   2.0000     -10.399304      -282.9794
   9   2.0000     -10.358423      -281.8670
  10   2.0000     -10.326205      -280.9903
  11   2.0000     -10.324068      -280.9322
  12   2.0000      -1.426506       -38.8172
  13   2.0000      -1.167695       -31.7746
  14   2.0000      -1.154917       -31.4269
  15   2.0000      -1.154798       -31.4236
  16   2.0000      -1.047652       -28.5081
  17   2.0000      -1.015857       -27.6429
  18   2.0000      -0.929945       -25.3051
  19   2.0000      -0.859771       -23.3956
  20   2.0000      -0.785500       -21.3745
  21   2.0000      -0.747454       -20.3393
  22   2.0000      -0.737401       -20.0657
  23   2.0000      -0.700421       -19.0594
  24   2.0000      -0.672134       -18.2897
  25   2.0000      -0.659392       -17.9430
  26   2.0000      -0.651928       -17.7399
  27   2.0000      -0.640682       -17.4338
  28   2.0000      -0.623447       -16.9648
  29   2.0000      -0.606715       -16.5095
  30   2.0000      -0.584614       -15.9081
  31   2.0000      -0.549689       -14.9578
  32   2.0000      -0.544838       -14.8258
  33   2.0000      -0.537982       -14.6392
  34   2.0000      -0.534415       -14.5422
  35   2.0000      -0.512471       -13.9450
  36   2.0000      -0.499464       -13.5911
  37   2.0000      -0.494332       -13.4515
  38   2.0000      -0.480295       -13.0695
  39   2.0000      -0.456091       -12.4109
  40   2.0000      -0.455370       -12.3912
  41   2.0000      -0.405702       -11.0397
  42   2.0000      -0.382994       -10.4218
  43   2.0000      -0.378615       -10.3026
  44   2.0000      -0.369206       -10.0466
  45   2.0000      -0.357943        -9.7401
  46   0.0000       0.037166         1.0113
  47   0.0000       0.078399         2.1333
  48   0.0000       0.087354         2.3770
  49   0.0000       0.088811         2.4167
  50   0.0000       0.103899         2.8272

MULLIKEN ATOMIC CHARGES
-----------------------
   0 C :    0.932511
   1 O :   -0.438006
   2 N :    0.087147
   3 C :   -0.116977
   4 C :    0.341352
   5 O :   -0.542631
   6 C :    0.150214
   7 C :    0.086104
   8 C :    0.871031
   9 O :   -0.545152
  10 F :   -0.408654
  11 H :   -0.365535
  12 H :    0.079547
  13 H :   -0.011747
  14 H :    0.091707
  15 H :    0.066690
  16 H :    0.126306
  17 N :    0.476807
  18 H :   -0.596731
  19 H :   -0.123225
  20 H :   -0.160758
Sum of atomic charges:   -0.0000000

LOEWDIN ATOMIC CHARGES
----------------------
   0 C :    0.079999
   1 O :   -0.243333
   2 N :    0.057055
   3 C :   -0.030041
   4 C :   -0.133593
   5 O :   -0.258438
   6 C :    0.059652
   7 C :    0.062592
   8 C :   -0.016231
   9 O :   -0.173852
  10 F :   -0.039377
  11 H :    0.040078
  12 H :    0.065540
  13 H :    0.044943
  14 H :    0.052009
  15 H :    0.055432
  16 H :    0.053246
  17 N :    0.283164
  18 H :    0.019404
  19 H :    0.007980
  20 H :    0.013769

  Mayer bond orders larger than 0.100000
B(  0-C ,  1-O ) :   1.7053 B(  0-C ,  2-N ) :   1.0673 B(  0-C ,  3-C ) :   0.1164
B(  0-C , 11-H ) :  -0.2376 B(  0-C , 18-H ) :   1.0245 B(  1-O ,  2-N ) :   0.1011
B(  1-O , 18-H ) :  -0.1128 B(  2-N ,  3-C ) :   0.8423 B(  2-N , 11-H ) :   1.1994
B(  2-N , 12-H ) :   0.2469 B(  2-N , 18-H ) :  -0.1459 B(  3-C ,  4-C ) :   1.0361
B(  3-C ,  6-C ) :   1.2829 B(  3-C , 11-H ) :  -0.1160 B(  3-C , 12-H ) :   0.8582
B(  3-C , 13-H ) :   0.2537 B(  3-C , 14-H ) :   0.1907 B(  4-C ,  5-O ) :   1.6053
B(  4-C , 17-N ) :   1.4690 B(  4-C , 20-H ) :   0.1351 B(  5-O , 17-N ) :   0.1144
B(  6-C ,  7-C ) :   1.1979 B(  6-C , 13-H ) :   0.8429 B(  6-C , 14-H ) :   0.8037
B(  6-C , 15-H ) :   0.2120 B(  6-C , 16-H ) :   0.1009 B(  7-C ,  8-C ) :   1.0424
B(  7-C , 10-F ) :   0.1023 B(  7-C , 15-H ) :   0.8268 B(  7-C , 16-H ) :   0.8489
B(  8-C ,  9-O ) :   1.7772 B(  8-C , 10-F ) :   0.6678 B(  8-C , 15-H ) :   0.1048
B( 17-N , 19-H ) :   1.1121 B( 17-N , 20-H ) :   1.0885 B( 19-H , 20-H ) :  -0.1264

Dispersion correction           -0.009332127
FINAL SINGLE POINT ENERGY      -668.498722014408

DIPOLE MOMENT
-------------
                                X             Y             Z
Electronic contribution:      2.99350       6.28065       2.61879
Nuclear contribution   :     -3.74076      -5.40894      -5.00519
                        -----------------------------------------
Total Dipole Moment    :     -0.74727       0.87171      -2.38641
                        -----------------------------------------
Magnitude (a.u.)       :      2.64825
Magnitude (Debye)      :      6.73131

Rotational constants in cm-1:     0.049114     0.020183     0.016752
Rotational constants in MHz :  1472.404322   605.065031   502.215833

                             ****ORCA TERMINATED NORMALLY****
TOTAL RUN TIME: 0 days 0 hours 2 minutes 32 seconds 696 msec
