                         Program Version 5.0.0 -  RELEASE  -
|  1> !wB97X-D3 RIJCOSX def2-SVPD def2/J TightSCF CPCM(Water)
|  2> * xyz 0 1
|  3> C         -1.57500        6.32600       -0.43200
|  4> O         -1.75300        5.23200        0.08000
|  5> N         -2.52300        7.28900       -0.40500
|  6> C         -3.82700        7.01700        0.20700
|  7> C         -4.61300        5.97800       -0.57500
|  8> O         -5.28800        5.18100        0.05800
|  9> C         -4.59200        8.36400        0.37100
| 10> C         -6.01000        8.22600        1.00300
| 11> C         -7.13600        8.26100       -0.06800
| 12> N         -8.43900        8.07000        0.57500
| 13> C         -9.09500        9.01200        1.21400
| 14> C         -8.69500       10.25200        1.36600
| 15> N        -10.23900        8.63800        1.72700
| 16> H         -2.35700        8.18800       -0.81500
| 17> H         -3.66300        6.62700        1.22900
| 18> H         -3.97000        9.00100        1.02500
| 19> H         -4.66600        8.87500       -0.60100
| 20> H         -6.08000        7.29700        1.59000
| 21> H         -6.17500        9.05900        1.70400
| 22> H         -7.11400        9.18600       -0.66400
| 23> H         -6.95400        7.44200       -0.78200
| 24> H         -8.87200        7.13500        0.50700
| 25> H         -7.80900       10.58900        0.97300
| 26> H         -9.27300       10.92700        1.88900
| 27> H        -10.59900        7.67600        1.63600
| 28> H        -10.80200        9.33100        2.24000
| 29> N         -4.56100        5.91900       -1.92600
| 30> H         -0.67535        6.52091       -0.89854
| 31> H         -5.07993        5.23604       -2.40923
| 32> H         -4.00424        6.55904       -2.42560
| 33> *
| 34> %MaxCore 64000
| 35> %scf
| 36>   Convergence VeryTight
| 37>   MaxIter 400
| 38> end
| 39> %pal nprocs 4
| 40> end
| 41>
| 42>                          ****END OF INPUT****

CARTESIAN COORDINATES (ANGSTROEM)
---------------------------------
  C     -1.575000    6.326000   -0.432000
  O     -1.753000    5.232000    0.080000
  N     -2.523000    7.289000   -0.405000
  C     -3.827000    7.017000    0.207000
  C     -4.613000    5.978000   -0.575000
  O     -5.288000    5.181000    0.058000
  C     -4.592000    8.364000    0.371000
  C     -6.010000    8.226000    1.003000
  C     -7.136000    8.261000   -0.068000
  N     -8.439000    8.070000    0.575000
  C     -9.095000    9.012000    1.214000
  C     -8.695000   10.252000    1.366000
  N    -10.239000    8.638000    1.727000
  H     -2.357000    8.188000   -0.815000
  H     -3.663000    6.627000    1.229000
  H     -3.970000    9.001000    1.025000
  H     -4.666000    8.875000   -0.601000
  H     -6.080000    7.297000    1.590000
  H     -6.175000    9.059000    1.704000
  H     -7.114000    9.186000   -0.664000
  H     -6.954000    7.442000   -0.782000
  H     -8.872000    7.135000    0.507000
  H     -7.809000   10.589000    0.973000
  H     -9.273000   10.927000    1.889000
  H    -10.599000    7.676000    1.636000
  H    -10.802000    9.331000    2.240000
  N     -4.561000    5.919000   -1.926000
  H     -0.675350    6.520910   -0.898540
  H     -5.079930    5.236040   -2.409230
  H     -4.004240    6.559040   -2.425600

 Total Charge           Charge          ....    0
 Multiplicity           Mult            ....    1
 Number of Electrons    NEL             ....  108
 Basis Dimension        Dim             ....  414

ORBITAL ENERGIES
----------------

  NO   OCC          E(Eh)            E(eV)
   0   2.0000     -19.228229      -523.2267
   1   2.0000     -19.222714      -523.0766
   2   2.0000     -14.473146      -393.8343
   3   2.0000     -14.457800      -393.4167
   4   2.0000     -14.439169      -392.9098
   5   2.0000     -14.430103      -392.6631
   6   2.0000     -10.407429      -283.2006
   7   2.0000     -10.396657      -282.9074
   8   2.0000     -10.348945      -281.6091
   9   2.0000     -10.339401      -281.3494
  10   2.0000     -10.323329      -280.9121
  11   2.0000     -10.304106      -280.3890
  12   2.0000     -10.289132      -279.9815
  13   2.0000     -10.211015      -277.8559
  14   2.0000      -1.164644       -31.6916
  15   2.0000      -1.155648       -31.4468
  16   2.0000      -1.085541       -29.5391
  17   2.0000      -1.046035       -28.4640
  18   2.0000      -1.016801       -27.6686
  19   2.0000      -0.987051       -26.8590
  20   2.0000      -0.906834       -24.6762
  21   2.0000      -0.847060       -23.0497
  22   2.0000      -0.826323       -22.4854
  23   2.0000      -0.779471       -21.2105
  24   2.0000      -0.735016       -20.0008
  25   2.0000      -0.706233       -19.2176
  26   2.0000      -0.698046       -18.9948
  27   2.0000      -0.667137       -18.1537
  28   2.0000      -0.664520       -18.0825
  29   2.0000      -0.650691       -17.7062
  30   2.0000      -0.646820       -17.6009
  31   2.0000      -0.617881       -16.8134
  32   2.0000      -0.602822       -16.4036
  33   2.0000      -0.576817       -15.6960
  34   2.0000      -0.568061       -15.4577
  35   2.0000      -0.544631       -14.8202
  36   2.0000      -0.541789       -14.7428
  37   2.0000      -0.532334       -14.4856
  38   2.0000      -0.522288       -14.2122
  39   2.0000      -0.516268       -14.0484
  40   2.0000      -0.510832       -13.9004
  41   2.0000      -0.499626       -13.5955
  42   2.0000      -0.483501       -13.1567
  43   2.0000      -0.476002       -12.9527
  44   2.0000      -0.466949       -12.7063
  45   2.0000      -0.451342       -12.2816
  46   2.0000      -0.438084       -11.9209
  47   2.0000      -0.426787       -11.6135
  48   2.0000      -0.386795       -10.5252
  49   2.0000      -0.377706       -10.2779
  50   2.0000      -0.372833       -10.1453
  51   2.0000      -0.354484        -9.6460
  52   2.0000      -0.336886        -9.1671
  53   2.0000      -0.264594        -7.2000
  54   0.0000       0.077252         2.1021
  55   0.0000       0.087317         2.3760
  56   0.0000       0.093445         2.5428
  57   0.0000       0.100552         2.7362
  58   0.0000       0.105548         2.8721

MULLIKEN ATOMIC CHARGES
-----------------------
   0 C :    1.009512
   1 O :   -0.461461
   2 N :   -0.007460
   3 C :    0.277982
   4 C :   -0.045827
   5 O :   -0.488503
   6 C :    0.163034
   7 C :    0.214603
   8 C :    0.558652
   9 N :   -0.577931
  10 C :    0.819925
  11 C :    0.049279
  12 N :   -0.064665
  13 H :   -0.340269
  14 H :    0.075878
  15 H :    0.048506
  16 H :    0.010193
  17 H :    0.006834
  18 H :   -0.073838
  19 H :    0.082979
  20 H :   -0.278375
  21 H :   -0.209004
  22 H :    0.065780
  23 H :   -0.495674
  24 H :   -0.057767
  25 H :    0.016332
  26 N :    0.499052
  27 H :   -0.557601
  28 H :   -0.149060
  29 H :   -0.091106
Sum of atomic charges:    0.0000000

LOEWDIN ATOMIC CHARGES
----------------------
   0 C :    0.064410
   1 O :   -0.256928
   2 N :    0.049664
   3 C :   -0.039041
   4 C :   -0.139562
   5 O :   -0.250339
   6 C :    0.034214
   7 C :    0.001873
   8 C :    0.067327
   9 N :   -0.020208
  10 C :   -0.289013
  11 C :    0.113233
  12 N :    0.161855
  13 H :    0.048322
  14 H :    0.068930
  15 H :    0.036440
  16 H :    0.031966
  17 H :    0.018613
  18 H :    0.006010
  19 H :    0.028159
  20 H :    0.019783
  21 H :    0.059350
  22 H :   -0.107725
  23 H :   -0.092398
  24 H :    0.029492
  25 H :    0.033097
  26 N :    0.285993
  27 H :    0.016738
  28 H :    0.015923
  29 H :    0.003821

  Mayer bond orders larger than 0.100000
B(  0-C ,  1-O ) :   1.7196 B(  0-C ,  2-N ) :   1.0656 B(  0-C ,  3-C ) :   0.1119
B(  0-C , 13-H ) :  -0.2509 B(  0-C , 27-H ) :   0.9548 B(  2-N ,  3-C ) :   0.6989
B(  2-N ,  6-C ) :   0.1909 B(  2-N , 13-H ) :   1.2870 B(  2-N , 14-H ) :   0.1118
B(  3-C ,  4-C ) :   1.0603 B(  3-C ,  6-C ) :   1.1160 B(  3-C , 13-H ) :  -0.1894
B(  3-C , 14-H ) :   0.7514 B(  3-C , 16-H ) :   0.1366 B(  4-C ,  5-O ) :   1.4905
B(  4-C , 14-H ) :   0.3401 B(  4-C , 26-N ) :   1.4448 B(  4-C , 28-H ) :   0.1877
B(  5-O , 26-N ) :   0.1212 B(  6-C ,  7-C ) :   1.1755 B(  6-C , 15-H ) :   0.9159
B(  6-C , 16-H ) :   0.8210 B(  7-C ,  8-C ) :   1.1385 B(  7-C , 17-H ) :   0.8662
B(  7-C , 18-H ) :   0.8855 B(  7-C , 20-H ) :   0.1510 B(  8-C ,  9-N ) :   0.8403
B(  8-C , 17-H ) :   0.1178 B(  8-C , 18-H ) :   0.1415 B(  8-C , 19-H ) :   0.8875
B(  8-C , 20-H ) :   0.9034 B(  8-C , 21-H ) :  -0.1956 B(  9-N , 10-C ) :   0.7683
B(  9-N , 11-C ) :   0.3547 B(  9-N , 12-N ) :   0.2239 B(  9-N , 21-H ) :   1.5071
B( 10-C , 11-C ) :   1.5670 B( 10-C , 12-N ) :   0.9183 B( 10-C , 21-H ) :  -0.3635
B( 10-C , 22-H ) :   0.2291 B( 10-C , 23-H ) :   0.1371 B( 11-C , 12-N ) :   0.2517
B( 11-C , 22-H ) :   0.6144 B( 11-C , 23-H ) :   1.0204 B( 12-N , 24-H ) :   1.1676
B( 12-N , 25-H ) :   1.1640 B( 24-H , 25-H ) :  -0.1611 B( 26-N , 28-H ) :   1.0814
B( 26-N , 29-H ) :   1.0680 B( 28-H , 29-H ) :  -0.1455

Dispersion correction           -0.012658899
FINAL SINGLE POINT ENERGY      -683.338298806276

DIPOLE MOMENT
-------------
                                X             Y             Z
Electronic contribution:      8.17478      -9.03275      -2.87435
Nuclear contribution   :     -8.07306      10.75697       0.69806
                        -----------------------------------------
Total Dipole Moment    :      0.10172       1.72422      -2.17629
                        -----------------------------------------
Magnitude (a.u.)       :      2.77840
Magnitude (Debye)      :      7.06214

Rotational constants in cm-1:     0.057377     0.008816     0.008267
Rotational constants in MHz :  1720.131519   264.291408   247.852085

                             ****ORCA TERMINATED NORMALLY****
TOTAL RUN TIME: 0 days 0 hours 4 minutes 32 seconds 14 msec
