                         Program Version 5.0.0 -  RELEASE  -
|  1> !wB97X-D3 RIJCOSX def2-SVPD def2/J TightSCF CPCM(Water)
|  2> * xyz 0 1
|  3> C         -1.57500        6.32600       -0.43200
|  4> O         -1.75300        5.23200        0.08000
|  5> N         -2.52300        7.28900       -0.40500
|  6> C         -3.82700        7.01700        0.20700
|  7> C         -4.61300        5.97800       -0.57500
|  8> O         -5.28800        5.18100        0.05800
|  9> C         -4.59200        8.36400        0.37100
| 10> C         -6.01000        8.22600        1.00300
| 11> C         -7.13600        8.26100       -0.06800
| 12> N         -8.43900        8.07000        0.57500
| 13> C         -9.09500        9.01200        1.21400
| 14> N         -8.69500       10.25200        1.36600
| 15> C        -10.23900        8.63800        1.72700
| 16> H         -2.35700        8.18800       -0.81500
| 17> H         -3.66300        6.62700        1.22900
| 18> H         -3.97000        9.00100        1.02500
| 19> H         -4.66600        8.87500       -0.60100
| 20> H         -6.08000        7.29700        1.59000
| 21> H         -6.17500        9.05900        1.70400
| 22> H         -7.11400        9.18600       -0.66400
| 23> H         -6.95400        7.44200       -0.78200
| 24> H         -8.87200        7.13500        0.50700
| 25> H         -7.80900       10.58900        0.97300
| 26> H         -9.27300       10.92700        1.88900
| 27> H        -10.59900        7.67600        1.63600
| 28> H        -10.80200        9.33100        2.24000
| 29> N         -4.56100        5.91900       -1.92600
| 30> H         -0.67535        6.52091       -0.89854
| 31> H         -5.07993        5.23604       -2.40923
| 32> H         -4.00424        6.55904       -2.42560
| 33> *
| 34> %MaxCore 64000
| 35> %scf
| 36>   Convergence VeryTight
| 37>   MaxIter 400
| 38> end
| 39> %pal nprocs 4
| 40> end
| 41>
| 42>                          ****END OF INPUT****

CARTESIAN COORDINATES (ANGSTROEM)
---------------------------------
  C     -1.575000    6.326000   -0.432000
  O     -1.753000    5.232000    0.080000
  N     -2.523000    7.289000   -0.405000
  C     -3.827000    7.017000    0.207000
  C     -4.613000    5.978000   -0.575000
  O     -5.288000    5.181000    0.058000
  C     -4.592000    8.364000    0.371000
  C     -6.010000    8.226000    1.003000
  C     -7.136000    8.261000   -0.068000
  N     -8.439000    8.070000    0.575000
  C     -9.095000    9.012000    1.214000
  N     -8.695000   10.252000    1.366000
  C    -10.239000    8.638000    1.727000
  H     -2.357000    8.188000   -0.815000
  H     -3.663000    6.627000    1.229000
  H     -3.970000    9.001000    1.025000
  H     -4.666000    8.875000   -0.601000
  H     -6.080000    7.297000    1.590000
  H     -6.175000    9.059000    1.704000
  H     -7.114000    9.186000   -0.664000
  H     -6.954000    7.442000   -0.782000
  H     -8.872000    7.135000    0.507000
  H     -7.809000   10.589000    0.973000
  H     -9.273000   10.927000    1.889000
  H    -10.599000    7.676000    1.636000
  H    -10.802000    9.331000    2.240000
  N     -4.561000    5.919000   -1.926000
  H     -0.675350    6.520910   -0.898540
  H     -5.079930    5.236040   -2.409230
  H     -4.004240    6.559040   -2.425600

 Total Charge           Charge          ....    0
 Multiplicity           Mult            ....    1
 Number of Electrons    NEL             ....  108
 Basis Dimension        Dim             ....  414

ORBITAL ENERGIES
----------------

  NO   OCC          E(Eh)            E(eV)
   0   2.0000     -19.228343      -523.2298
   1   2.0000     -19.222906      -523.0819
   2   2.0000     -14.473343      -393.8397
   3   2.0000     -14.457941      -393.4206
   4   2.0000     -14.438966      -392.9042
   5   2.0000     -14.436811      -392.8456
   6   2.0000     -10.407635      -283.2061
   7   2.0000     -10.396791      -282.9111
   8   2.0000     -10.349368      -281.6206
   9   2.0000     -10.340086      -281.3681
  10   2.0000     -10.323746      -280.9234
  11   2.0000     -10.304709      -280.4054
  12   2.0000     -10.291270      -280.0397
  13   2.0000     -10.202570      -277.6261
  14   2.0000      -1.164808       -31.6960
  15   2.0000      -1.155810       -31.4512
  16   2.0000      -1.082016       -29.4432
  17   2.0000      -1.046242       -28.4697
  18   2.0000      -1.016953       -27.6727
  19   2.0000      -0.992237       -27.0001
  20   2.0000      -0.910793       -24.7839
  21   2.0000      -0.862732       -23.4761
  22   2.0000      -0.816015       -22.2049
  23   2.0000      -0.763050       -20.7636
  24   2.0000      -0.733196       -19.9513
  25   2.0000      -0.709521       -19.3070
  26   2.0000      -0.699366       -19.0307
  27   2.0000      -0.694259       -18.8918
  28   2.0000      -0.665621       -18.1125
  29   2.0000      -0.647978       -17.6324
  30   2.0000      -0.640474       -17.4282
  31   2.0000      -0.607347       -16.5268
  32   2.0000      -0.595469       -16.2035
  33   2.0000      -0.579278       -15.7629
  34   2.0000      -0.574580       -15.6351
  35   2.0000      -0.561501       -15.2792
  36   2.0000      -0.542275       -14.7560
  37   2.0000      -0.533269       -14.5110
  38   2.0000      -0.521332       -14.1862
  39   2.0000      -0.515975       -14.0404
  40   2.0000      -0.507467       -13.8089
  41   2.0000      -0.494085       -13.4447
  42   2.0000      -0.485923       -13.2226
  43   2.0000      -0.472401       -12.8547
  44   2.0000      -0.467682       -12.7263
  45   2.0000      -0.448128       -12.1942
  46   2.0000      -0.438204       -11.9242
  47   2.0000      -0.428938       -11.6720
  48   2.0000      -0.387084       -10.5331
  49   2.0000      -0.377957       -10.2847
  50   2.0000      -0.372977       -10.1492
  51   2.0000      -0.354825        -9.6553
  52   2.0000      -0.347689        -9.4611
  53   2.0000      -0.253550        -6.8994
  54   0.0000       0.077065         2.0970
  55   0.0000       0.086876         2.3640
  56   0.0000       0.091667         2.4944
  57   0.0000       0.099252         2.7008
  58   0.0000       0.106559         2.8996

MULLIKEN ATOMIC CHARGES
-----------------------
   0 C :    1.008454
   1 O :   -0.461446
   2 N :   -0.015031
   3 C :    0.283590
   4 C :   -0.037417
   5 O :   -0.492659
   6 C :    0.163999
   7 C :    0.212411
   8 C :    0.552960
   9 N :   -0.365996
  10 C :    0.656000
  11 N :    0.050775
  12 C :    0.103264
  13 H :   -0.336369
  14 H :    0.076563
  15 H :    0.044085
  16 H :    0.009601
  17 H :   -0.007414
  18 H :   -0.046180
  19 H :    0.044224
  20 H :   -0.318951
  21 H :   -0.182637
  22 H :   -0.038603
  23 H :   -0.084423
  24 H :   -0.234155
  25 H :   -0.284794
  26 N :    0.495762
  27 H :   -0.556931
  28 H :   -0.148253
  29 H :   -0.090431
Sum of atomic charges:    0.0000000

LOEWDIN ATOMIC CHARGES
----------------------
   0 C :    0.064545
   1 O :   -0.256762
   2 N :    0.049743
   3 C :   -0.038765
   4 C :   -0.139507
   5 O :   -0.250018
   6 C :    0.033847
   7 C :   -0.000239
   8 C :    0.063134
   9 N :   -0.023296
  10 C :   -0.287844
  11 N :    0.195895
  12 C :    0.081205
  13 H :    0.048388
  14 H :    0.069068
  15 H :    0.036734
  16 H :    0.032027
  17 H :    0.019223
  18 H :    0.011323
  19 H :    0.028178
  20 H :    0.019504
  21 H :    0.064574
  22 H :    0.012501
  23 H :    0.042022
  24 H :   -0.096075
  25 H :   -0.102205
  26 N :    0.286115
  27 H :    0.016794
  28 H :    0.016014
  29 H :    0.003877

  Mayer bond orders larger than 0.100000
B(  0-C ,  1-O ) :   1.7200 B(  0-C ,  2-N ) :   1.0666 B(  0-C ,  3-C ) :   0.1098
B(  0-C , 13-H ) :  -0.2498 B(  0-C , 27-H ) :   0.9548 B(  2-N ,  3-C ) :   0.6984
B(  2-N ,  6-C ) :   0.1912 B(  2-N , 13-H ) :   1.2899 B(  2-N , 14-H ) :   0.1138
B(  3-C ,  4-C ) :   1.0599 B(  3-C ,  6-C ) :   1.1123 B(  3-C ,  7-C ) :   0.1051
B(  3-C , 13-H ) :  -0.1876 B(  3-C , 14-H ) :   0.7527 B(  3-C , 16-H ) :   0.1429
B(  4-C ,  5-O ) :   1.4925 B(  4-C , 14-H ) :   0.3362 B(  4-C , 26-N ) :   1.4491
B(  4-C , 28-H ) :   0.1856 B(  5-O , 26-N ) :   0.1206 B(  6-C ,  7-C ) :   1.1762
B(  6-C , 15-H ) :   0.9145 B(  6-C , 16-H ) :   0.8188 B(  7-C ,  8-C ) :   1.1324
B(  7-C , 15-H ) :   0.1049 B(  7-C , 17-H ) :   0.8717 B(  7-C , 18-H ) :   0.8506
B(  7-C , 20-H ) :   0.1456 B(  8-C ,  9-N ) :   0.8794 B(  8-C , 17-H ) :   0.1395
B(  8-C , 18-H ) :   0.1374 B(  8-C , 19-H ) :   0.8915 B(  8-C , 20-H ) :   0.8966
B(  8-C , 21-H ) :  -0.2093 B(  9-N , 10-C ) :   1.0184 B(  9-N , 11-N ) :   0.1413
B(  9-N , 12-C ) :   0.2679 B(  9-N , 19-H ) :   0.1015 B(  9-N , 20-H ) :   0.1099
B(  9-N , 21-H ) :   1.2940 B( 10-C , 11-N ) :   1.0026 B( 10-C , 12-C ) :   1.3909
B( 10-C , 21-H ) :  -0.2431 B( 10-C , 23-H ) :  -0.1306 B( 10-C , 25-H ) :   0.1973
B( 11-N , 12-C ) :   0.2019 B( 11-N , 22-H ) :   1.0807 B( 11-N , 23-H ) :   1.2650
B( 12-C , 24-H ) :   0.9512 B( 12-C , 25-H ) :   0.7840 B( 22-H , 23-H ) :  -0.1819
B( 26-N , 28-H ) :   1.0821 B( 26-N , 29-H ) :   1.0684 B( 28-H , 29-H ) :  -0.1457

Dispersion correction           -0.012697907
FINAL SINGLE POINT ENERGY      -683.328929105352

DIPOLE MOMENT
-------------
                                X             Y             Z
Electronic contribution:     10.23028      -6.96763      -3.39246
Nuclear contribution   :     -8.29637      10.52353       0.75027
                        -----------------------------------------
Total Dipole Moment    :      1.93390       3.55590      -2.64219
                        -----------------------------------------
Magnitude (a.u.)       :      4.83379
Magnitude (Debye)      :     12.28653

Rotational constants in cm-1:     0.057025     0.008886     0.008316
Rotational constants in MHz :  1709.578985   266.394511   249.315445

                             ****ORCA TERMINATED NORMALLY****
TOTAL RUN TIME: 0 days 0 hours 4 minutes 20 seconds 991 msec
