                         Program Version 5.0.0 -  RELEASE  -
|  1> !DLPNO-CCSD(T) aug-cc-pVTZ aug-cc-pVTZ/C TightSCF TightPNO RIJCOSX def2/J
|  2> *xyz -1 1
|  3> C          4.99986       -1.59613       -5.92488
|  4> C          3.76678       -2.26611       -6.51175
|  5> C          2.49670       -1.84416       -5.73570
|  6> H          1.62642       -2.21743       -6.30895
|  7> H          2.48182       -2.45607       -4.79341
|  8> O          2.45973       -0.50920       -5.50576
|  9> H          3.88619       -3.35708       -6.53360
| 10> H          3.68560       -1.92217       -7.54713
| 11> H          5.86637       -1.89999       -6.47418
| 12> H          5.10830       -1.88372       -4.89997
| 13> H          4.89230       -0.53341       -5.98765
| 14> *
| 15>
| 16> %MaxCore 64000
| 17>
| 18> %pal nprocs 8
| 19> end
| 20>
| 21> %scf
| 22>   MaxIter 150
| 23> end
| 24>
| 25>
| 26>                          ****END OF INPUT****

CARTESIAN COORDINATES (ANGSTROEM)
---------------------------------
  C      4.999860   -1.596130   -5.924880
  C      3.766780   -2.266110   -6.511750
  C      2.496700   -1.844160   -5.735700
  H      1.626420   -2.217430   -6.308950
  H      2.481820   -2.456070   -4.793410
  O      2.459730   -0.509200   -5.505760
  H      3.886190   -3.357080   -6.533600
  H      3.685600   -1.922170   -7.547130
  H      5.866370   -1.899990   -6.474180
  H      5.108300   -1.883720   -4.899970
  H      4.892300   -0.533410   -5.987650

 Total Charge           Charge          ....   -1
 Multiplicity           Mult            ....    1
 Number of Electrons    NEL             ....   34
 Basis Dimension        Dim             ....  345

ORBITAL ENERGIES
----------------

  NO   OCC          E(Eh)            E(eV)
   0   2.0000     -20.207408      -549.8715
   1   2.0000     -11.039914      -300.4113
   2   2.0000     -11.029877      -300.1382
   3   2.0000     -11.027636      -300.0772
   4   2.0000      -1.006959       -27.4007
   5   2.0000      -0.847681       -23.0666
   6   2.0000      -0.700212       -19.0537
   7   2.0000      -0.571944       -15.5634
   8   2.0000      -0.438580       -11.9344
   9   2.0000      -0.425307       -11.5732
  10   2.0000      -0.364180        -9.9098
  11   2.0000      -0.336879        -9.1669
  12   2.0000      -0.299907        -8.1609
  13   2.0000      -0.289430        -7.8758
  14   2.0000      -0.263425        -7.1682
  15   2.0000      -0.117810        -3.2058
  16   2.0000      -0.113662        -3.0929
  17   0.0000       0.123546         3.3619
  18   0.0000       0.134672         3.6646
  19   0.0000       0.138352         3.7647
  20   0.0000       0.148631         4.0444
  21   0.0000       0.155278         4.2253

MULLIKEN ATOMIC CHARGES
-----------------------
   0 C :   -0.934098
   1 C :   -0.520859
   2 C :   -0.168184
   3 H :    0.208783
   4 H :    0.182619
   5 O :   -1.140772
   6 H :    0.250629
   7 H :    0.237318
   8 H :    0.248305
   9 H :    0.292834
  10 H :    0.343425
Sum of atomic charges:   -1.0000000

LOEWDIN ATOMIC CHARGES
----------------------
   0 C :    0.522695
   1 C :    0.178755
   2 C :   -0.400487
   3 H :   -0.234740
   4 H :   -0.217585
   5 O :    0.147187
   6 H :   -0.180536
   7 H :   -0.182158
   8 H :   -0.216904
   9 H :   -0.197846
  10 H :   -0.218382

  Mayer bond orders larger than 0.100000
B(  0-C ,  1-C ) :   0.8073 B(  0-C ,  8-H ) :   0.9960 B(  0-C ,  9-H ) :   0.9282
B(  0-C , 10-H ) :   0.8956 B(  1-C ,  2-C ) :   0.8744 B(  1-C ,  6-H ) :   0.9352
B(  1-C ,  7-H ) :   0.9674 B(  2-C ,  3-H ) :   1.0282 B(  2-C ,  4-H ) :   1.0017
B(  2-C ,  5-O ) :   1.1208

E(0)                                       ...   -192.558748899
E(0)                                       ...   -192.558748899
E(CORR)(strong-pairs)                      ...     -0.838656551
E(CORR)(weak-pairs)                        ...     -0.000696169
E(CORR)(corrected)                         ...     -0.839352720
E(TOT)                                     ...   -193.398101618
E(CCSD(T))                                 ...   -193.432172621
FINAL SINGLE POINT ENERGY      -193.432172620801

DIPOLE MOMENT
-------------
                                X             Y             Z
Electronic contribution:     -1.95590       1.89896       0.51026
Nuclear contribution   :      3.33375      -3.25054      -1.09297
                        -----------------------------------------
Total Dipole Moment    :      1.37785      -1.35158      -0.58271
                        -----------------------------------------
Magnitude (a.u.)       :      2.01613
Magnitude (Debye)      :      5.12459

Rotational constants in cm-1:     0.478390     0.193336     0.154822
Rotational constants in MHz : 14341.777399  5796.063993  4641.443060

                             ****ORCA TERMINATED NORMALLY****
TOTAL RUN TIME: 0 days 0 hours 6 minutes 0 seconds 604 msec
