                         Program Version 5.0.0 -  RELEASE  -
|  1> !DLPNO-CCSD(T) aug-cc-pVTZ aug-cc-pVTZ/C TightSCF TightPNO RIJCOSX def2/J
|  2> *xyz 1 1
|  3> C          4.99986       -1.59613       -5.92488
|  4> N          5.28156       -1.97413       -4.53576
|  5> C          3.76678       -2.26611       -6.51175
|  6> C          2.49670       -1.84416       -5.73570
|  7> C          4.79250       -1.36132       -3.45730
|  8> N          3.93990       -0.37492       -3.55736
|  9> N          5.25986       -1.75422       -2.23913
| 10> H          5.92282       -2.52145       -2.18672
| 11> H          4.65468       -1.64040       -1.44202
| 12> H          5.70914       -2.87560       -4.38702
| 13> H          3.33010       -0.31764       -4.36125
| 14> H          3.69849        0.11447       -2.70833
| 15> H          4.84333       -0.51793       -5.94302
| 16> H          5.90170       -1.82250       -6.49647
| 17> H          3.88619       -3.35708       -6.53360
| 18> H          3.68560       -1.92217       -7.54713
| 19> H          1.64155       -2.32499       -6.16281
| 20> H          2.37707       -0.78268       -5.79763
| 21> H          2.59306       -2.13299       -4.70994
| 22> *
| 23>
| 24> %MaxCore 64000
| 25>
| 26> %pal nprocs 2
| 27> end
| 28>
| 29> %scf
| 30>   MaxIter 150
| 31> end
| 32>
| 33>
| 34>                          ****END OF INPUT****

CARTESIAN COORDINATES (ANGSTROEM)
---------------------------------
  C      4.999860   -1.596130   -5.924880
  N      5.281560   -1.974130   -4.535760
  C      3.766780   -2.266110   -6.511750
  C      2.496700   -1.844160   -5.735700
  C      4.792500   -1.361320   -3.457300
  N      3.939900   -0.374920   -3.557360
  N      5.259860   -1.754220   -2.239130
  H      5.922820   -2.521450   -2.186720
  H      4.654680   -1.640400   -1.442020
  H      5.709140   -2.875600   -4.387020
  H      3.330100   -0.317640   -4.361250
  H      3.698490    0.114470   -2.708330
  H      4.843330   -0.517930   -5.943020
  H      5.901700   -1.822500   -6.496470
  H      3.886190   -3.357080   -6.533600
  H      3.685600   -1.922170   -7.547130
  H      1.641550   -2.324990   -6.162810
  H      2.377070   -0.782680   -5.797630
  H      2.593060   -2.132990   -4.709940

 Total Charge           Charge          ....    1
 Multiplicity           Mult            ....    1
 Number of Electrons    NEL             ....   56
 Basis Dimension        Dim             ....  598

ORBITAL ENERGIES
----------------

  NO   OCC          E(Eh)            E(eV)
   0   2.0000     -15.781931      -429.4482
   1   2.0000     -15.779535      -429.3830
   2   2.0000     -15.777720      -429.3336
   3   2.0000     -11.584359      -315.2264
   4   2.0000     -11.427170      -310.9491
   5   2.0000     -11.371833      -309.4433
   6   2.0000     -11.358256      -309.0739
   7   2.0000      -1.536506       -41.8105
   8   2.0000      -1.401569       -38.1386
   9   2.0000      -1.383930       -37.6587
  10   2.0000      -1.214206       -33.0402
  11   2.0000      -1.109211       -30.1832
  12   2.0000      -1.043492       -28.3949
  13   2.0000      -0.984020       -26.7766
  14   2.0000      -0.963749       -26.2249
  15   2.0000      -0.920325       -25.0433
  16   2.0000      -0.867367       -23.6023
  17   2.0000      -0.858623       -23.3643
  18   2.0000      -0.807119       -21.9628
  19   2.0000      -0.794644       -21.6234
  20   2.0000      -0.768694       -20.9172
  21   2.0000      -0.734384       -19.9836
  22   2.0000      -0.713307       -19.4101
  23   2.0000      -0.670056       -18.2331
  24   2.0000      -0.644381       -17.5345
  25   2.0000      -0.635796       -17.3009
  26   2.0000      -0.616349       -16.7717
  27   2.0000      -0.578021       -15.7288
  28   0.0000      -0.090346        -2.4584
  29   0.0000      -0.072924        -1.9844
  30   0.0000      -0.064020        -1.7421
  31   0.0000      -0.058698        -1.5973
  32   0.0000      -0.046538        -1.2664

MULLIKEN ATOMIC CHARGES
-----------------------
   0 C :   -0.318833
   1 N :   -0.011967
   2 C :   -0.468077
   3 C :   -0.890109
   4 C :    0.485760
   5 N :   -0.235244
   6 N :   -0.487754
   7 H :    0.144760
   8 H :    0.133762
   9 H :    0.064892
  10 H :    0.396052
  11 H :    0.107577
  12 H :    0.291281
  13 H :    0.385058
  14 H :    0.282325
  15 H :    0.285784
  16 H :    0.338285
  17 H :    0.200988
  18 H :    0.295461
Sum of atomic charges:    1.0000000

LOEWDIN ATOMIC CHARGES
----------------------
   0 C :    0.248941
   1 N :    0.633423
   2 C :    0.329156
   3 C :    0.630199
   4 C :   -0.358013
   5 N :    0.955578
   6 N :    0.941857
   7 H :   -0.247624
   8 H :   -0.259916
   9 H :   -0.239721
  10 H :   -0.360408
  11 H :   -0.219923
  12 H :   -0.146640
  13 H :   -0.116956
  14 H :   -0.127656
  15 H :   -0.133087
  16 H :   -0.149903
  17 H :   -0.178494
  18 H :   -0.200813

  Mayer bond orders larger than 0.100000
B(  0-C ,  1-N ) :   0.8741 B(  0-C ,  2-C ) :   0.8186 B(  0-C ,  4-C ) :  -0.1213
B(  0-C , 12-H ) :   1.0048 B(  0-C , 13-H ) :   0.8749 B(  1-N ,  4-C ) :   1.0226
B(  1-N ,  6-N ) :  -0.1257 B(  1-N ,  9-H ) :   1.0896 B(  2-C ,  3-C ) :   0.8718
B(  2-C , 14-H ) :   0.9265 B(  2-C , 15-H ) :   0.9382 B(  3-C , 16-H ) :   0.9311
B(  3-C , 17-H ) :   1.0025 B(  3-C , 18-H ) :   0.9035 B(  4-C ,  5-N ) :   1.0046
B(  4-C ,  6-N ) :   0.9319 B(  4-C , 10-H ) :  -0.1488 B(  5-N ,  6-N ) :  -0.1121
B(  5-N , 10-H ) :   0.7685 B(  5-N , 11-H ) :   1.0691 B(  6-N ,  7-H ) :   1.0445
B(  6-N ,  8-H ) :   1.0880

E(0)                                       ...   -321.746933731
E(0)                                       ...   -321.746933731
E(CORR)(strong-pairs)                      ...     -1.374463057
E(CORR)(weak-pairs)                        ...     -0.001666439
E(CORR)(corrected)                         ...     -1.376129496
E(TOT)                                     ...   -323.123063228
E(CCSD(T))                                 ...   -323.178895150
FINAL SINGLE POINT ENERGY      -323.178895149862

DIPOLE MOMENT
-------------
                                X             Y             Z
Electronic contribution:      3.84933       0.80650       4.87116
Nuclear contribution   :     -3.69451      -0.93313      -3.60402
                        -----------------------------------------
Total Dipole Moment    :      0.15482      -0.12663       1.26714
                        -----------------------------------------
Magnitude (a.u.)       :      1.28283
Magnitude (Debye)      :      3.26070

Rotational constants in cm-1:     0.152547     0.057272     0.048491
Rotational constants in MHz :  4573.230603  1716.968614  1453.721796

                             ****ORCA TERMINATED NORMALLY****
TOTAL RUN TIME: 0 days 2 hours 26 minutes 5 seconds 917 msec
