                         Program Version 5.0.0 -  RELEASE  -
|  1> !DLPNO-CCSD(T) aug-cc-pVTZ aug-cc-pVTZ/C TightSCF TightPNO RIJCOSX def2/J
|  2> *xyz 0 1
|  3> C          4.99986       -1.59613       -5.92488
|  4> C          3.76678       -2.26611       -6.51175
|  5> C          2.49670       -1.84416       -5.73570
|  6> H          1.62642       -2.21743       -6.30895
|  7> H          2.48182       -2.45607       -4.79341
|  8> F          2.45973       -0.50920       -5.50576
|  9> H          3.88619       -3.35708       -6.53360
| 10> H          3.68560       -1.92217       -7.54713
| 11> H          5.86637       -1.89999       -6.47418
| 12> H          5.10830       -1.88372       -4.89997
| 13> H          4.89230       -0.53341       -5.98765
| 14> *
| 15>
| 16> %MaxCore 64000
| 17>
| 18> %pal nprocs 8
| 19> end
| 20>
| 21> %scf
| 22>   MaxIter 150
| 23> end
| 24>
| 25>
| 26>                          ****END OF INPUT****

CARTESIAN COORDINATES (ANGSTROEM)
---------------------------------
  C      4.999860   -1.596130   -5.924880
  C      3.766780   -2.266110   -6.511750
  C      2.496700   -1.844160   -5.735700
  H      1.626420   -2.217430   -6.308950
  H      2.481820   -2.456070   -4.793410
  F      2.459730   -0.509200   -5.505760
  H      3.886190   -3.357080   -6.533600
  H      3.685600   -1.922170   -7.547130
  H      5.866370   -1.899990   -6.474180
  H      5.108300   -1.883720   -4.899970
  H      4.892300   -0.533410   -5.987650

 Total Charge           Charge          ....    0
 Multiplicity           Mult            ....    1
 Number of Electrons    NEL             ....   34
 Basis Dimension        Dim             ....  345

ORBITAL ENERGIES
----------------

  NO   OCC          E(Eh)            E(eV)
   0   2.0000     -26.287842      -715.3285
   1   2.0000     -11.309403      -307.7445
   2   2.0000     -11.228302      -305.5376
   3   2.0000     -11.204618      -304.8932
   4   2.0000      -1.604952       -43.6730
   5   2.0000      -1.061600       -28.8876
   6   2.0000      -0.936796       -25.4915
   7   2.0000      -0.816162       -22.2089
   8   2.0000      -0.709981       -19.3196
   9   2.0000      -0.705441       -19.1960
  10   2.0000      -0.672650       -18.3037
  11   2.0000      -0.610333       -16.6080
  12   2.0000      -0.572809       -15.5869
  13   2.0000      -0.532764       -14.4972
  14   2.0000      -0.504233       -13.7209
  15   2.0000      -0.470871       -12.8131
  16   2.0000      -0.469605       -12.7786
  17   0.0000       0.030452         0.8286
  18   0.0000       0.038870         1.0577
  19   0.0000       0.040448         1.1006
  20   0.0000       0.045439         1.2365
  21   0.0000       0.062446         1.6992

MULLIKEN ATOMIC CHARGES
-----------------------
   0 C :   -0.928107
   1 C :   -0.532526
   2 C :   -0.109311
   3 H :    0.309788
   4 H :    0.279667
   5 F :   -0.501692
   6 H :    0.311872
   7 H :    0.257151
   8 H :    0.286592
   9 H :    0.300529
  10 H :    0.326035
Sum of atomic charges:    0.0000000

LOEWDIN ATOMIC CHARGES
----------------------
   0 C :    0.573008
   1 C :    0.247621
   2 C :   -0.115936
   3 H :   -0.170125
   4 H :   -0.152244
   5 F :    0.486759
   6 H :   -0.143959
   7 H :   -0.161806
   8 H :   -0.185458
   9 H :   -0.184798
  10 H :   -0.193063

  Mayer bond orders larger than 0.100000
B(  0-C ,  1-C ) :   0.8272 B(  0-C ,  8-H ) :   0.9731 B(  0-C ,  9-H ) :   0.9181
B(  0-C , 10-H ) :   0.9117 B(  1-C ,  2-C ) :   0.9355 B(  1-C ,  6-H ) :   0.9007
B(  1-C ,  7-H ) :   0.9504 B(  2-C ,  3-H ) :   0.9452 B(  2-C ,  4-H ) :   0.9411
B(  2-C ,  5-F ) :   0.6521

E(0)                                       ...   -217.192137126
E(0)                                       ...   -217.192137126
E(CORR)(strong-pairs)                      ...     -0.831996333
E(CORR)(weak-pairs)                        ...     -0.000660406
E(CORR)(corrected)                         ...     -0.832656739
E(TOT)                                     ...   -218.024793865
E(CCSD(T))                                 ...   -218.053521687
FINAL SINGLE POINT ENERGY      -218.053521687178

DIPOLE MOMENT
-------------
                                X             Y             Z
Electronic contribution:     -4.40119       3.81340       1.41268
Nuclear contribution   :      4.50596      -4.50325      -1.58424
                        -----------------------------------------
Total Dipole Moment    :      0.10478      -0.68985      -0.17156
                        -----------------------------------------
Magnitude (a.u.)       :      0.71854
Magnitude (Debye)      :      1.82639

Rotational constants in cm-1:     0.464063     0.182606     0.146573
Rotational constants in MHz : 13912.251583  5474.398056  4394.141907

                             ****ORCA TERMINATED NORMALLY****
TOTAL RUN TIME: 0 days 0 hours 4 minutes 40 seconds 77 msec
