                         Program Version 5.0.0 -  RELEASE  -
|  1> !DLPNO-CCSD(T) aug-cc-pVTZ aug-cc-pVTZ/C TightSCF TightPNO RIJCOSX def2/J
|  2> *xyz 0 1
|  3> C          4.99986       -1.59613       -5.92488
|  4> C          5.28156       -1.97413       -4.53576
|  5> C          3.76678       -2.26611       -6.51175
|  6> C          2.49670       -1.84416       -5.73570
|  7> C          4.79250       -1.36132       -3.45730
|  8> N          3.93990       -0.37492       -3.55736
|  9> N          5.25986       -1.75422       -2.23913
| 10> H          5.92282       -2.52145       -2.18672
| 11> H          4.65468       -1.64040       -1.44202
| 12> H          5.70914       -2.87560       -4.38702
| 13> H          3.33010       -0.31764       -4.36125
| 14> H          3.69849        0.11447       -2.70833
| 15> H          4.84333       -0.51793       -5.94302
| 16> H          5.90170       -1.82250       -6.49647
| 17> H          3.88619       -3.35708       -6.53360
| 18> H          3.68560       -1.92217       -7.54713
| 19> H          1.64155       -2.32499       -6.16281
| 20> H          2.37707       -0.78268       -5.79763
| 21> H          2.59306       -2.13299       -4.70994
| 22> *
| 23>
| 24> %MaxCore 64000
| 25>
| 26> %pal nprocs 2
| 27> end
| 28>
| 29> %scf
| 30>   MaxIter 150
| 31> end
| 32>
| 33>
| 34>                          ****END OF INPUT****

CARTESIAN COORDINATES (ANGSTROEM)
---------------------------------
  C      4.999860   -1.596130   -5.924880
  C      5.281560   -1.974130   -4.535760
  C      3.766780   -2.266110   -6.511750
  C      2.496700   -1.844160   -5.735700
  C      4.792500   -1.361320   -3.457300
  N      3.939900   -0.374920   -3.557360
  N      5.259860   -1.754220   -2.239130
  H      5.922820   -2.521450   -2.186720
  H      4.654680   -1.640400   -1.442020
  H      5.709140   -2.875600   -4.387020
  H      3.330100   -0.317640   -4.361250
  H      3.698490    0.114470   -2.708330
  H      4.843330   -0.517930   -5.943020
  H      5.901700   -1.822500   -6.496470
  H      3.886190   -3.357080   -6.533600
  H      3.685600   -1.922170   -7.547130
  H      1.641550   -2.324990   -6.162810
  H      2.377070   -0.782680   -5.797630
  H      2.593060   -2.132990   -4.709940

 Total Charge           Charge          ....    0
 Multiplicity           Mult            ....    1
 Number of Electrons    NEL             ....   56
 Basis Dimension        Dim             ....  598

ORBITAL ENERGIES
----------------

  NO   OCC          E(Eh)            E(eV)
   0   2.0000     -15.559594      -423.3981
   1   2.0000     -15.557067      -423.3293
   2   2.0000     -11.280990      -306.9713
   3   2.0000     -11.205235      -304.9099
   4   2.0000     -11.201960      -304.8208
   5   2.0000     -11.192938      -304.5753
   6   2.0000     -11.140659      -303.1527
   7   2.0000      -1.278349       -34.7856
   8   2.0000      -1.164085       -31.6764
   9   2.0000      -1.065306       -28.9884
  10   2.0000      -0.984992       -26.8030
  11   2.0000      -0.900409       -24.5014
  12   2.0000      -0.817710       -22.2510
  13   2.0000      -0.762679       -20.7535
  14   2.0000      -0.726355       -19.7651
  15   2.0000      -0.687024       -18.6949
  16   2.0000      -0.648694       -17.6519
  17   2.0000      -0.614903       -16.7324
  18   2.0000      -0.598665       -16.2905
  19   2.0000      -0.579951       -15.7813
  20   2.0000      -0.546674       -14.8758
  21   2.0000      -0.524507       -14.2726
  22   2.0000      -0.506142       -13.7728
  23   2.0000      -0.474317       -12.9068
  24   2.0000      -0.457869       -12.4593
  25   2.0000      -0.457013       -12.4360
  26   2.0000      -0.410291       -11.1646
  27   2.0000      -0.260763        -7.0957
  28   0.0000       0.024724         0.6728
  29   0.0000       0.035444         0.9645
  30   0.0000       0.037058         1.0084
  31   0.0000       0.041704         1.1348
  32   0.0000       0.051325         1.3966

MULLIKEN ATOMIC CHARGES
-----------------------
   0 C :   -0.119408
   1 C :   -0.212897
   2 C :   -0.493099
   3 C :   -0.917667
   4 C :    0.502399
   5 N :   -0.465180
   6 N :   -0.661033
   7 H :    0.077997
   8 H :    0.079338
   9 H :    0.027916
  10 H :    0.342470
  11 H :    0.098408
  12 H :    0.086813
  13 H :    0.378905
  14 H :    0.254296
  15 H :    0.235078
  16 H :    0.354136
  17 H :    0.143885
  18 H :    0.287643
Sum of atomic charges:    0.0000000

LOEWDIN ATOMIC CHARGES
----------------------
   0 C :    0.225222
   1 C :    0.210406
   2 C :    0.294406
   3 C :    0.608098
   4 C :   -0.418814
   5 N :    0.881682
   6 N :    0.857665
   7 H :   -0.278653
   8 H :   -0.301010
   9 H :   -0.272922
  10 H :   -0.380289
  11 H :   -0.258538
  12 H :   -0.167670
  13 H :   -0.145305
  14 H :   -0.136501
  15 H :   -0.154621
  16 H :   -0.170827
  17 H :   -0.186786
  18 H :   -0.205541

  Mayer bond orders larger than 0.100000
B(  0-C ,  1-C ) :   0.5600 B(  0-C ,  2-C ) :   0.7761 B(  0-C ,  4-C ) :   0.2176
B(  0-C , 12-H ) :   1.0863 B(  0-C , 13-H ) :   0.9476 B(  1-C ,  2-C ) :   0.1493
B(  1-C ,  4-C ) :   1.0008 B(  1-C ,  5-N ) :  -0.1216 B(  1-C ,  6-N ) :  -0.2637
B(  1-C ,  9-H ) :   1.2995 B(  1-C , 13-H ) :  -0.1778 B(  2-C ,  3-C ) :   0.8533
B(  2-C , 14-H ) :   0.9505 B(  2-C , 15-H ) :   0.9934 B(  3-C , 16-H ) :   0.8883
B(  3-C , 17-H ) :   1.0621 B(  3-C , 18-H ) :   0.9077 B(  4-C ,  5-N ) :   0.7688
B(  4-C ,  6-N ) :   0.7476 B(  4-C ,  8-H ) :  -0.1410 B(  4-C , 10-H ) :  -0.1350
B(  5-N ,  6-N ) :  -0.1404 B(  5-N , 10-H ) :   0.8519 B(  5-N , 11-H ) :   1.0763
B(  6-N ,  7-H ) :   1.1085 B(  6-N ,  8-H ) :   1.1352

E(0)                                       ...   -305.293068290
E(0)                                       ...   -305.293068290
E(CORR)(strong-pairs)                      ...     -1.358109304
E(CORR)(weak-pairs)                        ...     -0.001674050
E(CORR)(corrected)                         ...     -1.359783355
E(TOT)                                     ...   -306.652851644
E(CCSD(T))                                 ...   -306.709086425
FINAL SINGLE POINT ENERGY      -306.709086424627

DIPOLE MOMENT
-------------
                                X             Y             Z
Electronic contribution:      2.84169       1.03408       4.34092
Nuclear contribution   :     -3.49027      -1.01686      -3.60427
                        -----------------------------------------
Total Dipole Moment    :     -0.64858       0.01721       0.73665
                        -----------------------------------------
Magnitude (a.u.)       :      0.98163
Magnitude (Debye)      :      2.49510

Rotational constants in cm-1:     0.155200     0.057307     0.048781
Rotational constants in MHz :  4652.781345  1718.017305  1462.410307

                             ****ORCA TERMINATED NORMALLY****
TOTAL RUN TIME: 0 days 2 hours 34 minutes 16 seconds 565 msec
