                         Program Version 5.0.0 -  RELEASE  -
|  1> !DLPNO-CCSD(T) aug-cc-pVTZ aug-cc-pVTZ/C TightSCF TightPNO RIJCOSX def2/J
|  2> *xyz 0 1
|  3> C          4.99986       -1.59613       -5.92488
|  4> N          5.28156       -1.97413       -4.53576
|  5> C          3.76678       -2.26611       -6.51175
|  6> C          2.49670       -1.84416       -5.73570
|  7> C          4.79250       -1.36132       -3.45730
|  8> C          3.93990       -0.37492       -3.55736
|  9> N          5.25986       -1.75422       -2.23913
| 10> H          5.92282       -2.52145       -2.18672
| 11> H          4.65468       -1.64040       -1.44202
| 12> H          5.70914       -2.87560       -4.38702
| 13> H          3.33010       -0.31764       -4.36125
| 14> H          3.69849        0.11447       -2.70833
| 15> H          4.84333       -0.51793       -5.94302
| 16> H          5.90170       -1.82250       -6.49647
| 17> H          3.88619       -3.35708       -6.53360
| 18> H          3.68560       -1.92217       -7.54713
| 19> H          1.64155       -2.32499       -6.16281
| 20> H          2.37707       -0.78268       -5.79763
| 21> H          2.59306       -2.13299       -4.70994
| 22> *
| 23>
| 24> %MaxCore 64000
| 25>
| 26> %pal nprocs 2
| 27> end
| 28>
| 29> %scf
| 30>   MaxIter 150
| 31> end
| 32>
| 33>
| 34>                          ****END OF INPUT****

CARTESIAN COORDINATES (ANGSTROEM)
---------------------------------
  C      4.999860   -1.596130   -5.924880
  N      5.281560   -1.974130   -4.535760
  C      3.766780   -2.266110   -6.511750
  C      2.496700   -1.844160   -5.735700
  C      4.792500   -1.361320   -3.457300
  C      3.939900   -0.374920   -3.557360
  N      5.259860   -1.754220   -2.239130
  H      5.922820   -2.521450   -2.186720
  H      4.654680   -1.640400   -1.442020
  H      5.709140   -2.875600   -4.387020
  H      3.330100   -0.317640   -4.361250
  H      3.698490    0.114470   -2.708330
  H      4.843330   -0.517930   -5.943020
  H      5.901700   -1.822500   -6.496470
  H      3.886190   -3.357080   -6.533600
  H      3.685600   -1.922170   -7.547130
  H      1.641550   -2.324990   -6.162810
  H      2.377070   -0.782680   -5.797630
  H      2.593060   -2.132990   -4.709940

 Total Charge           Charge          ....    0
 Multiplicity           Mult            ....    1
 Number of Electrons    NEL             ....   56
 Basis Dimension        Dim             ....  598

ORBITAL ENERGIES
----------------

  NO   OCC          E(Eh)            E(eV)
   0   2.0000     -15.559032      -423.3828
   1   2.0000     -15.557955      -423.3535
   2   2.0000     -11.282600      -307.0152
   3   2.0000     -11.255117      -306.2673
   4   2.0000     -11.219847      -305.3076
   5   2.0000     -11.197717      -304.7054
   6   2.0000     -11.125985      -302.7535
   7   2.0000      -1.278662       -34.7942
   8   2.0000      -1.174499       -31.9597
   9   2.0000      -1.046070       -28.4650
  10   2.0000      -0.987525       -26.8719
  11   2.0000      -0.922605       -25.1054
  12   2.0000      -0.823393       -22.4057
  13   2.0000      -0.759936       -20.6789
  14   2.0000      -0.720075       -19.5942
  15   2.0000      -0.690192       -18.7811
  16   2.0000      -0.631722       -17.1900
  17   2.0000      -0.625357       -17.0168
  18   2.0000      -0.592380       -16.1195
  19   2.0000      -0.568732       -15.4760
  20   2.0000      -0.549265       -14.9463
  21   2.0000      -0.531753       -14.4697
  22   2.0000      -0.528427       -14.3792
  23   2.0000      -0.489274       -13.3138
  24   2.0000      -0.480264       -13.0686
  25   2.0000      -0.470706       -12.8086
  26   2.0000      -0.390970       -10.6388
  27   2.0000      -0.273400        -7.4396
  28   0.0000       0.024593         0.6692
  29   0.0000       0.034105         0.9280
  30   0.0000       0.037685         1.0255
  31   0.0000       0.041119         1.1189
  32   0.0000       0.051694         1.4067

MULLIKEN ATOMIC CHARGES
-----------------------
   0 C :   -0.424463
   1 N :   -0.184176
   2 C :   -0.479963
   3 C :   -0.906247
   4 C :    0.715176
   5 C :   -1.317049
   6 N :   -0.589377
   7 H :    0.078286
   8 H :    0.073828
   9 H :    0.060336
  10 H :    0.711184
  11 H :    0.195694
  12 H :    0.320251
  13 H :    0.377502
  14 H :    0.254869
  15 H :    0.253810
  16 H :    0.306860
  17 H :    0.209838
  18 H :    0.343641
Sum of atomic charges:    0.0000000

LOEWDIN ATOMIC CHARGES
----------------------
   0 C :    0.216414
   1 N :    0.577315
   2 C :    0.305787
   3 C :    0.605871
   4 C :   -0.433730
   5 C :    0.548664
   6 N :    0.865122
   7 H :   -0.288369
   8 H :   -0.288401
   9 H :   -0.271672
  10 H :   -0.393092
  11 H :   -0.284528
  12 H :   -0.159234
  13 H :   -0.137739
  14 H :   -0.140974
  15 H :   -0.151506
  16 H :   -0.172534
  17 H :   -0.190952
  18 H :   -0.206439

  Mayer bond orders larger than 0.100000
B(  0-C ,  1-N ) :   1.0195 B(  0-C ,  2-C ) :   0.8062 B(  0-C ,  4-C ) :  -0.1020
B(  0-C , 12-H ) :   1.0012 B(  0-C , 13-H ) :   0.8804 B(  1-N ,  4-C ) :   0.8741
B(  1-N ,  5-C ) :  -0.1632 B(  1-N ,  6-N ) :  -0.1642 B(  1-N ,  9-H ) :   1.0891
B(  2-C ,  3-C ) :   0.8496 B(  2-C , 14-H ) :   0.9341 B(  2-C , 15-H ) :   0.9516
B(  3-C , 16-H ) :   0.9510 B(  3-C , 17-H ) :   1.0254 B(  3-C , 18-H ) :   0.8726
B(  4-C ,  5-C ) :   1.2968 B(  4-C ,  6-N ) :   0.5897 B(  5-C ,  6-N ) :  -0.1005
B(  5-C , 10-H ) :   0.4830 B(  5-C , 11-H ) :   1.2025 B(  6-N ,  7-H ) :   1.1085
B(  6-N ,  8-H ) :   1.1510

E(0)                                       ...   -305.283856806
E(0)                                       ...   -305.283856806
E(CORR)(strong-pairs)                      ...     -1.355592188
E(CORR)(weak-pairs)                        ...     -0.001680874
E(CORR)(corrected)                         ...     -1.357273062
E(TOT)                                     ...   -306.641129868
E(CCSD(T))                                 ...   -306.697133408
FINAL SINGLE POINT ENERGY      -306.697133408263

DIPOLE MOMENT
-------------
                                X             Y             Z
Electronic contribution:      4.02854      -0.40437       3.34804
Nuclear contribution   :     -3.78417      -0.66655      -3.38995
                        -----------------------------------------
Total Dipole Moment    :      0.24438      -1.07092      -0.04191
                        -----------------------------------------
Magnitude (a.u.)       :      1.09925
Magnitude (Debye)      :      2.79408

Rotational constants in cm-1:     0.157710     0.057795     0.049101
Rotational constants in MHz :  4728.033540  1732.635996  1472.015132

                             ****ORCA TERMINATED NORMALLY****
TOTAL RUN TIME: 0 days 2 hours 16 minutes 42 seconds 124 msec
