                         Program Version 5.0.0 -  RELEASE  -
|  1> !DLPNO-CCSD(T) aug-cc-pVTZ aug-cc-pVTZ/C TightSCF TightPNO RIJCOSX def2/J
|  2> *xyz 0 1
|  3> C          4.99986       -1.59613       -5.92488
|  4> N          5.28156       -1.97413       -4.53576
|  5> C          3.76678       -2.26611       -6.51175
|  6> C          2.49670       -1.84416       -5.73570
|  7> C          4.79250       -1.36132       -3.45730
|  8> N          3.93990       -0.37492       -3.55736
|  9> C          5.25986       -1.75422       -2.23913
| 10> H          5.92282       -2.52145       -2.18672
| 11> H          4.65468       -1.64040       -1.44202
| 12> H          5.70914       -2.87560       -4.38702
| 13> H          3.33010       -0.31764       -4.36125
| 14> H          3.69849        0.11447       -2.70833
| 15> H          4.84333       -0.51793       -5.94302
| 16> H          5.90170       -1.82250       -6.49647
| 17> H          3.88619       -3.35708       -6.53360
| 18> H          3.68560       -1.92217       -7.54713
| 19> H          1.64155       -2.32499       -6.16281
| 20> H          2.37707       -0.78268       -5.79763
| 21> H          2.59306       -2.13299       -4.70994
| 22> *
| 23>
| 24> %MaxCore 64000
| 25>
| 26> %pal nprocs 2
| 27> end
| 28>
| 29> %scf
| 30>   MaxIter 150
| 31> end
| 32>
| 33>
| 34>                          ****END OF INPUT****

CARTESIAN COORDINATES (ANGSTROEM)
---------------------------------
  C      4.999860   -1.596130   -5.924880
  N      5.281560   -1.974130   -4.535760
  C      3.766780   -2.266110   -6.511750
  C      2.496700   -1.844160   -5.735700
  C      4.792500   -1.361320   -3.457300
  N      3.939900   -0.374920   -3.557360
  C      5.259860   -1.754220   -2.239130
  H      5.922820   -2.521450   -2.186720
  H      4.654680   -1.640400   -1.442020
  H      5.709140   -2.875600   -4.387020
  H      3.330100   -0.317640   -4.361250
  H      3.698490    0.114470   -2.708330
  H      4.843330   -0.517930   -5.943020
  H      5.901700   -1.822500   -6.496470
  H      3.886190   -3.357080   -6.533600
  H      3.685600   -1.922170   -7.547130
  H      1.641550   -2.324990   -6.162810
  H      2.377070   -0.782680   -5.797630
  H      2.593060   -2.132990   -4.709940

 Total Charge           Charge          ....    0
 Multiplicity           Mult            ....    1
 Number of Electrons    NEL             ....   56
 Basis Dimension        Dim             ....  598

ORBITAL ENERGIES
----------------

  NO   OCC          E(Eh)            E(eV)
   0   2.0000     -15.560970      -423.4355
   1   2.0000     -15.559844      -423.4049
   2   2.0000     -11.290961      -307.2427
   3   2.0000     -11.265369      -306.5463
   4   2.0000     -11.233067      -305.6673
   5   2.0000     -11.221885      -305.3630
   6   2.0000     -11.123862      -302.6957
   7   2.0000      -1.291931       -35.1552
   8   2.0000      -1.187481       -32.3130
   9   2.0000      -1.068978       -29.0884
  10   2.0000      -0.974445       -26.5160
  11   2.0000      -0.921410       -25.0728
  12   2.0000      -0.822194       -22.3730
  13   2.0000      -0.804282       -21.8856
  14   2.0000      -0.732030       -19.9195
  15   2.0000      -0.677720       -18.4417
  16   2.0000      -0.648212       -17.6387
  17   2.0000      -0.629850       -17.1391
  18   2.0000      -0.620550       -16.8860
  19   2.0000      -0.561740       -15.2857
  20   2.0000      -0.553143       -15.0518
  21   2.0000      -0.545191       -14.8354
  22   2.0000      -0.528558       -14.3828
  23   2.0000      -0.501270       -13.6402
  24   2.0000      -0.491112       -13.3638
  25   2.0000      -0.490340       -13.3428
  26   2.0000      -0.396242       -10.7823
  27   2.0000      -0.257446        -7.0055
  28   0.0000       0.025619         0.6971
  29   0.0000       0.032334         0.8798
  30   0.0000       0.035718         0.9719
  31   0.0000       0.038011         1.0343
  32   0.0000       0.052822         1.4374

MULLIKEN ATOMIC CHARGES
-----------------------
   0 C :   -0.405628
   1 N :   -0.132058
   2 C :   -0.483293
   3 C :   -0.903600
   4 C :    1.027946
   5 N :   -0.462816
   6 C :   -1.719480
   7 H :    0.473061
   8 H :    0.204456
   9 H :   -0.031585
  10 H :    0.420775
  11 H :    0.003717
  12 H :    0.269428
  13 H :    0.374458
  14 H :    0.266076
  15 H :    0.246760
  16 H :    0.327644
  17 H :    0.187874
  18 H :    0.336265
Sum of atomic charges:   -0.0000000

LOEWDIN ATOMIC CHARGES
----------------------
   0 C :    0.214803
   1 N :    0.581640
   2 C :    0.305999
   3 C :    0.615640
   4 C :   -0.455279
   5 N :    0.878532
   6 C :    0.546268
   7 H :   -0.319931
   8 H :   -0.333393
   9 H :   -0.261901
  10 H :   -0.390024
  11 H :   -0.249318
  12 H :   -0.157470
  13 H :   -0.136448
  14 H :   -0.137128
  15 H :   -0.151022
  16 H :   -0.166997
  17 H :   -0.186388
  18 H :   -0.197584

  Mayer bond orders larger than 0.100000
B(  0-C ,  1-N ) :   0.9562 B(  0-C ,  2-C ) :   0.7980 B(  0-C , 12-H ) :   1.0381
B(  0-C , 13-H ) :   0.8836 B(  1-N ,  4-C ) :   0.7359 B(  1-N ,  5-N ) :  -0.1390
B(  1-N ,  6-C ) :  -0.2121 B(  1-N ,  9-H ) :   1.2141 B(  2-C ,  3-C ) :   0.8582
B(  2-C , 14-H ) :   0.9279 B(  2-C , 15-H ) :   0.9754 B(  3-C , 16-H ) :   0.9379
B(  3-C , 17-H ) :   1.0140 B(  3-C , 18-H ) :   0.8877 B(  4-C ,  5-N ) :   0.8279
B(  4-C ,  6-C ) :   0.7480 B(  4-C , 10-H ) :  -0.2381 B(  5-N , 10-H ) :   0.7041
B(  5-N , 11-H ) :   1.2097 B(  6-C ,  7-H ) :   0.7328 B(  6-C ,  8-H ) :   1.2810

E(0)                                       ...   -305.281573550
E(0)                                       ...   -305.281573550
E(CORR)(strong-pairs)                      ...     -1.354769657
E(CORR)(weak-pairs)                        ...     -0.001641917
E(CORR)(corrected)                         ...     -1.356411574
E(TOT)                                     ...   -306.637985124
E(CCSD(T))                                 ...   -306.694204985
FINAL SINGLE POINT ENERGY      -306.694204985088

DIPOLE MOMENT
-------------
                                X             Y             Z
Electronic contribution:      2.67102       0.92158       1.81724
Nuclear contribution   :     -3.49502      -0.96869      -3.10119
                        -----------------------------------------
Total Dipole Moment    :     -0.82401      -0.04711      -1.28394
                        -----------------------------------------
Magnitude (a.u.)       :      1.52634
Magnitude (Debye)      :      3.87965

Rotational constants in cm-1:     0.153385     0.059790     0.050215
Rotational constants in MHz :  4598.376479  1792.462869  1505.410199

                             ****ORCA TERMINATED NORMALLY****
TOTAL RUN TIME: 0 days 2 hours 51 minutes 49 seconds 716 msec
