                         Program Version 5.0.0 -  RELEASE  -
|  1> !BLYP D3BJ RIJCOSX def2-SVPD def2/J TightSCF
|  2> *xyz -1 1
|  3> C         -1.78916       -0.63923        4.55750
|  4> C         -2.79070       -0.78527        5.70281
|  5> H         -2.86731       -1.83565        6.00167
|  6> H         -3.77455       -0.48658        5.33481
|  7> C         -2.45380        0.05510        6.94145
|  8> C         -2.07842        1.48042        6.56410
|  9> H         -1.62558       -0.38216        7.49891
| 10> H         -3.32527        0.08775        7.59917
| 11> O         -0.90125        1.85816        6.82810
| 12> O         -2.93658        2.17731        5.96415
| 13> H         -2.09421       -1.25377        3.73641
| 14> H         -0.81933       -0.94475        4.89064
| 15> H         -1.75281        0.38306        4.24366
| 16> *
| 17> %MaxCore 64000
| 18>
| 19> %pal nprocs 4
| 20> end
| 21>
| 22> %scf
| 23>   MaxIter 150
| 24> end
| 25>
| 26>
| 27>                          ****END OF INPUT****

CARTESIAN COORDINATES (ANGSTROEM)
---------------------------------
  C     -1.789160   -0.639230    4.557500
  C     -2.790700   -0.785270    5.702810
  H     -2.867310   -1.835650    6.001670
  H     -3.774550   -0.486580    5.334810
  C     -2.453800    0.055100    6.941450
  C     -2.078420    1.480420    6.564100
  H     -1.625580   -0.382160    7.498910
  H     -3.325270    0.087750    7.599170
  O     -0.901250    1.858160    6.828100
  O     -2.936580    2.177310    5.964150
  H     -2.094210   -1.253770    3.736410
  H     -0.819330   -0.944750    4.890640
  H     -1.752810    0.383060    4.243660

 Total Charge           Charge          ....   -1
 Multiplicity           Mult            ....    1
 Number of Electrons    NEL             ....   48
 Basis Dimension        Dim             ....  182

ORBITAL ENERGIES
----------------

  NO   OCC          E(Eh)            E(eV)
   0   2.0000     -18.535588      -504.3790
   1   2.0000     -18.534038      -504.3368
   2   2.0000      -9.805222      -266.8137
   3   2.0000      -9.774414      -265.9753
   4   2.0000      -9.765529      -265.7336
   5   2.0000      -9.749084      -265.2861
   6   2.0000      -0.719189       -19.5701
   7   2.0000      -0.630603       -17.1596
   8   2.0000      -0.551840       -15.0163
   9   2.0000      -0.463262       -12.6060
  10   2.0000      -0.375518       -10.2184
  11   2.0000      -0.270716        -7.3666
  12   2.0000      -0.252504        -6.8710
  13   2.0000      -0.233584        -6.3561
  14   2.0000      -0.203413        -5.5351
  15   2.0000      -0.179143        -4.8747
  16   2.0000      -0.165175        -4.4946
  17   2.0000      -0.158156        -4.3036
  18   2.0000      -0.147561        -4.0154
  19   2.0000      -0.127345        -3.4652
  20   2.0000      -0.118490        -3.2243
  21   2.0000      -0.013021        -0.3543
  22   2.0000      -0.000218        -0.0059
  23   2.0000       0.018214         0.4956
  24   0.0000       0.129700         3.5293
  25   0.0000       0.154088         4.1929
  26   0.0000       0.171178         4.6580
  27   0.0000       0.182133         4.9561
  28   0.0000       0.198058         5.3894

MULLIKEN ATOMIC CHARGES
-----------------------
   0 C :    1.046256
   1 C :   -0.170034
   2 H :   -0.345665
   3 H :   -0.121000
   4 C :    0.518599
   5 C :    0.165693
   6 H :   -0.170063
   7 H :   -0.176191
   8 O :   -0.577740
   9 O :   -0.629378
  10 H :   -0.248741
  11 H :   -0.151967
  12 H :   -0.139769
Sum of atomic charges:   -1.0000000

LOEWDIN ATOMIC CHARGES
----------------------
   0 C :    0.127674
   1 C :   -0.078475
   2 H :   -0.009306
   3 H :    0.004893
   4 C :    0.004977
   5 C :   -0.336689
   6 H :   -0.006051
   7 H :    0.000537
   8 O :   -0.310568
   9 O :   -0.301508
  10 H :   -0.044012
  11 H :   -0.026799
  12 H :   -0.024673

  Mayer bond orders larger than 0.100000
B(  0-C ,  1-C ) :   1.3287 B(  0-C ,  2-H ) :   0.1143 B(  0-C ,  3-H ) :   0.1145
B(  0-C , 10-H ) :   0.6255 B(  0-C , 11-H ) :   0.6923 B(  0-C , 12-H ) :   0.7337
B(  1-C ,  2-H ) :   0.8775 B(  1-C ,  3-H ) :   0.8166 B(  1-C ,  4-C ) :   1.1961
B(  1-C ,  6-H ) :   0.1862 B(  1-C ,  7-H ) :   0.1732 B(  1-C , 10-H ) :   0.2963
B(  1-C , 11-H ) :   0.2498 B(  1-C , 12-H ) :   0.2716 B(  2-H ,  4-C ) :   0.1083
B(  3-H ,  4-C ) :   0.1436 B(  4-C ,  5-C ) :   1.0157 B(  4-C ,  6-H ) :   0.7774
B(  4-C ,  7-H ) :   0.7278 B(  5-C ,  6-H ) :   0.2844 B(  5-C ,  7-H ) :   0.1535
B(  5-C ,  8-O ) :   1.5218 B(  5-C ,  9-O ) :   1.5752

Dispersion correction           -0.020507972
FINAL SINGLE POINT ENERGY      -306.857395706437

DIPOLE MOMENT
-------------
                                X             Y             Z
Electronic contribution:      0.64330       6.46030       2.68103
Nuclear contribution   :     -1.12936      -8.75108      -3.05770
                        -----------------------------------------
Total Dipole Moment    :     -0.48606      -2.29078      -0.37668
                        -----------------------------------------
Magnitude (a.u.)       :      2.37188
Magnitude (Debye)      :      6.02883

Rotational constants in cm-1:     0.189092     0.083831     0.082013
Rotational constants in MHz :  5668.846461  2513.177001  2458.689996

                             ****ORCA TERMINATED NORMALLY****
TOTAL RUN TIME: 0 days 0 hours 0 minutes 6 seconds 670 msec
