                         Program Version 5.0.0 -  RELEASE  -
|  1> !BLYP D3BJ RIJCOSX def2-SVPD def2/J TightSCF
|  2> *xyz 1 1
|  3> C         -0.69912        3.48945        3.75516
|  4> H         -0.96672        4.34901        3.14049
|  5> N         -1.08067        3.79296        5.15686
|  6> C          0.77696        3.13839        3.61741
|  7> H         -1.33146        2.65651        3.44632
|  8> H          1.37140        3.88834        4.14974
|  9> H          1.04693        3.23206        2.56133
| 10> C          1.11892        1.73117        4.11516
| 11> H         -0.87449        4.76274        5.42734
| 12> H         -0.68079        3.13476        5.83900
| 13> H         -2.05755        3.53169        5.34620
| 14> H          0.52974        1.01235        3.58499
| 15> H          0.90870        1.66226        5.16204
| 16> H          2.15725        1.53562        3.94624
| 17> *
| 18> %MaxCore 64000
| 19>
| 20> %pal nprocs 4
| 21> end
| 22>
| 23> %scf
| 24>   MaxIter 150
| 25> end
| 26>
| 27>
| 28>                          ****END OF INPUT****

CARTESIAN COORDINATES (ANGSTROEM)
---------------------------------
  C     -0.699120    3.489450    3.755160
  H     -0.966720    4.349010    3.140490
  N     -1.080670    3.792960    5.156860
  C      0.776960    3.138390    3.617410
  H     -1.331460    2.656510    3.446320
  H      1.371400    3.888340    4.149740
  H      1.046930    3.232060    2.561330
  C      1.118920    1.731170    4.115160
  H     -0.874490    4.762740    5.427340
  H     -0.680790    3.134760    5.839000
  H     -2.057550    3.531690    5.346200
  H      0.529740    1.012350    3.584990
  H      0.908700    1.662260    5.162040
  H      2.157250    1.535620    3.946240

 Total Charge           Charge          ....    1
 Multiplicity           Mult            ....    1
 Number of Electrons    NEL             ....   34
 Basis Dimension        Dim             ....  160

ORBITAL ENERGIES
----------------

  NO   OCC          E(Eh)            E(eV)
   0   2.0000     -14.353109      -390.5680
   1   2.0000     -10.168563      -276.7007
   2   2.0000     -10.100692      -274.8538
   3   2.0000     -10.068164      -273.9687
   4   2.0000      -1.118728       -30.4421
   5   2.0000      -0.891077       -24.2474
   6   2.0000      -0.808952       -22.0127
   7   2.0000      -0.755964       -20.5708
   8   2.0000      -0.723352       -19.6834
   9   2.0000      -0.702100       -19.1051
  10   2.0000      -0.640501       -17.4289
  11   2.0000      -0.579825       -15.7779
  12   2.0000      -0.556750       -15.1499
  13   2.0000      -0.536533       -14.5998
  14   2.0000      -0.480885       -13.0855
  15   2.0000      -0.475626       -12.9425
  16   2.0000      -0.469628       -12.7792
  17   0.0000      -0.218217        -5.9380
  18   0.0000      -0.163924        -4.4606
  19   0.0000      -0.161458        -4.3935
  20   0.0000      -0.138714        -3.7746
  21   0.0000      -0.115596        -3.1455

MULLIKEN ATOMIC CHARGES
-----------------------
   0 C :    0.897482
   1 H :   -0.262376
   2 N :   -0.726508
   3 C :    0.031820
   4 H :   -0.146919
   5 H :   -0.183572
   6 H :   -0.168282
   7 C :    1.151043
   8 H :    0.386284
   9 H :    0.293220
  10 H :    0.322283
  11 H :   -0.095939
  12 H :   -0.323581
  13 H :   -0.174953
Sum of atomic charges:    1.0000000

LOEWDIN ATOMIC CHARGES
----------------------
   0 C :    0.091759
   1 H :    0.049115
   2 N :    0.341283
   3 C :   -0.033235
   4 H :    0.047980
   5 H :    0.029908
   6 H :    0.041522
   7 C :    0.165729
   8 H :    0.110870
   9 H :    0.086758
  10 H :    0.103019
  11 H :   -0.006287
  12 H :   -0.030018
  13 H :    0.001594

  Mayer bond orders larger than 0.100000
B(  0-C ,  1-H ) :   0.7800 B(  0-C ,  2-N ) :   0.7340 B(  0-C ,  3-C ) :   1.2054
B(  0-C ,  4-H ) :   0.7917 B(  0-C ,  6-H ) :   0.1382 B(  1-H ,  2-N ) :   0.1600
B(  1-H ,  3-C ) :   0.1134 B(  2-N ,  4-H ) :   0.1108 B(  2-N ,  8-H ) :   0.6949
B(  2-N ,  9-H ) :   0.8022 B(  2-N , 10-H ) :   0.7422 B(  3-C ,  5-H ) :   0.8527
B(  3-C ,  6-H ) :   0.8258 B(  3-C ,  7-C ) :   1.2819 B(  3-C , 11-H ) :   0.2245
B(  3-C , 12-H ) :   0.2377 B(  3-C , 13-H ) :   0.2698 B(  7-C , 11-H ) :   0.6970
B(  7-C , 12-H ) :   0.6958 B(  7-C , 13-H ) :   0.6895 B( 11-H , 12-H ) :   0.1113

Dispersion correction           -0.018725361
FINAL SINGLE POINT ENERGY      -174.634339282628

DIPOLE MOMENT
-------------
                                X             Y             Z
Electronic contribution:     -1.64920       1.66633       0.71135
Nuclear contribution   :      0.19356      -0.71099       0.46987
                        -----------------------------------------
Total Dipole Moment    :     -1.45564       0.95533       1.18122
                        -----------------------------------------
Magnitude (a.u.)       :      2.10400
Magnitude (Debye)      :      5.34794

Rotational constants in cm-1:     0.465349     0.150671     0.132807
Rotational constants in MHz : 13950.800968  4516.999758  3981.442177

                             ****ORCA TERMINATED NORMALLY****
TOTAL RUN TIME: 0 days 0 hours 0 minutes 5 seconds 220 msec
