                         Program Version 5.0.0 -  RELEASE  -
|  1> !BLYP D3BJ RIJCOSX def2-SVPD def2/J TightSCF
|  2> *xyz 0 1
|  3> C         -1.78916       -0.63923        4.55750
|  4> C         -2.79070       -0.78527        5.70281
|  5> H         -2.86731       -1.83565        6.00167
|  6> H         -3.77455       -0.48658        5.33481
|  7> C         -2.45380        0.05510        6.94145
|  8> C         -2.07842        1.48042        6.56410
|  9> H         -1.62558       -0.38216        7.49891
| 10> H         -3.32527        0.08775        7.59917
| 11> F         -0.90125        1.85816        6.82810
| 12> O         -2.93658        2.17731        5.96415
| 13> H         -2.09421       -1.25377        3.73641
| 14> H         -0.81933       -0.94475        4.89064
| 15> H         -1.75281        0.38306        4.24366
| 16> *
| 17> %MaxCore 64000
| 18>
| 19> %pal nprocs 4
| 20> end
| 21>
| 22> %scf
| 23>   MaxIter 150
| 24> end
| 25>
| 26>
| 27>                          ****END OF INPUT****

CARTESIAN COORDINATES (ANGSTROEM)
---------------------------------
  C     -1.789160   -0.639230    4.557500
  C     -2.790700   -0.785270    5.702810
  H     -2.867310   -1.835650    6.001670
  H     -3.774550   -0.486580    5.334810
  C     -2.453800    0.055100    6.941450
  C     -2.078420    1.480420    6.564100
  H     -1.625580   -0.382160    7.498910
  H     -3.325270    0.087750    7.599170
  F     -0.901250    1.858160    6.828100
  O     -2.936580    2.177310    5.964150
  H     -2.094210   -1.253770    3.736410
  H     -0.819330   -0.944750    4.890640
  H     -1.752810    0.383060    4.243660

 Total Charge           Charge          ....    0
 Multiplicity           Mult            ....    1
 Number of Electrons    NEL             ....   48
 Basis Dimension        Dim             ....  182

ORBITAL ENERGIES
----------------

  NO   OCC          E(Eh)            E(eV)
   0   2.0000     -24.372554      -663.2109
   1   2.0000     -18.799373      -511.5569
   2   2.0000     -10.095855      -274.7222
   3   2.0000      -9.952456      -270.8201
   4   2.0000      -9.938816      -270.4489
   5   2.0000      -9.917689      -269.8740
   6   2.0000      -1.190972       -32.4080
   7   2.0000      -0.931289       -25.3417
   8   2.0000      -0.730297       -19.8724
   9   2.0000      -0.651128       -17.7181
  10   2.0000      -0.590127       -16.0582
  11   2.0000      -0.543659       -14.7937
  12   2.0000      -0.484861       -13.1937
  13   2.0000      -0.466044       -12.6817
  14   2.0000      -0.448109       -12.1937
  15   2.0000      -0.414156       -11.2698
  16   2.0000      -0.403392       -10.9769
  17   2.0000      -0.370747       -10.0885
  18   2.0000      -0.352489        -9.5917
  19   2.0000      -0.329104        -8.9554
  20   2.0000      -0.314979        -8.5710
  21   2.0000      -0.305745        -8.3197
  22   2.0000      -0.303423        -8.2566
  23   2.0000      -0.244846        -6.6626
  24   0.0000      -0.070692        -1.9236
  25   0.0000      -0.003734        -0.1016
  26   0.0000       0.024541         0.6678
  27   0.0000       0.028497         0.7754
  28   0.0000       0.038408         1.0451

MULLIKEN ATOMIC CHARGES
-----------------------
   0 C :    1.059099
   1 C :   -0.083070
   2 H :   -0.309475
   3 H :   -0.117367
   4 C :    0.448149
   5 C :    0.562943
   6 H :   -0.149961
   7 H :   -0.130734
   8 F :   -0.308356
   9 O :   -0.433637
  10 H :   -0.218119
  11 H :   -0.151354
  12 H :   -0.168116
Sum of atomic charges:    0.0000000

LOEWDIN ATOMIC CHARGES
----------------------
   0 C :    0.145515
   1 C :   -0.048506
   2 H :    0.019474
   3 H :    0.023645
   4 C :    0.048294
   5 C :   -0.049675
   6 H :    0.018101
   7 H :    0.034554
   8 F :   -0.018273
   9 O :   -0.112454
  10 H :   -0.018773
  11 H :   -0.017733
  12 H :   -0.024169

  Mayer bond orders larger than 0.100000
B(  0-C ,  1-C ) :   1.3547 B(  0-C ,  2-H ) :   0.1069 B(  0-C ,  3-H ) :   0.1080
B(  0-C , 10-H ) :   0.6407 B(  0-C , 11-H ) :   0.6982 B(  0-C , 12-H ) :   0.7331
B(  1-C ,  2-H ) :   0.8560 B(  1-C ,  3-H ) :   0.8122 B(  1-C ,  4-C ) :   1.2174
B(  1-C ,  6-H ) :   0.1761 B(  1-C ,  7-H ) :   0.1641 B(  1-C , 10-H ) :   0.2754
B(  1-C , 11-H ) :   0.2358 B(  1-C , 12-H ) :   0.2554 B(  2-H ,  4-C ) :   0.1093
B(  3-H ,  4-C ) :   0.1311 B(  4-C ,  5-C ) :   1.0688 B(  4-C ,  6-H ) :   0.8074
B(  4-C ,  7-H ) :   0.7305 B(  5-C ,  6-H ) :   0.1403 B(  5-C ,  7-H ) :   0.1279
B(  5-C ,  8-F ) :   0.7826 B(  5-C ,  9-O ) :   1.8642 B(  8-F ,  9-O ) :   0.1343

Dispersion correction           -0.019681433
FINAL SINGLE POINT ENERGY      -331.394163188970

DIPOLE MOMENT
-------------
                                X             Y             Z
Electronic contribution:      2.79474       8.98764       4.26459
Nuclear contribution   :     -2.53960     -10.05333      -3.90042
                        -----------------------------------------
Total Dipole Moment    :      0.25515      -1.06569       0.36417
                        -----------------------------------------
Magnitude (a.u.)       :      1.15474
Magnitude (Debye)      :      2.93511

Rotational constants in cm-1:     0.183043     0.080991     0.078218
Rotational constants in MHz :  5487.486217  2428.040459  2344.904824

                             ****ORCA TERMINATED NORMALLY****
TOTAL RUN TIME: 0 days 0 hours 0 minutes 6 seconds 528 msec
