                         Program Version 5.0.0 -  RELEASE  -
|  1> !BLYP D3BJ RIJCOSX def2-SVPD def2/J TightSCF
|  2> *xyz 0 1
|  3> C         -0.69912        3.48945        3.75516
|  4> H         -0.96672        4.34901        3.14049
|  5> C         -1.08067        3.79296        5.15686
|  6> C          0.77696        3.13839        3.61741
|  7> H         -1.33146        2.65651        3.44632
|  8> H          1.37140        3.88834        4.14974
|  9> H          1.04693        3.23206        2.56133
| 10> C          1.11892        1.73117        4.11516
| 11> H         -0.87449        4.76274        5.42734
| 12> H         -0.68079        3.13476        5.83900
| 13> H         -2.05755        3.53169        5.34620
| 14> H          0.52974        1.01235        3.58499
| 15> H          0.90870        1.66226        5.16204
| 16> H          2.15725        1.53562        3.94624
| 17> *
| 18> %MaxCore 64000
| 19>
| 20> %pal nprocs 4
| 21> end
| 22>
| 23> %scf
| 24>   MaxIter 150
| 25> end
| 26>
| 27>
| 28>                          ****END OF INPUT****

CARTESIAN COORDINATES (ANGSTROEM)
---------------------------------
  C     -0.699120    3.489450    3.755160
  H     -0.966720    4.349010    3.140490
  C     -1.080670    3.792960    5.156860
  C      0.776960    3.138390    3.617410
  H     -1.331460    2.656510    3.446320
  H      1.371400    3.888340    4.149740
  H      1.046930    3.232060    2.561330
  C      1.118920    1.731170    4.115160
  H     -0.874490    4.762740    5.427340
  H     -0.680790    3.134760    5.839000
  H     -2.057550    3.531690    5.346200
  H      0.529740    1.012350    3.584990
  H      0.908700    1.662260    5.162040
  H      2.157250    1.535620    3.946240

 Total Charge           Charge          ....    0
 Multiplicity           Mult            ....    1
 Number of Electrons    NEL             ....   34
 Basis Dimension        Dim             ....  160

ORBITAL ENERGIES
----------------

  NO   OCC          E(Eh)            E(eV)
   0   2.0000      -9.911482      -269.7051
   1   2.0000      -9.907784      -269.6045
   2   2.0000      -9.903420      -269.4858
   3   2.0000      -9.885779      -269.0057
   4   2.0000      -0.714868       -19.4525
   5   2.0000      -0.648410       -17.6441
   6   2.0000      -0.569989       -15.5102
   7   2.0000      -0.502213       -13.6659
   8   2.0000      -0.414295       -11.2735
   9   2.0000      -0.405196       -11.0259
  10   2.0000      -0.377122       -10.2620
  11   2.0000      -0.339817        -9.2469
  12   2.0000      -0.331413        -9.0182
  13   2.0000      -0.318000        -8.6532
  14   2.0000      -0.281398        -7.6572
  15   2.0000      -0.278496        -7.5783
  16   2.0000      -0.273905        -7.4533
  17   0.0000       0.007829         0.2130
  18   0.0000       0.033529         0.9124
  19   0.0000       0.034571         0.9407
  20   0.0000       0.041318         1.1243
  21   0.0000       0.074849         2.0368

MULLIKEN ATOMIC CHARGES
-----------------------
   0 C :    0.106742
   1 H :   -0.320442
   2 C :    1.519834
   3 C :    0.022110
   4 H :   -0.129938
   5 H :   -0.230330
   6 H :   -0.246568
   7 C :    1.141990
   8 H :   -0.265360
   9 H :   -0.635309
  10 H :   -0.336580
  11 H :   -0.086250
  12 H :   -0.342516
  13 H :   -0.197381
Sum of atomic charges:    0.0000000

LOEWDIN ATOMIC CHARGES
----------------------
   0 C :   -0.065106
   1 H :    0.016296
   2 C :    0.133224
   3 C :   -0.068624
   4 H :    0.017260
   5 H :    0.017828
   6 H :    0.009279
   7 C :    0.139384
   8 H :   -0.028912
   9 H :   -0.049084
  10 H :   -0.039049
  11 H :   -0.022803
  12 H :   -0.034081
  13 H :   -0.025613

  Mayer bond orders larger than 0.100000
B(  0-C ,  1-H ) :   0.8271 B(  0-C ,  2-C ) :   1.2027 B(  0-C ,  3-C ) :   1.2254
B(  0-C ,  4-H ) :   0.7705 B(  0-C ,  5-H ) :   0.1491 B(  0-C ,  6-H ) :   0.1276
B(  0-C ,  8-H ) :   0.2564 B(  0-C ,  9-H ) :   0.3115 B(  0-C , 10-H ) :   0.2688
B(  1-H ,  2-C ) :   0.1087 B(  1-H ,  3-C ) :   0.1416 B(  2-C ,  4-H ) :   0.1755
B(  2-C ,  8-H ) :   0.5993 B(  2-C ,  9-H ) :   0.2573 B(  2-C , 10-H ) :   0.3772
B(  3-C ,  5-H ) :   0.8224 B(  3-C ,  6-H ) :   0.8384 B(  3-C ,  7-C ) :   1.2516
B(  3-C , 11-H ) :   0.2676 B(  3-C , 12-H ) :   0.2554 B(  3-C , 13-H ) :   0.2740
B(  5-H ,  7-C ) :   0.1091 B(  7-C , 11-H ) :   0.6834 B(  7-C , 12-H ) :   0.7130
B(  7-C , 13-H ) :   0.6586 B(  9-H , 10-H ) :   0.3959

Dispersion correction           -0.018852746
FINAL SINGLE POINT ENERGY      -158.223405435564

DIPOLE MOMENT
-------------
                                X             Y             Z
Electronic contribution:      0.12505       0.47379      -0.75951
Nuclear contribution   :     -0.14518      -0.47660       0.76944
                        -----------------------------------------
Total Dipole Moment    :     -0.02013      -0.00281       0.00993
                        -----------------------------------------
Magnitude (a.u.)       :      0.02262
Magnitude (Debye)      :      0.05749

Rotational constants in cm-1:     0.472466     0.157481     0.138592
Rotational constants in MHz : 14164.171374  4721.163669  4154.874787

                             ****ORCA TERMINATED NORMALLY****
TOTAL RUN TIME: 0 days 0 hours 0 minutes 5 seconds 279 msec
