                         Program Version 5.0.0 -  RELEASE  -
|  1> !BLYP D3BJ RIJCOSX def2-SVPD def2/J TightSCF
|  2> *xyz 0 1
|  3> C         -1.78916       -0.63923        4.55750
|  4> C         -2.79070       -0.78527        5.70281
|  5> H         -2.86731       -1.83565        6.00167
|  6> H         -3.77455       -0.48658        5.33481
|  7> C         -2.45380        0.05510        6.94145
|  8> C         -2.07842        1.48042        6.56410
|  9> H         -1.62558       -0.38216        7.49891
| 10> H         -3.32527        0.08775        7.59917
| 11> O         -0.90125        1.85816        6.82810
| 12> F         -2.93658        2.17731        5.96415
| 13> H         -2.09421       -1.25377        3.73641
| 14> H         -0.81933       -0.94475        4.89064
| 15> H         -1.75281        0.38306        4.24366
| 16> *
| 17> %MaxCore 64000
| 18>
| 19> %pal nprocs 4
| 20> end
| 21>
| 22> %scf
| 23>   MaxIter 150
| 24> end
| 25>
| 26>
| 27>                          ****END OF INPUT****

CARTESIAN COORDINATES (ANGSTROEM)
---------------------------------
  C     -1.789160   -0.639230    4.557500
  C     -2.790700   -0.785270    5.702810
  H     -2.867310   -1.835650    6.001670
  H     -3.774550   -0.486580    5.334810
  C     -2.453800    0.055100    6.941450
  C     -2.078420    1.480420    6.564100
  H     -1.625580   -0.382160    7.498910
  H     -3.325270    0.087750    7.599170
  O     -0.901250    1.858160    6.828100
  F     -2.936580    2.177310    5.964150
  H     -2.094210   -1.253770    3.736410
  H     -0.819330   -0.944750    4.890640
  H     -1.752810    0.383060    4.243660

 Total Charge           Charge          ....    0
 Multiplicity           Mult            ....    1
 Number of Electrons    NEL             ....   48
 Basis Dimension        Dim             ....  182

ORBITAL ENERGIES
----------------

  NO   OCC          E(Eh)            E(eV)
   0   2.0000     -24.375858      -663.3008
   1   2.0000     -18.797280      -511.5000
   2   2.0000     -10.095451      -274.7112
   3   2.0000      -9.951845      -270.8035
   4   2.0000      -9.942059      -270.5372
   5   2.0000      -9.919824      -269.9321
   6   2.0000      -1.196413       -32.5560
   7   2.0000      -0.926118       -25.2010
   8   2.0000      -0.733250       -19.9528
   9   2.0000      -0.651059       -17.7162
  10   2.0000      -0.591135       -16.0856
  11   2.0000      -0.547737       -14.9047
  12   2.0000      -0.489265       -13.3136
  13   2.0000      -0.474974       -12.9247
  14   2.0000      -0.434334       -11.8188
  15   2.0000      -0.421354       -11.4656
  16   2.0000      -0.405223       -11.0267
  17   2.0000      -0.369899       -10.0655
  18   2.0000      -0.350735        -9.5440
  19   2.0000      -0.330029        -8.9806
  20   2.0000      -0.320751        -8.7281
  21   2.0000      -0.307990        -8.3808
  22   2.0000      -0.305505        -8.3132
  23   2.0000      -0.238318        -6.4850
  24   0.0000      -0.068046        -1.8516
  25   0.0000      -0.007197        -0.1958
  26   0.0000       0.025415         0.6916
  27   0.0000       0.029619         0.8060
  28   0.0000       0.036002         0.9797

MULLIKEN ATOMIC CHARGES
-----------------------
   0 C :    1.077453
   1 C :   -0.113010
   2 H :   -0.313369
   3 H :   -0.140102
   4 C :    0.477858
   5 C :    0.569166
   6 H :   -0.161399
   7 H :   -0.141458
   8 O :   -0.386583
   9 F :   -0.344933
  10 H :   -0.228241
  11 H :   -0.132959
  12 H :   -0.162423
Sum of atomic charges:    0.0000000

LOEWDIN ATOMIC CHARGES
----------------------
   0 C :    0.146551
   1 C :   -0.055352
   2 H :    0.019746
   3 H :    0.017612
   4 C :    0.051540
   5 C :   -0.054575
   6 H :    0.030172
   7 H :    0.028522
   8 O :   -0.117147
   9 F :   -0.011575
  10 H :   -0.019447
  11 H :   -0.011836
  12 H :   -0.024212

  Mayer bond orders larger than 0.100000
B(  0-C ,  1-C ) :   1.3537 B(  0-C ,  2-H ) :   0.1029 B(  0-C ,  3-H ) :   0.1078
B(  0-C , 10-H ) :   0.6264 B(  0-C , 11-H ) :   0.6985 B(  0-C , 12-H ) :   0.7334
B(  1-C ,  2-H ) :   0.8582 B(  1-C ,  3-H ) :   0.8116 B(  1-C ,  4-C ) :   1.1999
B(  1-C ,  6-H ) :   0.1684 B(  1-C ,  7-H ) :   0.1647 B(  1-C , 10-H ) :   0.2842
B(  1-C , 11-H ) :   0.2443 B(  1-C , 12-H ) :   0.2566 B(  2-H ,  4-C ) :   0.1137
B(  3-H ,  4-C ) :   0.1288 B(  4-C ,  5-C ) :   1.0349 B(  4-C ,  6-H ) :   0.8106
B(  4-C ,  7-H ) :   0.7395 B(  5-C ,  6-H ) :   0.1976 B(  5-C ,  8-O ) :   1.8502
B(  5-C ,  9-F ) :   0.7570 B(  8-O ,  9-F ) :   0.1463

Dispersion correction           -0.019599614
FINAL SINGLE POINT ENERGY      -331.391703261329

DIPOLE MOMENT
-------------
                                X             Y             Z
Electronic contribution:     -0.61268       9.49512       2.81212
Nuclear contribution   :     -0.24054     -10.41383      -2.92452
                        -----------------------------------------
Total Dipole Moment    :     -0.85322      -0.91872      -0.11240
                        -----------------------------------------
Magnitude (a.u.)       :      1.25884
Magnitude (Debye)      :      3.19971

Rotational constants in cm-1:     0.180403     0.081943     0.079197
Rotational constants in MHz :  5408.335479  2456.587956  2374.272438

                             ****ORCA TERMINATED NORMALLY****
TOTAL RUN TIME: 0 days 0 hours 0 minutes 6 seconds 506 msec
