                         Program Version 5.0.0 -  RELEASE  -
|  1> !wB97X-D3 RIJCOSX def2-SVP def2/J TightSCF
|  2> *xyz -1 1
|  3> C         -7.33044       -2.67899       -3.20681
|  4> S         -6.01966       -2.92697       -4.41913
|  5> O         -5.64583       -1.58838       -4.91931
|  6> O         -4.88196       -3.50370       -3.66724
|  7> O         -6.54927       -3.80515       -5.42507
|  8> C         -7.46900       -1.24615       -2.71383
|  9> H         -7.11825       -3.37982       -2.39805
| 10> H         -8.24184       -3.00474       -3.70651
| 11> H         -7.67580       -0.60214       -3.54292
| 12> H         -6.55749       -0.94096       -2.24382
| 13> H         -8.27114       -1.18777       -2.00810
| 14> *
| 15> %MaxCore 64000
| 16>
| 17> %pal nprocs 4
| 18> end
| 19>
| 20> %scf
| 21>   MaxIter 150
| 22> end
| 23>
| 24>
| 25>                          ****END OF INPUT****

CARTESIAN COORDINATES (ANGSTROEM)
---------------------------------
  C     -7.330440   -2.678990   -3.206810
  S     -6.019660   -2.926970   -4.419130
  O     -5.645830   -1.588380   -4.919310
  O     -4.881960   -3.503700   -3.667240
  O     -6.549270   -3.805150   -5.425070
  C     -7.469000   -1.246150   -2.713830
  H     -7.118250   -3.379820   -2.398050
  H     -8.241840   -3.004740   -3.706510
  H     -7.675800   -0.602140   -3.542920
  H     -6.557490   -0.940960   -2.243820
  H     -8.271140   -1.187770   -2.008100

 Total Charge           Charge          ....   -1
 Multiplicity           Mult            ....    1
 Number of Electrons    NEL             ....   58
 Basis Dimension        Dim             ....  113

ORBITAL ENERGIES
----------------

  NO   OCC          E(Eh)            E(eV)
   0   2.0000     -88.936684     -2420.0902
   1   2.0000     -18.991898      -516.7958
   2   2.0000     -18.981028      -516.5000
   3   2.0000     -18.974679      -516.3273
   4   2.0000     -10.142280      -275.9855
   5   2.0000     -10.138865      -275.8925
   6   2.0000      -8.017472      -218.1665
   7   2.0000      -5.976437      -162.6271
   8   2.0000      -5.976326      -162.6241
   9   2.0000      -5.976160      -162.6196
  10   2.0000      -1.015302       -27.6278
  11   2.0000      -0.870817       -23.6961
  12   2.0000      -0.846593       -23.0370
  13   2.0000      -0.738274       -20.0894
  14   2.0000      -0.607360       -16.5271
  15   2.0000      -0.470250       -12.7961
  16   2.0000      -0.415111       -11.2957
  17   2.0000      -0.400007       -10.8847
  18   2.0000      -0.362405        -9.8615
  19   2.0000      -0.339591        -9.2407
  20   2.0000      -0.334841        -9.1115
  21   2.0000      -0.313302        -8.5254
  22   2.0000      -0.305462        -8.3120
  23   2.0000      -0.215352        -5.8600
  24   2.0000      -0.215231        -5.8567
  25   2.0000      -0.180413        -4.9093
  26   2.0000      -0.174040        -4.7359
  27   2.0000      -0.163558        -4.4506
  28   2.0000      -0.126248        -3.4354
  29   0.0000       0.285845         7.7782
  30   0.0000       0.341302         9.2873
  31   0.0000       0.342549         9.3212
  32   0.0000       0.351330         9.5602
  33   0.0000       0.373740        10.1700

MULLIKEN ATOMIC CHARGES
-----------------------
   0 C :   -0.143828
   1 S :    0.891516
   2 O :   -0.611932
   3 O :   -0.629141
   4 O :   -0.578384
   5 C :   -0.000500
   6 H :    0.025741
   7 H :    0.017536
   8 H :    0.025099
   9 H :    0.025436
  10 H :   -0.021543
Sum of atomic charges:   -1.0000000

LOEWDIN ATOMIC CHARGES
----------------------
   0 C :   -0.190277
   1 S :    1.111165
   2 O :   -0.644406
   3 O :   -0.659326
   4 O :   -0.608338
   5 C :   -0.073122
   6 H :    0.013262
   7 H :    0.008843
   8 H :    0.019470
   9 H :    0.020926
  10 H :    0.001803

  Mayer bond orders larger than 0.100000
B(  0-C ,  1-S ) :   0.8841 B(  0-C ,  5-C ) :   1.0702 B(  0-C ,  6-H ) :   0.9498
B(  0-C ,  7-H ) :   0.9504 B(  1-S ,  2-O ) :   1.6069 B(  1-S ,  3-O ) :   1.5936
B(  1-S ,  4-O ) :   1.6493 B(  5-C ,  8-H ) :   0.9683 B(  5-C ,  9-H ) :   0.9719
B(  5-C , 10-H ) :   0.9637

Dispersion correction           -0.002806043
FINAL SINGLE POINT ENERGY      -702.632967113891

DIPOLE MOMENT
-------------
                                X             Y             Z
Electronic contribution:      4.72603      -3.53709      -5.14953
Nuclear contribution   :     -6.18165       4.01759       6.33106
                        -----------------------------------------
Total Dipole Moment    :     -1.45562       0.48050       1.18153
                        -----------------------------------------
Magnitude (a.u.)       :      1.93539
Magnitude (Debye)      :      4.91936

Rotational constants in cm-1:     0.161711     0.082788     0.081165
Rotational constants in MHz :  4847.971521  2481.906910  2433.276832

                             ****ORCA TERMINATED NORMALLY****
TOTAL RUN TIME: 0 days 0 hours 0 minutes 15 seconds 944 msec
