                         Program Version 5.0.0 -  RELEASE  -
|  1> !wB97X-D3 RIJCOSX def2-SVP def2/J TightSCF
|  2> *xyz 1 1
|  3> C         -2.16038       -1.36949       -3.46710
|  4> N         -3.03011       -1.91086       -4.54107
|  5> C         -2.04772        0.14658       -3.51177
|  6> H         -3.47744       -2.79151       -4.25710
|  7> H         -2.53801       -2.01786       -5.43808
|  8> H         -3.89159       -1.37604       -4.71437
|  9> H         -1.18444       -1.84400       -3.56639
| 10> H         -2.59819       -1.70838       -2.52848
| 11> H         -1.61525        0.44478       -4.44395
| 12> H         -1.42718        0.48198       -2.70720
| 13> H         -3.02145        0.57958       -3.41560
| 14> *
| 15> %MaxCore 64000
| 16>
| 17> %pal nprocs 4
| 18> end
| 19>
| 20> %scf
| 21>   MaxIter 150
| 22> end
| 23>
| 24>
| 25>                          ****END OF INPUT****

CARTESIAN COORDINATES (ANGSTROEM)
---------------------------------
  C     -2.160380   -1.369490   -3.467100
  N     -3.030110   -1.910860   -4.541070
  C     -2.047720    0.146580   -3.511770
  H     -3.477440   -2.791510   -4.257100
  H     -2.538010   -2.017860   -5.438080
  H     -3.891590   -1.376040   -4.714370
  H     -1.184440   -1.844000   -3.566390
  H     -2.598190   -1.708380   -2.528480
  H     -1.615250    0.444780   -4.443950
  H     -1.427180    0.481980   -2.707200
  H     -3.021450    0.579580   -3.415600

 Total Charge           Charge          ....    1
 Multiplicity           Mult            ....    1
 Number of Electrons    NEL             ....   26
 Basis Dimension        Dim             ....   82

ORBITAL ENERGIES
----------------

  NO   OCC          E(Eh)            E(eV)
   0   2.0000     -14.776983      -402.1021
   1   2.0000     -10.543398      -286.9005
   2   2.0000     -10.462896      -284.7099
   3   2.0000      -1.329066       -36.1657
   4   2.0000      -1.078073       -29.3359
   5   2.0000      -0.954338       -25.9689
   6   2.0000      -0.916042       -24.9268
   7   2.0000      -0.875412       -23.8212
   8   2.0000      -0.802449       -21.8358
   9   2.0000      -0.743501       -20.2317
  10   2.0000      -0.678890       -18.4735
  11   2.0000      -0.663439       -18.0531
  12   2.0000      -0.644739       -17.5442
  13   0.0000      -0.094692        -2.5767
  14   0.0000      -0.036181        -0.9845
  15   0.0000      -0.034898        -0.9496
  16   0.0000      -0.001035        -0.0282
  17   0.0000       0.039736         1.0813

MULLIKEN ATOMIC CHARGES
-----------------------
   0 C :   -0.060048
   1 N :   -0.023430
   2 C :   -0.063256
   3 H :    0.219743
   4 H :    0.230192
   5 H :    0.210427
   6 H :    0.119060
   7 H :    0.111719
   8 H :    0.074010
   9 H :    0.110210
  10 H :    0.071373
Sum of atomic charges:    1.0000000

LOEWDIN ATOMIC CHARGES
----------------------
   0 C :    0.049300
   1 N :    0.287350
   2 C :   -0.042624
   3 H :    0.150930
   4 H :    0.149847
   5 H :    0.145839
   6 H :    0.057887
   7 H :    0.054682
   8 H :    0.041644
   9 H :    0.064897
  10 H :    0.040250

  Mayer bond orders larger than 0.100000
B(  0-C ,  1-N ) :   0.9000 B(  0-C ,  2-C ) :   1.0855 B(  0-C ,  6-H ) :   0.9535
B(  0-C ,  7-H ) :   0.9568 B(  1-N ,  3-H ) :   0.9327 B(  1-N ,  4-H ) :   0.9301
B(  1-N ,  5-H ) :   0.9312 B(  2-C ,  8-H ) :   0.9723 B(  2-C ,  9-H ) :   0.9608
B(  2-C , 10-H ) :   0.9697

Dispersion correction           -0.001538115
FINAL SINGLE POINT ENERGY      -135.398138853807

DIPOLE MOMENT
-------------
                                X             Y             Z
Electronic contribution:     -0.68252      -1.53061      -0.81108
Nuclear contribution   :     -0.15215       0.37393      -0.04773
                        -----------------------------------------
Total Dipole Moment    :     -0.83466      -1.15668      -0.85882
                        -----------------------------------------
Magnitude (a.u.)       :      1.66497
Magnitude (Debye)      :      4.23202

Rotational constants in cm-1:     1.020762     0.277172     0.247319
Rotational constants in MHz : 30601.664035  8309.399682  7414.438136

                             ****ORCA TERMINATED NORMALLY****
TOTAL RUN TIME: 0 days 0 hours 0 minutes 11 seconds 318 msec
