                         Program Version 5.0.0 -  RELEASE  -
|  1> !wB97X-D3 RIJCOSX def2-SVP def2/J TightSCF
|  2> *xyz 0 1
|  3> C         -7.33044       -2.67899       -3.20681
|  4> S         -6.01966       -2.92697       -4.41913
|  5> F         -5.64583       -1.58838       -4.91931
|  6> O         -4.88196       -3.50370       -3.66724
|  7> O         -6.54927       -3.80515       -5.42507
|  8> C         -7.46900       -1.24615       -2.71383
|  9> H         -7.11825       -3.37982       -2.39805
| 10> H         -8.24184       -3.00474       -3.70651
| 11> H         -7.67580       -0.60214       -3.54292
| 12> H         -6.55749       -0.94096       -2.24382
| 13> H         -8.27114       -1.18777       -2.00810
| 14> *
| 15> %MaxCore 64000
| 16>
| 17> %pal nprocs 4
| 18> end
| 19>
| 20> %scf
| 21>   MaxIter 150
| 22> end
| 23>
| 24>
| 25>                          ****END OF INPUT****

CARTESIAN COORDINATES (ANGSTROEM)
---------------------------------
  C     -7.330440   -2.678990   -3.206810
  S     -6.019660   -2.926970   -4.419130
  F     -5.645830   -1.588380   -4.919310
  O     -4.881960   -3.503700   -3.667240
  O     -6.549270   -3.805150   -5.425070
  C     -7.469000   -1.246150   -2.713830
  H     -7.118250   -3.379820   -2.398050
  H     -8.241840   -3.004740   -3.706510
  H     -7.675800   -0.602140   -3.542920
  H     -6.557490   -0.940960   -2.243820
  H     -8.271140   -1.187770   -2.008100

 Total Charge           Charge          ....    0
 Multiplicity           Mult            ....    1
 Number of Electrons    NEL             ....   58
 Basis Dimension        Dim             ....  113

ORBITAL ENERGIES
----------------

  NO   OCC          E(Eh)            E(eV)
   0   2.0000     -89.209918     -2427.5253
   1   2.0000     -24.891798      -677.3403
   2   2.0000     -19.244817      -523.6781
   3   2.0000     -19.228155      -523.2247
   4   2.0000     -10.350664      -281.6559
   5   2.0000     -10.318779      -280.7883
   6   2.0000      -8.293026      -225.6647
   7   2.0000      -6.256111      -170.2374
   8   2.0000      -6.249564      -170.0593
   9   2.0000      -6.248478      -170.0297
  10   2.0000      -1.459068       -39.7033
  11   2.0000      -1.217537       -33.1309
  12   2.0000      -1.110291       -30.2125
  13   2.0000      -0.942706       -25.6523
  14   2.0000      -0.829671       -22.5765
  15   2.0000      -0.783409       -21.3176
  16   2.0000      -0.691616       -18.8198
  17   2.0000      -0.668727       -18.1970
  18   2.0000      -0.638880       -17.3848
  19   2.0000      -0.602162       -16.3857
  20   2.0000      -0.572160       -15.5693
  21   2.0000      -0.548928       -14.9371
  22   2.0000      -0.534115       -14.5340
  23   2.0000      -0.513082       -13.9617
  24   2.0000      -0.494271       -13.4498
  25   2.0000      -0.475645       -12.9430
  26   2.0000      -0.421683       -11.4746
  27   2.0000      -0.407296       -11.0831
  28   2.0000      -0.394040       -10.7224
  29   0.0000       0.101581         2.7642
  30   0.0000       0.146075         3.9749
  31   0.0000       0.163106         4.4383
  32   0.0000       0.172619         4.6972
  33   0.0000       0.185771         5.0551

MULLIKEN ATOMIC CHARGES
-----------------------
   0 C :   -0.173297
   1 S :    0.973471
   2 F :   -0.206779
   3 O :   -0.490238
   4 O :   -0.438770
   5 C :   -0.050061
   6 H :    0.113870
   7 H :    0.096266
   8 H :    0.052722
   9 H :    0.061826
  10 H :    0.060990
Sum of atomic charges:    0.0000000

LOEWDIN ATOMIC CHARGES
----------------------
   0 C :   -0.146730
   1 S :    1.174736
   2 F :   -0.150939
   3 O :   -0.531444
   4 O :   -0.479889
   5 C :   -0.064556
   6 H :    0.053893
   7 H :    0.042570
   8 H :    0.029074
   9 H :    0.033257
  10 H :    0.040028

  Mayer bond orders larger than 0.100000
B(  0-C ,  1-S ) :   0.9202 B(  0-C ,  5-C ) :   1.0512 B(  0-C ,  6-H ) :   0.9384
B(  0-C ,  7-H ) :   0.9417 B(  1-S ,  2-F ) :   0.9871 B(  1-S ,  3-O ) :   1.7478
B(  1-S ,  4-O ) :   1.7997 B(  5-C ,  8-H ) :   0.9749 B(  5-C ,  9-H ) :   0.9739
B(  5-C , 10-H ) :   0.9661

Dispersion correction           -0.002799584
FINAL SINGLE POINT ENERGY      -727.145719217467

DIPOLE MOMENT
-------------
                                X             Y             Z
Electronic contribution:      5.64607      -1.70440      -6.39239
Nuclear contribution   :     -6.81251       2.87933       7.15058
                        -----------------------------------------
Total Dipole Moment    :     -1.16644       1.17493       0.75819
                        -----------------------------------------
Magnitude (a.u.)       :      1.82096
Magnitude (Debye)      :      4.62850

Rotational constants in cm-1:     0.152543     0.082494     0.078987
Rotational constants in MHz :  4573.135887  2473.116216  2367.980829

                             ****ORCA TERMINATED NORMALLY****
TOTAL RUN TIME: 0 days 0 hours 0 minutes 17 seconds 626 msec
