                         Program Version 5.0.0 -  RELEASE  -
|  1> !wB97X-D3 RIJCOSX def2-SVP def2/J TightSCF
|  2> *xyz 0 1
|  3> C         -2.16038       -1.36949       -3.46710
|  4> C         -3.03011       -1.91086       -4.54107
|  5> C         -2.04772        0.14658       -3.51177
|  6> H         -3.47744       -2.79151       -4.25710
|  7> H         -2.53801       -2.01786       -5.43808
|  8> H         -3.89159       -1.37604       -4.71437
|  9> H         -1.18444       -1.84400       -3.56639
| 10> H         -2.59819       -1.70838       -2.52848
| 11> H         -1.61525        0.44478       -4.44395
| 12> H         -1.42718        0.48198       -2.70720
| 13> H         -3.02145        0.57958       -3.41560
| 14> *
| 15> %MaxCore 64000
| 16>
| 17> %pal nprocs 4
| 18> end
| 19>
| 20> %scf
| 21>   MaxIter 150
| 22> end
| 23>
| 24>
| 25>                          ****END OF INPUT****

CARTESIAN COORDINATES (ANGSTROEM)
---------------------------------
  C     -2.160380   -1.369490   -3.467100
  C     -3.030110   -1.910860   -4.541070
  C     -2.047720    0.146580   -3.511770
  H     -3.477440   -2.791510   -4.257100
  H     -2.538010   -2.017860   -5.438080
  H     -3.891590   -1.376040   -4.714370
  H     -1.184440   -1.844000   -3.566390
  H     -2.598190   -1.708380   -2.528480
  H     -1.615250    0.444780   -4.443950
  H     -1.427180    0.481980   -2.707200
  H     -3.021450    0.579580   -3.415600

 Total Charge           Charge          ....    0
 Multiplicity           Mult            ....    1
 Number of Electrons    NEL             ....   26
 Basis Dimension        Dim             ....   82

ORBITAL ENERGIES
----------------

  NO   OCC          E(Eh)            E(eV)
   0   2.0000     -10.274140      -279.5736
   1   2.0000     -10.266642      -279.3695
   2   2.0000     -10.248746      -278.8826
   3   2.0000      -0.900075       -24.4923
   4   2.0000      -0.797750       -21.7079
   5   2.0000      -0.691406       -18.8141
   6   2.0000      -0.570142       -15.5144
   7   2.0000      -0.538925       -14.6649
   8   2.0000      -0.498769       -13.5722
   9   2.0000      -0.489567       -13.3218
  10   2.0000      -0.432820       -11.7776
  11   2.0000      -0.420300       -11.4369
  12   2.0000      -0.419189       -11.4067
  13   0.0000       0.150554         4.0968
  14   0.0000       0.198196         5.3932
  15   0.0000       0.201852         5.4927
  16   0.0000       0.203524         5.5382
  17   0.0000       0.235126         6.3981

MULLIKEN ATOMIC CHARGES
-----------------------
   0 C :   -0.119380
   1 C :    0.028027
   2 C :   -0.025195
   3 H :   -0.002909
   4 H :    0.012085
   5 H :   -0.010100
   6 H :    0.025335
   7 H :    0.021370
   8 H :    0.023211
   9 H :    0.025142
  10 H :    0.022414
Sum of atomic charges:    0.0000000

LOEWDIN ATOMIC CHARGES
----------------------
   0 C :   -0.045749
   1 C :   -0.054208
   2 C :   -0.055024
   3 H :    0.018739
   4 H :    0.015234
   5 H :    0.015098
   6 H :    0.022188
   7 H :    0.020882
   8 H :    0.020967
   9 H :    0.021303
  10 H :    0.020571

  Mayer bond orders larger than 0.100000
B(  0-C ,  1-C ) :   1.0880 B(  0-C ,  2-C ) :   1.0871 B(  0-C ,  6-H ) :   0.9616
B(  0-C ,  7-H ) :   0.9643 B(  1-C ,  3-H ) :   0.9664 B(  1-C ,  4-H ) :   0.9752
B(  1-C ,  5-H ) :   0.9670 B(  2-C ,  8-H ) :   0.9786 B(  2-C ,  9-H ) :   0.9753
B(  2-C , 10-H ) :   0.9765

Dispersion correction           -0.001485600
FINAL SINGLE POINT ENERGY      -119.003753674959

DIPOLE MOMENT
-------------
                                X             Y             Z
Electronic contribution:      0.31234      -0.12214       0.26823
Nuclear contribution   :     -0.34625       0.09603      -0.26933
                        -----------------------------------------
Total Dipole Moment    :     -0.03390      -0.02611      -0.00110
                        -----------------------------------------
Magnitude (a.u.)       :      0.04280
Magnitude (Debye)      :      0.10880

Rotational constants in cm-1:     1.028617     0.291238     0.258956
Rotational constants in MHz : 30837.159054  8731.095379  7763.318586

                             ****ORCA TERMINATED NORMALLY****
TOTAL RUN TIME: 0 days 0 hours 0 minutes 10 seconds 364 msec
