                         Program Version 5.0.0 -  RELEASE  -
|  1> !wB97X-D3 RIJCOSX def2-SVP def2/J TightSCF
|  2> *xyz 0 1
|  3> C         -7.33044       -2.67899       -3.20681
|  4> S         -6.01966       -2.92697       -4.41913
|  5> O         -5.64583       -1.58838       -4.91931
|  6> F         -4.88196       -3.50370       -3.66724
|  7> O         -6.54927       -3.80515       -5.42507
|  8> C         -7.46900       -1.24615       -2.71383
|  9> H         -7.11825       -3.37982       -2.39805
| 10> H         -8.24184       -3.00474       -3.70651
| 11> H         -7.67580       -0.60214       -3.54292
| 12> H         -6.55749       -0.94096       -2.24382
| 13> H         -8.27114       -1.18777       -2.00810
| 14> *
| 15> %MaxCore 64000
| 16>
| 17> %pal nprocs 4
| 18> end
| 19>
| 20> %scf
| 21>   MaxIter 150
| 22> end
| 23>
| 24>
| 25>                          ****END OF INPUT****

CARTESIAN COORDINATES (ANGSTROEM)
---------------------------------
  C     -7.330440   -2.678990   -3.206810
  S     -6.019660   -2.926970   -4.419130
  O     -5.645830   -1.588380   -4.919310
  F     -4.881960   -3.503700   -3.667240
  O     -6.549270   -3.805150   -5.425070
  C     -7.469000   -1.246150   -2.713830
  H     -7.118250   -3.379820   -2.398050
  H     -8.241840   -3.004740   -3.706510
  H     -7.675800   -0.602140   -3.542920
  H     -6.557490   -0.940960   -2.243820
  H     -8.271140   -1.187770   -2.008100

 Total Charge           Charge          ....    0
 Multiplicity           Mult            ....    1
 Number of Electrons    NEL             ....   58
 Basis Dimension        Dim             ....  113

ORBITAL ENERGIES
----------------

  NO   OCC          E(Eh)            E(eV)
   0   2.0000     -89.210788     -2427.5490
   1   2.0000     -24.887995      -677.2368
   2   2.0000     -19.245302      -523.6913
   3   2.0000     -19.233746      -523.3768
   4   2.0000     -10.351152      -281.6692
   5   2.0000     -10.309559      -280.5374
   6   2.0000      -8.293835      -225.6867
   7   2.0000      -6.256800      -170.2562
   8   2.0000      -6.250421      -170.0826
   9   2.0000      -6.249401      -170.0549
  10   2.0000      -1.454789       -39.5868
  11   2.0000      -1.219259       -33.1777
  12   2.0000      -1.115029       -30.3415
  13   2.0000      -0.938029       -25.5251
  14   2.0000      -0.830946       -22.6112
  15   2.0000      -0.775560       -21.1041
  16   2.0000      -0.681691       -18.5498
  17   2.0000      -0.664299       -18.0765
  18   2.0000      -0.648938       -17.6585
  19   2.0000      -0.595079       -16.1929
  20   2.0000      -0.580026       -15.7833
  21   2.0000      -0.548929       -14.9371
  22   2.0000      -0.523705       -14.2507
  23   2.0000      -0.500980       -13.6324
  24   2.0000      -0.493250       -13.4220
  25   2.0000      -0.475266       -12.9327
  26   2.0000      -0.421769       -11.4769
  27   2.0000      -0.414714       -11.2849
  28   2.0000      -0.398250       -10.8369
  29   0.0000       0.117227         3.1899
  30   0.0000       0.126941         3.4542
  31   0.0000       0.160602         4.3702
  32   0.0000       0.171427         4.6648
  33   0.0000       0.187504         5.1022

MULLIKEN ATOMIC CHARGES
-----------------------
   0 C :   -0.191869
   1 S :    0.978066
   2 O :   -0.479281
   3 F :   -0.214188
   4 O :   -0.440916
   5 C :   -0.016334
   6 H :    0.084349
   7 H :    0.107545
   8 H :    0.070210
   9 H :    0.051498
  10 H :    0.050922
Sum of atomic charges:   -0.0000000

LOEWDIN ATOMIC CHARGES
----------------------
   0 C :   -0.153708
   1 S :    1.175507
   2 O :   -0.519525
   3 F :   -0.158951
   4 O :   -0.480751
   5 C :   -0.055686
   6 H :    0.036219
   7 H :    0.050562
   8 H :    0.038151
   9 H :    0.032167
  10 H :    0.036013

  Mayer bond orders larger than 0.100000
B(  0-C ,  1-S ) :   0.9048 B(  0-C ,  5-C ) :   1.0592 B(  0-C ,  6-H ) :   0.9388
B(  0-C ,  7-H ) :   0.9407 B(  1-S ,  2-O ) :   1.7608 B(  1-S ,  3-F ) :   0.9802
B(  1-S ,  4-O ) :   1.8009 B(  5-C ,  8-H ) :   0.9693 B(  5-C ,  9-H ) :   0.9742
B(  5-C , 10-H ) :   0.9639

Dispersion correction           -0.002786952
FINAL SINGLE POINT ENERGY      -727.149759852336

DIPOLE MOMENT
-------------
                                X             Y             Z
Electronic contribution:      6.99223      -5.00203      -4.27568
Nuclear contribution   :     -7.60849       4.87515       5.84588
                        -----------------------------------------
Total Dipole Moment    :     -0.61626      -0.12688       1.57019
                        -----------------------------------------
Magnitude (a.u.)       :      1.69156
Magnitude (Debye)      :      4.29961

Rotational constants in cm-1:     0.153704     0.080342     0.079431
Rotational constants in MHz :  4607.928650  2408.599360  2381.267225

                             ****ORCA TERMINATED NORMALLY****
TOTAL RUN TIME: 0 days 0 hours 0 minutes 18 seconds 295 msec
