                         Program Version 5.0.0 -  RELEASE  -
|  1> !wB97X-D3 RIJCOSX def2-SVP def2/J TightSCF
|  2> *xyz 0 1
|  3> C         -7.33044       -2.67899       -3.20681
|  4> S         -6.01966       -2.92697       -4.41913
|  5> O         -5.64583       -1.58838       -4.91931
|  6> O         -4.88196       -3.50370       -3.66724
|  7> F         -6.54927       -3.80515       -5.42507
|  8> C         -7.46900       -1.24615       -2.71383
|  9> H         -7.11825       -3.37982       -2.39805
| 10> H         -8.24184       -3.00474       -3.70651
| 11> H         -7.67580       -0.60214       -3.54292
| 12> H         -6.55749       -0.94096       -2.24382
| 13> H         -8.27114       -1.18777       -2.00810
| 14> *
| 15> %MaxCore 64000
| 16>
| 17> %pal nprocs 4
| 18> end
| 19>
| 20> %scf
| 21>   MaxIter 150
| 22> end
| 23>
| 24>
| 25>                          ****END OF INPUT****

CARTESIAN COORDINATES (ANGSTROEM)
---------------------------------
  C     -7.330440   -2.678990   -3.206810
  S     -6.019660   -2.926970   -4.419130
  O     -5.645830   -1.588380   -4.919310
  O     -4.881960   -3.503700   -3.667240
  F     -6.549270   -3.805150   -5.425070
  C     -7.469000   -1.246150   -2.713830
  H     -7.118250   -3.379820   -2.398050
  H     -8.241840   -3.004740   -3.706510
  H     -7.675800   -0.602140   -3.542920
  H     -6.557490   -0.940960   -2.243820
  H     -8.271140   -1.187770   -2.008100

 Total Charge           Charge          ....    0
 Multiplicity           Mult            ....    1
 Number of Electrons    NEL             ....   58
 Basis Dimension        Dim             ....  113

ORBITAL ENERGIES
----------------

  NO   OCC          E(Eh)            E(eV)
   0   2.0000     -89.212027     -2427.5827
   1   2.0000     -24.910747      -677.8559
   2   2.0000     -19.233340      -523.3658
   3   2.0000     -19.228841      -523.2434
   4   2.0000     -10.351823      -281.6874
   5   2.0000     -10.309523      -280.5364
   6   2.0000      -8.295285      -225.7262
   7   2.0000      -6.258462      -170.3014
   8   2.0000      -6.251647      -170.1160
   9   2.0000      -6.250584      -170.0870
  10   2.0000      -1.493221       -40.6326
  11   2.0000      -1.202593       -32.7242
  12   2.0000      -1.096213       -29.8295
  13   2.0000      -0.938049       -25.5256
  14   2.0000      -0.844718       -22.9859
  15   2.0000      -0.784254       -21.3406
  16   2.0000      -0.695510       -18.9258
  17   2.0000      -0.691819       -18.8254
  18   2.0000      -0.654677       -17.8147
  19   2.0000      -0.597784       -16.2665
  20   2.0000      -0.577410       -15.7121
  21   2.0000      -0.537729       -14.6324
  22   2.0000      -0.519699       -14.1417
  23   2.0000      -0.503425       -13.6989
  24   2.0000      -0.485666       -13.2156
  25   2.0000      -0.468603       -12.7513
  26   2.0000      -0.412515       -11.2251
  27   2.0000      -0.405182       -11.0256
  28   2.0000      -0.383281       -10.4296
  29   0.0000       0.119709         3.2574
  30   0.0000       0.124953         3.4001
  31   0.0000       0.155804         4.2396
  32   0.0000       0.173208         4.7132
  33   0.0000       0.183566         4.9951

MULLIKEN ATOMIC CHARGES
-----------------------
   0 C :   -0.185813
   1 S :    0.968639
   2 O :   -0.474157
   3 O :   -0.485411
   4 F :   -0.169152
   5 C :   -0.012885
   6 H :    0.103080
   7 H :    0.074706
   8 H :    0.060525
   9 H :    0.068194
  10 H :    0.052273
Sum of atomic charges:    0.0000000

LOEWDIN ATOMIC CHARGES
----------------------
   0 C :   -0.152970
   1 S :    1.169187
   2 O :   -0.515996
   3 O :   -0.526404
   4 F :   -0.113082
   5 C :   -0.050073
   6 H :    0.046897
   7 H :    0.031349
   8 H :    0.035219
   9 H :    0.039015
  10 H :    0.036857

  Mayer bond orders larger than 0.100000
B(  0-C ,  1-S ) :   0.9062 B(  0-C ,  5-C ) :   1.0676 B(  0-C ,  6-H ) :   0.9371
B(  0-C ,  7-H ) :   0.9383 B(  1-S ,  2-O ) :   1.7557 B(  1-S ,  3-O ) :   1.7430
B(  1-S ,  4-F ) :   1.0329 B(  5-C ,  8-H ) :   0.9684 B(  5-C ,  9-H ) :   0.9730
B(  5-C , 10-H ) :   0.9645

Dispersion correction           -0.002809093
FINAL SINGLE POINT ENERGY      -727.129409577514

DIPOLE MOMENT
-------------
                                X             Y             Z
Electronic contribution:      4.13150      -5.49957      -7.29468
Nuclear contribution   :     -5.87110       5.18927       7.67759
                        -----------------------------------------
Total Dipole Moment    :     -1.73960      -0.31030       0.38291
                        -----------------------------------------
Magnitude (a.u.)       :      1.80807
Magnitude (Debye)      :      4.59575

Rotational constants in cm-1:     0.155988     0.080452     0.078187
Rotational constants in MHz :  4676.405251  2411.902056  2343.983816

                             ****ORCA TERMINATED NORMALLY****
TOTAL RUN TIME: 0 days 0 hours 0 minutes 18 seconds 338 msec
