                         Program Version 5.0.0 -  RELEASE  -
|  1> !wB97X-D3 RIJCOSX def2-SVP def2/J TightSCF xyzfile
|  2>
|  3> *xyzfile 0 1 D1.xyz
|  4>
|  5> %MaxCore 64000
|  6>
|  7> %pal nprocs 18
|  8> end
|  9>
| 10> %scf
| 11>   MaxIter 150
| 12> end
| 13>
| 14>
| 15>                          ****END OF INPUT****

CARTESIAN COORDINATES (ANGSTROEM)
---------------------------------
  C     -2.160376   -1.369486   -3.467104
  C     -3.030108   -1.910857   -4.541074
  C     -2.047717    0.146583   -3.511774
  C     -7.330440   -2.678991   -3.206811
  S     -6.019659   -2.926965   -4.419128
  H     -3.477443   -2.791513   -4.257096
  H     -2.538013   -2.017860   -5.438075
  H     -3.891589   -1.376039   -4.714365
  F     -5.645830   -1.588384   -4.919307
  O     -4.881961   -3.503697   -3.667235
  H     -1.184438   -1.843997   -3.566393
  H     -2.598195   -1.708376   -2.528477
  O     -6.549267   -3.805150   -5.425071
  C     -3.328755    0.875037   -3.103669
  H     -1.740034    0.452343   -4.517126
  H     -1.232611    0.434938   -2.842208
  C     -3.628487    0.771601   -1.609363
  H     -4.175106    0.490791   -3.682203
  H     -3.237812    1.928663   -3.381480
  C     -4.975718    1.361432   -1.190644
  H     -2.830700    1.276234   -1.054766
  H     -3.594312   -0.275838   -1.294603
  C     -6.184720    0.784347   -1.926464
  H     -4.956292    2.445725   -1.342200
  H     -5.097256    1.205252   -0.114136
  C     -6.286921   -0.735882   -1.893531
  H     -6.163994    1.100199   -2.974250
  H     -7.094530    1.223459   -1.504509
  C     -7.468999   -1.246153   -2.713833
  H     -6.360641   -1.090347   -0.859176
  H     -5.369848   -1.171853   -2.295982
  H     -7.601914   -0.601349   -3.585329
  H     -8.389791   -1.173436   -2.126922
  H     -7.118254   -3.379818   -2.398055
  H     -8.241838   -3.004745   -3.706513

 Total Charge           Charge          ....    0
 Multiplicity           Mult            ....    1
 Number of Electrons    NEL             ....  122
 Basis Dimension        Dim             ....  305

ORBITAL ENERGIES
----------------

  NO   OCC          E(Eh)            E(eV)
   0   2.0000     -89.221042     -2427.8280
   1   2.0000     -24.902305      -677.6262
   2   2.0000     -19.254590      -523.9440
   3   2.0000     -19.240221      -523.5530
   4   2.0000     -10.353673      -281.7378
   5   2.0000     -10.325044      -280.9587
   6   2.0000     -10.302857      -280.3550
   7   2.0000     -10.294311      -280.1224
   8   2.0000     -10.286878      -279.9202
   9   2.0000     -10.279789      -279.7273
  10   2.0000     -10.277033      -279.6523
  11   2.0000     -10.269014      -279.4341
  12   2.0000     -10.258522      -279.1486
  13   2.0000     -10.211603      -277.8718
  14   2.0000      -8.303722      -225.9558
  15   2.0000      -6.266858      -170.5299
  16   2.0000      -6.260397      -170.3541
  17   2.0000      -6.258999      -170.3160
  18   2.0000      -1.472170       -40.0598
  19   2.0000      -1.229292       -33.4507
  20   2.0000      -1.125945       -30.6385
  21   2.0000      -0.962826       -26.1998
  22   2.0000      -0.928366       -25.2621
  23   2.0000      -0.898641       -24.4533
  24   2.0000      -0.870702       -23.6930
  25   2.0000      -0.829598       -22.5745
  26   2.0000      -0.815062       -22.1790
  27   2.0000      -0.779283       -21.2054
  28   2.0000      -0.744236       -20.2517
  29   2.0000      -0.727392       -19.7933
  30   2.0000      -0.699041       -19.0219
  31   2.0000      -0.688585       -18.7373
  32   2.0000      -0.671684       -18.2774
  33   2.0000      -0.653267       -17.7763
  34   2.0000      -0.647906       -17.6304
  35   2.0000      -0.601844       -16.3770
  36   2.0000      -0.594383       -16.1740
  37   2.0000      -0.580068       -15.7845
  38   2.0000      -0.570933       -15.5359
  39   2.0000      -0.562300       -15.3010
  40   2.0000      -0.550006       -14.9664
  41   2.0000      -0.538800       -14.6615
  42   2.0000      -0.530449       -14.4343
  43   2.0000      -0.526489       -14.3265
  44   2.0000      -0.507933       -13.8216
  45   2.0000      -0.493406       -13.4263
  46   2.0000      -0.487883       -13.2760
  47   2.0000      -0.483397       -13.1539
  48   2.0000      -0.472050       -12.8451
  49   2.0000      -0.462000       -12.5717
  50   2.0000      -0.450285       -12.2529
  51   2.0000      -0.446768       -12.1572
  52   2.0000      -0.432980       -11.7820
  53   2.0000      -0.427037       -11.6203
  54   2.0000      -0.422372       -11.4933
  55   2.0000      -0.415498       -11.3063
  56   2.0000      -0.406924       -11.0730
  57   2.0000      -0.404667       -11.0116
  58   2.0000      -0.394787       -10.7427
  59   2.0000      -0.392155       -10.6711
  60   2.0000      -0.365657        -9.9500
  61   0.0000       0.093028         2.5314
  62   0.0000       0.131846         3.5877
  63   0.0000       0.144062         3.9201
  64   0.0000       0.146949         3.9987
  65   0.0000       0.151626         4.1259

MULLIKEN ATOMIC CHARGES
-----------------------
   0 C :   -0.060033
   1 C :   -0.022820
   2 C :   -0.001325
   3 C :   -0.096046
   4 S :    0.983564
   5 H :    0.043983
   6 H :   -0.010495
   7 H :   -0.032361
   8 F :   -0.190119
   9 O :   -0.460535
  10 H :    0.017234
  11 H :    0.008261
  12 O :   -0.424113
  13 C :   -0.039153
  14 H :    0.013645
  15 H :    0.007244
  16 C :   -0.069684
  17 H :   -0.002778
  18 H :    0.015181
  19 C :    0.021912
  20 H :    0.020809
  21 H :    0.025411
  22 C :   -0.060703
  23 H :    0.020495
  24 H :    0.018737
  25 C :   -0.062318
  26 H :    0.024906
  27 H :    0.022973
  28 C :   -0.063653
  29 H :    0.033482
  30 H :    0.019161
  31 H :    0.039803
  32 H :    0.054812
  33 H :    0.108866
  34 H :    0.095657
Sum of atomic charges:   -0.0000000

LOEWDIN ATOMIC CHARGES
----------------------
   0 C :   -0.038726
   1 C :   -0.091460
   2 C :   -0.037457
   3 C :   -0.135137
   4 S :    1.193605
   5 H :   -0.005730
   6 H :    0.007087
   7 H :   -0.019202
   8 F :   -0.115655
   9 O :   -0.472094
  10 H :    0.022680
  11 H :    0.015214
  12 O :   -0.470328
  13 C :   -0.041079
  14 H :    0.020982
  15 H :    0.017850
  16 C :   -0.041967
  17 H :    0.010123
  18 H :    0.022110
  19 C :   -0.036931
  20 H :    0.025072
  21 H :    0.017608
  22 C :   -0.040555
  23 H :    0.023993
  24 H :    0.022885
  25 C :   -0.046295
  26 H :    0.019067
  27 H :    0.023866
  28 C :   -0.053894
  29 H :    0.028864
  30 H :    0.012593
  31 H :    0.024850
  32 H :    0.039242
  33 H :    0.053609
  34 H :    0.045214

  Mayer bond orders larger than 0.100000
B(  0-C ,  1-C ) :   1.0890 B(  0-C ,  2-C ) :   1.0676 B(  0-C , 10-H ) :   0.9502
B(  0-C , 11-H ) :   0.9567 B(  1-C ,  5-H ) :   0.9332 B(  1-C ,  6-H ) :   0.9391
B(  1-C ,  7-H ) :   0.9659 B(  2-C , 13-C ) :   1.0768 B(  2-C , 14-H ) :   0.9504
B(  2-C , 15-H ) :   0.9482 B(  3-C ,  4-S ) :   0.9155 B(  3-C , 28-C ) :   1.0484
B(  3-C , 33-H ) :   0.9323 B(  3-C , 34-H ) :   0.9384 B(  4-S ,  8-F ) :   0.9624
B(  4-S ,  9-O ) :   1.6605 B(  4-S , 12-O ) :   1.8167 B( 13-C , 16-C ) :   1.0502
B( 13-C , 17-H ) :   0.9429 B( 13-C , 18-H ) :   0.9455 B( 16-C , 19-C ) :   1.0777
B( 16-C , 20-H ) :   0.9443 B( 16-C , 21-H ) :   0.9480 B( 19-C , 22-C ) :   1.0772
B( 19-C , 23-H ) :   0.9470 B( 19-C , 24-H ) :   0.9473 B( 22-C , 25-C ) :   1.0558
B( 22-C , 26-H ) :   0.9470 B( 22-C , 27-H ) :   0.9479 B( 25-C , 28-C ) :   1.0421
B( 25-C , 29-H ) :   0.9443 B( 25-C , 30-H ) :   0.9503 B( 28-C , 31-H ) :   0.9541
B( 28-C , 32-H ) :   0.9387

Dispersion correction           -0.018496574
FINAL SINGLE POINT ENERGY     -1041.315347576503

DIPOLE MOMENT
-------------
                                X             Y             Z
Electronic contribution:    -10.97386     -16.23847     -13.22329
Nuclear contribution   :      9.63012      17.20461      14.03552
                        -----------------------------------------
Total Dipole Moment    :     -1.34374       0.96614       0.81223
                        -----------------------------------------
Magnitude (a.u.)       :      1.84358
Magnitude (Debye)      :      4.68600

Rotational constants in cm-1:     0.025899     0.015189     0.010690
Rotational constants in MHz :   776.424978   455.369614   320.488876

                             ****ORCA TERMINATED NORMALLY****
TOTAL RUN TIME: 0 days 0 hours 0 minutes 45 seconds 105 msec
