                         Program Version 5.0.0 -  RELEASE  -
|  1> !wB97X-D3 RIJCOSX def2-SVPD def2/J TightSCF CPCM(Water)
|  2> *xyz -1 1
|  3> C          1.72854        1.42432       -5.63944
|  4> S          2.25263       -0.18811       -6.27184
|  5> O          3.56261       -0.44446       -5.63155
|  6> O          2.34494       -0.03374       -7.69650
|  7> O          1.26606       -1.15918       -5.80536
|  8> H          0.77944        1.68154       -6.06127
|  9> H          2.45151        2.16548       -5.90944
| 10> H          1.64478        1.37937       -4.57367
| 11> *
| 12>
| 13> %MaxCore 64000
| 14>
| 15> %pal nprocs 8
| 16> end
| 17>
| 18> %scf
| 19>   MaxIter 150
| 20> end
| 21>
| 22>
| 23>                          ****END OF INPUT****

CARTESIAN COORDINATES (ANGSTROEM)
---------------------------------
  C      1.728540    1.424320   -5.639440
  S      2.252630   -0.188110   -6.271840
  O      3.562610   -0.444460   -5.631550
  O      2.344940   -0.033740   -7.696500
  O      1.266060   -1.159180   -5.805360
  H      0.779440    1.681540   -6.061270
  H      2.451510    2.165480   -5.909440
  H      1.644780    1.379370   -4.573670

 Total Charge           Charge          ....   -1
 Multiplicity           Mult            ....    1
 Number of Electrons    NEL             ....   50
 Basis Dimension        Dim             ....  140

ORBITAL ENERGIES
----------------

  NO   OCC          E(Eh)            E(eV)
   0   2.0000     -89.156724     -2426.0778
   1   2.0000     -19.210911      -522.7555
   2   2.0000     -19.205906      -522.6193
   3   2.0000     -19.199210      -522.4371
   4   2.0000     -10.291165      -280.0368
   5   2.0000      -8.230741      -223.9699
   6   2.0000      -6.190525      -168.4527
   7   2.0000      -6.190507      -168.4523
   8   2.0000      -6.189102      -168.4140
   9   2.0000      -1.230826       -33.4925
  10   2.0000      -1.089050       -29.6346
  11   2.0000      -1.067432       -29.0463
  12   2.0000      -0.846625       -23.0379
  13   2.0000      -0.666460       -18.1353
  14   2.0000      -0.584778       -15.9126
  15   2.0000      -0.562926       -15.3180
  16   2.0000      -0.561530       -15.2800
  17   2.0000      -0.510656       -13.8957
  18   2.0000      -0.508815       -13.8456
  19   2.0000      -0.438892       -11.9429
  20   2.0000      -0.436958       -11.8902
  21   2.0000      -0.393967       -10.7204
  22   2.0000      -0.384489       -10.4625
  23   2.0000      -0.379022       -10.3137
  24   2.0000      -0.347168        -9.4469
  25   0.0000       0.079812         2.1718
  26   0.0000       0.103106         2.8057
  27   0.0000       0.104003         2.8301
  28   0.0000       0.104372         2.8401
  29   0.0000       0.152592         4.1522

MULLIKEN ATOMIC CHARGES
-----------------------
   0 C :    0.369883
   1 S :    1.062608
   2 O :   -0.827777
   3 O :   -0.773849
   4 O :   -0.802292
   5 H :   -0.009596
   6 H :   -0.005887
   7 H :   -0.013091
Sum of atomic charges:   -1.0000000

LOEWDIN ATOMIC CHARGES
----------------------
   0 C :    0.085257
   1 S :    0.832518
   2 O :   -0.637885
   3 O :   -0.604567
   4 O :   -0.620588
   5 H :   -0.018306
   6 H :   -0.017813
   7 H :   -0.018616

  Mayer bond orders larger than 0.100000
B(  0-C ,  1-S ) :   0.9668 B(  0-C ,  5-H ) :   0.9341 B(  0-C ,  6-H ) :   0.9330
B(  0-C ,  7-H ) :   0.9368 B(  1-S ,  2-O ) :   1.2957 B(  1-S ,  3-O ) :   1.3493
B(  1-S ,  4-O ) :   1.3195 B(  1-S ,  6-H ) :   0.1022 B(  1-S ,  7-H ) :   0.1062

Dispersion correction           -0.001522137
FINAL SINGLE POINT ENERGY      -663.519056290892

DIPOLE MOMENT
-------------
                                X             Y             Z
Electronic contribution:      0.94102      -3.17432      -1.41527
Nuclear contribution   :     -1.71379       5.17769       1.98321
                        -----------------------------------------
Total Dipole Moment    :     -0.77278       2.00337       0.56793
                        -----------------------------------------
Magnitude (a.u.)       :      2.22108
Magnitude (Debye)      :      5.64554

Rotational constants in cm-1:     0.172739     0.155771     0.153412
Rotational constants in MHz :  5178.588083  4669.889924  4599.189984

                             ****ORCA TERMINATED NORMALLY****
TOTAL RUN TIME: 0 days 0 hours 0 minutes 10 seconds 501 msec
