                         Program Version 5.0.0 -  RELEASE  -
|  1> !wB97X-D3 RIJCOSX def2-SVPD def2/J TightSCF CPCM(Water)
|  2> *xyz 1 1
|  3> C          2.91632       -1.24259       -1.54313
|  4> C          3.46659       -1.59097       -2.88908
|  5> N          4.65227       -1.14316       -3.25969
|  6> N          2.75226       -2.29204       -3.72803
|  7> H          1.77836       -2.48960       -3.51274
|  8> H          2.94861       -2.20854       -4.71681
|  9> H          5.14672       -0.51251       -2.63385
| 10> H          4.78303       -1.00720       -4.25350
| 11> H          1.95294       -1.69278       -1.42424
| 12> H          2.82618       -0.17973       -1.45886
| 13> H          3.57606       -1.60596       -0.78312
| 14> *
| 15>
| 16> %MaxCore 64000
| 17>
| 18> %pal nprocs 8
| 19> end
| 20>
| 21> %scf
| 22>   MaxIter 150
| 23> end
| 24>
| 25>
| 26>                          ****END OF INPUT****

CARTESIAN COORDINATES (ANGSTROEM)
---------------------------------
  C      2.916320   -1.242590   -1.543130
  C      3.466590   -1.590970   -2.889080
  N      4.652270   -1.143160   -3.259690
  N      2.752260   -2.292040   -3.728030
  H      1.778360   -2.489600   -3.512740
  H      2.948610   -2.208540   -4.716810
  H      5.146720   -0.512510   -2.633850
  H      4.783030   -1.007200   -4.253500
  H      1.952940   -1.692780   -1.424240
  H      2.826180   -0.179730   -1.458860
  H      3.576060   -1.605960   -0.783120

 Total Charge           Charge          ....    1
 Multiplicity           Mult            ....    1
 Number of Electrons    NEL             ....   32
 Basis Dimension        Dim             ....  136

ORBITAL ENERGIES
----------------

  NO   OCC          E(Eh)            E(eV)
   0   2.0000     -14.500896      -394.5894
   1   2.0000     -14.496249      -394.4630
   2   2.0000     -10.440920      -284.1119
   3   2.0000     -10.311828      -280.5991
   4   2.0000      -1.138208       -30.9722
   5   2.0000      -1.034363       -28.1464
   6   2.0000      -0.885492       -24.0955
   7   2.0000      -0.761146       -20.7118
   8   2.0000      -0.689982       -18.7754
   9   2.0000      -0.686253       -18.6739
  10   2.0000      -0.611941       -16.6518
  11   2.0000      -0.587333       -15.9822
  12   2.0000      -0.535768       -14.5790
  13   2.0000      -0.522935       -14.2298
  14   2.0000      -0.492254       -13.3949
  15   2.0000      -0.410846       -11.1797
  16   0.0000       0.040003         1.0885
  17   0.0000       0.089404         2.4328
  18   0.0000       0.129513         3.5242
  19   0.0000       0.138065         3.7569
  20   0.0000       0.155954         4.2437

MULLIKEN ATOMIC CHARGES
-----------------------
   0 C :    0.427295
   1 C :    0.127533
   2 N :   -0.040430
   3 N :   -0.035946
   4 H :    0.111559
   5 H :    0.010305
   6 H :    0.111307
   7 H :    0.022865
   8 H :    0.097373
   9 H :    0.075258
  10 H :    0.092881
Sum of atomic charges:    1.0000000

LOEWDIN ATOMIC CHARGES
----------------------
   0 C :    0.224702
   1 C :   -0.064585
   2 N :    0.272729
   3 N :    0.279270
   4 H :    0.062691
   5 H :    0.059636
   6 H :    0.062458
   7 H :    0.054225
   8 H :    0.006524
   9 H :    0.023166
  10 H :    0.019183

  Mayer bond orders larger than 0.100000
B(  0-C ,  1-C ) :   1.3432 B(  0-C ,  8-H ) :   0.7977 B(  0-C ,  9-H ) :   0.8437
B(  0-C , 10-H ) :   0.7218 B(  1-C ,  2-N ) :   1.1445 B(  1-C ,  3-N ) :   1.1114
B(  1-C ,  5-H ) :  -0.1044 B(  1-C ,  8-H ) :   0.2225 B(  1-C ,  9-H ) :   0.1235
B(  1-C , 10-H ) :   0.2188 B(  2-N ,  3-N ) :   0.1628 B(  2-N ,  6-H ) :   0.9910
B(  2-N ,  7-H ) :   1.1462 B(  3-N ,  4-H ) :   1.0041 B(  3-N ,  5-H ) :   1.1867
B(  4-H ,  5-H ) :  -0.1208 B(  6-H ,  7-H ) :  -0.1081 B(  8-H , 10-H ) :   0.1077

Dispersion correction           -0.001676977
FINAL SINGLE POINT ENERGY      -189.636338207188

DIPOLE MOMENT
-------------
                                X             Y             Z
Electronic contribution:      0.87692      -0.65163      -2.00867
Nuclear contribution   :     -1.03256       1.11747       1.26949
                        -----------------------------------------
Total Dipole Moment    :     -0.15565       0.46584      -0.73918
                        -----------------------------------------
Magnitude (a.u.)       :      0.88749
Magnitude (Debye)      :      2.25581

Rotational constants in cm-1:     0.336859     0.298586     0.163958
Rotational constants in MHz : 10098.776812  8951.369850  4915.333652

                             ****ORCA TERMINATED NORMALLY****
TOTAL RUN TIME: 0 days 0 hours 0 minutes 10 seconds 573 msec
