                         Program Version 5.0.0 -  RELEASE  -
|  1> !wB97X-D3 RIJCOSX def2-SVPD def2/J TightSCF CPCM(Water)
|  2> *xyz 0 1
|  3> C          1.72854        1.42432       -5.63944
|  4> S          2.25263       -0.18811       -6.27184
|  5> F          3.56261       -0.44446       -5.63155
|  6> O          2.34494       -0.03374       -7.69650
|  7> O          1.26606       -1.15918       -5.80536
|  8> H          0.77944        1.68154       -6.06127
|  9> H          2.45151        2.16548       -5.90944
| 10> H          1.64478        1.37937       -4.57367
| 11> *
| 12>
| 13> %MaxCore 64000
| 14>
| 15> %pal nprocs 8
| 16> end
| 17>
| 18> %scf
| 19>   MaxIter 150
| 20> end
| 21>
| 22>
| 23>                          ****END OF INPUT****

CARTESIAN COORDINATES (ANGSTROEM)
---------------------------------
  C      1.728540    1.424320   -5.639440
  S      2.252630   -0.188110   -6.271840
  F      3.562610   -0.444460   -5.631550
  O      2.344940   -0.033740   -7.696500
  O      1.266060   -1.159180   -5.805360
  H      0.779440    1.681540   -6.061270
  H      2.451510    2.165480   -5.909440
  H      1.644780    1.379370   -4.573670

 Total Charge           Charge          ....    0
 Multiplicity           Mult            ....    1
 Number of Electrons    NEL             ....   50
 Basis Dimension        Dim             ....  140

ORBITAL ENERGIES
----------------

  NO   OCC          E(Eh)            E(eV)
   0   2.0000     -89.242789     -2428.4198
   1   2.0000     -24.902129      -677.6214
   2   2.0000     -19.271535      -524.4051
   3   2.0000     -19.266145      -524.2584
   4   2.0000     -10.331569      -281.1363
   5   2.0000      -8.316673      -226.3082
   6   2.0000      -6.280207      -170.8931
   7   2.0000      -6.274428      -170.7359
   8   2.0000      -6.272606      -170.6863
   9   2.0000      -1.462170       -39.7877
  10   2.0000      -1.241397       -33.7801
  11   2.0000      -1.144121       -31.1331
  12   2.0000      -0.900135       -24.4939
  13   2.0000      -0.809043       -22.0152
  14   2.0000      -0.691489       -18.8164
  15   2.0000      -0.674836       -18.3632
  16   2.0000      -0.664477       -18.0813
  17   2.0000      -0.581503       -15.8235
  18   2.0000      -0.574790       -15.6408
  19   2.0000      -0.549094       -14.9416
  20   2.0000      -0.540043       -14.6953
  21   2.0000      -0.499406       -13.5895
  22   2.0000      -0.449167       -12.2224
  23   2.0000      -0.439057       -11.9473
  24   2.0000      -0.427402       -11.6302
  25   0.0000       0.069186         1.8827
  26   0.0000       0.099733         2.7139
  27   0.0000       0.099941         2.7195
  28   0.0000       0.102349         2.7851
  29   0.0000       0.121350         3.3021

MULLIKEN ATOMIC CHARGES
-----------------------
   0 C :    0.274023
   1 S :    1.287900
   2 F :   -0.383431
   3 O :   -0.670736
   4 O :   -0.699798
   5 H :    0.061432
   6 H :    0.069427
   7 H :    0.061182
Sum of atomic charges:    0.0000000

LOEWDIN ATOMIC CHARGES
----------------------
   0 C :    0.146687
   1 S :    1.116716
   2 F :   -0.263421
   3 O :   -0.498221
   4 O :   -0.512982
   5 H :    0.009123
   6 H :    0.001503
   7 H :    0.000595

  Mayer bond orders larger than 0.100000
B(  0-C ,  1-S ) :   1.0124 B(  0-C ,  5-H ) :   0.9256 B(  0-C ,  6-H ) :   0.9289
B(  0-C ,  7-H ) :   0.9339 B(  1-S ,  2-F ) :   0.6763 B(  1-S ,  3-O ) :   1.5240
B(  1-S ,  4-O ) :   1.4939

Dispersion correction           -0.001528875
FINAL SINGLE POINT ENERGY      -687.926542750078

DIPOLE MOMENT
-------------
                                X             Y             Z
Electronic contribution:      3.46220      -3.78963      -0.27316
Nuclear contribution   :     -3.03874       5.51823       1.39394
                        -----------------------------------------
Total Dipole Moment    :      0.42347       1.72860       1.12077
                        -----------------------------------------
Magnitude (a.u.)       :      2.10321
Magnitude (Debye)      :      5.34594

Rotational constants in cm-1:     0.164301     0.151617     0.146802
Rotational constants in MHz :  4925.615104  4545.361281  4401.017554

                             ****ORCA TERMINATED NORMALLY****
TOTAL RUN TIME: 0 days 0 hours 0 minutes 10 seconds 917 msec
