                         Program Version 5.0.0 -  RELEASE  -
|  1> !wB97X-D3 RIJCOSX def2-SVPD def2/J TightSCF CPCM(Water)
|  2> *xyz 0 1
|  3> C          2.91632       -1.24259       -1.54313
|  4> C          3.46659       -1.59097       -2.88908
|  5> C          4.65227       -1.14316       -3.25969
|  6> N          2.75226       -2.29204       -3.72803
|  7> H          1.77836       -2.48960       -3.51274
|  8> H          2.94861       -2.20854       -4.71681
|  9> H          5.14672       -0.51251       -2.63385
| 10> H          4.78303       -1.00720       -4.25350
| 11> H          1.95294       -1.69278       -1.42424
| 12> H          2.82618       -0.17973       -1.45886
| 13> H          3.57606       -1.60596       -0.78312
| 14> *
| 15>
| 16> %MaxCore 64000
| 17>
| 18> %pal nprocs 8
| 19> end
| 20>
| 21> %scf
| 22>   MaxIter 150
| 23> end
| 24>
| 25>
| 26>                          ****END OF INPUT****

CARTESIAN COORDINATES (ANGSTROEM)
---------------------------------
  C      2.916320   -1.242590   -1.543130
  C      3.466590   -1.590970   -2.889080
  C      4.652270   -1.143160   -3.259690
  N      2.752260   -2.292040   -3.728030
  H      1.778360   -2.489600   -3.512740
  H      2.948610   -2.208540   -4.716810
  H      5.146720   -0.512510   -2.633850
  H      4.783030   -1.007200   -4.253500
  H      1.952940   -1.692780   -1.424240
  H      2.826180   -0.179730   -1.458860
  H      3.576060   -1.605960   -0.783120

 Total Charge           Charge          ....    0
 Multiplicity           Mult            ....    1
 Number of Electrons    NEL             ....   32
 Basis Dimension        Dim             ....  136

ORBITAL ENERGIES
----------------

  NO   OCC          E(Eh)            E(eV)
   0   2.0000     -14.435213      -392.8021
   1   2.0000     -10.319206      -280.7999
   2   2.0000     -10.276488      -279.6375
   3   2.0000     -10.219712      -278.0925
   4   2.0000      -1.044081       -28.4109
   5   2.0000      -0.866813       -23.5872
   6   2.0000      -0.800170       -21.7737
   7   2.0000      -0.675311       -18.3761
   8   2.0000      -0.620987       -16.8979
   9   2.0000      -0.572549       -15.5799
  10   2.0000      -0.533309       -14.5121
  11   2.0000      -0.490519       -13.3477
  12   2.0000      -0.487904       -13.2766
  13   2.0000      -0.458368       -12.4728
  14   2.0000      -0.428527       -11.6608
  15   2.0000      -0.284157        -7.7323
  16   0.0000       0.098217         2.6726
  17   0.0000       0.107488         2.9249
  18   0.0000       0.134942         3.6720
  19   0.0000       0.139982         3.8091
  20   0.0000       0.170264         4.6331

MULLIKEN ATOMIC CHARGES
-----------------------
   0 C :    0.635208
   1 C :   -0.599431
   2 C :    0.340693
   3 N :    0.068792
   4 H :   -0.013395
   5 H :   -0.019582
   6 H :   -0.113578
   7 H :   -0.324337
   8 H :   -0.032600
   9 H :    0.006845
  10 H :    0.051386
Sum of atomic charges:   -0.0000000

LOEWDIN ATOMIC CHARGES
----------------------
   0 C :    0.168193
   1 C :   -0.298395
   2 C :    0.121171
   3 N :    0.167420
   4 H :    0.019085
   5 H :    0.021924
   6 H :   -0.087149
   7 H :   -0.093804
   8 H :   -0.016248
   9 H :    0.000173
  10 H :   -0.002368

  Mayer bond orders larger than 0.100000
B(  0-C ,  1-C ) :   1.2463 B(  0-C ,  8-H ) :   0.7467 B(  0-C ,  9-H ) :   0.8378
B(  0-C , 10-H ) :   0.7245 B(  1-C ,  2-C ) :   2.0141 B(  1-C ,  3-N ) :   1.1149
B(  1-C ,  6-H ) :   0.1683 B(  1-C ,  7-H ) :   0.2219 B(  1-C ,  8-H ) :   0.2760
B(  1-C ,  9-H ) :   0.1221 B(  1-C , 10-H ) :   0.2277 B(  2-C ,  3-N ) :   0.2248
B(  2-C ,  6-H ) :   0.7916 B(  2-C ,  7-H ) :   0.8323 B(  3-N ,  4-H ) :   1.0362
B(  3-N ,  5-H ) :   1.0937 B(  4-H ,  5-H ) :  -0.1109 B(  6-H ,  7-H ) :   0.1494

Dispersion correction           -0.001675319
FINAL SINGLE POINT ENERGY      -173.084485958630

DIPOLE MOMENT
-------------
                                X             Y             Z
Electronic contribution:     -0.56057      -1.15953      -1.35456
Nuclear contribution   :     -0.76183       1.20997       1.18381
                        -----------------------------------------
Total Dipole Moment    :     -1.32239       0.05044      -0.17076
                        -----------------------------------------
Magnitude (a.u.)       :      1.33433
Magnitude (Debye)      :      3.39159

Rotational constants in cm-1:     0.357745     0.302571     0.170012
Rotational constants in MHz : 10724.926457  9070.849165  5096.845195

                             ****ORCA TERMINATED NORMALLY****
TOTAL RUN TIME: 0 days 0 hours 0 minutes 11 seconds 36 msec
