                         Program Version 5.0.0 -  RELEASE  -
|  1> !wB97X-D3 RIJCOSX def2-SVPD def2/J TightSCF CPCM(Water)
|  2> *xyz 0 1
|  3> C          1.72854        1.42432       -5.63944
|  4> S          2.25263       -0.18811       -6.27184
|  5> O          3.56261       -0.44446       -5.63155
|  6> F          2.34494       -0.03374       -7.69650
|  7> O          1.26606       -1.15918       -5.80536
|  8> H          0.77944        1.68154       -6.06127
|  9> H          2.45151        2.16548       -5.90944
| 10> H          1.64478        1.37937       -4.57367
| 11> *
| 12>
| 13> %MaxCore 64000
| 14>
| 15> %pal nprocs 8
| 16> end
| 17>
| 18> %scf
| 19>   MaxIter 150
| 20> end
| 21>
| 22>
| 23>                          ****END OF INPUT****

CARTESIAN COORDINATES (ANGSTROEM)
---------------------------------
  C      1.728540    1.424320   -5.639440
  S      2.252630   -0.188110   -6.271840
  O      3.562610   -0.444460   -5.631550
  F      2.344940   -0.033740   -7.696500
  O      1.266060   -1.159180   -5.805360
  H      0.779440    1.681540   -6.061270
  H      2.451510    2.165480   -5.909440
  H      1.644780    1.379370   -4.573670

 Total Charge           Charge          ....    0
 Multiplicity           Mult            ....    1
 Number of Electrons    NEL             ....   50
 Basis Dimension        Dim             ....  140

ORBITAL ENERGIES
----------------

  NO   OCC          E(Eh)            E(eV)
   0   2.0000     -89.245982     -2428.5066
   1   2.0000     -24.922313      -678.1706
   2   2.0000     -19.266794      -524.2761
   3   2.0000     -19.259597      -524.0803
   4   2.0000     -10.332741      -281.1682
   5   2.0000      -8.319871      -226.3952
   6   2.0000      -6.283595      -170.9853
   7   2.0000      -6.277491      -170.8192
   8   2.0000      -6.275581      -170.7672
   9   2.0000      -1.497952       -40.7614
  10   2.0000      -1.229348       -33.4523
  11   2.0000      -1.125642       -30.6303
  12   2.0000      -0.903991       -24.5989
  13   2.0000      -0.824975       -22.4487
  14   2.0000      -0.708029       -19.2664
  15   2.0000      -0.698525       -19.0078
  16   2.0000      -0.667266       -18.1572
  17   2.0000      -0.579494       -15.7688
  18   2.0000      -0.572135       -15.5686
  19   2.0000      -0.550246       -14.9730
  20   2.0000      -0.536505       -14.5990
  21   2.0000      -0.494308       -13.4508
  22   2.0000      -0.440975       -11.9996
  23   2.0000      -0.433838       -11.8053
  24   2.0000      -0.414220       -11.2715
  25   0.0000       0.068296         1.8584
  26   0.0000       0.099201         2.6994
  27   0.0000       0.099644         2.7114
  28   0.0000       0.102415         2.7869
  29   0.0000       0.125289         3.4093

MULLIKEN ATOMIC CHARGES
-----------------------
   0 C :    0.273820
   1 S :    1.287734
   2 O :   -0.713397
   3 F :   -0.357653
   4 O :   -0.687132
   5 H :    0.067543
   6 H :    0.071038
   7 H :    0.058047
Sum of atomic charges:   -0.0000000

LOEWDIN ATOMIC CHARGES
----------------------
   0 C :    0.146950
   1 S :    1.121907
   2 O :   -0.529477
   3 F :   -0.238613
   4 O :   -0.512912
   5 H :    0.001173
   6 H :    0.001818
   7 H :    0.009155

  Mayer bond orders larger than 0.100000
B(  0-C ,  1-S ) :   1.0125 B(  0-C ,  5-H ) :   0.9289 B(  0-C ,  6-H ) :   0.9275
B(  0-C ,  7-H ) :   0.9310 B(  1-S ,  2-O ) :   1.4768 B(  1-S ,  3-F ) :   0.7289
B(  1-S ,  4-O ) :   1.4978 B(  1-S ,  7-H ) :   0.1047

Dispersion correction           -0.001531397
FINAL SINGLE POINT ENERGY      -687.909840760108

DIPOLE MOMENT
-------------
                                X             Y             Z
Electronic contribution:      1.13845      -3.01574      -4.15738
Nuclear contribution   :     -1.82220       5.10789       3.45696
                        -----------------------------------------
Total Dipole Moment    :     -0.68375       2.09215      -0.70043
                        -----------------------------------------
Magnitude (a.u.)       :      2.30981
Magnitude (Debye)      :      5.87107

Rotational constants in cm-1:     0.163267     0.154654     0.145086
Rotational constants in MHz :  4894.631475  4636.404456  4349.567403

                             ****ORCA TERMINATED NORMALLY****
TOTAL RUN TIME: 0 days 0 hours 0 minutes 11 seconds 68 msec
