                         Program Version 5.0.0 -  RELEASE  -
|  1> !wB97X-D3 RIJCOSX def2-SVPD def2/J TightSCF CPCM(Water)
|  2> *xyz 0 1
|  3> C          2.91632       -1.24259       -1.54313
|  4> C          3.46659       -1.59097       -2.88908
|  5> N          4.65227       -1.14316       -3.25969
|  6> C          2.75226       -2.29204       -3.72803
|  7> H          1.77836       -2.48960       -3.51274
|  8> H          2.94861       -2.20854       -4.71681
|  9> H          5.14672       -0.51251       -2.63385
| 10> H          4.78303       -1.00720       -4.25350
| 11> H          1.95294       -1.69278       -1.42424
| 12> H          2.82618       -0.17973       -1.45886
| 13> H          3.57606       -1.60596       -0.78312
| 14> *
| 15>
| 16> %MaxCore 64000
| 17>
| 18> %pal nprocs 8
| 19> end
| 20>
| 21> %scf
| 22>   MaxIter 150
| 23> end
| 24>
| 25>
| 26>                          ****END OF INPUT****

CARTESIAN COORDINATES (ANGSTROEM)
---------------------------------
  C      2.916320   -1.242590   -1.543130
  C      3.466590   -1.590970   -2.889080
  N      4.652270   -1.143160   -3.259690
  C      2.752260   -2.292040   -3.728030
  H      1.778360   -2.489600   -3.512740
  H      2.948610   -2.208540   -4.716810
  H      5.146720   -0.512510   -2.633850
  H      4.783030   -1.007200   -4.253500
  H      1.952940   -1.692780   -1.424240
  H      2.826180   -0.179730   -1.458860
  H      3.576060   -1.605960   -0.783120

 Total Charge           Charge          ....    0
 Multiplicity           Mult            ....    1
 Number of Electrons    NEL             ....   32
 Basis Dimension        Dim             ....  136

ORBITAL ENERGIES
----------------

  NO   OCC          E(Eh)            E(eV)
   0   2.0000     -14.431833      -392.7101
   1   2.0000     -10.317188      -280.7450
   2   2.0000     -10.275802      -279.6188
   3   2.0000     -10.223608      -278.1985
   4   2.0000      -1.038752       -28.2659
   5   2.0000      -0.867768       -23.6132
   6   2.0000      -0.801090       -21.7988
   7   2.0000      -0.669152       -18.2086
   8   2.0000      -0.621586       -16.9142
   9   2.0000      -0.575370       -15.6566
  10   2.0000      -0.533528       -14.5180
  11   2.0000      -0.492080       -13.3902
  12   2.0000      -0.489630       -13.3235
  13   2.0000      -0.453875       -12.3506
  14   2.0000      -0.424130       -11.5412
  15   2.0000      -0.290879        -7.9152
  16   0.0000       0.097476         2.6524
  17   0.0000       0.111725         3.0402
  18   0.0000       0.134599         3.6626
  19   0.0000       0.141034         3.8377
  20   0.0000       0.171073         4.6551

MULLIKEN ATOMIC CHARGES
-----------------------
   0 C :    0.659272
   1 C :   -0.681390
   2 N :    0.083191
   3 C :    0.288677
   4 H :   -0.065173
   5 H :   -0.348933
   6 H :   -0.033580
   7 H :   -0.007349
   8 H :    0.070940
   9 H :    0.014061
  10 H :    0.020286
Sum of atomic charges:   -0.0000000

LOEWDIN ATOMIC CHARGES
----------------------
   0 C :    0.165109
   1 C :   -0.306267
   2 N :    0.163590
   3 C :    0.132492
   4 H :   -0.085802
   5 H :   -0.085868
   6 H :    0.018804
   7 H :    0.016494
   8 H :   -0.011255
   9 H :   -0.000495
  10 H :   -0.006803

  Mayer bond orders larger than 0.100000
B(  0-C ,  1-C ) :   1.3881 B(  0-C ,  8-H ) :   0.7994 B(  0-C ,  9-H ) :   0.7152
B(  0-C , 10-H ) :   0.6862 B(  1-C ,  2-N ) :   1.1450 B(  1-C ,  3-C ) :   1.9897
B(  1-C ,  5-H ) :   0.2128 B(  1-C ,  8-H ) :   0.2198 B(  1-C ,  9-H ) :   0.2687
B(  1-C , 10-H ) :   0.2541 B(  2-N ,  3-C ) :   0.2398 B(  2-N ,  6-H ) :   1.0311
B(  2-N ,  7-H ) :   1.0584 B(  3-C ,  4-H ) :   0.8673 B(  3-C ,  5-H ) :   0.7856
B(  4-H ,  5-H ) :   0.1745 B(  8-H ,  9-H ) :   0.1142

Dispersion correction           -0.001687471
FINAL SINGLE POINT ENERGY      -173.087632715038

DIPOLE MOMENT
-------------
                                X             Y             Z
Electronic contribution:      1.64246       0.14645      -0.84294
Nuclear contribution   :     -1.18794       0.95232       1.07877
                        -----------------------------------------
Total Dipole Moment    :      0.45452       1.09877       0.23584
                        -----------------------------------------
Magnitude (a.u.)       :      1.21223
Magnitude (Debye)      :      3.08124

Rotational constants in cm-1:     0.358436     0.301769     0.169913
Rotational constants in MHz : 10745.629007  9046.806054  5093.859032

                             ****ORCA TERMINATED NORMALLY****
TOTAL RUN TIME: 0 days 0 hours 0 minutes 11 seconds 331 msec
