                         Program Version 5.0.0 -  RELEASE  -
|  1> !wB97X-D3 RIJCOSX def2-SVPD def2/J TightSCF CPCM(Water)
|  2> *xyz 0 1
|  3> C          1.72854        1.42432       -5.63944
|  4> S          2.25263       -0.18811       -6.27184
|  5> O          3.56261       -0.44446       -5.63155
|  6> O          2.34494       -0.03374       -7.69650
|  7> F          1.26606       -1.15918       -5.80536
|  8> H          0.77944        1.68154       -6.06127
|  9> H          2.45151        2.16548       -5.90944
| 10> H          1.64478        1.37937       -4.57367
| 11> *
| 12>
| 13> %MaxCore 64000
| 14>
| 15> %pal nprocs 8
| 16> end
| 17>
| 18> %scf
| 19>   MaxIter 150
| 20> end
| 21>
| 22>
| 23>                          ****END OF INPUT****

CARTESIAN COORDINATES (ANGSTROEM)
---------------------------------
  C      1.728540    1.424320   -5.639440
  S      2.252630   -0.188110   -6.271840
  O      3.562610   -0.444460   -5.631550
  O      2.344940   -0.033740   -7.696500
  F      1.266060   -1.159180   -5.805360
  H      0.779440    1.681540   -6.061270
  H      2.451510    2.165480   -5.909440
  H      1.644780    1.379370   -4.573670

 Total Charge           Charge          ....    0
 Multiplicity           Mult            ....    1
 Number of Electrons    NEL             ....   50
 Basis Dimension        Dim             ....  140

ORBITAL ENERGIES
----------------

  NO   OCC          E(Eh)            E(eV)
   0   2.0000     -89.244101     -2428.4555
   1   2.0000     -24.912228      -677.8962
   2   2.0000     -19.271948      -524.4164
   3   2.0000     -19.259351      -524.0736
   4   2.0000     -10.332243      -281.1546
   5   2.0000      -8.318029      -226.3451
   6   2.0000      -6.281617      -170.9315
   7   2.0000      -6.275716      -170.7709
   8   2.0000      -6.273881      -170.7210
   9   2.0000      -1.478291       -40.2263
  10   2.0000      -1.238107       -33.6906
  11   2.0000      -1.133597       -30.8468
  12   2.0000      -0.901163       -24.5219
  13   2.0000      -0.817002       -22.2318
  14   2.0000      -0.698637       -19.0109
  15   2.0000      -0.685396       -18.6506
  16   2.0000      -0.665928       -18.1208
  17   2.0000      -0.581135       -15.8135
  18   2.0000      -0.573975       -15.6187
  19   2.0000      -0.550633       -14.9835
  20   2.0000      -0.538237       -14.6462
  21   2.0000      -0.497509       -13.5379
  22   2.0000      -0.446439       -12.1482
  23   2.0000      -0.433591       -11.7986
  24   2.0000      -0.420331       -11.4378
  25   0.0000       0.068253         1.8573
  26   0.0000       0.099453         2.7063
  27   0.0000       0.099624         2.7109
  28   0.0000       0.102348         2.7850
  29   0.0000       0.119916         3.2631

MULLIKEN ATOMIC CHARGES
-----------------------
   0 C :    0.275538
   1 S :    1.288601
   2 O :   -0.719692
   3 O :   -0.664634
   4 F :   -0.373217
   5 H :    0.066222
   6 H :    0.065540
   7 H :    0.061642
Sum of atomic charges:    0.0000000

LOEWDIN ATOMIC CHARGES
----------------------
   0 C :    0.146825
   1 S :    1.119959
   2 O :   -0.529375
   3 O :   -0.498018
   4 F :   -0.250802
   5 H :    0.000984
   6 H :    0.009707
   7 H :    0.000720

  Mayer bond orders larger than 0.100000
B(  0-C ,  1-S ) :   1.0125 B(  0-C ,  5-H ) :   0.9301 B(  0-C ,  6-H ) :   0.9251
B(  0-C ,  7-H ) :   0.9325 B(  1-S ,  2-O ) :   1.4742 B(  1-S ,  3-O ) :   1.5251
B(  1-S ,  4-F ) :   0.6975 B(  1-S ,  6-H ) :   0.1014

Dispersion correction           -0.001528799
FINAL SINGLE POINT ENERGY      -687.917844361994

DIPOLE MOMENT
-------------
                                X             Y             Z
Electronic contribution:     -0.89763      -5.13221      -0.61228
Nuclear contribution   :     -0.74433       6.23228       1.56758
                        -----------------------------------------
Total Dipole Moment    :     -1.64196       1.10007       0.95531
                        -----------------------------------------
Magnitude (a.u.)       :      2.19518
Magnitude (Debye)      :      5.57971

Rotational constants in cm-1:     0.164764     0.152261     0.145794
Rotational constants in MHz :  4939.488001  4564.674339  4370.797804

                             ****ORCA TERMINATED NORMALLY****
TOTAL RUN TIME: 0 days 0 hours 0 minutes 10 seconds 909 msec
