                         Program Version 5.0.0 -  RELEASE  -
|  1> !wB97X-D3 RIJCOSX def2-SVPD def2/J TightSCF CPCM(Water) xyzfile
|  2>
|  3> *xyzfile 0 1 D2.xyz
|  4>
|  5> %MaxCore 64000
|  6>
|  7> %pal nprocs 18
|  8> end
|  9>
| 10> %scf
| 11>   MaxIter 150
| 12> end
| 13>
| 14>
| 15>                          ****END OF INPUT****

CARTESIAN COORDINATES (ANGSTROEM)
---------------------------------
  C      2.916324   -1.242589   -1.543125
  C      0.704661    1.443129   -4.503630
  C      1.728539    1.424320   -5.639443
  H      2.646718    1.953794   -5.381054
  H      1.299916    1.930613   -6.503614
  S      2.252625   -0.188115   -6.271840
  C      3.466585   -1.590971   -2.889082
  N      4.652275   -1.143164   -3.259692
  C      2.752264   -2.292043   -3.728029
  H      1.778364   -2.489604   -3.512738
  H      2.948612   -2.208544   -4.716813
  H      5.146723   -0.512508   -2.633852
  H      4.783030   -1.007203   -4.253498
  F      3.562607   -0.444464   -5.631552
  O      2.344944   -0.033742   -7.696501
  C      2.804084    0.290698   -1.359243
  C      1.052550    0.695659   -3.214915
  H     -0.232483    1.032925   -4.884449
  H      0.511700    2.495794   -4.267966
  C      2.388380    1.093669   -2.597108
  H      3.763425    0.674718   -0.999889
  H      2.094788    0.461222   -0.545756
  O      1.266058   -1.159177   -5.805365
  H      3.167316    1.013242   -3.359430
  H      2.357690    2.149375   -2.310997
  H      1.039284   -0.368429   -3.449329
  H      0.250787    0.865605   -2.488283
  H      1.940472   -1.716529   -1.441161
  H      3.558569   -1.663433   -0.766371

 Total Charge           Charge          ....    0
 Multiplicity           Mult            ....    1
 Number of Electrons    NEL             ....  112
 Basis Dimension        Dim             ....  404

ORBITAL ENERGIES
----------------

  NO   OCC          E(Eh)            E(eV)
   0   2.0000     -89.239875     -2428.3405
   1   2.0000     -24.904845      -677.6953
   2   2.0000     -19.271781      -524.4118
   3   2.0000     -19.261117      -524.1217
   4   2.0000     -14.429253      -392.6399
   5   2.0000     -10.337620      -281.3009
   6   2.0000     -10.309700      -280.5412
   7   2.0000     -10.300423      -280.2888
   8   2.0000     -10.284445      -279.8540
   9   2.0000     -10.283660      -279.8326
  10   2.0000     -10.280052      -279.7344
  11   2.0000     -10.278601      -279.6949
  12   2.0000     -10.219346      -278.0825
  13   2.0000      -8.312941      -226.2066
  14   2.0000      -6.276745      -170.7989
  15   2.0000      -6.270675      -170.6337
  16   2.0000      -6.268625      -170.5779
  17   2.0000      -1.466326       -39.9008
  18   2.0000      -1.240327       -33.7510
  19   2.0000      -1.142154       -31.0796
  20   2.0000      -1.038947       -28.2712
  21   2.0000      -0.938135       -25.5279
  22   2.0000      -0.903344       -24.5812
  23   2.0000      -0.865939       -23.5634
  24   2.0000      -0.841070       -22.8867
  25   2.0000      -0.813350       -22.1324
  26   2.0000      -0.781643       -21.2696
  27   2.0000      -0.728546       -19.8247
  28   2.0000      -0.694790       -18.9062
  29   2.0000      -0.678666       -18.4674
  30   2.0000      -0.671722       -18.2785
  31   2.0000      -0.664151       -18.0725
  32   2.0000      -0.647720       -17.6254
  33   2.0000      -0.619756       -16.8644
  34   2.0000      -0.591827       -16.1044
  35   2.0000      -0.582660       -15.8550
  36   2.0000      -0.579343       -15.7647
  37   2.0000      -0.570973       -15.5370
  38   2.0000      -0.549148       -14.9431
  39   2.0000      -0.536401       -14.5962
  40   2.0000      -0.532333       -14.4855
  41   2.0000      -0.510843       -13.9008
  42   2.0000      -0.496157       -13.5011
  43   2.0000      -0.491143       -13.3647
  44   2.0000      -0.481686       -13.1073
  45   2.0000      -0.470913       -12.8142
  46   2.0000      -0.454447       -12.3661
  47   2.0000      -0.452826       -12.3220
  48   2.0000      -0.438857       -11.9419
  49   2.0000      -0.428680       -11.6650
  50   2.0000      -0.425648       -11.5825
  51   2.0000      -0.422008       -11.4834
  52   2.0000      -0.407910       -11.0998
  53   2.0000      -0.402215       -10.9448
  54   2.0000      -0.400923       -10.9097
  55   2.0000      -0.285596        -7.7715
  56   0.0000       0.072693         1.9781
  57   0.0000       0.091526         2.4906
  58   0.0000       0.092810         2.5255
  59   0.0000       0.096920         2.6373
  60   0.0000       0.110822         3.0156

MULLIKEN ATOMIC CHARGES
-----------------------
   0 C :    0.362053
   1 C :    0.399186
   2 C :    0.002975
   3 H :    0.255856
   4 H :   -0.116600
   5 S :    1.509100
   6 C :   -0.644603
   7 N :    0.293098
   8 C :    0.764603
   9 H :   -0.083251
  10 H :   -0.504510
  11 H :    0.046867
  12 H :   -0.187367
  13 F :   -0.534161
  14 O :   -0.697457
  15 C :    0.393349
  16 C :    0.230502
  17 H :    0.038866
  18 H :    0.006869
  19 C :   -0.125060
  20 H :    0.021061
  21 H :   -0.083672
  22 O :   -0.801749
  23 H :   -0.002986
  24 H :   -0.194361
  25 H :   -0.423226
  26 H :   -0.024626
  27 H :    0.299483
  28 H :   -0.200240
Sum of atomic charges:   -0.0000000

LOEWDIN ATOMIC CHARGES
----------------------
   0 C :    0.025220
   1 C :   -0.020504
   2 C :   -0.014896
   3 H :    0.029761
   4 H :    0.032019
   5 S :    1.153291
   6 C :   -0.264385
   7 N :    0.190998
   8 C :    0.137090
   9 H :   -0.071389
  10 H :   -0.122075
  11 H :    0.022525
  12 H :   -0.026493
  13 F :   -0.274330
  14 O :   -0.481340
  15 C :   -0.009019
  16 C :   -0.017133
  17 H :    0.032858
  18 H :    0.042893
  19 C :   -0.022902
  20 H :    0.020215
  21 H :    0.022448
  22 O :   -0.482512
  23 H :   -0.003176
  24 H :    0.031401
  25 H :   -0.017628
  26 H :    0.036343
  27 H :    0.024053
  28 H :    0.026670

  Mayer bond orders larger than 0.100000
B(  0-C ,  6-C ) :   1.3474 B(  0-C , 15-C ) :   1.1547 B(  0-C , 20-H ) :   0.1283
B(  0-C , 21-H ) :   0.1865 B(  0-C , 27-H ) :   0.7785 B(  0-C , 28-H ) :   0.6350
B(  1-C ,  2-C ) :   1.2583 B(  1-C ,  4-H ) :   0.2029 B(  1-C , 16-C ) :   1.2505
B(  1-C , 17-H ) :   0.6967 B(  1-C , 18-H ) :   0.7747 B(  2-C ,  3-H ) :   0.8366
B(  2-C ,  4-H ) :   0.9251 B(  2-C ,  5-S ) :   0.9543 B(  2-C , 17-H ) :   0.1177
B(  2-C , 18-H ) :   0.1410 B(  5-S , 13-F ) :   0.6247 B(  5-S , 14-O ) :   1.5344
B(  5-S , 22-O ) :   1.4810 B(  6-C ,  7-N ) :   0.9479 B(  6-C ,  8-C ) :   2.0863
B(  6-C ,  9-H ) :   0.1271 B(  6-C , 10-H ) :   0.5294 B(  6-C , 15-C ) :   0.1504
B(  6-C , 28-H ) :   0.3850 B(  7-N ,  8-C ) :   0.4144 B(  7-N ,  9-H ) :   0.1261
B(  7-N , 10-H ) :  -0.1001 B(  7-N , 11-H ) :   0.9603 B(  7-N , 12-H ) :   0.8772
B(  8-C ,  9-H ) :   0.6029 B( 10-H , 12-H ) :   0.1539 B( 11-H , 12-H ) :  -0.1451
B( 12-H , 13-F ) :   0.1596 B( 15-C , 19-C ) :   1.2201 B( 15-C , 20-H ) :   0.6945
B( 15-C , 21-H ) :   0.8237 B( 15-C , 23-H ) :   0.1022 B( 15-C , 27-H ) :   0.1070
B( 16-C , 17-H ) :   0.2569 B( 16-C , 19-C ) :   1.2406 B( 16-C , 23-H ) :   0.1179
B( 16-C , 24-H ) :   0.1584 B( 16-C , 25-H ) :   0.9406 B( 16-C , 26-H ) :   0.6998
B( 19-C , 20-H ) :   0.2594 B( 19-C , 21-H ) :   0.1700 B( 19-C , 23-H ) :   0.8684
B( 19-C , 24-H ) :   0.9076 B( 19-C , 25-H ) :   0.1498 B( 19-C , 26-H ) :   0.1972
B( 20-H , 21-H ) :  -0.1230

Dispersion correction           -0.016286462
FINAL SINGLE POINT ENERGY     -1016.921131688673

DIPOLE MOMENT
-------------
                                X             Y             Z
Electronic contribution:      3.74020      -3.28765     -17.88669
Nuclear contribution   :     -3.13969       6.14743      19.30799
                        -----------------------------------------
Total Dipole Moment    :      0.60051       2.85978       1.42131
                        -----------------------------------------
Magnitude (a.u.)       :      3.24948
Magnitude (Debye)      :      8.25951

Rotational constants in cm-1:     0.036460     0.018762     0.015014
Rotational constants in MHz :  1093.039020   562.475626   450.105862

                             ****ORCA TERMINATED NORMALLY****
TOTAL RUN TIME: 0 days 0 hours 1 minutes 4 seconds 862 msec
