                         Program Version 5.0.0 -  RELEASE  -
|  1> !wB97X-D3 RIJCOSX def2-SVPD def2/J TightSCF CPCM(Water) xyzfile
|  2>
|  3> *xyzfile 0 1 D4.xyz
|  4>
|  5> %MaxCore 64000
|  6>
|  7> %pal nprocs 18
|  8> end
|  9>
| 10> %scf
| 11>   MaxIter 150
| 12> end
| 13>
| 14>
| 15>                          ****END OF INPUT****

CARTESIAN COORDINATES (ANGSTROEM)
---------------------------------
  C      2.916324   -1.242589   -1.543125
  C      0.704661    1.443129   -4.503630
  C      1.728539    1.424320   -5.639443
  H      2.646718    1.953794   -5.381054
  H      1.299916    1.930613   -6.503614
  S      2.252625   -0.188115   -6.271840
  C      3.466585   -1.590971   -2.889082
  N      4.652275   -1.143164   -3.259692
  C      2.752264   -2.292043   -3.728029
  H      1.778364   -2.489604   -3.512738
  H      2.948612   -2.208544   -4.716813
  H      5.146723   -0.512508   -2.633852
  H      4.783030   -1.007203   -4.253498
  O      3.562607   -0.444464   -5.631552
  F      2.344944   -0.033742   -7.696501
  C      2.804084    0.290698   -1.359243
  C      1.052550    0.695659   -3.214915
  H     -0.232483    1.032925   -4.884449
  H      0.511700    2.495794   -4.267966
  C      2.388380    1.093669   -2.597108
  H      3.763425    0.674718   -0.999889
  H      2.094788    0.461222   -0.545756
  O      1.266058   -1.159177   -5.805365
  H      3.167316    1.013242   -3.359430
  H      2.357690    2.149375   -2.310997
  H      1.039284   -0.368429   -3.449329
  H      0.250787    0.865605   -2.488283
  H      1.940472   -1.716529   -1.441161
  H      3.558569   -1.663433   -0.766371

 Total Charge           Charge          ....    0
 Multiplicity           Mult            ....    1
 Number of Electrons    NEL             ....  112
 Basis Dimension        Dim             ....  404

ORBITAL ENERGIES
----------------

  NO   OCC          E(Eh)            E(eV)
   0   2.0000     -89.241417     -2428.3824
   1   2.0000     -24.920036      -678.1087
   2   2.0000     -19.261358      -524.1282
   3   2.0000     -19.256372      -523.9925
   4   2.0000     -14.418535      -392.3483
   5   2.0000     -10.337173      -281.2888
   6   2.0000     -10.301522      -280.3187
   7   2.0000     -10.301437      -280.3164
   8   2.0000     -10.281976      -279.7868
   9   2.0000     -10.280075      -279.7351
  10   2.0000     -10.276836      -279.6469
  11   2.0000     -10.276296      -279.6322
  12   2.0000     -10.209267      -277.8083
  13   2.0000      -8.314361      -226.2453
  14   2.0000      -6.278059      -170.8347
  15   2.0000      -6.272176      -170.6746
  16   2.0000      -6.269986      -170.6150
  17   2.0000      -1.494601       -40.6702
  18   2.0000      -1.226894       -33.3855
  19   2.0000      -1.123903       -30.5830
  20   2.0000      -1.028718       -27.9928
  21   2.0000      -0.936672       -25.4881
  22   2.0000      -0.901465       -24.5301
  23   2.0000      -0.864953       -23.5366
  24   2.0000      -0.839533       -22.8448
  25   2.0000      -0.812061       -22.0973
  26   2.0000      -0.777614       -21.1600
  27   2.0000      -0.729469       -19.8499
  28   2.0000      -0.699191       -19.0260
  29   2.0000      -0.693657       -18.8754
  30   2.0000      -0.670849       -18.2547
  31   2.0000      -0.665518       -18.1097
  32   2.0000      -0.641639       -17.4599
  33   2.0000      -0.615750       -16.7554
  34   2.0000      -0.595404       -16.2018
  35   2.0000      -0.583459       -15.8767
  36   2.0000      -0.571846       -15.5607
  37   2.0000      -0.560782       -15.2597
  38   2.0000      -0.551734       -15.0134
  39   2.0000      -0.534310       -14.5393
  40   2.0000      -0.526081       -14.3154
  41   2.0000      -0.501924       -13.6581
  42   2.0000      -0.493915       -13.4401
  43   2.0000      -0.482580       -13.1317
  44   2.0000      -0.472995       -12.8709
  45   2.0000      -0.471374       -12.8268
  46   2.0000      -0.450056       -12.2466
  47   2.0000      -0.442894       -12.0518
  48   2.0000      -0.436024       -11.8648
  49   2.0000      -0.423978       -11.5370
  50   2.0000      -0.413403       -11.2493
  51   2.0000      -0.412520       -11.2252
  52   2.0000      -0.402248       -10.9457
  53   2.0000      -0.399010       -10.8576
  54   2.0000      -0.396154       -10.7799
  55   2.0000      -0.276857        -7.5337
  56   0.0000       0.072930         1.9845
  57   0.0000       0.091926         2.5014
  58   0.0000       0.092423         2.5150
  59   0.0000       0.096588         2.6283
  60   0.0000       0.109926         2.9912

MULLIKEN ATOMIC CHARGES
-----------------------
   0 C :    0.373441
   1 C :    0.369394
   2 C :   -0.007383
   3 H :    0.223504
   4 H :   -0.065462
   5 S :    1.638066
   6 C :   -0.643441
   7 N :    0.286835
   8 C :    0.762353
   9 H :   -0.079910
  10 H :   -0.525775
  11 H :    0.047035
  12 H :   -0.224104
  13 O :   -0.787719
  14 F :   -0.490255
  15 C :    0.408309
  16 C :    0.207695
  17 H :    0.046952
  18 H :    0.005610
  19 C :   -0.118974
  20 H :    0.019722
  21 H :   -0.090988
  22 O :   -0.783316
  23 H :    0.001948
  24 H :   -0.198033
  25 H :   -0.419524
  26 H :   -0.039802
  27 H :    0.291591
  28 H :   -0.207769
Sum of atomic charges:   -0.0000000

LOEWDIN ATOMIC CHARGES
----------------------
   0 C :    0.021964
   1 C :   -0.015948
   2 C :   -0.016983
   3 H :    0.029393
   4 H :    0.027987
   5 S :    1.194789
   6 C :   -0.265126
   7 N :    0.190100
   8 C :    0.134090
   9 H :   -0.076222
  10 H :   -0.132072
  11 H :    0.017646
  12 H :   -0.053887
  13 O :   -0.500172
  14 F :   -0.233895
  15 C :   -0.010860
  16 C :   -0.014703
  17 H :    0.032392
  18 H :    0.043902
  19 C :   -0.021474
  20 H :    0.018932
  21 H :    0.020591
  22 O :   -0.482286
  23 H :   -0.003493
  24 H :    0.029663
  25 H :   -0.015804
  26 H :    0.035315
  27 H :    0.021936
  28 H :    0.024225

  Mayer bond orders larger than 0.100000
B(  0-C ,  6-C ) :   1.3435 B(  0-C , 15-C ) :   1.1505 B(  0-C , 20-H ) :   0.1269
B(  0-C , 21-H ) :   0.1943 B(  0-C , 27-H ) :   0.7807 B(  0-C , 28-H ) :   0.6257
B(  1-C ,  2-C ) :   1.2870 B(  1-C ,  4-H ) :   0.2178 B(  1-C , 16-C ) :   1.2522
B(  1-C , 17-H ) :   0.7024 B(  1-C , 18-H ) :   0.7693 B(  2-C ,  3-H ) :   0.8634
B(  2-C ,  4-H ) :   0.8738 B(  2-C ,  5-S ) :   0.9871 B(  2-C , 17-H ) :   0.1091
B(  2-C , 18-H ) :   0.1451 B(  5-S , 13-O ) :   1.3358 B(  5-S , 14-F ) :   0.5644
B(  5-S , 22-O ) :   1.4293 B(  6-C ,  7-N ) :   0.9584 B(  6-C ,  8-C ) :   2.1025
B(  6-C ,  9-H ) :   0.1331 B(  6-C , 10-H ) :   0.5536 B(  6-C , 15-C ) :   0.1473
B(  6-C , 28-H ) :   0.3875 B(  7-N ,  8-C ) :   0.4192 B(  7-N ,  9-H ) :   0.1319
B(  7-N , 11-H ) :   0.9447 B(  7-N , 12-H ) :   0.8935 B(  8-C ,  9-H ) :   0.5716
B(  9-H , 10-H ) :   0.1072 B( 10-H , 12-H ) :   0.1541 B( 11-H , 12-H ) :  -0.1427
B( 12-H , 13-O ) :   0.1078 B( 13-O , 22-O ) :   0.1216 B( 15-C , 19-C ) :   1.2160
B( 15-C , 20-H ) :   0.6902 B( 15-C , 21-H ) :   0.8186 B( 15-C , 27-H ) :   0.1062
B( 16-C , 17-H ) :   0.2590 B( 16-C , 19-C ) :   1.2540 B( 16-C , 23-H ) :   0.1204
B( 16-C , 24-H ) :   0.1652 B( 16-C , 25-H ) :   0.9403 B( 16-C , 26-H ) :   0.7005
B( 19-C , 20-H ) :   0.2583 B( 19-C , 21-H ) :   0.1676 B( 19-C , 23-H ) :   0.8821
B( 19-C , 24-H ) :   0.8834 B( 19-C , 25-H ) :   0.1493 B( 19-C , 26-H ) :   0.1928
B( 20-H , 21-H ) :  -0.1259

Dispersion correction           -0.016333136
FINAL SINGLE POINT ENERGY     -1016.905305219726

DIPOLE MOMENT
-------------
                                X             Y             Z
Electronic contribution:      1.26677      -2.40337     -22.24363
Nuclear contribution   :     -1.74760       5.67788      21.66873
                        -----------------------------------------
Total Dipole Moment    :     -0.48083       3.27451      -0.57490
                        -----------------------------------------
Magnitude (a.u.)       :      3.35918
Magnitude (Debye)      :      8.53837

Rotational constants in cm-1:     0.036818     0.018222     0.014682
Rotational constants in MHz :  1103.783048   546.296792   440.157914

                             ****ORCA TERMINATED NORMALLY****
TOTAL RUN TIME: 0 days 0 hours 1 minutes 3 seconds 880 msec
