                         Program Version 5.0.0 -  RELEASE  -
|  1> !wB97X-D3 RIJCOSX def2-SVPD def2/J TightSCF CPCM(Water) xyzfile
|  2>
|  3> *xyzfile 0 1 D6.xyz
|  4>
|  5> %MaxCore 64000
|  6>
|  7> %pal nprocs 18
|  8> end
|  9>
| 10> %scf
| 11>   MaxIter 150
| 12> end
| 13>
| 14>
| 15>                          ****END OF INPUT****

CARTESIAN COORDINATES (ANGSTROEM)
---------------------------------
  C      2.916324   -1.242589   -1.543125
  C      0.704661    1.443129   -4.503630
  C      1.728539    1.424320   -5.639443
  H      2.646718    1.953794   -5.381054
  H      1.299916    1.930613   -6.503614
  S      2.252625   -0.188115   -6.271840
  C      3.466585   -1.590971   -2.889082
  N      4.652275   -1.143164   -3.259692
  C      2.752264   -2.292043   -3.728029
  H      1.778364   -2.489604   -3.512738
  H      2.948612   -2.208544   -4.716813
  H      5.146723   -0.512508   -2.633852
  H      4.783030   -1.007203   -4.253498
  O      3.562607   -0.444464   -5.631552
  O      2.344944   -0.033742   -7.696501
  C      2.804084    0.290698   -1.359243
  C      1.052550    0.695659   -3.214915
  H     -0.232483    1.032925   -4.884449
  H      0.511700    2.495794   -4.267966
  C      2.388380    1.093669   -2.597108
  H      3.763425    0.674718   -0.999889
  H      2.094788    0.461222   -0.545756
  F      1.266058   -1.159177   -5.805365
  H      3.167316    1.013242   -3.359430
  H      2.357690    2.149375   -2.310997
  H      1.039284   -0.368429   -3.449329
  H      0.250787    0.865605   -2.488283
  H      1.940472   -1.716529   -1.441161
  H      3.558569   -1.663433   -0.766371

 Total Charge           Charge          ....    0
 Multiplicity           Mult            ....    1
 Number of Electrons    NEL             ....  112
 Basis Dimension        Dim             ....  404

ORBITAL ENERGIES
----------------

  NO   OCC          E(Eh)            E(eV)
   0   2.0000     -89.242099     -2428.4010
   1   2.0000     -24.910050      -677.8369
   2   2.0000     -19.272338      -524.4270
   3   2.0000     -19.256362      -523.9922
   4   2.0000     -14.420861      -392.4116
   5   2.0000     -10.338194      -281.3166
   6   2.0000     -10.306746      -280.4608
   7   2.0000     -10.302006      -280.3318
   8   2.0000     -10.283522      -279.8288
   9   2.0000     -10.282126      -279.7909
  10   2.0000     -10.281449      -279.7724
  11   2.0000     -10.278305      -279.6869
  12   2.0000     -10.214859      -277.9604
  13   2.0000      -8.315095      -226.2653
  14   2.0000      -6.278822      -170.8554
  15   2.0000      -6.273021      -170.6976
  16   2.0000      -6.270648      -170.6330
  17   2.0000      -1.476655       -40.1818
  18   2.0000      -1.237675       -33.6788
  19   2.0000      -1.134786       -30.8791
  20   2.0000      -1.031488       -28.0682
  21   2.0000      -0.940115       -25.5818
  22   2.0000      -0.902547       -24.5595
  23   2.0000      -0.862492       -23.4696
  24   2.0000      -0.839239       -22.8369
  25   2.0000      -0.812712       -22.1150
  26   2.0000      -0.779200       -21.2031
  27   2.0000      -0.731369       -19.9016
  28   2.0000      -0.698255       -19.0005
  29   2.0000      -0.688385       -18.7319
  30   2.0000      -0.673577       -18.3289
  31   2.0000      -0.665974       -18.1221
  32   2.0000      -0.643167       -17.5015
  33   2.0000      -0.611164       -16.6306
  34   2.0000      -0.586226       -15.9520
  35   2.0000      -0.583645       -15.8818
  36   2.0000      -0.575833       -15.6692
  37   2.0000      -0.569544       -15.4981
  38   2.0000      -0.554778       -15.0963
  39   2.0000      -0.536309       -14.5937
  40   2.0000      -0.531452       -14.4615
  41   2.0000      -0.507573       -13.8118
  42   2.0000      -0.498976       -13.5778
  43   2.0000      -0.489715       -13.3258
  44   2.0000      -0.481607       -13.1052
  45   2.0000      -0.473265       -12.8782
  46   2.0000      -0.455230       -12.3874
  47   2.0000      -0.448622       -12.2076
  48   2.0000      -0.443158       -12.0589
  49   2.0000      -0.427244       -11.6259
  50   2.0000      -0.420067       -11.4306
  51   2.0000      -0.411070       -11.1858
  52   2.0000      -0.404234       -10.9998
  53   2.0000      -0.402488       -10.9522
  54   2.0000      -0.399154       -10.8615
  55   2.0000      -0.281962        -7.6726
  56   0.0000       0.070889         1.9290
  57   0.0000       0.091122         2.4796
  58   0.0000       0.093391         2.5413
  59   0.0000       0.096907         2.6370
  60   0.0000       0.109059         2.9677

MULLIKEN ATOMIC CHARGES
-----------------------
   0 C :    0.370022
   1 C :    0.368915
   2 C :    0.019096
   3 H :    0.225913
   4 H :   -0.097367
   5 S :    1.436774
   6 C :   -0.614351
   7 N :    0.287553
   8 C :    0.709527
   9 H :   -0.044586
  10 H :   -0.535847
  11 H :    0.051187
  12 H :   -0.231772
  13 O :   -0.734189
  14 O :   -0.690191
  15 C :    0.398355
  16 C :    0.230313
  17 H :    0.050613
  18 H :    0.015633
  19 C :   -0.118702
  20 H :    0.024129
  21 H :   -0.089376
  22 F :   -0.469506
  23 H :    0.000473
  24 H :   -0.193745
  25 H :   -0.430847
  26 H :   -0.029599
  27 H :    0.293790
  28 H :   -0.202215
Sum of atomic charges:    0.0000000

LOEWDIN ATOMIC CHARGES
----------------------
   0 C :    0.023868
   1 C :   -0.024301
   2 C :   -0.010093
   3 H :    0.035618
   4 H :    0.028382
   5 S :    1.169668
   6 C :   -0.262794
   7 N :    0.193581
   8 C :    0.132103
   9 H :   -0.074682
  10 H :   -0.128359
  11 H :    0.019508
  12 H :   -0.052310
  13 O :   -0.498499
  14 O :   -0.479488
  15 C :   -0.009500
  16 C :   -0.016611
  17 H :    0.034484
  18 H :    0.042759
  19 C :   -0.020708
  20 H :    0.019877
  21 H :    0.021548
  22 F :   -0.243745
  23 H :   -0.003401
  24 H :    0.031130
  25 H :   -0.013655
  26 H :    0.037006
  27 H :    0.022792
  28 H :    0.025823

  Mayer bond orders larger than 0.100000
B(  0-C ,  6-C ) :   1.3467 B(  0-C , 15-C ) :   1.1538 B(  0-C , 20-H ) :   0.1277
B(  0-C , 21-H ) :   0.1929 B(  0-C , 27-H ) :   0.7783 B(  0-C , 28-H ) :   0.6286
B(  1-C ,  2-C ) :   1.2578 B(  1-C ,  4-H ) :   0.2089 B(  1-C , 16-C ) :   1.2566
B(  1-C , 17-H ) :   0.7074 B(  1-C , 18-H ) :   0.7655 B(  2-C ,  3-H ) :   0.8620
B(  2-C ,  4-H ) :   0.9215 B(  2-C ,  5-S ) :   0.9832 B(  2-C , 17-H ) :   0.1093
B(  2-C , 18-H ) :   0.1448 B(  5-S , 13-O ) :   1.3906 B(  5-S , 14-O ) :   1.5411
B(  5-S , 22-F ) :   0.6491 B(  6-C ,  7-N ) :   0.9704 B(  6-C ,  8-C ) :   2.1164
B(  6-C ,  9-H ) :   0.1233 B(  6-C , 10-H ) :   0.5196 B(  6-C , 15-C ) :   0.1507
B(  6-C , 28-H ) :   0.3799 B(  7-N ,  8-C ) :   0.4071 B(  7-N ,  9-H ) :   0.1248
B(  7-N , 11-H ) :   0.9413 B(  7-N , 12-H ) :   0.8932 B(  8-C ,  9-H ) :   0.5806
B(  9-H , 10-H ) :   0.1005 B( 10-H , 12-H ) :   0.1448 B( 11-H , 12-H ) :  -0.1436
B( 12-H , 13-O ) :   0.1304 B( 15-C , 19-C ) :   1.2230 B( 15-C , 20-H ) :   0.6904
B( 15-C , 21-H ) :   0.8224 B( 15-C , 23-H ) :   0.1015 B( 15-C , 27-H ) :   0.1089
B( 16-C , 17-H ) :   0.2422 B( 16-C , 19-C ) :   1.2455 B( 16-C , 23-H ) :   0.1213
B( 16-C , 24-H ) :   0.1626 B( 16-C , 25-H ) :   0.9232 B( 16-C , 26-H ) :   0.7061
B( 19-C , 20-H ) :   0.2568 B( 19-C , 21-H ) :   0.1689 B( 19-C , 23-H ) :   0.8833
B( 19-C , 24-H ) :   0.8872 B( 19-C , 25-H ) :   0.1540 B( 19-C , 26-H ) :   0.1935
B( 20-H , 21-H ) :  -0.1240

Dispersion correction           -0.016292960
FINAL SINGLE POINT ENERGY     -1016.915971224013

DIPOLE MOMENT
-------------
                                X             Y             Z
Electronic contribution:     -0.82483      -4.60400     -18.33086
Nuclear contribution   :     -0.51418       6.96452      19.50670
                        -----------------------------------------
Total Dipole Moment    :     -1.33901       2.36052       1.17584
                        -----------------------------------------
Magnitude (a.u.)       :      2.95763
Magnitude (Debye)      :      7.51770

Rotational constants in cm-1:     0.036455     0.018603     0.015008
Rotational constants in MHz :  1092.895336   557.693628   449.926016

                             ****ORCA TERMINATED NORMALLY****
TOTAL RUN TIME: 0 days 0 hours 1 minutes 3 seconds 665 msec
