                         Program Version 5.0.0 -  RELEASE  -
|  1> !B3LYP D3BJ RIJCOSX def2-SVPD def2/J TightSCF
|  2> *xyz -1 1
|  3> C         -0.05517        1.61942       -3.78858
|  4> C          1.22302        2.46987       -3.75691
|  5> H          1.11470        3.25807       -4.53300
|  6> H          1.23773        3.01124       -2.79216
|  7> O          2.35381        1.71203       -3.93448
|  8> H         -0.10198        1.08015       -4.71156
|  9> H         -0.91014        2.25726       -3.70441
| 10> H         -0.04403        0.92826       -2.97183
| 11> *
| 12>
| 13> %MaxCore 64000
| 14>
| 15> %pal nprocs 4
| 16> end
| 17>
| 18> %scf
| 19>   MaxIter 150
| 20> end
| 21>
| 22>
| 23>                          ****END OF INPUT****

CARTESIAN COORDINATES (ANGSTROEM)
---------------------------------
  C     -0.055170    1.619420   -3.788580
  C      1.223020    2.469870   -3.756910
  H      1.114700    3.258070   -4.533000
  H      1.237730    3.011240   -2.792160
  O      2.353810    1.712030   -3.934480
  H     -0.101980    1.080150   -4.711560
  H     -0.910140    2.257260   -3.704410
  H     -0.044030    0.928260   -2.971830

 Total Charge           Charge          ....   -1
 Multiplicity           Mult            ....    1
 Number of Electrons    NEL             ....   26
 Basis Dimension        Dim             ....  103

ORBITAL ENERGIES
----------------

  NO   OCC          E(Eh)            E(eV)
   0   2.0000     -18.808687      -511.8104
   1   2.0000      -9.998050      -272.0608
   2   2.0000      -9.975351      -271.4431
   3   2.0000      -0.668895       -18.2015
   4   2.0000      -0.518529       -14.1099
   5   2.0000      -0.367111        -9.9896
   6   2.0000      -0.250790        -6.8243
   7   2.0000      -0.227382        -6.1874
   8   2.0000      -0.174871        -4.7585
   9   2.0000      -0.158144        -4.3033
  10   2.0000      -0.112050        -3.0490
  11   2.0000       0.029764         0.8099
  12   2.0000       0.031573         0.8592
  13   0.0000       0.178147         4.8476
  14   0.0000       0.208429         5.6716
  15   0.0000       0.241549         6.5729
  16   0.0000       0.254436         6.9235
  17   0.0000       0.273650         7.4464

MULLIKEN ATOMIC CHARGES
-----------------------
   0 C :    0.489221
   1 C :    0.307822
   2 H :   -0.225263
   3 H :   -0.241719
   4 O :   -0.895729
   5 H :   -0.156092
   6 H :   -0.125179
   7 H :   -0.153062
Sum of atomic charges:   -1.0000000

LOEWDIN ATOMIC CHARGES
----------------------
   0 C :    0.069146
   1 C :   -0.253115
   2 H :   -0.038052
   3 H :   -0.039526
   4 O :   -0.578451
   5 H :   -0.046113
   6 H :   -0.066664
   7 H :   -0.047225

  Mayer bond orders larger than 0.100000
B(  0-C ,  1-C ) :   1.1669 B(  0-C ,  2-H ) :   0.1481 B(  0-C ,  3-H ) :   0.1460
B(  0-C ,  4-O ) :   0.2042 B(  0-C ,  5-H ) :   0.8729 B(  0-C ,  6-H ) :   0.8841
B(  0-C ,  7-H ) :   0.8728 B(  1-C ,  2-H ) :   0.9424 B(  1-C ,  3-H ) :   0.9477
B(  1-C ,  4-O ) :   1.1248 B(  1-C ,  5-H ) :   0.2033 B(  1-C ,  6-H ) :   0.1470
B(  1-C ,  7-H ) :   0.1944

Dispersion correction           -0.006240015
FINAL SINGLE POINT ENERGY      -154.236366479267

DIPOLE MOMENT
-------------
                                X             Y             Z
Electronic contribution:      2.76196      -0.51227      -0.24864
Nuclear contribution   :     -4.28298       0.81046       0.39340
                        -----------------------------------------
Total Dipole Moment    :     -1.52102       0.29819       0.14476
                        -----------------------------------------
Magnitude (a.u.)       :      1.55672
Magnitude (Debye)      :      3.95686

Rotational constants in cm-1:     1.266793     0.328147     0.288309
Rotational constants in MHz : 37977.512300  9837.594308  8643.275638

                             ****ORCA TERMINATED NORMALLY****
TOTAL RUN TIME: 0 days 0 hours 0 minutes 11 seconds 773 msec
