                         Program Version 5.0.0 -  RELEASE  -
|  1> !B3LYP D3BJ RIJCOSX def2-SVPD def2/J TightSCF
|  2> *xyz 1 1
|  3> C          1.63556       -1.67040       -5.29211
|  4> C          0.33848       -1.50091       -4.50540
|  5> N          2.48451       -0.50741       -5.14039
|  6> H          1.39834       -1.82924       -6.35259
|  7> H          2.15586       -2.56540       -4.93209
|  8> C          3.45115       -0.14953       -5.95259
|  9> N          3.92267        1.08956       -5.85071
| 10> N          3.96616       -1.00618       -6.86788
| 11> H          3.52139       -1.90647       -6.99527
| 12> H          4.44482       -0.62347       -7.67035
| 13> H          2.25200        0.24080       -4.49879
| 14> H          3.46428        1.64078       -5.13639
| 15> H          4.83447        1.31375       -6.22465
| 16> H         -0.17658       -0.62881       -4.85045
| 17> H          0.56384       -1.39374       -3.46490
| 18> H         -0.28102       -2.36136       -4.64938
| 19> *
| 20>
| 21> %MaxCore 64000
| 22>
| 23> %pal nprocs 4
| 24> end
| 25>
| 26> %scf
| 27>   MaxIter 150
| 28> end
| 29>
| 30>
| 31>                          ****END OF INPUT****

CARTESIAN COORDINATES (ANGSTROEM)
---------------------------------
  C      1.635560   -1.670400   -5.292110
  C      0.338480   -1.500910   -4.505400
  N      2.484510   -0.507410   -5.140390
  H      1.398340   -1.829240   -6.352590
  H      2.155860   -2.565400   -4.932090
  C      3.451150   -0.149530   -5.952590
  N      3.922670    1.089560   -5.850710
  N      3.966160   -1.006180   -6.867880
  H      3.521390   -1.906470   -6.995270
  H      4.444820   -0.623470   -7.670350
  H      2.252000    0.240800   -4.498790
  H      3.464280    1.640780   -5.136390
  H      4.834470    1.313750   -6.224650
  H     -0.176580   -0.628810   -4.850450
  H      0.563840   -1.393740   -3.464900
  H     -0.281020   -2.361360   -4.649380

 Total Charge           Charge          ....    1
 Multiplicity           Mult            ....    1
 Number of Electrons    NEL             ....   48
 Basis Dimension        Dim             ....  200

ORBITAL ENERGIES
----------------

  NO   OCC          E(Eh)            E(eV)
   0   2.0000     -14.557563      -396.1314
   1   2.0000     -14.554230      -396.0407
   2   2.0000     -14.552542      -395.9948
   3   2.0000     -10.516519      -286.1690
   4   2.0000     -10.393676      -282.8263
   5   2.0000     -10.323842      -280.9260
   6   2.0000      -1.211656       -32.9708
   7   2.0000      -1.099394       -29.9160
   8   2.0000      -1.085825       -29.5468
   9   2.0000      -0.931039       -25.3349
  10   2.0000      -0.829082       -22.5605
  11   2.0000      -0.812081       -22.0978
  12   2.0000      -0.777893       -21.1676
  13   2.0000      -0.746021       -20.3003
  14   2.0000      -0.693243       -18.8641
  15   2.0000      -0.686941       -18.6926
  16   2.0000      -0.662635       -18.0312
  17   2.0000      -0.644135       -17.5278
  18   2.0000      -0.603161       -16.4128
  19   2.0000      -0.548810       -14.9339
  20   2.0000      -0.532761       -14.4972
  21   2.0000      -0.522803       -14.2262
  22   2.0000      -0.479903       -13.0588
  23   2.0000      -0.456154       -12.4126
  24   0.0000      -0.174684        -4.7534
  25   0.0000      -0.158122        -4.3027
  26   0.0000      -0.127438        -3.4678
  27   0.0000      -0.110655        -3.0111
  28   0.0000      -0.093642        -2.5481

MULLIKEN ATOMIC CHARGES
-----------------------
   0 C :    0.187995
   1 C :    1.039786
   2 N :   -0.374391
   3 H :   -0.136727
   4 H :   -0.151575
   5 C :    1.106116
   6 N :    0.130347
   7 N :    0.045023
   8 H :   -0.051800
   9 H :   -0.113713
  10 H :   -0.148946
  11 H :   -0.008016
  12 H :   -0.140918
  13 H :   -0.112710
  14 H :   -0.102944
  15 H :   -0.167527
Sum of atomic charges:    1.0000000

LOEWDIN ATOMIC CHARGES
----------------------
   0 C :    0.027419
   1 C :    0.169085
   2 N :    0.043831
   3 H :    0.035533
   4 H :    0.040471
   5 C :   -0.040280
   6 N :    0.270256
   7 N :    0.288348
   8 H :    0.013376
   9 H :    0.033551
  10 H :    0.052431
  11 H :    0.031016
  12 H :    0.042253
  13 H :   -0.005697
  14 H :   -0.004398
  15 H :    0.002805

  Mayer bond orders larger than 0.100000
B(  0-C ,  1-C ) :   1.3016 B(  0-C ,  2-N ) :   0.9827 B(  0-C ,  3-H ) :   0.8204
B(  0-C ,  4-H ) :   0.8493 B(  0-C , 10-H ) :  -0.1198 B(  0-C , 13-H ) :   0.2471
B(  0-C , 14-H ) :   0.2758 B(  0-C , 15-H ) :   0.3255 B(  1-C , 13-H ) :   0.7287
B(  1-C , 14-H ) :   0.6703 B(  1-C , 15-H ) :   0.6790 B(  2-N ,  3-H ) :   0.1852
B(  2-N ,  4-H ) :   0.1762 B(  2-N ,  5-C ) :   1.0997 B(  2-N ,  6-N ) :   0.2677
B(  2-N ,  7-N ) :   0.1994 B(  2-N , 10-H ) :   1.1796 B(  5-C ,  6-N ) :   0.9953
B(  5-C ,  7-N ) :   0.9644 B(  5-C ,  8-H ) :  -0.1178 B(  5-C ,  9-H ) :  -0.1296
B(  5-C , 10-H ) :  -0.2322 B(  5-C , 12-H ) :  -0.1185 B(  6-N ,  7-N ) :   0.1535
B(  6-N , 11-H ) :   1.0688 B(  6-N , 12-H ) :   1.2242 B(  7-N ,  8-H ) :   1.0549
B(  7-N ,  9-H ) :   1.2235 B(  8-H ,  9-H ) :  -0.1570 B( 11-H , 12-H ) :  -0.1460

Dispersion correction           -0.019755220
FINAL SINGLE POINT ENERGY      -284.054058086583

DIPOLE MOMENT
-------------
                                X             Y             Z
Electronic contribution:      4.70585       2.47483      -1.70357
Nuclear contribution   :     -3.96322      -1.85512       1.24891
                        -----------------------------------------
Total Dipole Moment    :      0.74264       0.61972      -0.45466
                        -----------------------------------------
Magnitude (a.u.)       :      1.06877
Magnitude (Debye)      :      2.71661

Rotational constants in cm-1:     0.261404     0.067000     0.054949
Rotational constants in MHz :  7836.702504  2008.609425  1647.329138

                             ****ORCA TERMINATED NORMALLY****
TOTAL RUN TIME: 0 days 0 hours 0 minutes 25 seconds 538 msec
