                         Program Version 5.0.0 -  RELEASE  -
|  1> !B3LYP D3BJ RIJCOSX def2-SVPD def2/J TightSCF xyzfile
|  2>
|  3> *xyzfile 0 1 B.xyz
|  4>
|  5> %MaxCore 64000
|  6>
|  7> %pal nprocs 4
|  8> end
|  9>
| 10> %scf
| 11>   MaxIter 150
| 12> end
| 13>
| 14>
| 15>                          ****END OF INPUT****

CARTESIAN COORDINATES (ANGSTROEM)
---------------------------------
  C      1.635557   -1.670396   -5.292109
  C      0.338484   -1.500907   -4.505398
  N      2.484511   -0.507410   -5.140392
  C     -0.684873   -0.528026   -5.099889
  C     -0.290406    0.951335   -5.153423
  H      0.607991    1.070692   -5.764412
  C     -0.055168    1.619420   -3.788577
  H     -1.080912    1.483775   -5.689436
  H      0.045006    0.862302   -3.003015
  H     -0.922936    2.230329   -3.517028
  C      1.223022    2.469865   -3.756911
  H      1.114701    3.258074   -4.532999
  H      1.237732    3.011242   -2.792157
  O      2.353815    1.712032   -3.934477
  H      1.398337   -1.829239   -6.352591
  H      2.155864   -2.565398   -4.932091
  C      3.451149   -0.149530   -5.952589
  N      3.922667    1.089559   -5.850711
  N      3.966162   -1.006183   -6.867880
  H      3.521391   -1.906467   -6.995270
  H      4.444824   -0.623472   -7.670348
  H      2.251995    0.240804   -4.498792
  H      3.464277    1.640782   -5.136392
  H      4.834470    1.313745   -6.224653
  H     -0.937999   -0.869056   -6.110838
  H     -1.604638   -0.622496   -4.513132
  H      0.594887   -1.211578   -3.482312
  H     -0.126530   -2.487656   -4.434176

 Total Charge           Charge          ....    0
 Multiplicity           Mult            ....    1
 Number of Electrons    NEL             ....   88
 Basis Dimension        Dim             ....  359

ORBITAL ENERGIES
----------------

  NO   OCC          E(Eh)            E(eV)
   0   2.0000     -19.007174      -517.2115
   1   2.0000     -14.388899      -391.5418
   2   2.0000     -14.345129      -390.3508
   3   2.0000     -14.344158      -390.3244
   4   2.0000     -10.327707      -281.0312
   5   2.0000     -10.235012      -278.5088
   6   2.0000     -10.186145      -277.1791
   7   2.0000     -10.173150      -276.8255
   8   2.0000     -10.161763      -276.5156
   9   2.0000     -10.154730      -276.3243
  10   2.0000     -10.136594      -275.8307
  11   2.0000      -1.023100       -27.8400
  12   2.0000      -0.919432       -25.0190
  13   2.0000      -0.899294       -24.4710
  14   2.0000      -0.871471       -23.7139
  15   2.0000      -0.793110       -21.5816
  16   2.0000      -0.739935       -20.1346
  17   2.0000      -0.684513       -18.6265
  18   2.0000      -0.649753       -17.6807
  19   2.0000      -0.622687       -16.9442
  20   2.0000      -0.598158       -16.2767
  21   2.0000      -0.575993       -15.6736
  22   2.0000      -0.560470       -15.2512
  23   2.0000      -0.522850       -14.2275
  24   2.0000      -0.511322       -13.9138
  25   2.0000      -0.497024       -13.5247
  26   2.0000      -0.488261       -13.2863
  27   2.0000      -0.478488       -13.0203
  28   2.0000      -0.439532       -11.9603
  29   2.0000      -0.426322       -11.6008
  30   2.0000      -0.416084       -11.3222
  31   2.0000      -0.411401       -11.1948
  32   2.0000      -0.384646       -10.4668
  33   2.0000      -0.366905        -9.9840
  34   2.0000      -0.359320        -9.7776
  35   2.0000      -0.338463        -9.2101
  36   2.0000      -0.321415        -8.7461
  37   2.0000      -0.312124        -8.4933
  38   2.0000      -0.305480        -8.3125
  39   2.0000      -0.297803        -8.1036
  40   2.0000      -0.291951        -7.9444
  41   2.0000      -0.264547        -7.1987
  42   2.0000      -0.178761        -4.8643
  43   2.0000      -0.171634        -4.6704
  44   0.0000      -0.011150        -0.3034
  45   0.0000       0.005491         0.1494
  46   0.0000       0.018457         0.5022
  47   0.0000       0.034416         0.9365
  48   0.0000       0.045763         1.2453

MULLIKEN ATOMIC CHARGES
-----------------------
   0 C :    0.864164
   1 C :    0.298046
   2 N :    0.142074
   3 C :    0.378545
   4 C :    0.332069
   5 H :   -0.096087
   6 C :    0.191778
   7 H :   -0.360611
   8 H :   -0.109555
   9 H :   -0.316274
  10 C :    1.041672
  11 H :   -0.216178
  12 H :   -0.261423
  13 O :   -1.092381
  14 H :   -0.065107
  15 H :   -0.308207
  16 C :    0.949132
  17 N :    0.442324
  18 N :    0.120338
  19 H :   -0.095667
  20 H :   -0.158962
  21 H :   -0.633090
  22 H :   -0.188652
  23 H :   -0.289865
  24 H :   -0.005067
  25 H :   -0.214722
  26 H :   -0.056291
  27 H :   -0.292004
Sum of atomic charges:    0.0000000

LOEWDIN ATOMIC CHARGES
----------------------
   0 C :    0.061391
   1 C :   -0.010839
   2 N :    0.071653
   3 C :   -0.024395
   4 C :   -0.021607
   5 H :    0.001179
   6 C :   -0.016163
   7 H :    0.012149
   8 H :    0.004443
   9 H :    0.009763
  10 C :   -0.061631
  11 H :    0.008163
  12 H :    0.003052
  13 O :   -0.429669
  14 H :    0.019324
  15 H :    0.021060
  16 C :   -0.047665
  17 N :    0.275149
  18 N :    0.249305
  19 H :   -0.011191
  20 H :    0.006763
  21 H :   -0.102218
  22 H :   -0.101835
  23 H :    0.012656
  24 H :    0.014096
  25 H :    0.019539
  26 H :    0.018818
  27 H :    0.018710

  Mayer bond orders larger than 0.100000
B(  0-C ,  1-C ) :   1.1921 B(  0-C ,  2-N ) :   0.9284 B(  0-C , 14-H ) :   0.6917
B(  0-C , 15-H ) :   0.7895 B(  0-C , 21-H ) :  -0.2154 B(  0-C , 26-H ) :   0.1420
B(  0-C , 27-H ) :   0.2363 B(  1-C ,  2-N ) :   0.1263 B(  1-C ,  3-C ) :   1.2084
B(  1-C , 24-H ) :   0.1783 B(  1-C , 25-H ) :   0.2204 B(  1-C , 26-H ) :   0.7339
B(  1-C , 27-H ) :   0.6926 B(  2-N , 14-H ) :   0.3346 B(  2-N , 15-H ) :   0.1693
B(  2-N , 16-C ) :   1.2618 B(  2-N , 17-N ) :   0.1356 B(  2-N , 18-N ) :   0.1239
B(  2-N , 21-H ) :   0.9602 B(  3-C ,  4-C ) :   1.2535 B(  3-C ,  5-H ) :   0.1732
B(  3-C ,  7-H ) :   0.1477 B(  3-C , 24-H ) :   0.6190 B(  3-C , 25-H ) :   0.7621
B(  3-C , 26-H ) :   0.1721 B(  3-C , 27-H ) :   0.1588 B(  4-C ,  5-H ) :   0.7680
B(  4-C ,  6-C ) :   1.1875 B(  4-C ,  7-H ) :   0.6813 B(  4-C ,  8-H ) :   0.1419
B(  4-C ,  9-H ) :   0.1950 B(  4-C , 10-C ) :   0.1041 B(  4-C , 24-H ) :   0.2477
B(  4-C , 25-H ) :   0.1329 B(  5-H ,  6-C ) :   0.1514 B(  5-H ,  7-H ) :  -0.1052
B(  5-H , 13-O ) :   0.1033 B(  6-C ,  7-H ) :   0.1069 B(  6-C ,  8-H ) :   0.8109
B(  6-C ,  9-H ) :   0.8701 B(  6-C , 10-C ) :   1.0514 B(  6-C , 11-H ) :   0.1105
B(  6-C , 12-H ) :   0.2214 B(  6-C , 13-O ) :   0.1379 B(  8-H ,  9-H ) :  -0.1189
B( 10-C , 11-H ) :   0.7796 B( 10-C , 12-H ) :   0.7424 B( 10-C , 13-O ) :   0.9716
B( 11-H , 13-O ) :   0.2615 B( 13-O , 21-H ) :   0.2866 B( 13-O , 22-H ) :   0.3093
B( 14-H , 25-H ) :  -0.1050 B( 16-C , 17-N ) :   0.9550 B( 16-C , 18-N ) :   0.9276
B( 16-C , 19-H ) :  -0.1045 B( 16-C , 20-H ) :  -0.1076 B( 16-C , 21-H ) :  -0.4520
B( 16-C , 22-H ) :  -0.1233 B( 16-C , 23-H ) :  -0.1426 B( 17-N , 18-N ) :   0.1304
B( 17-N , 22-H ) :   1.0280 B( 17-N , 23-H ) :   1.2796 B( 18-N , 19-H ) :   1.0660
B( 18-N , 20-H ) :   1.2379 B( 19-H , 20-H ) :  -0.1594 B( 22-H , 23-H ) :  -0.2011
B( 24-H , 25-H ) :  -0.1214

Dispersion correction           -0.047244951
FINAL SINGLE POINT ENERGY      -515.836803940459

DIPOLE MOMENT
-------------
                                X             Y             Z
Electronic contribution:      8.34709      -0.91407      -2.23372
Nuclear contribution   :     -7.46499      -1.05836       0.01518
                        -----------------------------------------
Total Dipole Moment    :      0.88210      -1.97243      -2.21854
                        -----------------------------------------
Magnitude (a.u.)       :      3.09686
Magnitude (Debye)      :      7.87158

Rotational constants in cm-1:     0.044680     0.028958     0.019773
Rotational constants in MHz :  1339.486245   868.136755   592.791310

                             ****ORCA TERMINATED NORMALLY****
TOTAL RUN TIME: 0 days 0 hours 1 minutes 50 seconds 582 msec
