                         Program Version 5.0.0 -  RELEASE  -
|  1> !B3LYP D3BJ RIJCOSX def2-SVPD def2/J TightSCF
|  2> *xyz 0 1
|  3> C         -0.05517        1.61942       -3.78858
|  4> C          1.22302        2.46987       -3.75691
|  5> H          1.11470        3.25807       -4.53300
|  6> H          1.23773        3.01124       -2.79216
|  7> F          2.35381        1.71203       -3.93448
|  8> H         -0.10198        1.08015       -4.71156
|  9> H         -0.91014        2.25726       -3.70441
| 10> H         -0.04403        0.92826       -2.97183
| 11> *
| 12>
| 13> %MaxCore 64000
| 14>
| 15> %pal nprocs 4
| 16> end
| 17>
| 18> %scf
| 19>   MaxIter 150
| 20> end
| 21>
| 22>
| 23>                          ****END OF INPUT****

CARTESIAN COORDINATES (ANGSTROEM)
---------------------------------
  C     -0.055170    1.619420   -3.788580
  C      1.223020    2.469870   -3.756910
  H      1.114700    3.258070   -4.533000
  H      1.237730    3.011240   -2.792160
  F      2.353810    1.712030   -3.934480
  H     -0.101980    1.080150   -4.711560
  H     -0.910140    2.257260   -3.704410
  H     -0.044030    0.928260   -2.971830

 Total Charge           Charge          ....    0
 Multiplicity           Mult            ....    1
 Number of Electrons    NEL             ....   26
 Basis Dimension        Dim             ....  103

ORBITAL ENERGIES
----------------

  NO   OCC          E(Eh)            E(eV)
   0   2.0000     -24.685683      -671.7316
   1   2.0000     -10.265225      -279.3310
   2   2.0000     -10.181349      -277.0486
   3   2.0000      -1.183153       -32.1952
   4   2.0000      -0.759222       -20.6595
   5   2.0000      -0.627586       -17.0775
   6   2.0000      -0.511332       -13.9141
   7   2.0000      -0.498080       -13.5534
   8   2.0000      -0.460719       -12.5368
   9   2.0000      -0.407334       -11.0841
  10   2.0000      -0.403279       -10.9738
  11   2.0000      -0.340375        -9.2621
  12   2.0000      -0.335337        -9.1250
  13   0.0000       0.020843         0.5672
  14   0.0000       0.052247         1.4217
  15   0.0000       0.072601         1.9756
  16   0.0000       0.079061         2.1514
  17   0.0000       0.104859         2.8534

MULLIKEN ATOMIC CHARGES
-----------------------
   0 C :    0.555465
   1 C :    0.570704
   2 H :   -0.134481
   3 H :   -0.151516
   4 F :   -0.447125
   5 H :   -0.139849
   6 H :   -0.117587
   7 H :   -0.135611
Sum of atomic charges:    0.0000000

LOEWDIN ATOMIC CHARGES
----------------------
   0 C :    0.144528
   1 C :    0.068972
   2 H :    0.028865
   3 H :    0.026457
   4 F :   -0.217462
   5 H :   -0.016989
   6 H :   -0.016514
   7 H :   -0.017857

  Mayer bond orders larger than 0.100000
B(  0-C ,  1-C ) :   1.3267 B(  0-C ,  5-H ) :   0.8519 B(  0-C ,  6-H ) :   0.8255
B(  0-C ,  7-H ) :   0.8539 B(  1-C ,  2-H ) :   0.9080 B(  1-C ,  3-H ) :   0.9114
B(  1-C ,  4-F ) :   0.7481 B(  1-C ,  5-H ) :   0.1614 B(  1-C ,  6-H ) :   0.1359
B(  1-C ,  7-H ) :   0.1547

Dispersion correction           -0.005745158
FINAL SINGLE POINT ENERGY      -178.848570198141

DIPOLE MOMENT
-------------
                                X             Y             Z
Electronic contribution:      5.00620      -0.72794      -0.42988
Nuclear contribution   :     -5.66833       1.07099       0.52006
                        -----------------------------------------
Total Dipole Moment    :     -0.66213       0.34305       0.09018
                        -----------------------------------------
Magnitude (a.u.)       :      0.75115
Magnitude (Debye)      :      1.90928

Rotational constants in cm-1:     1.245689     0.305293     0.269541
Rotational constants in MHz : 37344.801915  9152.442838  8080.640229

                             ****ORCA TERMINATED NORMALLY****
TOTAL RUN TIME: 0 days 0 hours 0 minutes 10 seconds 227 msec
