                         Program Version 5.0.0 -  RELEASE  -
|  1> !B3LYP D3BJ RIJCOSX def2-SVPD def2/J TightSCF
|  2> *xyz 0 1
|  3> C          1.63556       -1.67040       -5.29211
|  4> C          0.33848       -1.50091       -4.50540
|  5> C          2.48451       -0.50741       -5.14039
|  6> H          1.39834       -1.82924       -6.35259
|  7> H          2.15586       -2.56540       -4.93209
|  8> C          3.45115       -0.14953       -5.95259
|  9> N          3.92267        1.08956       -5.85071
| 10> N          3.96616       -1.00618       -6.86788
| 11> H          3.52139       -1.90647       -6.99527
| 12> H          4.44482       -0.62347       -7.67035
| 13> H          2.25200        0.24080       -4.49879
| 14> H          3.46428        1.64078       -5.13639
| 15> H          4.83447        1.31375       -6.22465
| 16> H         -0.17658       -0.62881       -4.85045
| 17> H          0.56384       -1.39374       -3.46490
| 18> H         -0.28102       -2.36136       -4.64938
| 19> *
| 20>
| 21> %MaxCore 64000
| 22>
| 23> %pal nprocs 4
| 24> end
| 25>
| 26> %scf
| 27>   MaxIter 150
| 28> end
| 29>
| 30>
| 31>                          ****END OF INPUT****

CARTESIAN COORDINATES (ANGSTROEM)
---------------------------------
  C      1.635560   -1.670400   -5.292110
  C      0.338480   -1.500910   -4.505400
  C      2.484510   -0.507410   -5.140390
  H      1.398340   -1.829240   -6.352590
  H      2.155860   -2.565400   -4.932090
  C      3.451150   -0.149530   -5.952590
  N      3.922670    1.089560   -5.850710
  N      3.966160   -1.006180   -6.867880
  H      3.521390   -1.906470   -6.995270
  H      4.444820   -0.623470   -7.670350
  H      2.252000    0.240800   -4.498790
  H      3.464280    1.640780   -5.136390
  H      4.834470    1.313750   -6.224650
  H     -0.176580   -0.628810   -4.850450
  H      0.563840   -1.393740   -3.464900
  H     -0.281020   -2.361360   -4.649380

 Total Charge           Charge          ....    0
 Multiplicity           Mult            ....    1
 Number of Electrons    NEL             ....   48
 Basis Dimension        Dim             ....  200

ORBITAL ENERGIES
----------------

  NO   OCC          E(Eh)            E(eV)
   0   2.0000     -14.331590      -389.9824
   1   2.0000     -14.326457      -389.8427
   2   2.0000     -10.221286      -278.1353
   3   2.0000     -10.160569      -276.4831
   4   2.0000     -10.152329      -276.2589
   5   2.0000     -10.106166      -275.0028
   6   2.0000      -0.948997       -25.8235
   7   2.0000      -0.861818       -23.4512
   8   2.0000      -0.769238       -20.9320
   9   2.0000      -0.691993       -18.8301
  10   2.0000      -0.606906       -16.5148
  11   2.0000      -0.578716       -15.7477
  12   2.0000      -0.534269       -14.5382
  13   2.0000      -0.511654       -13.9228
  14   2.0000      -0.468862       -12.7584
  15   2.0000      -0.440247       -11.9797
  16   2.0000      -0.429165       -11.6782
  17   2.0000      -0.395285       -10.7563
  18   2.0000      -0.378472       -10.2987
  19   2.0000      -0.342665        -9.3244
  20   2.0000      -0.332409        -9.0453
  21   2.0000      -0.331326        -9.0158
  22   2.0000      -0.264750        -7.2042
  23   2.0000      -0.164173        -4.4674
  24   0.0000       0.015176         0.4130
  25   0.0000       0.038861         1.0575
  26   0.0000       0.044377         1.2076
  27   0.0000       0.065852         1.7919
  28   0.0000       0.068197         1.8557

MULLIKEN ATOMIC CHARGES
-----------------------
   0 C :   -0.060427
   1 C :    1.205358
   2 C :   -0.066884
   3 H :   -0.232269
   4 H :   -0.154412
   5 C :    0.426463
   6 N :    0.170194
   7 N :    0.038510
   8 H :   -0.055026
   9 H :   -0.211020
  10 H :   -0.422493
  11 H :    0.027026
  12 H :   -0.256995
  13 H :   -0.094113
  14 H :   -0.090577
  15 H :   -0.223333
Sum of atomic charges:   -0.0000000

LOEWDIN ATOMIC CHARGES
----------------------
   0 C :   -0.111195
   1 C :    0.119088
   2 C :   -0.033385
   3 H :    0.013160
   4 H :    0.015027
   5 C :   -0.228184
   6 N :    0.180989
   7 N :    0.209727
   8 H :   -0.018014
   9 H :   -0.016668
  10 H :   -0.053376
  11 H :   -0.001215
  12 H :   -0.011164
  13 H :   -0.018741
  14 H :   -0.018565
  15 H :   -0.027484

  Mayer bond orders larger than 0.100000
B(  0-C ,  1-C ) :   1.1888 B(  0-C ,  2-C ) :   0.9782 B(  0-C ,  3-H ) :   0.8116
B(  0-C ,  4-H ) :   0.6916 B(  0-C , 10-H ) :   0.2308 B(  0-C , 13-H ) :   0.2654
B(  0-C , 14-H ) :   0.2779 B(  0-C , 15-H ) :   0.3712 B(  1-C ,  2-C ) :   0.1045
B(  1-C , 10-H ) :  -0.1191 B(  1-C , 13-H ) :   0.7077 B(  1-C , 14-H ) :   0.6685
B(  1-C , 15-H ) :   0.5977 B(  2-C ,  3-H ) :   0.1543 B(  2-C ,  4-H ) :   0.2888
B(  2-C ,  5-C ) :   1.5781 B(  2-C ,  6-N ) :   0.3280 B(  2-C ,  7-N ) :   0.2238
B(  2-C ,  8-H ) :  -0.1310 B(  2-C , 10-H ) :   0.7894 B(  2-C , 11-H ) :  -0.1012
B(  3-H , 10-H ) :   0.1338 B(  5-C ,  6-N ) :   0.9951 B(  5-C ,  7-N ) :   1.0106
B(  5-C , 10-H ) :   0.1142 B(  6-N ,  7-N ) :   0.1124 B(  6-N , 11-H ) :   1.0450
B(  6-N , 12-H ) :   1.2102 B(  7-N ,  8-H ) :   1.0561 B(  7-N ,  9-H ) :   1.2137
B(  8-H ,  9-H ) :  -0.1330 B( 11-H , 12-H ) :  -0.1450

Dispersion correction           -0.020679637
FINAL SINGLE POINT ENERGY      -267.586551346420

DIPOLE MOMENT
-------------
                                X             Y             Z
Electronic contribution:      4.52029       2.16157      -1.89574
Nuclear contribution   :     -3.99655      -1.83277       1.34879
                        -----------------------------------------
Total Dipole Moment    :      0.52374       0.32880      -0.54695
                        -----------------------------------------
Magnitude (a.u.)       :      0.82557
Magnitude (Debye)      :      2.09844

Rotational constants in cm-1:     0.262971     0.067064     0.055026
Rotational constants in MHz :  7883.664566  2010.513309  1649.636654

                             ****ORCA TERMINATED NORMALLY****
TOTAL RUN TIME: 0 days 0 hours 0 minutes 28 seconds 706 msec
