                         Program Version 5.0.0 -  RELEASE  -
|  1> !B3LYP D3BJ RIJCOSX def2-SVPD def2/J TightSCF
|  2> *xyz 0 1
|  3> C          1.63556       -1.67040       -5.29211
|  4> C          0.33848       -1.50091       -4.50540
|  5> N          2.48451       -0.50741       -5.14039
|  6> H          1.39834       -1.82924       -6.35259
|  7> H          2.15586       -2.56540       -4.93209
|  8> C          3.45115       -0.14953       -5.95259
|  9> C          3.92267        1.08956       -5.85071
| 10> N          3.96616       -1.00618       -6.86788
| 11> H          3.52139       -1.90647       -6.99527
| 12> H          4.44482       -0.62347       -7.67035
| 13> H          2.25200        0.24080       -4.49879
| 14> H          3.46428        1.64078       -5.13639
| 15> H          4.83447        1.31375       -6.22465
| 16> H         -0.17658       -0.62881       -4.85045
| 17> H          0.56384       -1.39374       -3.46490
| 18> H         -0.28102       -2.36136       -4.64938
| 19> *
| 20>
| 21> %MaxCore 64000
| 22>
| 23> %pal nprocs 4
| 24> end
| 25>
| 26> %scf
| 27>   MaxIter 150
| 28> end
| 29>
| 30>
| 31>                          ****END OF INPUT****

CARTESIAN COORDINATES (ANGSTROEM)
---------------------------------
  C      1.635560   -1.670400   -5.292110
  C      0.338480   -1.500910   -4.505400
  N      2.484510   -0.507410   -5.140390
  H      1.398340   -1.829240   -6.352590
  H      2.155860   -2.565400   -4.932090
  C      3.451150   -0.149530   -5.952590
  C      3.922670    1.089560   -5.850710
  N      3.966160   -1.006180   -6.867880
  H      3.521390   -1.906470   -6.995270
  H      4.444820   -0.623470   -7.670350
  H      2.252000    0.240800   -4.498790
  H      3.464280    1.640780   -5.136390
  H      4.834470    1.313750   -6.224650
  H     -0.176580   -0.628810   -4.850450
  H      0.563840   -1.393740   -3.464900
  H     -0.281020   -2.361360   -4.649380

 Total Charge           Charge          ....    0
 Multiplicity           Mult            ....    1
 Number of Electrons    NEL             ....   48
 Basis Dimension        Dim             ....  200

ORBITAL ENERGIES
----------------

  NO   OCC          E(Eh)            E(eV)
   0   2.0000     -14.329640      -389.9293
   1   2.0000     -14.329526      -389.9262
   2   2.0000     -10.225801      -278.2582
   3   2.0000     -10.225087      -278.2388
   4   2.0000     -10.184429      -277.1324
   5   2.0000     -10.093056      -274.6460
   6   2.0000      -0.961362       -26.1600
   7   2.0000      -0.874738       -23.8028
   8   2.0000      -0.772218       -21.0131
   9   2.0000      -0.696662       -18.9571
  10   2.0000      -0.623987       -16.9796
  11   2.0000      -0.594976       -16.1901
  12   2.0000      -0.535103       -14.5609
  13   2.0000      -0.497182       -13.5290
  14   2.0000      -0.480660       -13.0794
  15   2.0000      -0.464778       -12.6473
  16   2.0000      -0.419314       -11.4101
  17   2.0000      -0.396725       -10.7954
  18   2.0000      -0.381680       -10.3860
  19   2.0000      -0.378056       -10.2874
  20   2.0000      -0.376939       -10.2570
  21   2.0000      -0.349610        -9.5134
  22   2.0000      -0.258729        -7.0404
  23   2.0000      -0.161333        -4.3901
  24   0.0000       0.012227         0.3327
  25   0.0000       0.031106         0.8464
  26   0.0000       0.040246         1.0951
  27   0.0000       0.063633         1.7315
  28   0.0000       0.072973         1.9857

MULLIKEN ATOMIC CHARGES
-----------------------
   0 C :    0.201269
   1 C :    1.056395
   2 N :   -0.280442
   3 H :   -0.190645
   4 H :   -0.222577
   5 C :    0.497733
   6 C :    0.619705
   7 N :    0.113237
   8 H :   -0.181089
   9 H :   -0.110145
  10 H :   -0.169970
  11 H :   -0.316619
  12 H :   -0.550789
  13 H :   -0.139843
  14 H :   -0.127087
  15 H :   -0.199134
Sum of atomic charges:    0.0000000

LOEWDIN ATOMIC CHARGES
----------------------
   0 C :   -0.003364
   1 C :    0.138988
   2 N :   -0.017863
   3 H :    0.016872
   4 H :    0.016925
   5 C :   -0.234371
   6 C :    0.145603
   7 N :    0.206254
   8 H :   -0.031077
   9 H :    0.000732
  10 H :    0.027298
  11 H :   -0.109586
  12 H :   -0.103954
  13 H :   -0.016118
  14 H :   -0.017468
  15 H :   -0.018871

  Mayer bond orders larger than 0.100000
B(  0-C ,  1-C ) :   1.2588 B(  0-C ,  2-N ) :   0.9604 B(  0-C ,  3-H ) :   0.8369
B(  0-C ,  4-H ) :   0.8512 B(  0-C , 10-H ) :  -0.1282 B(  0-C , 13-H ) :   0.2691
B(  0-C , 14-H ) :   0.2861 B(  0-C , 15-H ) :   0.3339 B(  1-C , 13-H ) :   0.7180
B(  1-C , 14-H ) :   0.6673 B(  1-C , 15-H ) :   0.6700 B(  2-N ,  3-H ) :   0.1780
B(  2-N ,  4-H ) :   0.2114 B(  2-N ,  5-C ) :   1.1476 B(  2-N ,  6-C ) :   0.2616
B(  2-N ,  7-N ) :   0.1169 B(  2-N , 10-H ) :   1.1324 B(  5-C ,  6-C ) :   1.5987
B(  5-C ,  7-N ) :   0.9365 B(  5-C ,  9-H ) :  -0.1093 B(  5-C , 10-H ) :  -0.1656
B(  5-C , 11-H ) :   0.2661 B(  5-C , 12-H ) :   0.2964 B(  6-C ,  7-N ) :   0.2440
B(  6-C , 11-H ) :   0.7594 B(  6-C , 12-H ) :   0.5694 B(  7-N ,  8-H ) :   1.0508
B(  7-N ,  9-H ) :   1.1851 B(  8-H ,  9-H ) :  -0.1467

Dispersion correction           -0.020426333
FINAL SINGLE POINT ENERGY      -267.575623363296

DIPOLE MOMENT
-------------
                                X             Y             Z
Electronic contribution:      2.97140       0.56837      -1.28702
Nuclear contribution   :     -3.69145      -1.49398       1.19810
                        -----------------------------------------
Total Dipole Moment    :     -0.72005      -0.92561      -0.08893
                        -----------------------------------------
Magnitude (a.u.)       :      1.17607
Magnitude (Debye)      :      2.98933

Rotational constants in cm-1:     0.270790     0.068966     0.056679
Rotational constants in MHz :  8118.084803  2067.559423  1699.196934

                             ****ORCA TERMINATED NORMALLY****
TOTAL RUN TIME: 0 days 0 hours 0 minutes 27 seconds 465 msec
