                         Program Version 5.0.0 -  RELEASE  -
|  1> !B3LYP D3BJ RIJCOSX def2-SVPD def2/J TightSCF
|  2> *xyz 0 1
|  3> C          1.63556       -1.67040       -5.29211
|  4> C          0.33848       -1.50091       -4.50540
|  5> N          2.48451       -0.50741       -5.14039
|  6> H          1.39834       -1.82924       -6.35259
|  7> H          2.15586       -2.56540       -4.93209
|  8> C          3.45115       -0.14953       -5.95259
|  9> N          3.92267        1.08956       -5.85071
| 10> C          3.96616       -1.00618       -6.86788
| 11> H          3.52139       -1.90647       -6.99527
| 12> H          4.44482       -0.62347       -7.67035
| 13> H          2.25200        0.24080       -4.49879
| 14> H          3.46428        1.64078       -5.13639
| 15> H          4.83447        1.31375       -6.22465
| 16> H         -0.17658       -0.62881       -4.85045
| 17> H          0.56384       -1.39374       -3.46490
| 18> H         -0.28102       -2.36136       -4.64938
| 19> *
| 20>
| 21> %MaxCore 64000
| 22>
| 23> %pal nprocs 4
| 24> end
| 25>
| 26> %scf
| 27>   MaxIter 150
| 28> end
| 29>
| 30>
| 31>                          ****END OF INPUT****

CARTESIAN COORDINATES (ANGSTROEM)
---------------------------------
  C      1.635560   -1.670400   -5.292110
  C      0.338480   -1.500910   -4.505400
  N      2.484510   -0.507410   -5.140390
  H      1.398340   -1.829240   -6.352590
  H      2.155860   -2.565400   -4.932090
  C      3.451150   -0.149530   -5.952590
  N      3.922670    1.089560   -5.850710
  C      3.966160   -1.006180   -6.867880
  H      3.521390   -1.906470   -6.995270
  H      4.444820   -0.623470   -7.670350
  H      2.252000    0.240800   -4.498790
  H      3.464280    1.640780   -5.136390
  H      4.834470    1.313750   -6.224650
  H     -0.176580   -0.628810   -4.850450
  H      0.563840   -1.393740   -3.464900
  H     -0.281020   -2.361360   -4.649380

 Total Charge           Charge          ....    0
 Multiplicity           Mult            ....    1
 Number of Electrons    NEL             ....   48
 Basis Dimension        Dim             ....  200

ORBITAL ENERGIES
----------------

  NO   OCC          E(Eh)            E(eV)
   0   2.0000     -14.336101      -390.1051
   1   2.0000     -14.331765      -389.9872
   2   2.0000     -10.226768      -278.2845
   3   2.0000     -10.219002      -278.0732
   4   2.0000     -10.180635      -277.0292
   5   2.0000     -10.095347      -274.7084
   6   2.0000      -0.969985       -26.3946
   7   2.0000      -0.879865       -23.9423
   8   2.0000      -0.758400       -20.6371
   9   2.0000      -0.697681       -18.9849
  10   2.0000      -0.641171       -17.4472
  11   2.0000      -0.566430       -15.4133
  12   2.0000      -0.536734       -14.6053
  13   2.0000      -0.524526       -14.2731
  14   2.0000      -0.475165       -12.9299
  15   2.0000      -0.468063       -12.7366
  16   2.0000      -0.401848       -10.9348
  17   2.0000      -0.397212       -10.8087
  18   2.0000      -0.393881       -10.7181
  19   2.0000      -0.372261       -10.1297
  20   2.0000      -0.363719        -9.8973
  21   2.0000      -0.350907        -9.5487
  22   2.0000      -0.253010        -6.8848
  23   2.0000      -0.165883        -4.5139
  24   0.0000       0.010134         0.2758
  25   0.0000       0.027267         0.7420
  26   0.0000       0.045409         1.2356
  27   0.0000       0.064800         1.7633
  28   0.0000       0.069962         1.9038

MULLIKEN ATOMIC CHARGES
-----------------------
   0 C :    0.215735
   1 C :    1.063447
   2 N :   -0.312824
   3 H :   -0.138978
   4 H :   -0.178409
   5 C :    0.377854
   6 N :    0.222198
   7 C :    0.584705
   8 H :   -0.215116
   9 H :   -0.536069
  10 H :   -0.289581
  11 H :   -0.165405
  12 H :   -0.154135
  13 H :   -0.138789
  14 H :   -0.134531
  15 H :   -0.200102
Sum of atomic charges:   -0.0000000

LOEWDIN ATOMIC CHARGES
----------------------
   0 C :    0.009057
   1 C :    0.136407
   2 N :   -0.018387
   3 H :    0.024371
   4 H :    0.025189
   5 C :   -0.244471
   6 N :    0.191996
   7 C :    0.167273
   8 H :   -0.127795
   9 H :   -0.112764
  10 H :    0.015099
  11 H :   -0.017071
  12 H :    0.009263
  13 H :   -0.019299
  14 H :   -0.020710
  15 H :   -0.018157

  Mayer bond orders larger than 0.100000
B(  0-C ,  1-C ) :   1.2540 B(  0-C ,  2-N ) :   0.9997 B(  0-C ,  3-H ) :   0.8218
B(  0-C ,  4-H ) :   0.8412 B(  0-C , 10-H ) :  -0.1208 B(  0-C , 13-H ) :   0.2514
B(  0-C , 14-H ) :   0.2897 B(  0-C , 15-H ) :   0.3284 B(  1-C , 13-H ) :   0.7273
B(  1-C , 14-H ) :   0.6544 B(  1-C , 15-H ) :   0.6674 B(  2-N ,  3-H ) :   0.2047
B(  2-N ,  4-H ) :   0.1787 B(  2-N ,  5-C ) :   1.1527 B(  2-N ,  6-N ) :   0.1834
B(  2-N ,  7-C ) :   0.3206 B(  2-N , 10-H ) :   1.1910 B(  5-C ,  6-N ) :   0.9696
B(  5-C ,  7-C ) :   1.7342 B(  5-C ,  8-H ) :   0.3206 B(  5-C ,  9-H ) :   0.2416
B(  5-C , 10-H ) :  -0.2262 B(  6-N ,  7-C ) :   0.2652 B(  6-N , 11-H ) :   1.0715
B(  6-N , 12-H ) :   1.2107 B(  7-C ,  8-H ) :   0.6210 B(  7-C ,  9-H ) :   0.6622
B(  8-H ,  9-H ) :   0.2109 B( 11-H , 12-H ) :  -0.1327

Dispersion correction           -0.020518407
FINAL SINGLE POINT ENERGY      -267.576481041543

DIPOLE MOMENT
-------------
                                X             Y             Z
Electronic contribution:      3.03995       2.61088      -0.22008
Nuclear contribution   :     -3.68222      -1.93858       0.98231
                        -----------------------------------------
Total Dipole Moment    :     -0.64227       0.67230       0.76223
                        -----------------------------------------
Magnitude (a.u.)       :      1.20228
Magnitude (Debye)      :      3.05596

Rotational constants in cm-1:     0.275407     0.068040     0.056255
Rotational constants in MHz :  8256.498401  2039.796466  1686.484500

                             ****ORCA TERMINATED NORMALLY****
TOTAL RUN TIME: 0 days 0 hours 0 minutes 26 seconds 596 msec
