                         Program Version 5.0.0 -  RELEASE  -
|  1> !B3LYP D3BJ RIJCOSX def2-SVPD def2/J TightSCF xyzfile
|  2>
|  3> *xyzfile 0 1 D2.xyz
|  4>
|  5> %MaxCore 64000
|  6>
|  7> %pal nprocs 4
|  8> end
|  9>
| 10> %scf
| 11>   MaxIter 150
| 12> end
| 13>
| 14>
| 15>                          ****END OF INPUT****

CARTESIAN COORDINATES (ANGSTROEM)
---------------------------------
  C      1.635557   -1.670396   -5.292109
  C      0.338484   -1.500907   -4.505398
  N      2.484511   -0.507410   -5.140392
  C     -0.684873   -0.528026   -5.099889
  C     -0.290406    0.951335   -5.153423
  H      0.607991    1.070692   -5.764412
  C     -0.055168    1.619420   -3.788577
  H     -1.080912    1.483775   -5.689436
  H      0.045006    0.862302   -3.003015
  H     -0.922936    2.230329   -3.517028
  C      1.223022    2.469865   -3.756911
  H      1.114701    3.258074   -4.532999
  H      1.237732    3.011242   -2.792157
  F      2.353815    1.712032   -3.934477
  H      1.398337   -1.829239   -6.352591
  H      2.155864   -2.565398   -4.932091
  C      3.451149   -0.149530   -5.952589
  C      3.922667    1.089559   -5.850711
  N      3.966162   -1.006183   -6.867880
  H      3.521391   -1.906467   -6.995270
  H      4.444824   -0.623472   -7.670348
  H      2.251995    0.240804   -4.498792
  H      3.464277    1.640782   -5.136392
  H      4.834470    1.313745   -6.224653
  H     -0.937999   -0.869056   -6.110838
  H     -1.604638   -0.622496   -4.513132
  H      0.594887   -1.211578   -3.482312
  H     -0.126530   -2.487656   -4.434176

 Total Charge           Charge          ....    0
 Multiplicity           Mult            ....    1
 Number of Electrons    NEL             ....   88
 Basis Dimension        Dim             ....  359

ORBITAL ENERGIES
----------------

  NO   OCC          E(Eh)            E(eV)
   0   2.0000     -24.713576      -672.4906
   1   2.0000     -14.314689      -389.5225
   2   2.0000     -14.301296      -389.1581
   3   2.0000     -10.275041      -279.5981
   4   2.0000     -10.211300      -277.8636
   5   2.0000     -10.206462      -277.7320
   6   2.0000     -10.198179      -277.5066
   7   2.0000     -10.186371      -277.1852
   8   2.0000     -10.186155      -277.1794
   9   2.0000     -10.184350      -277.1302
  10   2.0000     -10.067068      -273.9388
  11   2.0000      -1.220308       -33.2063
  12   2.0000      -0.943441       -25.6723
  13   2.0000      -0.860141       -23.4056
  14   2.0000      -0.811821       -22.0908
  15   2.0000      -0.770297       -20.9609
  16   2.0000      -0.731351       -19.9011
  17   2.0000      -0.679033       -18.4774
  18   2.0000      -0.647074       -17.6078
  19   2.0000      -0.618002       -16.8167
  20   2.0000      -0.582088       -15.8394
  21   2.0000      -0.565081       -15.3766
  22   2.0000      -0.544611       -14.8196
  23   2.0000      -0.518196       -14.1008
  24   2.0000      -0.510925       -13.9030
  25   2.0000      -0.504086       -13.7169
  26   2.0000      -0.485685       -13.2162
  27   2.0000      -0.472030       -12.8446
  28   2.0000      -0.450859       -12.2685
  29   2.0000      -0.442644       -12.0450
  30   2.0000      -0.423734       -11.5304
  31   2.0000      -0.411514       -11.1979
  32   2.0000      -0.400695       -10.9035
  33   2.0000      -0.381751       -10.3880
  34   2.0000      -0.372120       -10.1259
  35   2.0000      -0.364532        -9.9194
  36   2.0000      -0.353044        -9.6068
  37   2.0000      -0.349898        -9.5212
  38   2.0000      -0.334512        -9.1025
  39   2.0000      -0.325742        -8.8639
  40   2.0000      -0.324360        -8.8263
  41   2.0000      -0.320100        -8.7104
  42   2.0000      -0.240399        -6.5416
  43   2.0000      -0.143337        -3.9004
  44   0.0000       0.013239         0.3603
  45   0.0000       0.023161         0.6302
  46   0.0000       0.033103         0.9008
  47   0.0000       0.036593         0.9958
  48   0.0000       0.053280         1.4498

MULLIKEN ATOMIC CHARGES
-----------------------
   0 C :    0.843860
   1 C :    0.331768
   2 N :   -0.036359
   3 C :    0.381227
   4 C :    0.269157
   5 H :   -0.007351
   6 C :    0.172445
   7 H :   -0.392219
   8 H :   -0.129206
   9 H :   -0.269187
  10 C :    1.195648
  11 H :   -0.155593
  12 H :   -0.182642
  13 F :   -0.816207
  14 H :   -0.096440
  15 H :   -0.332464
  16 C :    0.620446
  17 C :    0.847888
  18 N :    0.095632
  19 H :   -0.123533
  20 H :   -0.126862
  21 H :   -0.441149
  22 H :   -0.375712
  23 H :   -0.683130
  24 H :    0.012500
  25 H :   -0.215840
  26 H :   -0.098474
  27 H :   -0.288200
Sum of atomic charges:    0.0000000

LOEWDIN ATOMIC CHARGES
----------------------
   0 C :    0.048329
   1 C :   -0.018276
   2 N :    0.005995
   3 C :   -0.019720
   4 C :   -0.014772
   5 H :    0.008335
   6 C :    0.004712
   7 H :    0.016558
   8 H :    0.011917
   9 H :    0.026782
  10 C :    0.164262
  11 H :    0.046309
  12 H :    0.034304
  13 F :   -0.215255
  14 H :    0.016614
  15 H :    0.014270
  16 C :   -0.213073
  17 C :    0.168655
  18 N :    0.203388
  19 H :   -0.034091
  20 H :   -0.002715
  21 H :   -0.058253
  22 H :   -0.157841
  23 H :   -0.104813
  24 H :    0.021142
  25 H :    0.018313
  26 H :    0.010745
  27 H :    0.018179

  Mayer bond orders larger than 0.100000
B(  0-C ,  1-C ) :   1.1841 B(  0-C ,  2-N ) :   0.9720 B(  0-C , 14-H ) :   0.7045
B(  0-C , 15-H ) :   0.7862 B(  0-C , 21-H ) :  -0.1989 B(  0-C , 26-H ) :   0.1494
B(  0-C , 27-H ) :   0.2372 B(  1-C ,  2-N ) :   0.1034 B(  1-C ,  3-C ) :   1.1994
B(  1-C ,  4-C ) :   0.1020 B(  1-C , 24-H ) :   0.1831 B(  1-C , 25-H ) :   0.2240
B(  1-C , 26-H ) :   0.7239 B(  1-C , 27-H ) :   0.6896 B(  2-N , 14-H ) :   0.3758
B(  2-N , 15-H ) :   0.2192 B(  2-N , 16-C ) :   0.9978 B(  2-N , 17-C ) :   0.3432
B(  2-N , 18-N ) :   0.1395 B(  2-N , 21-H ) :   0.9773 B(  3-C ,  4-C ) :   1.2769
B(  3-C ,  5-H ) :   0.1645 B(  3-C ,  7-H ) :   0.1479 B(  3-C , 24-H ) :   0.6211
B(  3-C , 25-H ) :   0.7652 B(  3-C , 26-H ) :   0.1722 B(  3-C , 27-H ) :   0.1555
B(  4-C ,  5-H ) :   0.8123 B(  4-C ,  6-C ) :   1.1850 B(  4-C ,  7-H ) :   0.7155
B(  4-C ,  8-H ) :   0.1369 B(  4-C ,  9-H ) :   0.1909 B(  4-C , 24-H ) :   0.2506
B(  4-C , 25-H ) :   0.1426 B(  5-H ,  6-C ) :   0.1062 B(  5-H ,  7-H ) :  -0.1174
B(  6-C ,  7-H ) :   0.1041 B(  6-C ,  8-H ) :   0.8362 B(  6-C ,  9-H ) :   0.8451
B(  6-C , 10-C ) :   1.1468 B(  6-C , 11-H ) :   0.1164 B(  6-C , 12-H ) :   0.2023
B(  6-C , 13-F ) :   0.1450 B( 10-C , 11-H ) :   0.7773 B( 10-C , 12-H ) :   0.7397
B( 10-C , 13-F ) :   0.6295 B( 11-H , 13-F ) :   0.2436 B( 13-F , 22-H ) :   0.2130
B( 14-H , 15-H ) :  -0.1010 B( 14-H , 25-H ) :  -0.1085 B( 16-C , 17-C ) :   1.4945
B( 16-C , 18-N ) :   0.8184 B( 16-C , 20-H ) :  -0.1469 B( 16-C , 21-H ) :  -0.3877
B( 16-C , 22-H ) :   0.3379 B( 16-C , 23-H ) :   0.4459 B( 17-C , 18-N ) :   0.3329
B( 17-C , 22-H ) :   0.4727 B( 17-C , 23-H ) :   0.2978 B( 18-N , 19-H ) :   0.9993
B( 18-N , 20-H ) :   1.2198 B( 19-H , 20-H ) :  -0.1577 B( 21-H , 22-H ) :  -0.1324
B( 24-H , 25-H ) :  -0.1253

Dispersion correction           -0.046866651
FINAL SINGLE POINT ENERGY      -523.735881701311

DIPOLE MOMENT
-------------
                                X             Y             Z
Electronic contribution:      6.35440       2.46501       1.71826
Nuclear contribution   :     -7.85451      -2.70006      -1.48294
                        -----------------------------------------
Total Dipole Moment    :     -1.50011      -0.23505       0.23532
                        -----------------------------------------
Magnitude (a.u.)       :      1.53654
Magnitude (Debye)      :      3.90558

Rotational constants in cm-1:     0.044065     0.029250     0.019826
Rotational constants in MHz :  1321.026981   876.903192   594.367265

                             ****ORCA TERMINATED NORMALLY****
TOTAL RUN TIME: 0 days 0 hours 1 minutes 49 seconds 8 msec
