                         Program Version 5.0.0 -  RELEASE  -
|  1> !B3LYP D3BJ RIJCOSX def2-SVPD def2/J TightSCF xyzfile
|  2>
|  3> *xyzfile 0 1 D3.xyz
|  4>
|  5> %MaxCore 64000
|  6>
|  7> %pal nprocs 4
|  8> end
|  9>
| 10> %scf
| 11>   MaxIter 150
| 12> end
| 13>
| 14>
| 15>                          ****END OF INPUT****

CARTESIAN COORDINATES (ANGSTROEM)
---------------------------------
  C      1.635557   -1.670396   -5.292109
  C      0.338484   -1.500907   -4.505398
  N      2.484511   -0.507410   -5.140392
  C     -0.684873   -0.528026   -5.099889
  C     -0.290406    0.951335   -5.153423
  H      0.607991    1.070692   -5.764412
  C     -0.055168    1.619420   -3.788577
  H     -1.080912    1.483775   -5.689436
  H      0.045006    0.862302   -3.003015
  H     -0.922936    2.230329   -3.517028
  C      1.223022    2.469865   -3.756911
  H      1.114701    3.258074   -4.532999
  H      1.237732    3.011242   -2.792157
  F      2.353815    1.712032   -3.934477
  H      1.398337   -1.829239   -6.352591
  H      2.155864   -2.565398   -4.932091
  C      3.451149   -0.149530   -5.952589
  N      3.922667    1.089559   -5.850711
  C      3.966162   -1.006183   -6.867880
  H      3.521391   -1.906467   -6.995270
  H      4.444824   -0.623472   -7.670348
  H      2.251995    0.240804   -4.498792
  H      3.464277    1.640782   -5.136392
  H      4.834470    1.313745   -6.224653
  H     -0.937999   -0.869056   -6.110838
  H     -1.604638   -0.622496   -4.513132
  H      0.594887   -1.211578   -3.482312
  H     -0.126530   -2.487656   -4.434176

 Total Charge           Charge          ....    0
 Multiplicity           Mult            ....    1
 Number of Electrons    NEL             ....   88
 Basis Dimension        Dim             ....  359

ORBITAL ENERGIES
----------------

  NO   OCC          E(Eh)            E(eV)
   0   2.0000     -24.741672      -673.2551
   1   2.0000     -14.305004      -389.2589
   2   2.0000     -14.302897      -389.2016
   3   2.0000     -10.292142      -280.0634
   4   2.0000     -10.207936      -277.7721
   5   2.0000     -10.207277      -277.7541
   6   2.0000     -10.204045      -277.6662
   7   2.0000     -10.190369      -277.2940
   8   2.0000     -10.187162      -277.2068
   9   2.0000     -10.183959      -277.1196
  10   2.0000     -10.077464      -274.2217
  11   2.0000      -1.247355       -33.9422
  12   2.0000      -0.948485       -25.8096
  13   2.0000      -0.860601       -23.4181
  14   2.0000      -0.816813       -22.2266
  15   2.0000      -0.773938       -21.0599
  16   2.0000      -0.723986       -19.7006
  17   2.0000      -0.688329       -18.7304
  18   2.0000      -0.655544       -17.8383
  19   2.0000      -0.630916       -17.1681
  20   2.0000      -0.576661       -15.6917
  21   2.0000      -0.571156       -15.5420
  22   2.0000      -0.557325       -15.1656
  23   2.0000      -0.534214       -14.5367
  24   2.0000      -0.528631       -14.3848
  25   2.0000      -0.498456       -13.5637
  26   2.0000      -0.490022       -13.3342
  27   2.0000      -0.474210       -12.9039
  28   2.0000      -0.463090       -12.6013
  29   2.0000      -0.437780       -11.9126
  30   2.0000      -0.429217       -11.6796
  31   2.0000      -0.420063       -11.4305
  32   2.0000      -0.402548       -10.9539
  33   2.0000      -0.379342       -10.3224
  34   2.0000      -0.377934       -10.2841
  35   2.0000      -0.366250        -9.9662
  36   2.0000      -0.360229        -9.8023
  37   2.0000      -0.355469        -9.6728
  38   2.0000      -0.344016        -9.3612
  39   2.0000      -0.335355        -9.1255
  40   2.0000      -0.326329        -8.8799
  41   2.0000      -0.322477        -8.7750
  42   2.0000      -0.230388        -6.2692
  43   2.0000      -0.147869        -4.0237
  44   0.0000       0.007048         0.1918
  45   0.0000       0.023489         0.6392
  46   0.0000       0.030417         0.8277
  47   0.0000       0.034955         0.9512
  48   0.0000       0.045360         1.2343

MULLIKEN ATOMIC CHARGES
-----------------------
   0 C :    0.824284
   1 C :    0.347735
   2 N :    0.289737
   3 C :    0.387417
   4 C :    0.362217
   5 H :   -0.136815
   6 C :    0.157814
   7 H :   -0.372144
   8 H :   -0.121014
   9 H :   -0.260501
  10 C :    1.199739
  11 H :   -0.158859
  12 H :   -0.183652
  13 F :   -0.827552
  14 H :   -0.047086
  15 H :   -0.321295
  16 C :    0.276225
  17 N :    0.554197
  18 C :    0.587685
  19 H :   -0.157778
  20 H :   -0.505329
  21 H :   -0.714827
  22 H :   -0.298554
  23 H :   -0.269158
  24 H :    0.021557
  25 H :   -0.217209
  26 H :   -0.119390
  27 H :   -0.297444
Sum of atomic charges:   -0.0000000

LOEWDIN ATOMIC CHARGES
----------------------
   0 C :    0.059785
   1 C :   -0.018587
   2 N :    0.007380
   3 C :   -0.018580
   4 C :   -0.015379
   5 H :    0.007648
   6 C :    0.006633
   7 H :    0.016981
   8 H :    0.013653
   9 H :    0.028951
  10 C :    0.164343
  11 H :    0.046865
  12 H :    0.036861
  13 F :   -0.206647
  14 H :    0.023283
  15 H :    0.022219
  16 C :   -0.227873
  17 N :    0.211960
  18 C :    0.162070
  19 H :   -0.132392
  20 H :   -0.117453
  21 H :   -0.066424
  22 H :   -0.081059
  23 H :    0.006967
  24 H :    0.023278
  25 H :    0.018236
  26 H :    0.007997
  27 H :    0.019284

  Mayer bond orders larger than 0.100000
B(  0-C ,  1-C ) :   1.1777 B(  0-C ,  2-N ) :   1.0479 B(  0-C , 14-H ) :   0.7084
B(  0-C , 15-H ) :   0.7978 B(  0-C , 21-H ) :  -0.2057 B(  0-C , 26-H ) :   0.1460
B(  0-C , 27-H ) :   0.2211 B(  1-C ,  2-N ) :   0.1269 B(  1-C ,  3-C ) :   1.1997
B(  1-C ,  4-C ) :   0.1015 B(  1-C , 24-H ) :   0.1823 B(  1-C , 25-H ) :   0.2308
B(  1-C , 26-H ) :   0.7126 B(  1-C , 27-H ) :   0.7082 B(  2-N , 13-F ) :  -0.1263
B(  2-N , 14-H ) :   0.3082 B(  2-N , 15-H ) :   0.1532 B(  2-N , 16-C ) :   1.3257
B(  2-N , 18-C ) :   0.1880 B(  2-N , 21-H ) :   0.7025 B(  3-C ,  4-C ) :   1.2721
B(  3-C ,  5-H ) :   0.1761 B(  3-C ,  7-H ) :   0.1558 B(  3-C , 24-H ) :   0.6252
B(  3-C , 25-H ) :   0.7651 B(  3-C , 26-H ) :   0.1680 B(  3-C , 27-H ) :   0.1475
B(  4-C ,  5-H ) :   0.7763 B(  4-C ,  6-C ) :   1.1764 B(  4-C ,  7-H ) :   0.6793
B(  4-C ,  8-H ) :   0.1422 B(  4-C ,  9-H ) :   0.1865 B(  4-C , 24-H ) :   0.2447
B(  4-C , 25-H ) :   0.1279 B(  5-H ,  6-C ) :   0.1162 B(  6-C ,  8-H ) :   0.8390
B(  6-C ,  9-H ) :   0.8498 B(  6-C , 10-C ) :   1.1485 B(  6-C , 11-H ) :   0.1272
B(  6-C , 12-H ) :   0.1976 B(  6-C , 13-F ) :   0.1413 B( 10-C , 11-H ) :   0.7673
B( 10-C , 12-H ) :   0.7430 B( 10-C , 13-F ) :   0.6111 B( 11-H , 13-F ) :   0.2624
B( 13-F , 21-H ) :   0.1336 B( 13-F , 22-H ) :   0.2135 B( 14-H , 25-H ) :  -0.1072
B( 16-C , 17-N ) :   0.8846 B( 16-C , 18-C ) :   1.7749 B( 16-C , 19-H ) :   0.3616
B( 16-C , 20-H ) :   0.2754 B( 16-C , 21-H ) :  -0.4045 B( 16-C , 23-H ) :  -0.1644
B( 17-N , 18-C ) :   0.2206 B( 17-N , 22-H ) :   0.9601 B( 17-N , 23-H ) :   1.2821
B( 18-C , 19-H ) :   0.5678 B( 18-C , 20-H ) :   0.6318 B( 19-H , 20-H ) :   0.2118
B( 22-H , 23-H ) :  -0.1693 B( 24-H , 25-H ) :  -0.1265

Dispersion correction           -0.046791358
FINAL SINGLE POINT ENERGY      -523.748049687640

DIPOLE MOMENT
-------------
                                X             Y             Z
Electronic contribution:      6.26261       4.45079       2.80899
Nuclear contribution   :     -7.84660      -3.08098      -1.66782
                        -----------------------------------------
Total Dipole Moment    :     -1.58399       1.36980       1.14117
                        -----------------------------------------
Magnitude (a.u.)       :      2.38488
Magnitude (Debye)      :      6.06189

Rotational constants in cm-1:     0.043547     0.029898     0.020008
Rotational constants in MHz :  1305.520367   896.323854   599.829375

                             ****ORCA TERMINATED NORMALLY****
TOTAL RUN TIME: 0 days 0 hours 1 minutes 54 seconds 19 msec
