                         Program Version 5.0.0 -  RELEASE  -
|  1> !B3LYP D3BJ RIJCOSX def2-SVPD def2/J TightSCF
|  2> *xyz -1 1
|  3> C         -2.12050        0.88520        1.78951
|  4> C         -0.77894        0.17197        1.80496
|  5> H          0.01569        0.91077        1.93915
|  6> H         -0.74355       -0.50683        2.66542
|  7> C         -0.60249       -0.63071        0.49224
|  8> H          0.31389       -1.24035        0.60350
|  9> H         -0.36383        0.11332       -0.30117
| 10> O         -1.71206       -1.37684        0.20253
| 11> H         -2.16160        1.54956        0.95175
| 12> H         -2.23761        1.44436        2.69423
| 13> H         -2.90702        0.16393        1.71165
| 14> *
| 15> %MaxCore 64000
| 16>
| 17> %pal nprocs 4
| 18> end
| 19> %scf
| 20>   MaxIter 150
| 21> end
| 22>
| 23>                          ****END OF INPUT****

CARTESIAN COORDINATES (ANGSTROEM)
---------------------------------
  C     -2.120500    0.885200    1.789510
  C     -0.778940    0.171970    1.804960
  H      0.015690    0.910770    1.939150
  H     -0.743550   -0.506830    2.665420
  C     -0.602490   -0.630710    0.492240
  H      0.313890   -1.240350    0.603500
  H     -0.363830    0.113320   -0.301170
  O     -1.712060   -1.376840    0.202530
  H     -2.161600    1.549560    0.951750
  H     -2.237610    1.444360    2.694230
  H     -2.907020    0.163930    1.711650

 Total Charge           Charge          ....   -1
 Multiplicity           Mult            ....    1
 Number of Electrons    NEL             ....   34
 Basis Dimension        Dim             ....  139

ORBITAL ENERGIES
----------------

  NO   OCC          E(Eh)            E(eV)
   0   2.0000     -18.813139      -511.9315
   1   2.0000     -10.000484      -272.1270
   2   2.0000      -9.992661      -271.9141
   3   2.0000      -9.989430      -271.8262
   4   2.0000      -0.677835       -18.4448
   5   2.0000      -0.572387       -15.5754
   6   2.0000      -0.456180       -12.4133
   7   2.0000      -0.359483        -9.7820
   8   2.0000      -0.273274        -7.4362
   9   2.0000      -0.262936        -7.1548
  10   2.0000      -0.212568        -5.7843
  11   2.0000      -0.185568        -5.0496
  12   2.0000      -0.156946        -4.2707
  13   2.0000      -0.152666        -4.1543
  14   2.0000      -0.115263        -3.1365
  15   2.0000       0.023861         0.6493
  16   2.0000       0.026369         0.7175
  17   0.0000       0.166587         4.5331
  18   0.0000       0.190016         5.1706
  19   0.0000       0.205711         5.5977
  20   0.0000       0.230040         6.2597
  21   0.0000       0.250732         6.8228

MULLIKEN ATOMIC CHARGES
-----------------------
   0 C :    0.796622
   1 C :   -0.312110
   2 H :   -0.177770
   3 H :   -0.146426
   4 C :    0.604744
   5 H :   -0.273996
   6 H :   -0.167162
   7 O :   -0.882850
   8 H :   -0.143457
   9 H :   -0.213424
  10 H :   -0.084170
Sum of atomic charges:   -1.0000000

LOEWDIN ATOMIC CHARGES
----------------------
   0 C :    0.081947
   1 C :   -0.107030
   2 H :   -0.020003
   3 H :   -0.004121
   4 C :   -0.203234
   5 H :   -0.040673
   6 H :   -0.033474
   7 O :   -0.544321
   8 H :   -0.033501
   9 H :   -0.054991
  10 H :   -0.040600

  Mayer bond orders larger than 0.100000
B(  0-C ,  1-C ) :   1.2795 B(  0-C ,  2-H ) :   0.1114 B(  0-C ,  3-H ) :   0.1016
B(  0-C ,  8-H ) :   0.7723 B(  0-C ,  9-H ) :   0.7604 B(  0-C , 10-H ) :   0.7907
B(  1-C ,  2-H ) :   0.9669 B(  1-C ,  3-H ) :   0.9313 B(  1-C ,  4-C ) :   1.0191
B(  1-C ,  5-H ) :   0.1611 B(  1-C ,  6-H ) :   0.1632 B(  1-C ,  7-O ) :   0.1236
B(  1-C ,  8-H ) :   0.2175 B(  1-C ,  9-H ) :   0.2227 B(  1-C , 10-H ) :   0.2204
B(  3-H ,  4-C ) :   0.1092 B(  4-C ,  5-H ) :   0.9395 B(  4-C ,  6-H ) :   0.8985
B(  4-C ,  7-O ) :   1.1446

Dispersion correction           -0.011086112
FINAL SINGLE POINT ENERGY      -193.501005591282

DIPOLE MOMENT
-------------
                                X             Y             Z
Electronic contribution:     -0.61427      -2.40665      -1.50923
Nuclear contribution   :      1.03476       3.87369       2.65163
                        -----------------------------------------
Total Dipole Moment    :      0.42049       1.46704       1.14240
                        -----------------------------------------
Magnitude (a.u.)       :      1.90632
Magnitude (Debye)      :      4.84549

Rotational constants in cm-1:     0.475803     0.193433     0.155403
Rotational constants in MHz : 14264.216647  5798.988361  4658.874800

                             ****ORCA TERMINATED NORMALLY****
TOTAL RUN TIME: 0 days 0 hours 0 minutes 12 seconds 720 msec
