                         Program Version 5.0.0 -  RELEASE  -
|  1> !B3LYP D3BJ RIJCOSX def2-SVPD def2/J TightSCF
|  2> *xyz 1 1
|  3> C         -2.12050        0.88520        1.78951
|  4> C         -0.77894        0.17197        1.80496
|  5> H         -2.32419        1.47265        2.68608
|  6> H         -2.18770        1.54127        0.91948
|  7> N         -3.17690       -0.15948        1.61070
|  8> H          0.01569        0.91077        1.93915
|  9> H         -0.74355       -0.50683        2.66542
| 10> C         -0.60249       -0.63071        0.49224
| 11> H         -4.06474        0.23127        1.28675
| 12> H         -3.34407       -0.67151        2.48493
| 13> H         -2.71686       -0.78189        0.93588
| 14> H         -0.63812        0.03805       -0.34226
| 15> H         -1.38918       -1.35085        0.40604
| 16> H          0.34172       -1.13388        0.50602
| 17> *
| 18> %MaxCore 64000
| 19>
| 20> %pal nprocs 4
| 21> end
| 22>
| 23> %scf
| 24>   MaxIter 150
| 25> end
| 26>
| 27>
| 28>                          ****END OF INPUT****

CARTESIAN COORDINATES (ANGSTROEM)
---------------------------------
  C     -2.120500    0.885200    1.789510
  C     -0.778940    0.171970    1.804960
  H     -2.324190    1.472650    2.686080
  H     -2.187700    1.541270    0.919480
  N     -3.176900   -0.159480    1.610700
  H      0.015690    0.910770    1.939150
  H     -0.743550   -0.506830    2.665420
  C     -0.602490   -0.630710    0.492240
  H     -4.064740    0.231270    1.286750
  H     -3.344070   -0.671510    2.484930
  H     -2.716860   -0.781890    0.935880
  H     -0.638120    0.038050   -0.342260
  H     -1.389180   -1.350850    0.406040
  H      0.341720   -1.133880    0.506020

 Total Charge           Charge          ....    1
 Multiplicity           Mult            ....    1
 Number of Electrons    NEL             ....   34
 Basis Dimension        Dim             ....  160

ORBITAL ENERGIES
----------------

  NO   OCC          E(Eh)            E(eV)
   0   2.0000     -14.649752      -398.6400
   1   2.0000     -10.430475      -283.8277
   2   2.0000     -10.369640      -282.1723
   3   2.0000     -10.348913      -281.6082
   4   2.0000      -1.198830       -32.6218
   5   2.0000      -0.971323       -26.4311
   6   2.0000      -0.883377       -24.0379
   7   2.0000      -0.802076       -21.8256
   8   2.0000      -0.798659       -21.7326
   9   2.0000      -0.767406       -20.8822
  10   2.0000      -0.685239       -18.6463
  11   2.0000      -0.640958       -17.4414
  12   2.0000      -0.613309       -16.6890
  13   2.0000      -0.589631       -16.0447
  14   2.0000      -0.543371       -14.7859
  15   2.0000      -0.533542       -14.5184
  16   2.0000      -0.526949       -14.3390
  17   0.0000      -0.184235        -5.0133
  18   0.0000      -0.132078        -3.5940
  19   0.0000      -0.125678        -3.4199
  20   0.0000      -0.116109        -3.1595
  21   0.0000      -0.091370        -2.4863

MULLIKEN ATOMIC CHARGES
-----------------------
   0 C :    0.775122
   1 C :   -0.023516
   2 H :   -0.252337
   3 H :   -0.049546
   4 N :   -0.492446
   5 H :   -0.173836
   6 H :   -0.047720
   7 C :    0.903206
   8 H :    0.287506
   9 H :    0.371778
  10 H :    0.114780
  11 H :   -0.048154
  12 H :   -0.237885
  13 H :   -0.126952
Sum of atomic charges:    1.0000000

LOEWDIN ATOMIC CHARGES
----------------------
   0 C :    0.094406
   1 C :   -0.015941
   2 H :    0.049316
   3 H :    0.052679
   4 N :    0.344700
   5 H :    0.045766
   6 H :    0.035973
   7 C :    0.173967
   8 H :    0.107367
   9 H :    0.111054
  10 H :    0.019226
  11 H :    0.006460
  12 H :   -0.036141
  13 H :    0.011168

  Mayer bond orders larger than 0.100000
B(  0-C ,  1-C ) :   1.1467 B(  0-C ,  2-H ) :   0.8913 B(  0-C ,  3-H ) :   0.8504
B(  0-C ,  4-N ) :   0.8038 B(  0-C ,  5-H ) :   0.1086 B(  1-C ,  5-H ) :   0.9348
B(  1-C ,  6-H ) :   0.8945 B(  1-C ,  7-C ) :   1.2461 B(  1-C , 11-H ) :   0.1834
B(  1-C , 12-H ) :   0.1496 B(  1-C , 13-H ) :   0.1880 B(  2-H ,  4-N ) :   0.1582
B(  4-N ,  8-H ) :   0.8043 B(  4-N ,  9-H ) :   0.8030 B(  4-N , 10-H ) :   0.9232
B(  7-C , 11-H ) :   0.7414 B(  7-C , 12-H ) :   0.7878 B(  7-C , 13-H ) :   0.7829
B( 10-H , 12-H ) :   0.2957 B( 12-H , 13-H ) :   0.1045

Dispersion correction           -0.015804343
FINAL SINGLE POINT ENERGY      -174.620634164580

DIPOLE MOMENT
-------------
                                X             Y             Z
Electronic contribution:     -1.84073       0.50645       0.93172
Nuclear contribution   :      0.18509      -0.64781      -0.64735
                        -----------------------------------------
Total Dipole Moment    :     -1.65564      -0.14136       0.28437
                        -----------------------------------------
Magnitude (a.u.)       :      1.68582
Magnitude (Debye)      :      4.28501

Rotational constants in cm-1:     0.411855     0.178330     0.145265
Rotational constants in MHz : 12347.103052  5346.196801  4354.936890

                             ****ORCA TERMINATED NORMALLY****
TOTAL RUN TIME: 0 days 0 hours 0 minutes 18 seconds 158 msec
