                         Program Version 5.0.0 -  RELEASE  -
|  1> !B3LYP D3BJ RIJCOSX def2-SVPD def2/J TightSCF
|  2> *xyz 0 1
|  3> C         -2.12050        0.88520        1.78951
|  4> C         -0.77894        0.17197        1.80496
|  5> H          0.01569        0.91077        1.93915
|  6> H         -0.74355       -0.50683        2.66542
|  7> C         -0.60249       -0.63071        0.49224
|  8> H          0.31389       -1.24035        0.60350
|  9> H         -0.36383        0.11332       -0.30117
| 10> F         -1.71206       -1.37684        0.20253
| 11> H         -2.16160        1.54956        0.95175
| 12> H         -2.23761        1.44436        2.69423
| 13> H         -2.90702        0.16393        1.71165
| 14> *
| 15> %MaxCore 64000
| 16>
| 17> %pal nprocs 4
| 18> end
| 19> %scf
| 20>   MaxIter 150
| 21> end
| 22>
| 23>                          ****END OF INPUT****

CARTESIAN COORDINATES (ANGSTROEM)
---------------------------------
  C     -2.120500    0.885200    1.789510
  C     -0.778940    0.171970    1.804960
  H      0.015690    0.910770    1.939150
  H     -0.743550   -0.506830    2.665420
  C     -0.602490   -0.630710    0.492240
  H      0.313890   -1.240350    0.603500
  H     -0.363830    0.113320   -0.301170
  F     -1.712060   -1.376840    0.202530
  H     -2.161600    1.549560    0.951750
  H     -2.237610    1.444360    2.694230
  H     -2.907020    0.163930    1.711650

 Total Charge           Charge          ....    0
 Multiplicity           Mult            ....    1
 Number of Electrons    NEL             ....   34
 Basis Dimension        Dim             ....  139

ORBITAL ENERGIES
----------------

  NO   OCC          E(Eh)            E(eV)
   0   2.0000     -24.688539      -671.8093
   1   2.0000     -10.262959      -279.2693
   2   2.0000     -10.188603      -277.2460
   3   2.0000     -10.167552      -276.6732
   4   2.0000      -1.187293       -32.3079
   5   2.0000      -0.782464       -21.2919
   6   2.0000      -0.682615       -18.5749
   7   2.0000      -0.591466       -16.0946
   8   2.0000      -0.512375       -13.9424
   9   2.0000      -0.496652       -13.5146
  10   2.0000      -0.476932       -12.9780
  11   2.0000      -0.437384       -11.9018
  12   2.0000      -0.397044       -10.8041
  13   2.0000      -0.375899       -10.2287
  14   2.0000      -0.355348        -9.6695
  15   2.0000      -0.329800        -8.9743
  16   2.0000      -0.326691        -8.8897
  17   0.0000       0.020088         0.5466
  18   0.0000       0.044824         1.2197
  19   0.0000       0.054931         1.4948
  20   0.0000       0.067425         1.8347
  21   0.0000       0.089022         2.4224

MULLIKEN ATOMIC CHARGES
-----------------------
   0 C :    0.806454
   1 C :   -0.256472
   2 H :   -0.163680
   3 H :   -0.149135
   4 C :    0.883421
   5 H :   -0.190447
   6 H :   -0.087059
   7 F :   -0.438809
   8 H :   -0.128822
   9 H :   -0.186997
  10 H :   -0.088453
Sum of atomic charges:    0.0000000

LOEWDIN ATOMIC CHARGES
----------------------
   0 C :    0.120387
   1 C :   -0.057131
   2 H :    0.020994
   3 H :    0.019722
   4 C :    0.106019
   5 H :    0.024610
   6 H :    0.032372
   7 F :   -0.207082
   8 H :   -0.016679
   9 H :   -0.021907
  10 H :   -0.021304

  Mayer bond orders larger than 0.100000
B(  0-C ,  1-C ) :   1.3159 B(  0-C ,  8-H ) :   0.7714 B(  0-C ,  9-H ) :   0.7873
B(  0-C , 10-H ) :   0.7936 B(  1-C ,  2-H ) :   0.9240 B(  1-C ,  3-H ) :   0.9116
B(  1-C ,  4-C ) :   1.1575 B(  1-C ,  5-H ) :   0.1211 B(  1-C ,  6-H ) :   0.1250
B(  1-C ,  8-H ) :   0.1937 B(  1-C ,  9-H ) :   0.2065 B(  1-C , 10-H ) :   0.1888
B(  4-C ,  5-H ) :   0.8971 B(  4-C ,  6-H ) :   0.8597 B(  4-C ,  7-F ) :   0.7318

Dispersion correction           -0.010433097
FINAL SINGLE POINT ENERGY      -218.108716072157

DIPOLE MOMENT
-------------
                                X             Y             Z
Electronic contribution:     -1.00688      -4.83022      -3.45999
Nuclear contribution   :      1.51874       5.24801       3.69322
                        -----------------------------------------
Total Dipole Moment    :      0.51186       0.41779       0.23324
                        -----------------------------------------
Magnitude (a.u.)       :      0.70068
Magnitude (Debye)      :      1.78098

Rotational constants in cm-1:     0.461913     0.182549     0.147043
Rotational constants in MHz : 13847.794369  5472.673442  4408.246847

                             ****ORCA TERMINATED NORMALLY****
TOTAL RUN TIME: 0 days 0 hours 0 minutes 14 seconds 370 msec
