                         Program Version 5.0.0 -  RELEASE  -
|  1> !B3LYP D3BJ RIJCOSX def2-SVPD def2/J TightSCF
|  2> *xyz 0 1
|  3> C         -2.12050        0.88520        1.78951
|  4> C         -0.77894        0.17197        1.80496
|  5> H         -2.32419        1.47265        2.68608
|  6> H         -2.18770        1.54127        0.91948
|  7> C         -3.17690       -0.15948        1.61070
|  8> H          0.01569        0.91077        1.93915
|  9> H         -0.74355       -0.50683        2.66542
| 10> C         -0.60249       -0.63071        0.49224
| 11> H         -4.06474        0.23127        1.28675
| 12> H         -3.34407       -0.67151        2.48493
| 13> H         -2.71686       -0.78189        0.93588
| 14> H         -0.63812        0.03805       -0.34226
| 15> H         -1.38918       -1.35085        0.40604
| 16> H          0.34172       -1.13388        0.50602
| 17> *
| 18> %MaxCore 64000
| 19>
| 20> %pal nprocs 4
| 21> end
| 22>
| 23> %scf
| 24>   MaxIter 150
| 25> end
| 26>
| 27>
| 28>                          ****END OF INPUT****

CARTESIAN COORDINATES (ANGSTROEM)
---------------------------------
  C     -2.120500    0.885200    1.789510
  C     -0.778940    0.171970    1.804960
  H     -2.324190    1.472650    2.686080
  H     -2.187700    1.541270    0.919480
  C     -3.176900   -0.159480    1.610700
  H      0.015690    0.910770    1.939150
  H     -0.743550   -0.506830    2.665420
  C     -0.602490   -0.630710    0.492240
  H     -4.064740    0.231270    1.286750
  H     -3.344070   -0.671510    2.484930
  H     -2.716860   -0.781890    0.935880
  H     -0.638120    0.038050   -0.342260
  H     -1.389180   -1.350850    0.406040
  H      0.341720   -1.133880    0.506020

 Total Charge           Charge          ....    0
 Multiplicity           Mult            ....    1
 Number of Electrons    NEL             ....   34
 Basis Dimension        Dim             ....  160

ORBITAL ENERGIES
----------------

  NO   OCC          E(Eh)            E(eV)
   0   2.0000     -10.174935      -276.8740
   1   2.0000     -10.167174      -276.6629
   2   2.0000     -10.165544      -276.6185
   3   2.0000     -10.139216      -275.9021
   4   2.0000      -0.802202       -21.8290
   5   2.0000      -0.713314       -19.4103
   6   2.0000      -0.641427       -17.4541
   7   2.0000      -0.560590       -15.2544
   8   2.0000      -0.480664       -13.0795
   9   2.0000      -0.460638       -12.5346
  10   2.0000      -0.422402       -11.4941
  11   2.0000      -0.391720       -10.6593
  12   2.0000      -0.376426       -10.2431
  13   2.0000      -0.360468        -9.8088
  14   2.0000      -0.328639        -8.9427
  15   2.0000      -0.325011        -8.8440
  16   2.0000      -0.313503        -8.5309
  17   0.0000       0.027099         0.7374
  18   0.0000       0.048294         1.3141
  19   0.0000       0.053064         1.4439
  20   0.0000       0.059200         1.6109
  21   0.0000       0.094017         2.5583

MULLIKEN ATOMIC CHARGES
-----------------------
   0 C :   -0.083315
   1 C :   -0.012519
   2 H :   -0.340414
   3 H :   -0.046580
   4 C :    1.852091
   5 H :   -0.252768
   6 H :   -0.081875
   7 C :    0.877614
   8 H :   -0.231089
   9 H :   -0.141793
  10 H :   -1.130297
  11 H :   -0.061566
  12 H :   -0.191570
  13 H :   -0.155920
Sum of atomic charges:   -0.0000000

LOEWDIN ATOMIC CHARGES
----------------------
   0 C :   -0.069708
   1 C :   -0.056273
   2 H :    0.015562
   3 H :    0.021137
   4 C :    0.143312
   5 H :    0.011578
   6 H :    0.022122
   7 C :    0.139238
   8 H :   -0.030836
   9 H :   -0.023710
  10 H :   -0.094554
  11 H :   -0.011228
  12 H :   -0.045557
  13 H :   -0.021083

  Mayer bond orders larger than 0.100000
B(  0-C ,  1-C ) :   1.1344 B(  0-C ,  2-H ) :   0.9814 B(  0-C ,  3-H ) :   0.8434
B(  0-C ,  4-C ) :   1.0661 B(  0-C ,  6-H ) :   0.1230 B(  0-C ,  8-H ) :   0.1701
B(  0-C ,  9-H ) :   0.2649 B(  0-C , 10-H ) :   0.4276 B(  1-C ,  5-H ) :   0.9482
B(  1-C ,  6-H ) :   0.8715 B(  1-C ,  7-C ) :   1.2334 B(  1-C , 11-H ) :   0.2155
B(  1-C , 12-H ) :   0.1583 B(  1-C , 13-H ) :   0.1886 B(  3-H ,  4-C ) :   0.1141
B(  4-C ,  8-H ) :   0.4071 B(  4-C ,  9-H ) :   0.3858 B(  7-C , 11-H ) :   0.7328
B(  7-C , 12-H ) :   0.7587 B(  7-C , 13-H ) :   0.7409 B(  8-H ,  9-H ) :  -0.1390
B(  8-H , 10-H ) :   0.2964 B(  9-H , 10-H ) :   0.3023 B( 10-H , 12-H ) :   0.4562

Dispersion correction           -0.015911885
FINAL SINGLE POINT ENERGY      -158.213420737793

DIPOLE MOMENT
-------------
                                X             Y             Z
Electronic contribution:      0.30802       0.71133       0.58633
Nuclear contribution   :     -0.27446      -0.71220      -0.58629
                        -----------------------------------------
Total Dipole Moment    :      0.03356      -0.00086       0.00004
                        -----------------------------------------
Magnitude (a.u.)       :      0.03357
Magnitude (Debye)      :      0.08532

Rotational constants in cm-1:     0.419751     0.185753     0.151088
Rotational constants in MHz : 12583.819928  5568.732483  4529.512437

                             ****ORCA TERMINATED NORMALLY****
TOTAL RUN TIME: 0 days 0 hours 0 minutes 16 seconds 240 msec
