                         Program Version 5.0.0 -  RELEASE  -
|  1> !CAM-B3LYP RIJCOSX def2-TZVPD def2/J TightSCF
|  2> *xyz -1 1
|  3> C          0.70466        1.44313       -4.50363
|  4> C          1.72854        1.42432       -5.63944
|  5> H          2.64672        1.95379       -5.38105
|  6> H          1.29992        1.93061       -6.50361
|  7> S          2.25263       -0.18811       -6.27184
|  8> O          3.56261       -0.44446       -5.63155
|  9> O          2.34494       -0.03374       -7.69650
| 10> O          1.26606       -1.15918       -5.80536
| 11> H         -0.17385        0.91270       -4.80656
| 12> H          0.44778        2.45562       -4.27173
| 13> H          1.12367        0.97423       -3.63791
| 14> *
| 15>
| 16> %MaxCore 64000
| 17>
| 18> %pal nprocs 4
| 19> end
| 20>
| 21> %scf
| 22>   MaxIter 150
| 23> end
| 24>
| 25>
| 26>                          ****END OF INPUT****

CARTESIAN COORDINATES (ANGSTROEM)
---------------------------------
  C      0.704660    1.443130   -4.503630
  C      1.728540    1.424320   -5.639440
  H      2.646720    1.953790   -5.381050
  H      1.299920    1.930610   -6.503610
  S      2.252630   -0.188110   -6.271840
  O      3.562610   -0.444460   -5.631550
  O      2.344940   -0.033740   -7.696500
  O      1.266060   -1.159180   -5.805360
  H     -0.173850    0.912700   -4.806560
  H      0.447780    2.455620   -4.271730
  H      1.123670    0.974230   -3.637910

 Total Charge           Charge          ....   -1
 Multiplicity           Mult            ....    1
 Number of Electrons    NEL             ....   58
 Basis Dimension        Dim             ....  285

ORBITAL ENERGIES
----------------

  NO   OCC          E(Eh)            E(eV)
   0   2.0000     -88.918409     -2419.5929
   1   2.0000     -18.982536      -516.5411
   2   2.0000     -18.975489      -516.3493
   3   2.0000     -18.966919      -516.1161
   4   2.0000     -10.106490      -275.0116
   5   2.0000     -10.101516      -274.8762
   6   2.0000      -7.961861      -216.6533
   7   2.0000      -5.926477      -161.2676
   8   2.0000      -5.925313      -161.2360
   9   2.0000      -5.925048      -161.2288
  10   2.0000      -1.008437       -27.4410
  11   2.0000      -0.875322       -23.8187
  12   2.0000      -0.852332       -23.1931
  13   2.0000      -0.716607       -19.4999
  14   2.0000      -0.588212       -16.0061
  15   2.0000      -0.456498       -12.4219
  16   2.0000      -0.391086       -10.6420
  17   2.0000      -0.386311       -10.5121
  18   2.0000      -0.346031        -9.4160
  19   2.0000      -0.329300        -8.9607
  20   2.0000      -0.327920        -8.9232
  21   2.0000      -0.294687        -8.0189
  22   2.0000      -0.286702        -7.8015
  23   2.0000      -0.220756        -6.0071
  24   2.0000      -0.219478        -5.9723
  25   2.0000      -0.182803        -4.9743
  26   2.0000      -0.175156        -4.7662
  27   2.0000      -0.166078        -4.5192
  28   2.0000      -0.130282        -3.5452
  29   0.0000       0.143738         3.9113
  30   0.0000       0.163104         4.4383
  31   0.0000       0.167000         4.5443
  32   0.0000       0.175907         4.7867
  33   0.0000       0.193300         5.2600

MULLIKEN ATOMIC CHARGES
-----------------------
   0 C :   -1.036033
   1 C :   -0.494969
   2 H :    0.293669
   3 H :    0.287881
   4 S :    1.205365
   5 O :   -0.743767
   6 O :   -0.698218
   7 O :   -0.722624
   8 H :    0.290498
   9 H :    0.334335
  10 H :    0.283864
Sum of atomic charges:   -1.0000000

LOEWDIN ATOMIC CHARGES
----------------------
   0 C :   -0.147723
   1 C :   -0.318936
   2 H :    0.080850
   3 H :    0.075035
   4 S :    0.359435
   5 O :   -0.427955
   6 O :   -0.390093
   7 O :   -0.401952
   8 H :    0.057633
   9 H :    0.050118
  10 H :    0.063587

  Mayer bond orders larger than 0.100000
B(  0-C ,  1-C ) :   0.5277 B(  0-C ,  8-H ) :   0.9931 B(  0-C ,  9-H ) :   0.9255
B(  0-C , 10-H ) :   0.9863 B(  1-C ,  2-H ) :   0.9745 B(  1-C ,  3-H ) :   0.9702
B(  1-C ,  4-S ) :   0.9181 B(  1-C ,  5-O ) :   0.1186 B(  1-C ,  6-O ) :   0.1164
B(  4-S ,  5-O ) :   1.4739 B(  4-S ,  6-O ) :   1.5103 B(  4-S ,  7-O ) :   1.4825

FINAL SINGLE POINT ENERGY      -703.204168894049

DIPOLE MOMENT
-------------
                                X             Y             Z
Electronic contribution:      3.62553      -5.57490      -4.28117
Nuclear contribution   :     -4.50297       7.24642       5.01775
                        -----------------------------------------
Total Dipole Moment    :     -0.87745       1.67152       0.73658
                        -----------------------------------------
Magnitude (a.u.)       :      2.02643
Magnitude (Debye)      :      5.15079

Rotational constants in cm-1:     0.162459     0.081286     0.079601
Rotational constants in MHz :  4870.394399  2436.893583  2386.374948

                             ****ORCA TERMINATED NORMALLY****
TOTAL RUN TIME: 0 days 0 hours 1 minutes 13 seconds 819 msec
