                         Program Version 5.0.0 -  RELEASE  -
|  1> !CAM-B3LYP RIJCOSX def2-TZVPD def2/J TightSCF
|  2> *xyz 1 1
|  3> C          2.91632       -1.24259       -1.54313
|  4> C          3.46659       -1.59097       -2.88908
|  5> N          4.65227       -1.14316       -3.25969
|  6> N          2.75226       -2.29204       -3.72803
|  7> H          1.77836       -2.48960       -3.51274
|  8> H          2.94861       -2.20854       -4.71681
|  9> H          5.14672       -0.51251       -2.63385
| 10> H          4.78303       -1.00720       -4.25350
| 11> C          2.80408        0.29070       -1.35924
| 12> H          1.94047       -1.71653       -1.44116
| 13> H          3.55857       -1.66343       -0.76637
| 14> H          2.17393        0.69633       -2.12297
| 15> H          3.77707        0.73043       -1.42880
| 16> H          2.38369        0.50492       -0.39889
| 17> *
| 18>
| 19> %MaxCore 64000
| 20>
| 21> %pal nprocs 4
| 22> end
| 23>
| 24> %scf
| 25>   MaxIter 150
| 26> end
| 27>
| 28>
| 29>                          ****END OF INPUT****

CARTESIAN COORDINATES (ANGSTROEM)
---------------------------------
  C      2.916320   -1.242590   -1.543130
  C      3.466590   -1.590970   -2.889080
  N      4.652270   -1.143160   -3.259690
  N      2.752260   -2.292040   -3.728030
  H      1.778360   -2.489600   -3.512740
  H      2.948610   -2.208540   -4.716810
  H      5.146720   -0.512510   -2.633850
  H      4.783030   -1.007200   -4.253500
  C      2.804080    0.290700   -1.359240
  H      1.940470   -1.716530   -1.441160
  H      3.558570   -1.663430   -0.766370
  H      2.173930    0.696330   -2.122970
  H      3.777070    0.730430   -1.428800
  H      2.383690    0.504920   -0.398890

 Total Charge           Charge          ....    1
 Multiplicity           Mult            ....    1
 Number of Electrons    NEL             ....   40
 Basis Dimension        Dim             ....  266

ORBITAL ENERGIES
----------------

  NO   OCC          E(Eh)            E(eV)
   0   2.0000     -14.638578      -398.3360
   1   2.0000     -14.632986      -398.1838
   2   2.0000     -10.572496      -287.6922
   3   2.0000     -10.446327      -284.2590
   4   2.0000     -10.404974      -283.1337
   5   2.0000      -1.296326       -35.2748
   6   2.0000      -1.194629       -32.5075
   7   2.0000      -1.055066       -28.7098
   8   2.0000      -0.943287       -25.6682
   9   2.0000      -0.894276       -24.3345
  10   2.0000      -0.842214       -22.9178
  11   2.0000      -0.827098       -22.5065
  12   2.0000      -0.768684       -20.9170
  13   2.0000      -0.737441       -20.0668
  14   2.0000      -0.696478       -18.9521
  15   2.0000      -0.670259       -18.2387
  16   2.0000      -0.620161       -16.8754
  17   2.0000      -0.610429       -16.6106
  18   2.0000      -0.597733       -16.2651
  19   2.0000      -0.563717       -15.3395
  20   0.0000      -0.175400        -4.7729
  21   0.0000      -0.136492        -3.7141
  22   0.0000      -0.097289        -2.6474
  23   0.0000      -0.091833        -2.4989
  24   0.0000      -0.069636        -1.8949

MULLIKEN ATOMIC CHARGES
-----------------------
   0 C :   -0.401079
   1 C :    0.547009
   2 N :   -0.327200
   3 N :   -0.292525
   4 H :    0.254911
   5 H :    0.230324
   6 H :    0.253866
   7 H :    0.226458
   8 C :   -1.131099
   9 H :    0.305098
  10 H :    0.304382
  11 H :    0.351105
  12 H :    0.353001
  13 H :    0.325748
Sum of atomic charges:    1.0000000

LOEWDIN ATOMIC CHARGES
----------------------
   0 C :   -0.138080
   1 C :   -0.363992
   2 N :    0.226736
   3 N :    0.231499
   4 H :    0.151836
   5 H :    0.147615
   6 H :    0.144442
   7 H :    0.146767
   8 C :   -0.051013
   9 H :    0.123529
  10 H :    0.139257
  11 H :    0.084967
  12 H :    0.068767
  13 H :    0.087669

  Mayer bond orders larger than 0.100000
B(  0-C ,  1-C ) :   0.8031 B(  0-C ,  8-C ) :   0.5861 B(  0-C ,  9-H ) :   0.9365
B(  0-C , 10-H ) :   0.9650 B(  1-C ,  2-N ) :   1.2114 B(  1-C ,  3-N ) :   1.2981
B(  2-N ,  6-H ) :   0.9130 B(  2-N ,  7-H ) :   0.9713 B(  3-N ,  4-H ) :   0.9260
B(  3-N ,  5-H ) :   0.9561 B(  8-C , 11-H ) :   0.9554 B(  8-C , 12-H ) :   0.8915
B(  8-C , 13-H ) :   0.9847

FINAL SINGLE POINT ENERGY      -228.991295568080

DIPOLE MOMENT
-------------
                                X             Y             Z
Electronic contribution:      1.30408      -2.84584      -2.76060
Nuclear contribution   :     -1.30215       2.77761       1.84194
                        -----------------------------------------
Total Dipole Moment    :      0.00193      -0.06823      -0.91867
                        -----------------------------------------
Magnitude (a.u.)       :      0.92120
Magnitude (Debye)      :      2.34151

Rotational constants in cm-1:     0.267442     0.127541     0.099068
Rotational constants in MHz :  8017.703171  3823.592522  2969.992494

                             ****ORCA TERMINATED NORMALLY****
TOTAL RUN TIME: 0 days 0 hours 1 minutes 9 seconds 343 msec
