                         Program Version 5.0.0 -  RELEASE  -
|  1> !CAM-B3LYP RIJCOSX def2-TZVPD def2/J TightSCF xyzfile
|  2>
|  3> *xyzfile 0 1 B.xyz
|  4>
|  5> %MaxCore 64000
|  6>
|  7> %pal nprocs 4
|  8> end
|  9>
| 10> %scf
| 11>   MaxIter 150
| 12> end
| 13>
| 14>
| 15>                          ****END OF INPUT****

CARTESIAN COORDINATES (ANGSTROEM)
---------------------------------
  C      2.916324   -1.242589   -1.543125
  C      0.704661    1.443129   -4.503630
  C      1.728539    1.424320   -5.639443
  H      2.646718    1.953794   -5.381054
  H      1.299916    1.930613   -6.503614
  S      2.252625   -0.188115   -6.271840
  C      3.466585   -1.590971   -2.889082
  N      4.652275   -1.143164   -3.259692
  N      2.752264   -2.292043   -3.728029
  H      1.778364   -2.489604   -3.512738
  H      2.948612   -2.208544   -4.716813
  H      5.146723   -0.512508   -2.633852
  H      4.783030   -1.007203   -4.253498
  O      3.562607   -0.444464   -5.631552
  O      2.344944   -0.033742   -7.696501
  C      2.804084    0.290698   -1.359243
  C      1.052550    0.695659   -3.214915
  H     -0.232483    1.032925   -4.884449
  H      0.511700    2.495794   -4.267966
  C      2.388380    1.093669   -2.597108
  H      3.763425    0.674718   -0.999889
  H      2.094788    0.461222   -0.545756
  O      1.266058   -1.159177   -5.805365
  H      3.167316    1.013242   -3.359430
  H      2.357690    2.149375   -2.310997
  H      1.039284   -0.368429   -3.449329
  H      0.250787    0.865605   -2.488283
  H      1.940472   -1.716529   -1.441161
  H      3.558569   -1.663433   -0.766371

 Total Charge           Charge          ....    0
 Multiplicity           Mult            ....    1
 Number of Electrons    NEL             ....  112
 Basis Dimension        Dim             ....  643

ORBITAL ENERGIES
----------------

  NO   OCC          E(Eh)            E(eV)
   0   2.0000     -89.072794     -2423.7940
   1   2.0000     -19.139339      -520.8079
   2   2.0000     -19.132394      -520.6189
   3   2.0000     -19.123757      -520.3839
   4   2.0000     -14.462408      -393.5421
   5   2.0000     -14.461957      -393.5299
   6   2.0000     -10.408008      -283.2163
   7   2.0000     -10.309592      -280.5383
   8   2.0000     -10.287835      -279.9462
   9   2.0000     -10.259122      -279.1649
  10   2.0000     -10.246293      -278.8158
  11   2.0000     -10.242548      -278.7139
  12   2.0000     -10.241342      -278.6811
  13   2.0000      -8.116671      -220.8658
  14   2.0000      -6.081135      -165.4761
  15   2.0000      -6.080662      -165.4632
  16   2.0000      -6.079328      -165.4269
  17   2.0000      -1.166305       -31.7368
  18   2.0000      -1.126977       -30.6666
  19   2.0000      -1.028079       -27.9755
  20   2.0000      -1.024883       -27.8885
  21   2.0000      -1.020877       -27.7795
  22   2.0000      -0.932337       -25.3702
  23   2.0000      -0.885302       -24.0903
  24   2.0000      -0.836942       -22.7744
  25   2.0000      -0.782228       -21.2855
  26   2.0000      -0.750610       -20.4251
  27   2.0000      -0.716147       -19.4873
  28   2.0000      -0.677377       -18.4324
  29   2.0000      -0.668130       -18.1808
  30   2.0000      -0.657434       -17.8897
  31   2.0000      -0.610705       -16.6181
  32   2.0000      -0.597216       -16.2511
  33   2.0000      -0.589677       -16.0459
  34   2.0000      -0.569245       -15.4899
  35   2.0000      -0.543415       -14.7871
  36   2.0000      -0.537165       -14.6170
  37   2.0000      -0.517539       -14.0830
  38   2.0000      -0.504742       -13.7347
  39   2.0000      -0.502171       -13.6648
  40   2.0000      -0.496763       -13.5176
  41   2.0000      -0.484758       -13.1909
  42   2.0000      -0.475244       -12.9321
  43   2.0000      -0.453301       -12.3349
  44   2.0000      -0.445412       -12.1203
  45   2.0000      -0.440893       -11.9973
  46   2.0000      -0.413351       -11.2479
  47   2.0000      -0.405387       -11.0311
  48   2.0000      -0.392326       -10.6757
  49   2.0000      -0.391007       -10.6398
  50   2.0000      -0.375611       -10.2209
  51   2.0000      -0.373241       -10.1564
  52   2.0000      -0.336346        -9.1524
  53   2.0000      -0.329940        -8.9781
  54   2.0000      -0.320392        -8.7183
  55   2.0000      -0.292910        -7.9705
  56   0.0000      -0.016366        -0.4453
  57   0.0000       0.003212         0.0874
  58   0.0000       0.019997         0.5441
  59   0.0000       0.031898         0.8680
  60   0.0000       0.038901         1.0586

MULLIKEN ATOMIC CHARGES
-----------------------
   0 C :   -0.563803
   1 C :   -0.630235
   2 C :   -0.906190
   3 H :    0.372075
   4 H :    0.344359
   5 S :    1.315963
   6 C :    0.372867
   7 N :   -0.309216
   8 N :   -0.301359
   9 H :    0.248994
  10 H :    0.286752
  11 H :    0.235840
  12 H :    0.330985
  13 O :   -0.866434
  14 O :   -0.645712
  15 C :   -0.675168
  16 C :   -0.401980
  17 H :    0.325132
  18 H :    0.311297
  19 C :   -0.526497
  20 H :    0.369182
  21 H :    0.316314
  22 O :   -0.794055
  23 H :    0.347179
  24 H :    0.329624
  25 H :    0.231609
  26 H :    0.293714
  27 H :    0.304811
  28 H :    0.283952
Sum of atomic charges:    0.0000000

LOEWDIN ATOMIC CHARGES
----------------------
   0 C :   -0.104084
   1 C :   -0.223530
   2 C :   -0.239957
   3 H :    0.092688
   4 H :    0.096025
   5 S :    0.439903
   6 C :   -0.381897
   7 N :    0.209394
   8 N :    0.222536
   9 H :    0.137038
  10 H :    0.096682
  11 H :    0.137953
  12 H :    0.097765
  13 O :   -0.411899
  14 O :   -0.327929
  15 C :   -0.181360
  16 C :   -0.208856
  17 H :    0.113788
  18 H :    0.113640
  19 C :   -0.206244
  20 H :    0.108314
  21 H :    0.116455
  22 O :   -0.366938
  23 H :    0.095388
  24 H :    0.123420
  25 H :    0.082364
  26 H :    0.119877
  27 H :    0.121058
  28 H :    0.128405

  Mayer bond orders larger than 0.100000
B(  0-C ,  6-C ) :   0.7900 B(  0-C , 15-C ) :   0.7239 B(  0-C , 19-C ) :  -0.1472
B(  0-C , 27-H ) :   0.9769 B(  0-C , 28-H ) :   1.0071 B(  1-C ,  2-C ) :   0.7132
B(  1-C , 16-C ) :   0.8599 B(  1-C , 17-H ) :   0.9193 B(  1-C , 18-H ) :   0.9464
B(  1-C , 19-C ) :   0.1081 B(  2-C ,  3-H ) :   0.8722 B(  2-C ,  4-H ) :   0.9730
B(  2-C ,  5-S ) :   0.9076 B(  2-C , 13-O ) :   0.1695 B(  2-C , 14-O ) :   0.1728
B(  5-S , 13-O ) :   1.4185 B(  5-S , 14-O ) :   1.3955 B(  5-S , 22-O ) :   1.3415
B(  6-C ,  7-N ) :   1.2769 B(  6-C ,  8-N ) :   1.3902 B(  6-C , 13-O ) :  -0.1051
B(  7-N , 11-H ) :   0.8920 B(  7-N , 12-H ) :   0.8375 B(  8-N ,  9-H ) :   0.8765
B(  8-N , 10-H ) :   0.8358 B( 13-O , 22-O ) :   0.1109 B( 15-C , 16-C ) :   0.1244
B( 15-C , 19-C ) :   0.7308 B( 15-C , 20-H ) :   0.8960 B( 15-C , 21-H ) :   0.9390
B( 16-C , 19-C ) :   0.4265 B( 16-C , 25-H ) :   1.0898 B( 16-C , 26-H ) :   0.9348
B( 19-C , 23-H ) :   1.0538 B( 19-C , 24-H ) :   0.9229 B( 19-C , 25-H ) :  -0.1179

FINAL SINGLE POINT ENERGY     -1009.760884690731

DIPOLE MOMENT
-------------
                                X             Y             Z
Electronic contribution:      2.74980      -6.26187     -13.27742
Nuclear contribution   :     -1.90023       6.18953      17.82209
                        -----------------------------------------
Total Dipole Moment    :      0.84957      -0.07234       4.54467
                        -----------------------------------------
Magnitude (a.u.)       :      4.62397
Magnitude (Debye)      :     11.75319

Rotational constants in cm-1:     0.036337     0.018755     0.015005
Rotational constants in MHz :  1089.341704   562.266628   449.834770

                             ****ORCA TERMINATED NORMALLY****
TOTAL RUN TIME: 0 days 0 hours 7 minutes 46 seconds 894 msec
