                         Program Version 5.0.0 -  RELEASE  -
|  1> !CAM-B3LYP RIJCOSX def2-TZVPD def2/J TightSCF
|  2> *xyz 0 1
|  3> C          0.70466        1.44313       -4.50363
|  4> C          1.72854        1.42432       -5.63944
|  5> H          2.64672        1.95379       -5.38105
|  6> H          1.29992        1.93061       -6.50361
|  7> S          2.25263       -0.18811       -6.27184
|  8> F          3.56261       -0.44446       -5.63155
|  9> O          2.34494       -0.03374       -7.69650
| 10> O          1.26606       -1.15918       -5.80536
| 11> H         -0.17385        0.91270       -4.80656
| 12> H          0.44778        2.45562       -4.27173
| 13> H          1.12367        0.97423       -3.63791
| 14> *
| 15>
| 16> %MaxCore 64000
| 17>
| 18> %pal nprocs 4
| 19> end
| 20>
| 21> %scf
| 22>   MaxIter 150
| 23> end
| 24>
| 25>
| 26>                          ****END OF INPUT****

CARTESIAN COORDINATES (ANGSTROEM)
---------------------------------
  C      0.704660    1.443130   -4.503630
  C      1.728540    1.424320   -5.639440
  H      2.646720    1.953790   -5.381050
  H      1.299920    1.930610   -6.503610
  S      2.252630   -0.188110   -6.271840
  F      3.562610   -0.444460   -5.631550
  O      2.344940   -0.033740   -7.696500
  O      1.266060   -1.159180   -5.805360
  H     -0.173850    0.912700   -4.806560
  H      0.447780    2.455620   -4.271730
  H      1.123670    0.974230   -3.637910

 Total Charge           Charge          ....    0
 Multiplicity           Mult            ....    1
 Number of Electrons    NEL             ....   58
 Basis Dimension        Dim             ....  285

ORBITAL ENERGIES
----------------

  NO   OCC          E(Eh)            E(eV)
   0   2.0000     -89.179218     -2426.6899
   1   2.0000     -24.861405      -676.5132
   2   2.0000     -19.217307      -522.9295
   3   2.0000     -19.209784      -522.7248
   4   2.0000     -10.307743      -280.4880
   5   2.0000     -10.262757      -279.2638
   6   2.0000      -8.223126      -223.7626
   7   2.0000      -6.191074      -168.4677
   8   2.0000      -6.184688      -168.2939
   9   2.0000      -6.184022      -168.2758
  10   2.0000      -1.438767       -39.1508
  11   2.0000      -1.198385       -32.6097
  12   2.0000      -1.103543       -30.0289
  13   2.0000      -0.905938       -24.6518
  14   2.0000      -0.805805       -21.9271
  15   2.0000      -0.749824       -20.4037
  16   2.0000      -0.653984       -17.7958
  17   2.0000      -0.642141       -17.4736
  18   2.0000      -0.626321       -17.0431
  19   2.0000      -0.565850       -15.3976
  20   2.0000      -0.553783       -15.0692
  21   2.0000      -0.527483       -14.3535
  22   2.0000      -0.502079       -13.6623
  23   2.0000      -0.472619       -12.8606
  24   2.0000      -0.470533       -12.8038
  25   2.0000      -0.453501       -12.3404
  26   2.0000      -0.406181       -11.0527
  27   2.0000      -0.400117       -10.8877
  28   2.0000      -0.387576       -10.5465
  29   0.0000       0.015989         0.4351
  30   0.0000       0.036840         1.0025
  31   0.0000       0.043436         1.1820
  32   0.0000       0.046758         1.2724
  33   0.0000       0.069829         1.9001

MULLIKEN ATOMIC CHARGES
-----------------------
   0 C :   -1.064457
   1 C :   -0.497515
   2 H :    0.377312
   3 H :    0.327459
   4 S :    1.173360
   5 F :   -0.170167
   6 O :   -0.562608
   7 O :   -0.580187
   8 H :    0.326891
   9 H :    0.351111
  10 H :    0.318801
Sum of atomic charges:    0.0000000

LOEWDIN ATOMIC CHARGES
----------------------
   0 C :   -0.110186
   1 C :   -0.271188
   2 H :    0.097952
   3 H :    0.101109
   4 S :    0.607856
   5 F :   -0.085074
   6 O :   -0.274671
   7 O :   -0.288018
   8 H :    0.073219
   9 H :    0.074464
  10 H :    0.074537

  Mayer bond orders larger than 0.100000
B(  0-C ,  1-C ) :   0.5823 B(  0-C ,  8-H ) :   0.9720 B(  0-C ,  9-H ) :   0.9250
B(  0-C , 10-H ) :   0.9477 B(  1-C ,  2-H ) :   0.8655 B(  1-C ,  3-H ) :   0.9451
B(  1-C ,  4-S ) :   0.9042 B(  4-S ,  5-F ) :   0.9857 B(  4-S ,  6-O ) :   1.7028
B(  4-S ,  7-O ) :   1.6741

FINAL SINGLE POINT ENERGY      -727.738830591616

DIPOLE MOMENT
-------------
                                X             Y             Z
Electronic contribution:      6.30044      -6.45460      -3.68517
Nuclear contribution   :     -6.09914       7.80989       4.64238
                        -----------------------------------------
Total Dipole Moment    :      0.20131       1.35529       0.95721
                        -----------------------------------------
Magnitude (a.u.)       :      1.67141
Magnitude (Debye)      :      4.24838

Rotational constants in cm-1:     0.154372     0.078826     0.078033
Rotational constants in MHz :  4627.943144  2363.154585  2339.382767

                             ****ORCA TERMINATED NORMALLY****
TOTAL RUN TIME: 0 days 0 hours 1 minutes 14 seconds 225 msec
