                         Program Version 5.0.0 -  RELEASE  -
|  1> !CAM-B3LYP RIJCOSX def2-TZVPD def2/J TightSCF
|  2> *xyz 0 1
|  3> C          2.91632       -1.24259       -1.54313
|  4> C          3.46659       -1.59097       -2.88908
|  5> C          4.65227       -1.14316       -3.25969
|  6> N          2.75226       -2.29204       -3.72803
|  7> H          1.77836       -2.48960       -3.51274
|  8> H          2.94861       -2.20854       -4.71681
|  9> H          5.14672       -0.51251       -2.63385
| 10> H          4.78303       -1.00720       -4.25350
| 11> C          2.80408        0.29070       -1.35924
| 12> H          1.94047       -1.71653       -1.44116
| 13> H          3.55857       -1.66343       -0.76637
| 14> H          2.17393        0.69633       -2.12297
| 15> H          3.77707        0.73043       -1.42880
| 16> H          2.38369        0.50492       -0.39889
| 17> *
| 18>
| 19> %MaxCore 64000
| 20>
| 21> %pal nprocs 4
| 22> end
| 23>
| 24> %scf
| 25>   MaxIter 150
| 26> end
| 27>
| 28>
| 29>                          ****END OF INPUT****

CARTESIAN COORDINATES (ANGSTROEM)
---------------------------------
  C      2.916320   -1.242590   -1.543130
  C      3.466590   -1.590970   -2.889080
  C      4.652270   -1.143160   -3.259690
  N      2.752260   -2.292040   -3.728030
  H      1.778360   -2.489600   -3.512740
  H      2.948610   -2.208540   -4.716810
  H      5.146720   -0.512510   -2.633850
  H      4.783030   -1.007200   -4.253500
  C      2.804080    0.290700   -1.359240
  H      1.940470   -1.716530   -1.441160
  H      3.558570   -1.663430   -0.766370
  H      2.173930    0.696330   -2.122970
  H      3.777070    0.730430   -1.428800
  H      2.383690    0.504920   -0.398890

 Total Charge           Charge          ....    0
 Multiplicity           Mult            ....    1
 Number of Electrons    NEL             ....   40
 Basis Dimension        Dim             ....  266

ORBITAL ENERGIES
----------------

  NO   OCC          E(Eh)            E(eV)
   0   2.0000     -14.392844      -391.6492
   1   2.0000     -10.266155      -279.3563
   2   2.0000     -10.246730      -278.8277
   3   2.0000     -10.229529      -278.3596
   4   2.0000     -10.170622      -276.7567
   5   2.0000      -1.021898       -27.8073
   6   2.0000      -0.865337       -23.5470
   7   2.0000      -0.793960       -21.6047
   8   2.0000      -0.723754       -19.6943
   9   2.0000      -0.639964       -17.4143
  10   2.0000      -0.594614       -16.1803
  11   2.0000      -0.551902       -15.0180
  12   2.0000      -0.520891       -14.1742
  13   2.0000      -0.480181       -13.0664
  14   2.0000      -0.458849       -12.4859
  15   2.0000      -0.445211       -12.1148
  16   2.0000      -0.423066       -11.5122
  17   2.0000      -0.410185       -11.1617
  18   2.0000      -0.394097       -10.7239
  19   2.0000      -0.249498        -6.7892
  20   0.0000       0.030451         0.8286
  21   0.0000       0.052192         1.4202
  22   0.0000       0.058697         1.5972
  23   0.0000       0.067557         1.8383
  24   0.0000       0.082071         2.2333

MULLIKEN ATOMIC CHARGES
-----------------------
   0 C :   -0.387875
   1 C :    0.453877
   2 C :   -1.003980
   3 N :   -0.362659
   4 H :    0.195645
   5 H :    0.173597
   6 H :    0.306908
   7 H :    0.253523
   8 C :   -1.072646
   9 H :    0.274944
  10 H :    0.253826
  11 H :    0.301654
  12 H :    0.311584
  13 H :    0.301602
Sum of atomic charges:    0.0000000

LOEWDIN ATOMIC CHARGES
----------------------
   0 C :   -0.189621
   1 C :   -0.504565
   2 C :    0.008718
   3 N :    0.101753
   4 H :    0.105883
   5 H :    0.111292
   6 H :    0.020679
   7 H :    0.023323
   8 C :   -0.088177
   9 H :    0.100837
  10 H :    0.116285
  11 H :    0.072075
  12 H :    0.059573
  13 H :    0.061946

  Mayer bond orders larger than 0.100000
B(  0-C ,  1-C ) :   0.6572 B(  0-C ,  8-C ) :   0.5774 B(  0-C ,  9-H ) :   1.0380
B(  0-C , 10-H ) :   0.9697 B(  1-C ,  2-C ) :   1.4316 B(  1-C ,  3-N ) :   1.0612
B(  1-C ,  7-H ) :  -0.1046 B(  1-C ,  9-H ) :  -0.1319 B(  2-C ,  3-N ) :   0.1059
B(  2-C ,  6-H ) :   0.9319 B(  2-C ,  7-H ) :   1.0730 B(  3-N ,  4-H ) :   0.9837
B(  3-N ,  5-H ) :   0.9747 B(  8-C , 11-H ) :   0.9689 B(  8-C , 12-H ) :   0.9700
B(  8-C , 13-H ) :   0.9710

FINAL SINGLE POINT ENERGY      -212.515341766910

DIPOLE MOMENT
-------------
                                X             Y             Z
Electronic contribution:      0.09440      -2.71736      -1.80076
Nuclear contribution   :     -0.99366       2.78648       1.68526
                        -----------------------------------------
Total Dipole Moment    :     -0.89925       0.06912      -0.11550
                        -----------------------------------------
Magnitude (a.u.)       :      0.90927
Magnitude (Debye)      :      2.31119

Rotational constants in cm-1:     0.282898     0.128664     0.101801
Rotational constants in MHz :  8481.061354  3857.240210  3051.924245

                             ****ORCA TERMINATED NORMALLY****
TOTAL RUN TIME: 0 days 0 hours 1 minutes 17 seconds 158 msec
