                         Program Version 5.0.0 -  RELEASE  -
|  1> !CAM-B3LYP RIJCOSX def2-TZVPD def2/J TightSCF
|  2> *xyz 0 1
|  3> C          0.70466        1.44313       -4.50363
|  4> C          1.72854        1.42432       -5.63944
|  5> H          2.64672        1.95379       -5.38105
|  6> H          1.29992        1.93061       -6.50361
|  7> S          2.25263       -0.18811       -6.27184
|  8> O          3.56261       -0.44446       -5.63155
|  9> F          2.34494       -0.03374       -7.69650
| 10> O          1.26606       -1.15918       -5.80536
| 11> H         -0.17385        0.91270       -4.80656
| 12> H          0.44778        2.45562       -4.27173
| 13> H          1.12367        0.97423       -3.63791
| 14> *
| 15>
| 16> %MaxCore 64000
| 17>
| 18> %pal nprocs 4
| 19> end
| 20>
| 21> %scf
| 22>   MaxIter 150
| 23> end
| 24>
| 25>
| 26>                          ****END OF INPUT****

CARTESIAN COORDINATES (ANGSTROEM)
---------------------------------
  C      0.704660    1.443130   -4.503630
  C      1.728540    1.424320   -5.639440
  H      2.646720    1.953790   -5.381050
  H      1.299920    1.930610   -6.503610
  S      2.252630   -0.188110   -6.271840
  O      3.562610   -0.444460   -5.631550
  F      2.344940   -0.033740   -7.696500
  O      1.266060   -1.159180   -5.805360
  H     -0.173850    0.912700   -4.806560
  H      0.447780    2.455620   -4.271730
  H      1.123670    0.974230   -3.637910

 Total Charge           Charge          ....    0
 Multiplicity           Mult            ....    1
 Number of Electrons    NEL             ....   58
 Basis Dimension        Dim             ....  285

ORBITAL ENERGIES
----------------

  NO   OCC          E(Eh)            E(eV)
   0   2.0000     -89.181585     -2426.7543
   1   2.0000     -24.884951      -677.1539
   2   2.0000     -19.210210      -522.7364
   3   2.0000     -19.201978      -522.5124
   4   2.0000     -10.308795      -280.5166
   5   2.0000     -10.263351      -279.2800
   6   2.0000      -8.225500      -223.8272
   7   2.0000      -6.193310      -168.5285
   8   2.0000      -6.186919      -168.3546
   9   2.0000      -6.186501      -168.3433
  10   2.0000      -1.476771       -40.1850
  11   2.0000      -1.184083       -32.2205
  12   2.0000      -1.083765       -29.4907
  13   2.0000      -0.906847       -24.6766
  14   2.0000      -0.820843       -22.3363
  15   2.0000      -0.758280       -20.6339
  16   2.0000      -0.670837       -18.2544
  17   2.0000      -0.668805       -18.1991
  18   2.0000      -0.630786       -17.1646
  19   2.0000      -0.566484       -15.4148
  20   2.0000      -0.554743       -15.0953
  21   2.0000      -0.515495       -14.0273
  22   2.0000      -0.499126       -13.5819
  23   2.0000      -0.475589       -12.9414
  24   2.0000      -0.459409       -12.5012
  25   2.0000      -0.453007       -12.3269
  26   2.0000      -0.399301       -10.8655
  27   2.0000      -0.389273       -10.5927
  28   2.0000      -0.371910       -10.1202
  29   0.0000       0.014765         0.4018
  30   0.0000       0.033164         0.9024
  31   0.0000       0.043673         1.1884
  32   0.0000       0.047424         1.2905
  33   0.0000       0.069197         1.8829

MULLIKEN ATOMIC CHARGES
-----------------------
   0 C :   -1.093862
   1 C :   -0.487898
   2 H :    0.346117
   3 H :    0.354093
   4 S :    1.166500
   5 O :   -0.589970
   6 F :   -0.126421
   7 O :   -0.576707
   8 H :    0.328532
   9 H :    0.351823
  10 H :    0.327794
Sum of atomic charges:   -0.0000000

LOEWDIN ATOMIC CHARGES
----------------------
   0 C :   -0.104713
   1 C :   -0.275757
   2 H :    0.101453
   3 H :    0.091813
   4 S :    0.607065
   5 O :   -0.308412
   6 F :   -0.049621
   7 O :   -0.288719
   8 H :    0.072042
   9 H :    0.075429
  10 H :    0.079420

  Mayer bond orders larger than 0.100000
B(  0-C ,  1-C ) :   0.6021 B(  0-C ,  8-H ) :   0.9554 B(  0-C ,  9-H ) :   0.9155
B(  0-C , 10-H ) :   0.9574 B(  1-C ,  2-H ) :   0.9392 B(  1-C ,  3-H ) :   0.8757
B(  1-C ,  4-S ) :   0.9030 B(  4-S ,  5-O ) :   1.6671 B(  4-S ,  6-F ) :   1.0288
B(  4-S ,  7-O ) :   1.6794

FINAL SINGLE POINT ENERGY      -727.719235165676

DIPOLE MOMENT
-------------
                                X             Y             Z
Electronic contribution:      4.19362      -5.75490      -7.21034
Nuclear contribution   :     -4.83029       7.38191       6.79413
                        -----------------------------------------
Total Dipole Moment    :     -0.63666       1.62701      -0.41622
                        -----------------------------------------
Magnitude (a.u.)       :      1.79603
Magnitude (Debye)      :      4.56516

Rotational constants in cm-1:     0.156575     0.079070     0.076729
Rotational constants in MHz :  4694.010604  2370.444114  2300.280155

                             ****ORCA TERMINATED NORMALLY****
TOTAL RUN TIME: 0 days 0 hours 1 minutes 9 seconds 58 msec
