                         Program Version 5.0.0 -  RELEASE  -
|  1> !CAM-B3LYP RIJCOSX def2-TZVPD def2/J TightSCF
|  2> *xyz 0 1
|  3> C          2.91632       -1.24259       -1.54313
|  4> C          3.46659       -1.59097       -2.88908
|  5> N          4.65227       -1.14316       -3.25969
|  6> C          2.75226       -2.29204       -3.72803
|  7> H          1.77836       -2.48960       -3.51274
|  8> H          2.94861       -2.20854       -4.71681
|  9> H          5.14672       -0.51251       -2.63385
| 10> H          4.78303       -1.00720       -4.25350
| 11> C          2.80408        0.29070       -1.35924
| 12> H          1.94047       -1.71653       -1.44116
| 13> H          3.55857       -1.66343       -0.76637
| 14> H          2.17393        0.69633       -2.12297
| 15> H          3.77707        0.73043       -1.42880
| 16> H          2.38369        0.50492       -0.39889
| 17> *
| 18>
| 19> %MaxCore 64000
| 20>
| 21> %pal nprocs 4
| 22> end
| 23>
| 24> %scf
| 25>   MaxIter 150
| 26> end
| 27>
| 28>
| 29>                          ****END OF INPUT****

CARTESIAN COORDINATES (ANGSTROEM)
---------------------------------
  C      2.916320   -1.242590   -1.543130
  C      3.466590   -1.590970   -2.889080
  N      4.652270   -1.143160   -3.259690
  C      2.752260   -2.292040   -3.728030
  H      1.778360   -2.489600   -3.512740
  H      2.948610   -2.208540   -4.716810
  H      5.146720   -0.512510   -2.633850
  H      4.783030   -1.007200   -4.253500
  C      2.804080    0.290700   -1.359240
  H      1.940470   -1.716530   -1.441160
  H      3.558570   -1.663430   -0.766370
  H      2.173930    0.696330   -2.122970
  H      3.777070    0.730430   -1.428800
  H      2.383690    0.504920   -0.398890

 Total Charge           Charge          ....    0
 Multiplicity           Mult            ....    1
 Number of Electrons    NEL             ....   40
 Basis Dimension        Dim             ....  266

ORBITAL ENERGIES
----------------

  NO   OCC          E(Eh)            E(eV)
   0   2.0000     -14.388744      -391.5376
   1   2.0000     -10.264569      -279.3131
   2   2.0000     -10.245098      -278.7833
   3   2.0000     -10.234386      -278.4918
   4   2.0000     -10.174588      -276.8646
   5   2.0000      -1.016674       -27.6651
   6   2.0000      -0.862645       -23.4738
   7   2.0000      -0.805522       -21.9194
   8   2.0000      -0.716073       -19.4853
   9   2.0000      -0.639533       -17.4026
  10   2.0000      -0.598837       -16.2952
  11   2.0000      -0.548596       -14.9281
  12   2.0000      -0.507415       -13.8075
  13   2.0000      -0.504977       -13.7411
  14   2.0000      -0.456768       -12.4293
  15   2.0000      -0.449200       -12.2234
  16   2.0000      -0.424129       -11.5411
  17   2.0000      -0.408689       -11.1210
  18   2.0000      -0.388524       -10.5723
  19   2.0000      -0.256614        -6.9828
  20   0.0000       0.028956         0.7879
  21   0.0000       0.054086         1.4718
  22   0.0000       0.059778         1.6266
  23   0.0000       0.067362         1.8330
  24   0.0000       0.081030         2.2049

MULLIKEN ATOMIC CHARGES
-----------------------
   0 C :   -0.413986
   1 C :    0.531594
   2 N :   -0.406465
   3 C :   -0.968016
   4 H :    0.251851
   5 H :    0.277001
   6 H :    0.189346
   7 H :    0.172310
   8 C :   -1.070525
   9 H :    0.238568
  10 H :    0.277267
  11 H :    0.307484
  12 H :    0.306306
  13 H :    0.307266
Sum of atomic charges:   -0.0000000

LOEWDIN ATOMIC CHARGES
----------------------
   0 C :   -0.192508
   1 C :   -0.505844
   2 N :    0.101579
   3 C :    0.014462
   4 H :    0.024349
   5 H :    0.024294
   6 H :    0.102082
   7 H :    0.110990
   8 C :   -0.089410
   9 H :    0.107738
  10 H :    0.112265
  11 H :    0.073216
  12 H :    0.053171
  13 H :    0.063615

  Mayer bond orders larger than 0.100000
B(  0-C ,  1-C ) :   0.8071 B(  0-C ,  8-C ) :   0.5976 B(  0-C ,  9-H ) :   0.9836
B(  0-C , 10-H ) :   0.9430 B(  1-C ,  2-N ) :   0.9430 B(  1-C ,  3-C ) :   1.4081
B(  1-C ,  5-H ) :  -0.1056 B(  2-N ,  6-H ) :   0.9592 B(  2-N ,  7-H ) :   0.9889
B(  3-C ,  4-H ) :   1.0119 B(  3-C ,  5-H ) :   1.0425 B(  8-C , 11-H ) :   1.0063
B(  8-C , 12-H ) :   0.9327 B(  8-C , 13-H ) :   0.9858

FINAL SINGLE POINT ENERGY      -212.519277406023

DIPOLE MOMENT
-------------
                                X             Y             Z
Electronic contribution:      1.71516      -1.73076      -1.39907
Nuclear contribution   :     -1.43372       2.52039       1.57679
                        -----------------------------------------
Total Dipole Moment    :      0.28145       0.78962       0.17772
                        -----------------------------------------
Magnitude (a.u.)       :      0.85691
Magnitude (Debye)      :      2.17810

Rotational constants in cm-1:     0.274962     0.131786     0.102554
Rotational constants in MHz :  8243.150005  3950.846092  3074.493018

                             ****ORCA TERMINATED NORMALLY****
TOTAL RUN TIME: 0 days 0 hours 1 minutes 17 seconds 495 msec
