                         Program Version 5.0.0 -  RELEASE  -
|  1> !CAM-B3LYP RIJCOSX def2-TZVPD def2/J TightSCF
|  2> *xyz 0 1
|  3> C          0.70466        1.44313       -4.50363
|  4> C          1.72854        1.42432       -5.63944
|  5> H          2.64672        1.95379       -5.38105
|  6> H          1.29992        1.93061       -6.50361
|  7> S          2.25263       -0.18811       -6.27184
|  8> O          3.56261       -0.44446       -5.63155
|  9> O          2.34494       -0.03374       -7.69650
| 10> F          1.26606       -1.15918       -5.80536
| 11> H         -0.17385        0.91270       -4.80656
| 12> H          0.44778        2.45562       -4.27173
| 13> H          1.12367        0.97423       -3.63791
| 14> *
| 15>
| 16> %MaxCore 64000
| 17>
| 18> %pal nprocs 4
| 19> end
| 20>
| 21> %scf
| 22>   MaxIter 150
| 23> end
| 24>
| 25>
| 26>                          ****END OF INPUT****

CARTESIAN COORDINATES (ANGSTROEM)
---------------------------------
  C      0.704660    1.443130   -4.503630
  C      1.728540    1.424320   -5.639440
  H      2.646720    1.953790   -5.381050
  H      1.299920    1.930610   -6.503610
  S      2.252630   -0.188110   -6.271840
  O      3.562610   -0.444460   -5.631550
  O      2.344940   -0.033740   -7.696500
  F      1.266060   -1.159180   -5.805360
  H     -0.173850    0.912700   -4.806560
  H      0.447780    2.455620   -4.271730
  H      1.123670    0.974230   -3.637910

 Total Charge           Charge          ....    0
 Multiplicity           Mult            ....    1
 Number of Electrons    NEL             ....   58
 Basis Dimension        Dim             ....  285

ORBITAL ENERGIES
----------------

  NO   OCC          E(Eh)            E(eV)
   0   2.0000     -89.179986     -2426.7108
   1   2.0000     -24.872265      -676.8087
   2   2.0000     -19.217436      -522.9330
   3   2.0000     -19.201448      -522.4980
   4   2.0000     -10.307665      -280.4858
   5   2.0000     -10.270651      -279.4786
   6   2.0000      -8.223933      -223.7846
   7   2.0000      -6.191943      -168.4913
   8   2.0000      -6.185210      -168.3081
   9   2.0000      -6.184977      -168.3018
  10   2.0000      -1.455393       -39.6033
  11   2.0000      -1.194208       -32.4961
  12   2.0000      -1.091851       -29.7108
  13   2.0000      -0.910002       -24.7624
  14   2.0000      -0.809559       -22.0292
  15   2.0000      -0.759062       -20.6551
  16   2.0000      -0.669694       -18.2233
  17   2.0000      -0.654828       -17.8188
  18   2.0000      -0.619904       -16.8684
  19   2.0000      -0.570159       -15.5148
  20   2.0000      -0.547804       -14.9065
  21   2.0000      -0.521750       -14.1975
  22   2.0000      -0.515139       -14.0176
  23   2.0000      -0.483144       -13.1470
  24   2.0000      -0.465698       -12.6723
  25   2.0000      -0.456410       -12.4196
  26   2.0000      -0.404491       -11.0068
  27   2.0000      -0.390525       -10.6267
  28   2.0000      -0.378337       -10.2951
  29   0.0000       0.012506         0.3403
  30   0.0000       0.038829         1.0566
  31   0.0000       0.042221         1.1489
  32   0.0000       0.046658         1.2696
  33   0.0000       0.071378         1.9423

MULLIKEN ATOMIC CHARGES
-----------------------
   0 C :   -1.145983
   1 C :   -0.416149
   2 H :    0.336404
   3 H :    0.340622
   4 S :    1.172881
   5 O :   -0.596474
   6 O :   -0.556382
   7 F :   -0.161833
   8 H :    0.349895
   9 H :    0.337059
  10 H :    0.339961
Sum of atomic charges:    0.0000000

LOEWDIN ATOMIC CHARGES
----------------------
   0 C :   -0.112588
   1 C :   -0.267884
   2 H :    0.107500
   3 H :    0.097314
   4 S :    0.605720
   5 O :   -0.309716
   6 O :   -0.273975
   7 F :   -0.066402
   8 H :    0.069237
   9 H :    0.075188
  10 H :    0.075605

  Mayer bond orders larger than 0.100000
B(  0-C ,  1-C ) :   0.5322 B(  0-C ,  8-H ) :   0.9247 B(  0-C ,  9-H ) :   0.9460
B(  0-C , 10-H ) :   0.9534 B(  1-C ,  2-H ) :   0.9307 B(  1-C ,  3-H ) :   0.9292
B(  1-C ,  4-S ) :   0.8895 B(  4-S ,  5-O ) :   1.6652 B(  4-S ,  6-O ) :   1.7072
B(  4-S ,  7-F ) :   1.0041

FINAL SINGLE POINT ENERGY      -727.729152554901

DIPOLE MOMENT
-------------
                                X             Y             Z
Electronic contribution:      2.35544      -7.63677      -3.98298
Nuclear contribution   :     -3.70606       8.55465       4.82350
                        -----------------------------------------
Total Dipole Moment    :     -1.35061       0.91788       0.84052
                        -----------------------------------------
Magnitude (a.u.)       :      1.83661
Magnitude (Debye)      :      4.66830

Rotational constants in cm-1:     0.153201     0.080978     0.077494
Rotational constants in MHz :  4592.852844  2427.650814  2323.207507

                             ****ORCA TERMINATED NORMALLY****
TOTAL RUN TIME: 0 days 0 hours 1 minutes 14 seconds 209 msec
