                         Program Version 5.0.0 -  RELEASE  -
|  1> !CAM-B3LYP RIJCOSX def2-TZVPD def2/J TightSCF xyzfile
|  2>
|  3> *xyzfile 0 1 D1.xyz
|  4>
|  5> %MaxCore 64000
|  6>
|  7> %pal nprocs 4
|  8> end
|  9>
| 10> %scf
| 11>   MaxIter 150
| 12> end
| 13>
| 14>
| 15>                          ****END OF INPUT****

CARTESIAN COORDINATES (ANGSTROEM)
---------------------------------
  C      2.916324   -1.242589   -1.543125
  C      0.704661    1.443129   -4.503630
  C      1.728539    1.424320   -5.639443
  H      2.646718    1.953794   -5.381054
  H      1.299916    1.930613   -6.503614
  S      2.252625   -0.188115   -6.271840
  C      3.466585   -1.590971   -2.889082
  C      4.652275   -1.143164   -3.259692
  N      2.752264   -2.292043   -3.728029
  H      1.778364   -2.489604   -3.512738
  H      2.948612   -2.208544   -4.716813
  H      5.146723   -0.512508   -2.633852
  H      4.783030   -1.007203   -4.253498
  F      3.562607   -0.444464   -5.631552
  O      2.344944   -0.033742   -7.696501
  C      2.804084    0.290698   -1.359243
  C      1.052550    0.695659   -3.214915
  H     -0.232483    1.032925   -4.884449
  H      0.511700    2.495794   -4.267966
  C      2.388380    1.093669   -2.597108
  H      3.763425    0.674718   -0.999889
  H      2.094788    0.461222   -0.545756
  O      1.266058   -1.159177   -5.805365
  H      3.167316    1.013242   -3.359430
  H      2.357690    2.149375   -2.310997
  H      1.039284   -0.368429   -3.449329
  H      0.250787    0.865605   -2.488283
  H      1.940472   -1.716529   -1.441161
  H      3.558569   -1.663433   -0.766371

 Total Charge           Charge          ....    0
 Multiplicity           Mult            ....    1
 Number of Electrons    NEL             ....  112
 Basis Dimension        Dim             ....  643

ORBITAL ENERGIES
----------------

  NO   OCC          E(Eh)            E(eV)
   0   2.0000     -89.186597     -2426.8907
   1   2.0000     -24.869747      -676.7402
   2   2.0000     -19.224103      -523.1144
   3   2.0000     -19.219700      -522.9946
   4   2.0000     -14.383995      -391.4084
   5   2.0000     -10.309543      -280.5369
   6   2.0000     -10.273777      -279.5637
   7   2.0000     -10.264640      -279.3151
   8   2.0000     -10.250995      -278.9437
   9   2.0000     -10.248953      -278.8882
  10   2.0000     -10.247546      -278.8499
  11   2.0000     -10.246537      -278.8224
  12   2.0000     -10.167872      -276.6819
  13   2.0000      -8.230934      -223.9751
  14   2.0000      -6.198960      -168.6823
  15   2.0000      -6.192359      -168.5026
  16   2.0000      -6.191767      -168.4865
  17   2.0000      -1.450733       -39.4764
  18   2.0000      -1.207671       -32.8624
  19   2.0000      -1.114289       -30.3214
  20   2.0000      -1.018698       -27.7202
  21   2.0000      -0.926520       -25.2119
  22   2.0000      -0.888825       -24.1861
  23   2.0000      -0.847164       -23.0525
  24   2.0000      -0.815932       -22.2026
  25   2.0000      -0.781081       -21.2543
  26   2.0000      -0.769376       -20.9358
  27   2.0000      -0.714372       -19.4390
  28   2.0000      -0.675945       -18.3934
  29   2.0000      -0.659529       -17.9467
  30   2.0000      -0.650233       -17.6937
  31   2.0000      -0.639051       -17.3895
  32   2.0000      -0.624146       -16.9839
  33   2.0000      -0.588587       -16.0163
  34   2.0000      -0.573878       -15.6160
  35   2.0000      -0.565857       -15.3978
  36   2.0000      -0.551296       -15.0015
  37   2.0000      -0.546306       -14.8657
  38   2.0000      -0.533796       -14.5253
  39   2.0000      -0.515917       -14.0388
  40   2.0000      -0.504509       -13.7284
  41   2.0000      -0.493516       -13.4292
  42   2.0000      -0.472873       -12.8675
  43   2.0000      -0.463163       -12.6033
  44   2.0000      -0.454578       -12.3697
  45   2.0000      -0.450946       -12.2709
  46   2.0000      -0.443241       -12.0612
  47   2.0000      -0.426583       -11.6079
  48   2.0000      -0.420475       -11.4417
  49   2.0000      -0.411458       -11.1964
  50   2.0000      -0.406247       -11.0545
  51   2.0000      -0.396272       -10.7831
  52   2.0000      -0.390866       -10.6360
  53   2.0000      -0.387536       -10.5454
  54   2.0000      -0.381996       -10.3946
  55   2.0000      -0.246216        -6.6999
  56   0.0000       0.017280         0.4702
  57   0.0000       0.029313         0.7977
  58   0.0000       0.034134         0.9288
  59   0.0000       0.034678         0.9436
  60   0.0000       0.052058         1.4166

MULLIKEN ATOMIC CHARGES
-----------------------
   0 C :   -0.721295
   1 C :   -0.588000
   2 C :   -0.883679
   3 H :    0.460209
   4 H :    0.352207
   5 S :    1.213935
   6 C :    0.315436
   7 C :   -1.112600
   8 N :   -0.355110
   9 H :    0.240530
  10 H :    0.164923
  11 H :    0.335449
  12 H :    0.482510
  13 F :   -0.203432
  14 O :   -0.557323
  15 C :   -0.646960
  16 C :   -0.476362
  17 H :    0.324256
  18 H :    0.338941
  19 C :   -0.521107
  20 H :    0.337610
  21 H :    0.319905
  22 O :   -0.655357
  23 H :    0.338652
  24 H :    0.316090
  25 H :    0.283071
  26 H :    0.297321
  27 H :    0.320070
  28 H :    0.280109
Sum of atomic charges:   -0.0000000

LOEWDIN ATOMIC CHARGES
----------------------
   0 C :   -0.133911
   1 C :   -0.215684
   2 C :   -0.210762
   3 H :    0.103682
   4 H :    0.107323
   5 S :    0.634232
   6 C :   -0.493493
   7 C :    0.005612
   8 N :    0.113787
   9 H :    0.111198
  10 H :    0.077224
  11 H :    0.035089
  12 H :    0.010757
  13 F :   -0.110015
  14 O :   -0.259338
  15 C :   -0.185164
  16 C :   -0.205908
  17 H :    0.116262
  18 H :    0.121510
  19 C :   -0.208503
  20 H :    0.109384
  21 H :    0.108946
  22 O :   -0.282197
  23 H :    0.091561
  24 H :    0.119152
  25 H :    0.085796
  26 H :    0.123339
  27 H :    0.109047
  28 H :    0.121071

  Mayer bond orders larger than 0.100000
B(  0-C ,  6-C ) :   0.6529 B(  0-C , 15-C ) :   0.7989 B(  0-C , 27-H ) :   0.9807
B(  0-C , 28-H ) :   0.9909 B(  1-C ,  2-C ) :   0.6993 B(  1-C , 16-C ) :   0.8120
B(  1-C , 17-H ) :   0.9424 B(  1-C , 18-H ) :   0.9266 B(  2-C ,  3-H ) :   0.7781
B(  2-C ,  4-H ) :   0.9586 B(  2-C ,  5-S ) :   0.9142 B(  2-C , 14-O ) :   0.1298
B(  2-C , 19-C ) :   0.1087 B(  5-S , 13-F ) :   1.0730 B(  5-S , 14-O ) :   1.5065
B(  5-S , 22-O ) :   1.5670 B(  6-C ,  7-C ) :   1.5564 B(  6-C ,  8-N ) :   0.8525
B(  6-C , 11-H ) :  -0.1092 B(  6-C , 12-H ) :  -0.1135 B(  6-C , 27-H ) :  -0.1055
B(  7-C , 11-H ) :   1.0327 B(  7-C , 12-H ) :   0.7626 B(  8-N ,  9-H ) :   0.8394
B(  8-N , 10-H ) :   0.9154 B( 15-C , 16-C ) :   0.1156 B( 15-C , 19-C ) :   0.8776
B( 15-C , 20-H ) :   0.9051 B( 15-C , 21-H ) :   0.9306 B( 16-C , 19-C ) :   0.4095
B( 16-C , 23-H ) :  -0.1162 B( 16-C , 25-H ) :   1.1203 B( 16-C , 26-H ) :   0.9132
B( 19-C , 23-H ) :   1.0445 B( 19-C , 24-H ) :   0.9074 B( 19-C , 25-H ) :  -0.1079

FINAL SINGLE POINT ENERGY     -1017.643252429530

DIPOLE MOMENT
-------------
                                X             Y             Z
Electronic contribution:      2.13976      -4.90726     -18.54762
Nuclear contribution   :     -2.89481       6.29550      19.36835
                        -----------------------------------------
Total Dipole Moment    :     -0.75506       1.38824       0.82074
                        -----------------------------------------
Magnitude (a.u.)       :      1.78071
Magnitude (Debye)      :      4.52620

Rotational constants in cm-1:     0.036515     0.018832     0.015081
Rotational constants in MHz :  1094.679513   564.567051   452.109105

                             ****ORCA TERMINATED NORMALLY****
TOTAL RUN TIME: 0 days 0 hours 8 minutes 56 seconds 808 msec
