                         Program Version 5.0.0 -  RELEASE  -
|  1> !CAM-B3LYP RIJCOSX def2-TZVPD def2/J TightSCF xyzfile
|  2>
|  3> *xyzfile 0 1 D2.xyz
|  4>
|  5> %MaxCore 64000
|  6>
|  7> %pal nprocs 4
|  8> end
|  9>
| 10> %scf
| 11>   MaxIter 150
| 12> end
| 13>
| 14>
| 15>                          ****END OF INPUT****

CARTESIAN COORDINATES (ANGSTROEM)
---------------------------------
  C      2.916324   -1.242589   -1.543125
  C      0.704661    1.443129   -4.503630
  C      1.728539    1.424320   -5.639443
  H      2.646718    1.953794   -5.381054
  H      1.299916    1.930613   -6.503614
  S      2.252625   -0.188115   -6.271840
  C      3.466585   -1.590971   -2.889082
  N      4.652275   -1.143164   -3.259692
  C      2.752264   -2.292043   -3.728029
  H      1.778364   -2.489604   -3.512738
  H      2.948612   -2.208544   -4.716813
  H      5.146723   -0.512508   -2.633852
  H      4.783030   -1.007203   -4.253498
  F      3.562607   -0.444464   -5.631552
  O      2.344944   -0.033742   -7.696501
  C      2.804084    0.290698   -1.359243
  C      1.052550    0.695659   -3.214915
  H     -0.232483    1.032925   -4.884449
  H      0.511700    2.495794   -4.267966
  C      2.388380    1.093669   -2.597108
  H      3.763425    0.674718   -0.999889
  H      2.094788    0.461222   -0.545756
  O      1.266058   -1.159177   -5.805365
  H      3.167316    1.013242   -3.359430
  H      2.357690    2.149375   -2.310997
  H      1.039284   -0.368429   -3.449329
  H      0.250787    0.865605   -2.488283
  H      1.940472   -1.716529   -1.441161
  H      3.558569   -1.663433   -0.766371

 Total Charge           Charge          ....    0
 Multiplicity           Mult            ....    1
 Number of Electrons    NEL             ....  112
 Basis Dimension        Dim             ....  643

ORBITAL ENERGIES
----------------

  NO   OCC          E(Eh)            E(eV)
   0   2.0000     -89.180550     -2426.7261
   1   2.0000     -24.867800      -676.6872
   2   2.0000     -19.219177      -522.9804
   3   2.0000     -19.208674      -522.6946
   4   2.0000     -14.386635      -391.4802
   5   2.0000     -10.306183      -280.4455
   6   2.0000     -10.269740      -279.4538
   7   2.0000     -10.260093      -279.1913
   8   2.0000     -10.251784      -278.9652
   9   2.0000     -10.249902      -278.9140
  10   2.0000     -10.245188      -278.7857
  11   2.0000     -10.244947      -278.7792
  12   2.0000     -10.170188      -276.7449
  13   2.0000      -8.224789      -223.8079
  14   2.0000      -6.192981      -168.5196
  15   2.0000      -6.186099      -168.3323
  16   2.0000      -6.185559      -168.3176
  17   2.0000      -1.448378       -39.4124
  18   2.0000      -1.200785       -32.6750
  19   2.0000      -1.105369       -30.0786
  20   2.0000      -1.017537       -27.6886
  21   2.0000      -0.923104       -25.1189
  22   2.0000      -0.886692       -24.1281
  23   2.0000      -0.844946       -22.9922
  24   2.0000      -0.817168       -22.2363
  25   2.0000      -0.790997       -21.5241
  26   2.0000      -0.761954       -20.7338
  27   2.0000      -0.708459       -19.2781
  28   2.0000      -0.674489       -18.3538
  29   2.0000      -0.654254       -17.8032
  30   2.0000      -0.649154       -17.6644
  31   2.0000      -0.634690       -17.2708
  32   2.0000      -0.624420       -16.9913
  33   2.0000      -0.596290       -16.2259
  34   2.0000      -0.567920       -15.4539
  35   2.0000      -0.564952       -15.3731
  36   2.0000      -0.551738       -15.0135
  37   2.0000      -0.538409       -14.6509
  38   2.0000      -0.523976       -14.2581
  39   2.0000      -0.515949       -14.0397
  40   2.0000      -0.507264       -13.8034
  41   2.0000      -0.488138       -13.2829
  42   2.0000      -0.473962       -12.8972
  43   2.0000      -0.461610       -12.5611
  44   2.0000      -0.455602       -12.3976
  45   2.0000      -0.450623       -12.2621
  46   2.0000      -0.435186       -11.8420
  47   2.0000      -0.425371       -11.5749
  48   2.0000      -0.415824       -11.3151
  49   2.0000      -0.402967       -10.9653
  50   2.0000      -0.400904       -10.9091
  51   2.0000      -0.392613       -10.6835
  52   2.0000      -0.389749       -10.6056
  53   2.0000      -0.381732       -10.3875
  54   2.0000      -0.380031       -10.3412
  55   2.0000      -0.253365        -6.8944
  56   0.0000       0.014068         0.3828
  57   0.0000       0.028252         0.7688
  58   0.0000       0.031191         0.8487
  59   0.0000       0.038998         1.0612
  60   0.0000       0.055695         1.5155

MULLIKEN ATOMIC CHARGES
-----------------------
   0 C :   -0.681760
   1 C :   -0.596247
   2 C :   -0.890513
   3 H :    0.447567
   4 H :    0.355077
   5 S :    1.242666
   6 C :    0.336998
   7 N :   -0.343482
   8 C :   -1.333452
   9 H :    0.392221
  10 H :    0.587682
  11 H :    0.218909
  12 H :    0.239647
  13 F :   -0.220846
  14 O :   -0.571025
  15 C :   -0.709991
  16 C :   -0.433840
  17 H :    0.340619
  18 H :    0.334758
  19 C :   -0.446948
  20 H :    0.353608
  21 H :    0.283200
  22 O :   -0.623465
  23 H :    0.296683
  24 H :    0.316964
  25 H :    0.283522
  26 H :    0.283606
  27 H :    0.265627
  28 H :    0.272219
Sum of atomic charges:   -0.0000000

LOEWDIN ATOMIC CHARGES
----------------------
   0 C :   -0.136554
   1 C :   -0.215293
   2 C :   -0.212581
   3 H :    0.100807
   4 H :    0.106789
   5 S :    0.634616
   6 C :   -0.492975
   7 N :    0.109876
   8 C :    0.002539
   9 H :    0.041480
  10 H :    0.006581
  11 H :    0.112834
  12 H :    0.088778
  13 F :   -0.113787
  14 O :   -0.261116
  15 C :   -0.188746
  16 C :   -0.203675
  17 H :    0.117082
  18 H :    0.120218
  19 C :   -0.209541
  20 H :    0.103591
  21 H :    0.110023
  22 O :   -0.272900
  23 H :    0.089606
  24 H :    0.118320
  25 H :    0.088935
  26 H :    0.123532
  27 H :    0.115150
  28 H :    0.116410

  Mayer bond orders larger than 0.100000
B(  0-C ,  6-C ) :   0.7357 B(  0-C , 15-C ) :   0.7558 B(  0-C , 16-C ) :   0.1116
B(  0-C , 19-C ) :  -0.1514 B(  0-C , 27-H ) :   1.0005 B(  0-C , 28-H ) :   0.9952
B(  1-C ,  2-C ) :   0.7078 B(  1-C , 16-C ) :   0.7904 B(  1-C , 17-H ) :   0.9173
B(  1-C , 18-H ) :   0.9355 B(  2-C ,  3-H ) :   0.7876 B(  2-C ,  4-H ) :   0.9567
B(  2-C ,  5-S ) :   0.9156 B(  2-C , 14-O ) :   0.1341 B(  2-C , 19-C ) :   0.1262
B(  5-S , 13-F ) :   1.0923 B(  5-S , 14-O ) :   1.4956 B(  5-S , 22-O ) :   1.6127
B(  6-C ,  7-N ) :   0.8873 B(  6-C ,  8-C ) :   1.5496 B(  6-C ,  9-H ) :  -0.1219
B(  6-C , 10-H ) :  -0.1905 B(  7-N , 11-H ) :   0.8597 B(  7-N , 12-H ) :   0.8717
B(  8-C ,  9-H ) :   0.9499 B(  8-C , 10-H ) :   0.7448 B(  9-H , 10-H ) :   0.1012
B( 15-C , 16-C ) :   0.1261 B( 15-C , 19-C ) :   0.8078 B( 15-C , 20-H ) :   0.9156
B( 15-C , 21-H ) :   0.9547 B( 16-C , 19-C ) :   0.3911 B( 16-C , 23-H ) :  -0.1244
B( 16-C , 25-H ) :   1.1493 B( 16-C , 26-H ) :   0.9152 B( 19-C , 23-H ) :   1.0560
B( 19-C , 24-H ) :   0.9351 B( 19-C , 25-H ) :  -0.1138

FINAL SINGLE POINT ENERGY     -1017.643616338335

DIPOLE MOMENT
-------------
                                X             Y             Z
Electronic contribution:      3.44092      -4.22388     -18.22325
Nuclear contribution   :     -3.13969       6.14743      19.30799
                        -----------------------------------------
Total Dipole Moment    :      0.30123       1.92355       1.08474
                        -----------------------------------------
Magnitude (a.u.)       :      2.22878
Magnitude (Debye)      :      5.66510

Rotational constants in cm-1:     0.036460     0.018762     0.015014
Rotational constants in MHz :  1093.039020   562.475626   450.105862

                             ****ORCA TERMINATED NORMALLY****
TOTAL RUN TIME: 0 days 0 hours 8 minutes 56 seconds 572 msec
