                         Program Version 5.0.0 -  RELEASE  -
|  1> !CAM-B3LYP RIJCOSX def2-TZVPD def2/J TightSCF xyzfile
|  2>
|  3> *xyzfile 0 1 D3.xyz
|  4>
|  5> %MaxCore 64000
|  6>
|  7> %pal nprocs 4
|  8> end
|  9>
| 10> %scf
| 11>   MaxIter 150
| 12> end
| 13>
| 14>
| 15>                          ****END OF INPUT****

CARTESIAN COORDINATES (ANGSTROEM)
---------------------------------
  C      2.916324   -1.242589   -1.543125
  C      0.704661    1.443129   -4.503630
  C      1.728539    1.424320   -5.639443
  H      2.646718    1.953794   -5.381054
  H      1.299916    1.930613   -6.503614
  S      2.252625   -0.188115   -6.271840
  C      3.466585   -1.590971   -2.889082
  C      4.652275   -1.143164   -3.259692
  N      2.752264   -2.292043   -3.728029
  H      1.778364   -2.489604   -3.512738
  H      2.948612   -2.208544   -4.716813
  H      5.146723   -0.512508   -2.633852
  H      4.783030   -1.007203   -4.253498
  O      3.562607   -0.444464   -5.631552
  F      2.344944   -0.033742   -7.696501
  C      2.804084    0.290698   -1.359243
  C      1.052550    0.695659   -3.214915
  H     -0.232483    1.032925   -4.884449
  H      0.511700    2.495794   -4.267966
  C      2.388380    1.093669   -2.597108
  H      3.763425    0.674718   -0.999889
  H      2.094788    0.461222   -0.545756
  O      1.266058   -1.159177   -5.805365
  H      3.167316    1.013242   -3.359430
  H      2.357690    2.149375   -2.310997
  H      1.039284   -0.368429   -3.449329
  H      0.250787    0.865605   -2.488283
  H      1.940472   -1.716529   -1.441161
  H      3.558569   -1.663433   -0.766371

 Total Charge           Charge          ....    0
 Multiplicity           Mult            ....    1
 Number of Electrons    NEL             ....  112
 Basis Dimension        Dim             ....  643

ORBITAL ENERGIES
----------------

  NO   OCC          E(Eh)            E(eV)
   0   2.0000     -89.193003     -2427.0650
   1   2.0000     -24.894144      -677.4041
   2   2.0000     -19.224076      -523.1137
   3   2.0000     -19.214639      -522.8569
   4   2.0000     -14.359961      -390.7544
   5   2.0000     -10.313249      -280.6378
   6   2.0000     -10.275235      -279.6033
   7   2.0000     -10.244644      -278.7709
   8   2.0000     -10.241160      -278.6761
   9   2.0000     -10.236365      -278.5456
  10   2.0000     -10.234467      -278.4940
  11   2.0000     -10.231926      -278.4249
  12   2.0000     -10.141814      -275.9728
  13   2.0000      -8.237435      -224.1520
  14   2.0000      -6.205177      -168.8515
  15   2.0000      -6.198795      -168.6778
  16   2.0000      -6.198450      -168.6684
  17   2.0000      -1.486313       -40.4446
  18   2.0000      -1.200879       -32.6776
  19   2.0000      -1.100773       -29.9535
  20   2.0000      -0.995050       -27.0767
  21   2.0000      -0.925536       -25.1851
  22   2.0000      -0.880045       -23.9472
  23   2.0000      -0.846281       -23.0285
  24   2.0000      -0.809834       -22.0367
  25   2.0000      -0.779659       -21.2156
  26   2.0000      -0.754352       -20.5270
  27   2.0000      -0.713441       -19.4137
  28   2.0000      -0.681883       -18.5550
  29   2.0000      -0.676705       -18.4141
  30   2.0000      -0.649904       -17.6848
  31   2.0000      -0.639393       -17.3988
  32   2.0000      -0.610132       -16.6025
  33   2.0000      -0.578024       -15.7288
  34   2.0000      -0.568885       -15.4801
  35   2.0000      -0.566962       -15.4278
  36   2.0000      -0.550113       -14.9693
  37   2.0000      -0.540427       -14.7058
  38   2.0000      -0.520782       -14.1712
  39   2.0000      -0.506857       -13.7923
  40   2.0000      -0.496558       -13.5120
  41   2.0000      -0.483196       -13.1484
  42   2.0000      -0.471437       -12.8285
  43   2.0000      -0.452733       -12.3195
  44   2.0000      -0.447454       -12.1758
  45   2.0000      -0.430864       -11.7244
  46   2.0000      -0.425719       -11.5844
  47   2.0000      -0.417371       -11.3572
  48   2.0000      -0.410678       -11.1751
  49   2.0000      -0.402037       -10.9400
  50   2.0000      -0.393896       -10.7185
  51   2.0000      -0.390394       -10.6232
  52   2.0000      -0.379720       -10.3327
  53   2.0000      -0.371902       -10.1200
  54   2.0000      -0.364581        -9.9208
  55   2.0000      -0.222410        -6.0521
  56   0.0000       0.007586         0.2064
  57   0.0000       0.028005         0.7620
  58   0.0000       0.032764         0.8916
  59   0.0000       0.039456         1.0737
  60   0.0000       0.052602         1.4314

MULLIKEN ATOMIC CHARGES
-----------------------
   0 C :   -0.721108
   1 C :   -0.617981
   2 C :   -0.917492
   3 H :    0.408126
   4 H :    0.427559
   5 S :    1.229529
   6 C :    0.280135
   7 C :   -1.124963
   8 N :   -0.376537
   9 H :    0.233661
  10 H :    0.225467
  11 H :    0.314642
  12 H :    0.533714
  13 O :   -0.655512
  14 F :   -0.074824
  15 C :   -0.622491
  16 C :   -0.445269
  17 H :    0.310207
  18 H :    0.327827
  19 C :   -0.598256
  20 H :    0.335207
  21 H :    0.317239
  22 O :   -0.661950
  23 H :    0.406370
  24 H :    0.307629
  25 H :    0.267733
  26 H :    0.299664
  27 H :    0.316956
  28 H :    0.274718
Sum of atomic charges:   -0.0000000

LOEWDIN ATOMIC CHARGES
----------------------
   0 C :   -0.137505
   1 C :   -0.213220
   2 C :   -0.213456
   3 H :    0.107114
   4 H :    0.098484
   5 S :    0.657203
   6 C :   -0.496161
   7 C :    0.003265
   8 N :    0.109713
   9 H :    0.105957
  10 H :    0.073538
  11 H :    0.032188
  12 H :    0.001760
  13 O :   -0.312567
  14 F :   -0.037390
  15 C :   -0.187032
  16 C :   -0.202723
  17 H :    0.114402
  18 H :    0.122460
  19 C :   -0.206829
  20 H :    0.108540
  21 H :    0.106466
  22 O :   -0.282247
  23 H :    0.095277
  24 H :    0.117100
  25 H :    0.087620
  26 H :    0.122730
  27 H :    0.106664
  28 H :    0.118648

  Mayer bond orders larger than 0.100000
B(  0-C ,  6-C ) :   0.6393 B(  0-C , 15-C ) :   0.8012 B(  0-C , 27-H ) :   0.9858
B(  0-C , 28-H ) :   0.9936 B(  1-C ,  2-C ) :   0.7638 B(  1-C , 16-C ) :   0.7980
B(  1-C , 17-H ) :   0.9381 B(  1-C , 18-H ) :   0.9255 B(  1-C , 19-C ) :   0.1028
B(  2-C ,  3-H ) :   0.8781 B(  2-C ,  4-H ) :   0.8344 B(  2-C ,  5-S ) :   0.9077
B(  2-C , 13-O ) :   0.1454 B(  2-C , 19-C ) :   0.1054 B(  5-S , 13-O ) :   1.6851
B(  5-S , 14-F ) :   0.9040 B(  5-S , 22-O ) :   1.6041 B(  6-C ,  7-C ) :   1.5976
B(  6-C ,  8-N ) :   0.8831 B(  6-C , 11-H ) :  -0.1163 B(  6-C , 12-H ) :  -0.1050
B(  6-C , 27-H ) :  -0.1071 B(  7-C , 11-H ) :   1.0640 B(  7-C , 12-H ) :   0.7243
B(  8-N ,  9-H ) :   0.8431 B(  8-N , 10-H ) :   0.8604 B( 13-O , 22-O ) :   0.1283
B( 15-C , 16-C ) :   0.1237 B( 15-C , 19-C ) :   0.8568 B( 15-C , 20-H ) :   0.9059
B( 15-C , 21-H ) :   0.9325 B( 16-C , 19-C ) :   0.4214 B( 16-C , 25-H ) :   1.1170
B( 16-C , 26-H ) :   0.9208 B( 19-C , 23-H ) :   0.9930 B( 19-C , 24-H ) :   0.9260

FINAL SINGLE POINT ENERGY     -1017.625594172632

DIPOLE MOMENT
-------------
                                X             Y             Z
Electronic contribution:      0.02721      -4.10639     -22.52589
Nuclear contribution   :     -1.50273       5.82595      21.72909
                        -----------------------------------------
Total Dipole Moment    :     -1.47552       1.71956      -0.79680
                        -----------------------------------------
Magnitude (a.u.)       :      2.40186
Magnitude (Debye)      :      6.10504

Rotational constants in cm-1:     0.036883     0.018294     0.014745
Rotational constants in MHz :  1105.724679   548.429785   442.050481

                             ****ORCA TERMINATED NORMALLY****
TOTAL RUN TIME: 0 days 0 hours 8 minutes 31 seconds 795 msec
