                         Program Version 5.0.0 -  RELEASE  -
|  1> !CAM-B3LYP RIJCOSX def2-TZVPD def2/J TightSCF xyzfile
|  2>
|  3> *xyzfile 0 1 D4.xyz
|  4>
|  5> %MaxCore 64000
|  6>
|  7> %pal nprocs 4
|  8> end
|  9>
| 10> %scf
| 11>   MaxIter 150
| 12> end
| 13>
| 14>
| 15>                          ****END OF INPUT****

CARTESIAN COORDINATES (ANGSTROEM)
---------------------------------
  C      2.916324   -1.242589   -1.543125
  C      0.704661    1.443129   -4.503630
  C      1.728539    1.424320   -5.639443
  H      2.646718    1.953794   -5.381054
  H      1.299916    1.930613   -6.503614
  S      2.252625   -0.188115   -6.271840
  C      3.466585   -1.590971   -2.889082
  N      4.652275   -1.143164   -3.259692
  C      2.752264   -2.292043   -3.728029
  H      1.778364   -2.489604   -3.512738
  H      2.948612   -2.208544   -4.716813
  H      5.146723   -0.512508   -2.633852
  H      4.783030   -1.007203   -4.253498
  O      3.562607   -0.444464   -5.631552
  F      2.344944   -0.033742   -7.696501
  C      2.804084    0.290698   -1.359243
  C      1.052550    0.695659   -3.214915
  H     -0.232483    1.032925   -4.884449
  H      0.511700    2.495794   -4.267966
  C      2.388380    1.093669   -2.597108
  H      3.763425    0.674718   -0.999889
  H      2.094788    0.461222   -0.545756
  O      1.266058   -1.159177   -5.805365
  H      3.167316    1.013242   -3.359430
  H      2.357690    2.149375   -2.310997
  H      1.039284   -0.368429   -3.449329
  H      0.250787    0.865605   -2.488283
  H      1.940472   -1.716529   -1.441161
  H      3.558569   -1.663433   -0.766371

 Total Charge           Charge          ....    0
 Multiplicity           Mult            ....    1
 Number of Electrons    NEL             ....  112
 Basis Dimension        Dim             ....  643

ORBITAL ENERGIES
----------------

  NO   OCC          E(Eh)            E(eV)
   0   2.0000     -89.188967     -2426.9552
   1   2.0000     -24.890442      -677.3034
   2   2.0000     -19.215308      -522.8751
   3   2.0000     -19.211393      -522.7686
   4   2.0000     -14.358933      -390.7264
   5   2.0000     -10.310066      -280.5512
   6   2.0000     -10.271421      -279.4996
   7   2.0000     -10.239319      -278.6260
   8   2.0000     -10.238770      -278.6111
   9   2.0000     -10.238382      -278.6005
  10   2.0000     -10.237602      -278.5793
  11   2.0000     -10.229817      -278.3675
  12   2.0000     -10.146336      -276.0958
  13   2.0000      -8.233058      -224.0329
  14   2.0000      -6.200816      -168.7328
  15   2.0000      -6.194355      -168.5570
  16   2.0000      -6.194209      -168.5530
  17   2.0000      -1.482451       -40.3395
  18   2.0000      -1.194053       -32.4918
  19   2.0000      -1.095085       -29.7988
  20   2.0000      -0.991361       -26.9763
  21   2.0000      -0.921979       -25.0883
  22   2.0000      -0.878602       -23.9080
  23   2.0000      -0.841343       -22.8941
  24   2.0000      -0.810167       -22.0458
  25   2.0000      -0.786512       -21.4021
  26   2.0000      -0.752053       -20.4644
  27   2.0000      -0.705913       -19.2089
  28   2.0000      -0.678685       -18.4679
  29   2.0000      -0.672515       -18.3001
  30   2.0000      -0.647391       -17.6164
  31   2.0000      -0.638194       -17.3661
  32   2.0000      -0.608390       -16.5551
  33   2.0000      -0.579813       -15.7775
  34   2.0000      -0.569830       -15.5059
  35   2.0000      -0.565939       -15.4000
  36   2.0000      -0.542784       -14.7699
  37   2.0000      -0.527425       -14.3520
  38   2.0000      -0.521101       -14.1799
  39   2.0000      -0.510300       -13.8860
  40   2.0000      -0.496542       -13.5116
  41   2.0000      -0.477635       -12.9971
  42   2.0000      -0.469206       -12.7677
  43   2.0000      -0.451360       -12.2821
  44   2.0000      -0.446448       -12.1485
  45   2.0000      -0.437755       -11.9119
  46   2.0000      -0.424222       -11.5437
  47   2.0000      -0.416375       -11.3301
  48   2.0000      -0.407720       -11.0946
  49   2.0000      -0.394626       -10.7383
  50   2.0000      -0.389565       -10.6006
  51   2.0000      -0.384523       -10.4634
  52   2.0000      -0.380323       -10.3491
  53   2.0000      -0.369692       -10.0598
  54   2.0000      -0.360784        -9.8174
  55   2.0000      -0.230189        -6.2638
  56   0.0000       0.009062         0.2466
  57   0.0000       0.029733         0.8091
  58   0.0000       0.031975         0.8701
  59   0.0000       0.040456         1.1009
  60   0.0000       0.055979         1.5233

MULLIKEN ATOMIC CHARGES
-----------------------
   0 C :   -0.682445
   1 C :   -0.624004
   2 C :   -0.919749
   3 H :    0.393347
   4 H :    0.428726
   5 S :    1.216184
   6 C :    0.318665
   7 N :   -0.345689
   8 C :   -1.323268
   9 H :    0.416136
  10 H :    0.573063
  11 H :    0.214458
  12 H :    0.283728
  13 O :   -0.676319
  14 F :   -0.078817
  15 C :   -0.684533
  16 C :   -0.384736
  17 H :    0.327117
  18 H :    0.322834
  19 C :   -0.508389
  20 H :    0.350820
  21 H :    0.277082
  22 O :   -0.630454
  23 H :    0.358558
  24 H :    0.307203
  25 H :    0.258802
  26 H :    0.281611
  27 H :    0.263803
  28 H :    0.266265
Sum of atomic charges:   -0.0000000

LOEWDIN ATOMIC CHARGES
----------------------
   0 C :   -0.139890
   1 C :   -0.212820
   2 C :   -0.215194
   3 H :    0.104390
   4 H :    0.098034
   5 S :    0.658267
   6 C :   -0.494533
   7 N :    0.109354
   8 C :   -0.003641
   9 H :    0.036457
  10 H :    0.002909
  11 H :    0.108808
  12 H :    0.077745
  13 O :   -0.319736
  14 F :   -0.037691
  15 C :   -0.190344
  16 C :   -0.200549
  17 H :    0.115179
  18 H :    0.121221
  19 C :   -0.207967
  20 H :    0.102861
  21 H :    0.107635
  22 O :   -0.270625
  23 H :    0.093282
  24 H :    0.116261
  25 H :    0.090545
  26 H :    0.122902
  27 H :    0.112827
  28 H :    0.114315

  Mayer bond orders larger than 0.100000
B(  0-C ,  6-C ) :   0.7436 B(  0-C , 15-C ) :   0.7612 B(  0-C , 16-C ) :   0.1161
B(  0-C , 19-C ) :  -0.1527 B(  0-C , 27-H ) :   0.9978 B(  0-C , 28-H ) :   0.9967
B(  1-C ,  2-C ) :   0.7798 B(  1-C , 16-C ) :   0.7786 B(  1-C , 17-H ) :   0.9118
B(  1-C , 18-H ) :   0.9324 B(  1-C , 19-C ) :   0.1086 B(  2-C ,  3-H ) :   0.8876
B(  2-C ,  4-H ) :   0.8365 B(  2-C ,  5-S ) :   0.8949 B(  2-C , 13-O ) :   0.1510
B(  2-C , 19-C ) :   0.1136 B(  5-S , 13-O ) :   1.7175 B(  5-S , 14-F ) :   0.9018
B(  5-S , 22-O ) :   1.6378 B(  6-C ,  7-N ) :   0.8938 B(  6-C ,  8-C ) :   1.5836
B(  6-C ,  9-H ) :  -0.1217 B(  6-C , 10-H ) :  -0.1828 B(  7-N , 11-H ) :   0.8556
B(  7-N , 12-H ) :   0.8475 B(  8-C ,  9-H ) :   0.9312 B(  8-C , 10-H ) :   0.7789
B(  9-H , 10-H ) :   0.1023 B( 13-O , 22-O ) :   0.1402 B( 15-C , 16-C ) :   0.1250
B( 15-C , 19-C ) :   0.7953 B( 15-C , 20-H ) :   0.9142 B( 15-C , 21-H ) :   0.9580
B( 16-C , 19-C ) :   0.4107 B( 16-C , 23-H ) :  -0.1017 B( 16-C , 25-H ) :   1.1514
B( 16-C , 26-H ) :   0.9285 B( 19-C , 23-H ) :   1.0138 B( 19-C , 24-H ) :   0.9564
B( 19-C , 25-H ) :  -0.1049

FINAL SINGLE POINT ENERGY     -1017.628805778778

DIPOLE MOMENT
-------------
                                X             Y             Z
Electronic contribution:      1.30303      -3.42021     -22.20757
Nuclear contribution   :     -1.74760       5.67788      21.66873
                        -----------------------------------------
Total Dipole Moment    :     -0.44457       2.25767      -0.53885
                        -----------------------------------------
Magnitude (a.u.)       :      2.36328
Magnitude (Debye)      :      6.00698

Rotational constants in cm-1:     0.036818     0.018222     0.014682
Rotational constants in MHz :  1103.783048   546.296792   440.157914

                             ****ORCA TERMINATED NORMALLY****
TOTAL RUN TIME: 0 days 0 hours 7 minutes 55 seconds 539 msec
