                         Program Version 5.0.0 -  RELEASE  -
|  1> !CAM-B3LYP RIJCOSX def2-TZVPD def2/J TightSCF xyzfile
|  2>
|  3> *xyzfile 0 1 D5.xyz
|  4>
|  5> %MaxCore 64000
|  6>
|  7> %pal nprocs 4
|  8> end
|  9>
| 10> %scf
| 11>   MaxIter 150
| 12> end
| 13>
| 14>
| 15>                          ****END OF INPUT****

CARTESIAN COORDINATES (ANGSTROEM)
---------------------------------
  C      2.916324   -1.242589   -1.543125
  C      0.704661    1.443129   -4.503630
  C      1.728539    1.424320   -5.639443
  H      2.646718    1.953794   -5.381054
  H      1.299916    1.930613   -6.503614
  S      2.252625   -0.188115   -6.271840
  C      3.466585   -1.590971   -2.889082
  C      4.652275   -1.143164   -3.259692
  N      2.752264   -2.292043   -3.728029
  H      1.778364   -2.489604   -3.512738
  H      2.948612   -2.208544   -4.716813
  H      5.146723   -0.512508   -2.633852
  H      4.783030   -1.007203   -4.253498
  O      3.562607   -0.444464   -5.631552
  O      2.344944   -0.033742   -7.696501
  C      2.804084    0.290698   -1.359243
  C      1.052550    0.695659   -3.214915
  H     -0.232483    1.032925   -4.884449
  H      0.511700    2.495794   -4.267966
  C      2.388380    1.093669   -2.597108
  H      3.763425    0.674718   -0.999889
  H      2.094788    0.461222   -0.545756
  F      1.266058   -1.159177   -5.805365
  H      3.167316    1.013242   -3.359430
  H      2.357690    2.149375   -2.310997
  H      1.039284   -0.368429   -3.449329
  H      0.250787    0.865605   -2.488283
  H      1.940472   -1.716529   -1.441161
  H      3.558569   -1.663433   -0.766371

 Total Charge           Charge          ....    0
 Multiplicity           Mult            ....    1
 Number of Electrons    NEL             ....  112
 Basis Dimension        Dim             ....  643

ORBITAL ENERGIES
----------------

  NO   OCC          E(Eh)            E(eV)
   0   2.0000     -89.188579     -2426.9446
   1   2.0000     -24.883645      -677.1184
   2   2.0000     -19.225499      -523.1524
   3   2.0000     -19.210921      -522.7557
   4   2.0000     -14.378078      -391.2474
   5   2.0000     -10.310529      -280.5638
   6   2.0000     -10.280250      -279.7398
   7   2.0000     -10.257191      -279.1124
   8   2.0000     -10.251282      -278.9516
   9   2.0000     -10.244148      -278.7574
  10   2.0000     -10.242642      -278.7165
  11   2.0000     -10.241247      -278.6785
  12   2.0000     -10.151942      -276.2484
  13   2.0000      -8.233037      -224.0323
  14   2.0000      -6.201071      -168.7397
  15   2.0000      -6.194222      -168.5534
  16   2.0000      -6.193960      -168.5462
  17   2.0000      -1.468430       -39.9580
  18   2.0000      -1.204446       -32.7746
  19   2.0000      -1.105409       -30.0797
  20   2.0000      -1.010896       -27.5079
  21   2.0000      -0.930725       -25.3263
  22   2.0000      -0.885901       -24.1066
  23   2.0000      -0.846677       -23.0393
  24   2.0000      -0.809382       -22.0244
  25   2.0000      -0.786981       -21.4148
  26   2.0000      -0.761038       -20.7089
  27   2.0000      -0.719082       -19.5672
  28   2.0000      -0.682125       -18.5616
  29   2.0000      -0.672766       -18.3069
  30   2.0000      -0.656542       -17.8654
  31   2.0000      -0.633361       -17.2346
  32   2.0000      -0.619611       -16.8605
  33   2.0000      -0.584373       -15.9016
  34   2.0000      -0.572393       -15.5756
  35   2.0000      -0.568254       -15.4630
  36   2.0000      -0.550319       -14.9750
  37   2.0000      -0.543736       -14.7958
  38   2.0000      -0.528688       -14.3863
  39   2.0000      -0.519895       -14.1471
  40   2.0000      -0.503305       -13.6956
  41   2.0000      -0.488080       -13.2813
  42   2.0000      -0.474804       -12.9201
  43   2.0000      -0.457982       -12.4623
  44   2.0000      -0.456436       -12.4202
  45   2.0000      -0.445029       -12.1099
  46   2.0000      -0.438479       -11.9316
  47   2.0000      -0.421267       -11.4633
  48   2.0000      -0.417456       -11.3596
  49   2.0000      -0.408074       -11.1043
  50   2.0000      -0.399946       -10.8831
  51   2.0000      -0.394490       -10.7346
  52   2.0000      -0.387450       -10.5430
  53   2.0000      -0.376388       -10.2420
  54   2.0000      -0.373140       -10.1536
  55   2.0000      -0.234812        -6.3895
  56   0.0000       0.009065         0.2467
  57   0.0000       0.025998         0.7074
  58   0.0000       0.031975         0.8701
  59   0.0000       0.036772         1.0006
  60   0.0000       0.050112         1.3636

MULLIKEN ATOMIC CHARGES
-----------------------
   0 C :   -0.719652
   1 C :   -0.706896
   2 C :   -0.790122
   3 H :    0.426044
   4 H :    0.355765
   5 S :    1.223285
   6 C :    0.324995
   7 C :   -1.124586
   8 N :   -0.411084
   9 H :    0.246312
  10 H :    0.208913
  11 H :    0.316729
  12 H :    0.532566
  13 O :   -0.646892
  14 O :   -0.559683
  15 C :   -0.623505
  16 C :   -0.380525
  17 H :    0.318322
  18 H :    0.330232
  19 C :   -0.577236
  20 H :    0.338566
  21 H :    0.320853
  22 F :   -0.213560
  23 H :    0.390060
  24 H :    0.315471
  25 H :    0.221074
  26 H :    0.294628
  27 H :    0.317246
  28 H :    0.272680
Sum of atomic charges:   -0.0000000

LOEWDIN ATOMIC CHARGES
----------------------
   0 C :   -0.137493
   1 C :   -0.221001
   2 C :   -0.205926
   3 H :    0.112808
   4 H :    0.103668
   5 S :    0.643989
   6 C :   -0.497563
   7 C :    0.012135
   8 N :    0.100829
   9 H :    0.104289
  10 H :    0.075042
  11 H :    0.035581
  12 H :    0.004947
  13 O :   -0.310359
  14 O :   -0.257300
  15 C :   -0.186079
  16 C :   -0.206720
  17 H :    0.112393
  18 H :    0.121924
  19 C :   -0.205115
  20 H :    0.109714
  21 H :    0.107150
  22 F :   -0.066208
  23 H :    0.096281
  24 H :    0.119177
  25 H :    0.084881
  26 H :    0.123092
  27 H :    0.106158
  28 H :    0.119707

  Mayer bond orders larger than 0.100000
B(  0-C ,  6-C ) :   0.6417 B(  0-C , 15-C ) :   0.8001 B(  0-C , 27-H ) :   0.9847
B(  0-C , 28-H ) :   0.9927 B(  1-C ,  2-C ) :   0.7248 B(  1-C , 16-C ) :   0.7285
B(  1-C , 17-H ) :   0.9767 B(  1-C , 18-H ) :   0.9226 B(  1-C , 19-C ) :   0.1001
B(  2-C ,  3-H ) :   0.8352 B(  2-C ,  4-H ) :   0.9807 B(  2-C ,  5-S ) :   0.8931
B(  2-C , 13-O ) :   0.1317 B(  2-C , 14-O ) :   0.1287 B(  5-S , 13-O ) :   1.6850
B(  5-S , 14-O ) :   1.5451 B(  5-S , 22-F ) :   0.9918 B(  6-C ,  7-C ) :   1.6027
B(  6-C ,  8-N ) :   0.8574 B(  6-C , 11-H ) :  -0.1103 B(  6-C , 12-H ) :  -0.1031
B(  6-C , 27-H ) :  -0.1077 B(  7-C , 11-H ) :   1.0621 B(  7-C , 12-H ) :   0.7239
B(  8-N ,  9-H ) :   0.8459 B(  8-N , 10-H ) :   0.8502 B( 15-C , 16-C ) :   0.1359
B( 15-C , 19-C ) :   0.8529 B( 15-C , 20-H ) :   0.9030 B( 15-C , 21-H ) :   0.9316
B( 16-C , 19-C ) :   0.4356 B( 16-C , 25-H ) :   1.1103 B( 16-C , 26-H ) :   0.9377
B( 19-C , 23-H ) :   1.0116 B( 19-C , 24-H ) :   0.9144

FINAL SINGLE POINT ENERGY     -1017.631091240625

DIPOLE MOMENT
-------------
                                X             Y             Z
Electronic contribution:     -1.74539      -6.02731     -18.99314
Nuclear contribution   :     -0.26930       7.11259      19.56706
                        -----------------------------------------
Total Dipole Moment    :     -2.01470       1.08528       0.57392
                        -----------------------------------------
Magnitude (a.u.)       :      2.35928
Magnitude (Debye)      :      5.99682

Rotational constants in cm-1:     0.036519     0.018683     0.015073
Rotational constants in MHz :  1094.801738   560.111127   451.890222

                             ****ORCA TERMINATED NORMALLY****
TOTAL RUN TIME: 0 days 0 hours 9 minutes 36 seconds 478 msec
