                         Program Version 5.0.0 -  RELEASE  -
|  1> !CAM-B3LYP RIJCOSX def2-TZVPD def2/J TightSCF xyzfile
|  2>
|  3> *xyzfile 0 1 D6.xyz
|  4>
|  5> %MaxCore 64000
|  6>
|  7> %pal nprocs 4
|  8> end
|  9>
| 10> %scf
| 11>   MaxIter 150
| 12> end
| 13>
| 14>
| 15>                          ****END OF INPUT****

CARTESIAN COORDINATES (ANGSTROEM)
---------------------------------
  C      2.916324   -1.242589   -1.543125
  C      0.704661    1.443129   -4.503630
  C      1.728539    1.424320   -5.639443
  H      2.646718    1.953794   -5.381054
  H      1.299916    1.930613   -6.503614
  S      2.252625   -0.188115   -6.271840
  C      3.466585   -1.590971   -2.889082
  N      4.652275   -1.143164   -3.259692
  C      2.752264   -2.292043   -3.728029
  H      1.778364   -2.489604   -3.512738
  H      2.948612   -2.208544   -4.716813
  H      5.146723   -0.512508   -2.633852
  H      4.783030   -1.007203   -4.253498
  O      3.562607   -0.444464   -5.631552
  O      2.344944   -0.033742   -7.696501
  C      2.804084    0.290698   -1.359243
  C      1.052550    0.695659   -3.214915
  H     -0.232483    1.032925   -4.884449
  H      0.511700    2.495794   -4.267966
  C      2.388380    1.093669   -2.597108
  H      3.763425    0.674718   -0.999889
  H      2.094788    0.461222   -0.545756
  F      1.266058   -1.159177   -5.805365
  H      3.167316    1.013242   -3.359430
  H      2.357690    2.149375   -2.310997
  H      1.039284   -0.368429   -3.449329
  H      0.250787    0.865605   -2.488283
  H      1.940472   -1.716529   -1.441161
  H      3.558569   -1.663433   -0.766371

 Total Charge           Charge          ....    0
 Multiplicity           Mult            ....    1
 Number of Electrons    NEL             ....  112
 Basis Dimension        Dim             ....  643

ORBITAL ENERGIES
----------------

  NO   OCC          E(Eh)            E(eV)
   0   2.0000     -89.185773     -2426.8683
   1   2.0000     -24.873129      -676.8322
   2   2.0000     -19.221867      -523.0536
   3   2.0000     -19.207246      -522.6557
   4   2.0000     -14.368581      -390.9890
   5   2.0000     -10.307724      -280.4874
   6   2.0000     -10.276580      -279.6400
   7   2.0000     -10.253617      -279.0151
   8   2.0000     -10.251193      -278.9491
   9   2.0000     -10.248240      -278.8688
  10   2.0000     -10.246105      -278.8107
  11   2.0000     -10.240537      -278.6592
  12   2.0000     -10.162415      -276.5334
  13   2.0000      -8.229745      -223.9427
  14   2.0000      -6.197654      -168.6467
  15   2.0000      -6.191154      -168.4699
  16   2.0000      -6.190760      -168.4592
  17   2.0000      -1.457753       -39.6675
  18   2.0000      -1.200359       -32.6634
  19   2.0000      -1.101791       -29.9813
  20   2.0000      -1.001872       -27.2623
  21   2.0000      -0.927479       -25.2380
  22   2.0000      -0.884368       -24.0649
  23   2.0000      -0.841247       -22.8915
  24   2.0000      -0.813371       -22.1330
  25   2.0000      -0.788974       -21.4691
  26   2.0000      -0.759144       -20.6574
  27   2.0000      -0.711226       -19.3534
  28   2.0000      -0.676574       -18.4105
  29   2.0000      -0.662300       -18.0221
  30   2.0000      -0.652085       -17.7441
  31   2.0000      -0.635746       -17.2995
  32   2.0000      -0.615342       -16.7443
  33   2.0000      -0.581559       -15.8250
  34   2.0000      -0.568892       -15.4803
  35   2.0000      -0.565802       -15.3963
  36   2.0000      -0.547612       -14.9013
  37   2.0000      -0.537710       -14.6318
  38   2.0000      -0.529101       -14.3976
  39   2.0000      -0.513623       -13.9764
  40   2.0000      -0.508601       -13.8397
  41   2.0000      -0.485590       -13.2136
  42   2.0000      -0.475031       -12.9263
  43   2.0000      -0.463980       -12.6255
  44   2.0000      -0.453599       -12.3431
  45   2.0000      -0.450896       -12.2695
  46   2.0000      -0.433026       -11.7832
  47   2.0000      -0.427216       -11.6251
  48   2.0000      -0.416920       -11.3450
  49   2.0000      -0.402545       -10.9538
  50   2.0000      -0.398001       -10.8302
  51   2.0000      -0.389852       -10.6084
  52   2.0000      -0.389089       -10.5876
  53   2.0000      -0.372765       -10.1434
  54   2.0000      -0.372276       -10.1301
  55   2.0000      -0.244430        -6.6513
  56   0.0000       0.013155         0.3580
  57   0.0000       0.029000         0.7891
  58   0.0000       0.033113         0.9010
  59   0.0000       0.038320         1.0427
  60   0.0000       0.054396         1.4802

MULLIKEN ATOMIC CHARGES
-----------------------
   0 C :   -0.667156
   1 C :   -0.706860
   2 C :   -0.803229
   3 H :    0.412338
   4 H :    0.361859
   5 S :    1.250902
   6 C :    0.346045
   7 N :   -0.341933
   8 C :   -1.458490
   9 H :    0.449534
  10 H :    0.628390
  11 H :    0.216397
  12 H :    0.277303
  13 O :   -0.678464
  14 O :   -0.566453
  15 C :   -0.692138
  16 C :   -0.326632
  17 H :    0.332937
  18 H :    0.326466
  19 C :   -0.490478
  20 H :    0.354519
  21 H :    0.280822
  22 F :   -0.196955
  23 H :    0.344694
  24 H :    0.314733
  25 H :    0.224332
  26 H :    0.279415
  27 H :    0.263364
  28 H :    0.264737
Sum of atomic charges:   -0.0000000

LOEWDIN ATOMIC CHARGES
----------------------
   0 C :   -0.137699
   1 C :   -0.220416
   2 C :   -0.207141
   3 H :    0.110323
   4 H :    0.103318
   5 S :    0.647037
   6 C :   -0.492819
   7 N :    0.116096
   8 C :   -0.011899
   9 H :    0.033225
  10 H :    0.002504
  11 H :    0.111549
  12 H :    0.080796
  13 O :   -0.318359
  14 O :   -0.257654
  15 C :   -0.188650
  16 C :   -0.204886
  17 H :    0.113266
  18 H :    0.120713
  19 C :   -0.206342
  20 H :    0.104292
  21 H :    0.108606
  22 F :   -0.058379
  23 H :    0.094261
  24 H :    0.118390
  25 H :    0.087709
  26 H :    0.123202
  27 H :    0.112742
  28 H :    0.116216

  Mayer bond orders larger than 0.100000
B(  0-C ,  6-C ) :   0.7497 B(  0-C , 15-C ) :   0.7574 B(  0-C , 16-C ) :   0.1165
B(  0-C , 19-C ) :  -0.1557 B(  0-C , 27-H ) :   0.9997 B(  0-C , 28-H ) :   0.9889
B(  1-C ,  2-C ) :   0.7345 B(  1-C , 16-C ) :   0.7063 B(  1-C , 17-H ) :   0.9492
B(  1-C , 18-H ) :   0.9296 B(  1-C , 19-C ) :   0.1054 B(  2-C ,  3-H ) :   0.8465
B(  2-C ,  4-H ) :   0.9807 B(  2-C ,  5-S ) :   0.8909 B(  2-C , 13-O ) :   0.1477
B(  2-C , 14-O ) :   0.1361 B(  2-C , 19-C ) :   0.1079 B(  5-S , 13-O ) :   1.7081
B(  5-S , 14-O ) :   1.5273 B(  5-S , 22-F ) :   1.0120 B(  6-C ,  7-N ) :   0.9274
B(  6-C ,  8-C ) :   1.5467 B(  6-C ,  9-H ) :  -0.1249 B(  6-C , 10-H ) :  -0.1513
B(  6-C , 13-O ) :  -0.1464 B(  7-N , 11-H ) :   0.8555 B(  7-N , 12-H ) :   0.8414
B(  8-C ,  9-H ) :   0.9148 B(  8-C , 10-H ) :   0.6736 B( 15-C , 16-C ) :   0.1342
B( 15-C , 19-C ) :   0.7967 B( 15-C , 20-H ) :   0.9125 B( 15-C , 21-H ) :   0.9573
B( 16-C , 19-C ) :   0.4155 B( 16-C , 23-H ) :  -0.1060 B( 16-C , 25-H ) :   1.1437
B( 16-C , 26-H ) :   0.9421 B( 19-C , 23-H ) :   1.0304 B( 19-C , 24-H ) :   0.9433
B( 19-C , 25-H ) :  -0.1057

FINAL SINGLE POINT ENERGY     -1017.640912422776

DIPOLE MOMENT
-------------
                                X             Y             Z
Electronic contribution:     -0.47456      -5.31737     -18.64355
Nuclear contribution   :     -0.51418       6.96452      19.50670
                        -----------------------------------------
Total Dipole Moment    :     -0.98874       1.64715       0.86316
                        -----------------------------------------
Magnitude (a.u.)       :      2.10612
Magnitude (Debye)      :      5.35334

Rotational constants in cm-1:     0.036455     0.018603     0.015008
Rotational constants in MHz :  1092.895336   557.693628   449.926016

                             ****ORCA TERMINATED NORMALLY****
TOTAL RUN TIME: 0 days 0 hours 9 minutes 1 seconds 139 msec
