                         Program Version 5.0.0 -  RELEASE  -
|  1> !BLYP D3BJ RIJCOSX def2-SVP def2/J TightSCF
|  2> *xyz -1 1
|  3> C          0.61188        1.65763       -4.50029
|  4> C          1.69499        1.54179       -5.57045
|  5> H          2.69733        1.73466       -5.18400
|  6> H          1.50666        2.27224       -6.35808
|  7> S          1.78029       -0.03313       -6.42874
|  8> O          2.56929        0.21366       -7.60736
|  9> O          0.41688       -0.46297       -6.61859
| 10> O          2.50513       -0.93326       -5.48257
| 11> H         -0.34424        1.45871       -4.93752
| 12> H          0.61845        2.64655       -4.09174
| 13> H          0.80247        0.94882       -3.72173
| 14> *
| 15> %MaxCore 64000
| 16>
| 17> %pal nprocs 4
| 18> end
| 19>
| 20> %scf
| 21>   MaxIter 150
| 22> end
| 23>
| 24>
| 25>                          ****END OF INPUT****

CARTESIAN COORDINATES (ANGSTROEM)
---------------------------------
  C      0.611880    1.657630   -4.500290
  C      1.694990    1.541790   -5.570450
  H      2.697330    1.734660   -5.184000
  H      1.506660    2.272240   -6.358080
  S      1.780290   -0.033130   -6.428740
  O      2.569290    0.213660   -7.607360
  O      0.416880   -0.462970   -6.618590
  O      2.505130   -0.933260   -5.482570
  H     -0.344240    1.458710   -4.937520
  H      0.618450    2.646550   -4.091740
  H      0.802470    0.948820   -3.721730

 Total Charge           Charge          ....   -1
 Multiplicity           Mult            ....    1
 Number of Electrons    NEL             ....   58
 Basis Dimension        Dim             ....  113

ORBITAL ENERGIES
----------------

  NO   OCC          E(Eh)            E(eV)
   0   2.0000     -88.079255     -2396.7584
   1   2.0000     -18.528169      -504.1771
   2   2.0000     -18.526261      -504.1252
   3   2.0000     -18.505220      -503.5526
   4   2.0000      -9.769209      -265.8337
   5   2.0000      -9.759928      -265.5812
   6   2.0000      -7.622991      -207.4321
   7   2.0000      -5.657667      -153.9530
   8   2.0000      -5.657361      -153.9446
   9   2.0000      -5.657134      -153.9384
  10   2.0000      -0.796351       -21.6698
  11   2.0000      -0.665246       -18.1023
  12   2.0000      -0.629581       -17.1318
  13   2.0000      -0.531717       -14.4688
  14   2.0000      -0.416328       -11.3289
  15   2.0000      -0.291279        -7.9261
  16   2.0000      -0.248528        -6.7628
  17   2.0000      -0.230557        -6.2738
  18   2.0000      -0.199444        -5.4271
  19   2.0000      -0.177886        -4.8405
  20   2.0000      -0.175011        -4.7623
  21   2.0000      -0.154629        -4.2077
  22   2.0000      -0.144499        -3.9320
  23   2.0000      -0.058459        -1.5908
  24   2.0000      -0.058033        -1.5791
  25   2.0000      -0.030774        -0.8374
  26   2.0000      -0.029002        -0.7892
  27   2.0000      -0.005287        -0.1439
  28   2.0000       0.026839         0.7303
  29   0.0000       0.183534         4.9942
  30   0.0000       0.233620         6.3571
  31   0.0000       0.238904         6.5009
  32   0.0000       0.245534         6.6813
  33   0.0000       0.271495         7.3878

MULLIKEN ATOMIC CHARGES
-----------------------
   0 C :    0.119735
   1 C :   -0.018916
   2 H :   -0.039723
   3 H :   -0.052407
   4 S :    0.753269
   5 O :   -0.523578
   6 O :   -0.522111
   7 O :   -0.585595
   8 H :   -0.028877
   9 H :   -0.069758
  10 H :   -0.032039
Sum of atomic charges:   -1.0000000

LOEWDIN ATOMIC CHARGES
----------------------
   0 C :   -0.061538
   1 C :   -0.181248
   2 H :   -0.000930
   3 H :   -0.007607
   4 S :    1.056433
   5 O :   -0.584219
   6 O :   -0.583253
   7 O :   -0.645632
   8 H :    0.007397
   9 H :   -0.006358
  10 H :    0.006955

  Mayer bond orders larger than 0.100000
B(  0-C ,  1-C ) :   1.0852 B(  0-C ,  8-H ) :   0.9540 B(  0-C ,  9-H ) :   0.9435
B(  0-C , 10-H ) :   0.9563 B(  1-C ,  2-H ) :   0.9291 B(  1-C ,  3-H ) :   0.9211
B(  1-C ,  4-S ) :   0.8659 B(  4-S ,  5-O ) :   1.6499 B(  4-S ,  6-O ) :   1.6403
B(  4-S ,  7-O ) :   1.5880

Dispersion correction           -0.020473827
FINAL SINGLE POINT ENERGY      -702.638570344302

DIPOLE MOMENT
-------------
                                X             Y             Z
Electronic contribution:      2.29724      -5.89926      -5.17290
Nuclear contribution   :     -2.69163       7.29476       5.86550
                        -----------------------------------------
Total Dipole Moment    :     -0.39439       1.39550       0.69260
                        -----------------------------------------
Magnitude (a.u.)       :      1.60707
Magnitude (Debye)      :      4.08484

Rotational constants in cm-1:     0.163060     0.082831     0.081111
Rotational constants in MHz :  4888.419330  2483.225008  2431.646841

                             ****ORCA TERMINATED NORMALLY****
TOTAL RUN TIME: 0 days 0 hours 0 minutes 3 seconds 747 msec
