                         Program Version 5.0.0 -  RELEASE  -
|  1> !BLYP D3BJ RIJCOSX def2-SVP def2/J TightSCF
|  2> *xyz 1 1
|  3> C          1.96337       -1.74915       -1.89689
|  4> N          2.73849       -2.01517       -3.09711
|  5> C          4.04974       -2.15472       -3.15204
|  6> N          4.65821       -1.98629       -4.31866
|  7> N          4.76423       -2.45444       -2.05049
|  8> H          4.28736       -2.77626       -1.21750
|  9> H          5.75082       -2.65835       -2.12599
| 10> H          2.34518       -1.69027       -3.97145
| 11> H          4.10900       -1.59268       -5.07176
| 12> H          5.64910       -2.15646       -4.42724
| 13> C          2.08852       -0.30091       -1.41520
| 14> H          2.23127       -2.45162       -1.10264
| 15> H          0.93025       -1.97780       -2.15544
| 16> H          1.82118        0.36368       -2.21003
| 17> H          3.09792       -0.11068       -1.11551
| 18> H          1.43391       -0.14382       -0.58352
| 19> *
| 20> %MaxCore 64000
| 21>
| 22> %pal nprocs 4
| 23> end
| 24>
| 25> %scf
| 26>   MaxIter 150
| 27> end
| 28>
| 29>
| 30>                          ****END OF INPUT****

CARTESIAN COORDINATES (ANGSTROEM)
---------------------------------
  C      1.963370   -1.749150   -1.896890
  N      2.738490   -2.015170   -3.097110
  C      4.049740   -2.154720   -3.152040
  N      4.658210   -1.986290   -4.318660
  N      4.764230   -2.454440   -2.050490
  H      4.287360   -2.776260   -1.217500
  H      5.750820   -2.658350   -2.125990
  H      2.345180   -1.690270   -3.971450
  H      4.109000   -1.592680   -5.071760
  H      5.649100   -2.156460   -4.427240
  C      2.088520   -0.300910   -1.415200
  H      2.231270   -2.451620   -1.102640
  H      0.930250   -1.977800   -2.155440
  H      1.821180    0.363680   -2.210030
  H      3.097920   -0.110680   -1.115510
  H      1.433910   -0.143820   -0.583520

 Total Charge           Charge          ....    1
 Multiplicity           Mult            ....    1
 Number of Electrons    NEL             ....   48
 Basis Dimension        Dim             ....  134

ORBITAL ENERGIES
----------------

  NO   OCC          E(Eh)            E(eV)
   0   2.0000     -14.243545      -387.5866
   1   2.0000     -14.240549      -387.5051
   2   2.0000     -14.239197      -387.4682
   3   2.0000     -10.242877      -278.7228
   4   2.0000     -10.126539      -275.5571
   5   2.0000     -10.058797      -273.7138
   6   2.0000      -1.111895       -30.2562
   7   2.0000      -1.008173       -27.4338
   8   2.0000      -0.995984       -27.1021
   9   2.0000      -0.845345       -23.0030
  10   2.0000      -0.767167       -20.8757
  11   2.0000      -0.734114       -19.9763
  12   2.0000      -0.720098       -19.5949
  13   2.0000      -0.681274       -18.5384
  14   2.0000      -0.638238       -17.3673
  15   2.0000      -0.630716       -17.1627
  16   2.0000      -0.599495       -16.3131
  17   2.0000      -0.569814       -15.5054
  18   2.0000      -0.545730       -14.8501
  19   2.0000      -0.510452       -13.8901
  20   2.0000      -0.481131       -13.0922
  21   2.0000      -0.463596       -12.6151
  22   2.0000      -0.425641       -11.5823
  23   2.0000      -0.402762       -10.9597
  24   0.0000      -0.185301        -5.0423
  25   0.0000      -0.165889        -4.5141
  26   0.0000      -0.133121        -3.6224
  27   0.0000      -0.121824        -3.3150
  28   0.0000      -0.100742        -2.7413

MULLIKEN ATOMIC CHARGES
-----------------------
   0 C :    0.053095
   1 N :   -0.002375
   2 C :   -0.122992
   3 N :    0.080979
   4 N :    0.047411
   5 H :    0.146259
   6 H :    0.147104
   7 H :    0.134090
   8 H :    0.147577
   9 H :    0.152699
  10 C :    0.082696
  11 H :    0.028535
  12 H :    0.040814
  13 H :    0.014090
  14 H :    0.008089
  15 H :    0.041930
Sum of atomic charges:    1.0000000

LOEWDIN ATOMIC CHARGES
----------------------
   0 C :    0.044164
   1 N :    0.055460
   2 C :    0.110977
   3 N :    0.071054
   4 N :    0.059679
   5 H :    0.102818
   6 H :    0.105754
   7 H :    0.098452
   8 H :    0.105087
   9 H :    0.108506
  10 C :   -0.035500
  11 H :    0.030698
  12 H :    0.045289
  13 H :    0.028560
  14 H :    0.023616
  15 H :    0.045386

  Mayer bond orders larger than 0.100000
B(  0-C ,  1-N ) :   0.9746 B(  0-C , 10-C ) :   1.1195 B(  0-C , 11-H ) :   0.9389
B(  0-C , 12-H ) :   0.9367 B(  1-N ,  2-C ) :   1.3799 B(  1-N ,  7-H ) :   0.9055
B(  2-C ,  3-N ) :   1.4028 B(  2-C ,  4-N ) :   1.3894 B(  3-N ,  8-H ) :   0.9225
B(  3-N ,  9-H ) :   0.9246 B(  4-N ,  5-H ) :   0.9234 B(  4-N ,  6-H ) :   0.9262
B( 10-C , 13-H ) :   0.9630 B( 10-C , 14-H ) :   0.9607 B( 10-C , 15-H ) :   0.9545

Dispersion correction           -0.025068199
FINAL SINGLE POINT ENERGY      -284.079212953003

DIPOLE MOMENT
-------------
                                X             Y             Z
Electronic contribution:      3.08266      -2.73914      -3.14124
Nuclear contribution   :     -2.17768       2.37118       2.44574
                        -----------------------------------------
Total Dipole Moment    :      0.90498      -0.36796      -0.69550
                        -----------------------------------------
Magnitude (a.u.)       :      1.19921
Magnitude (Debye)      :      3.04815

Rotational constants in cm-1:     0.215650     0.075183     0.066454
Rotational constants in MHz :  6465.033740  2253.919004  1992.232519

                             ****ORCA TERMINATED NORMALLY****
TOTAL RUN TIME: 0 days 0 hours 0 minutes 4 seconds 400 msec
