                         Program Version 5.0.0 -  RELEASE  -
|  1> !BLYP D3BJ RIJCOSX def2-TZVP def2/J TightSCF xyzfile
|  2>
|  3> *xyzfile 0 1 B.xyz
|  4>
|  5> %MaxCore 64000
|  6>
|  7> %pal nprocs 18
|  8> end
|  9>
| 10> %scf
| 11>   MaxIter 150
| 12> end
| 13>
| 14>
| 15>                          ****END OF INPUT****

CARTESIAN COORDINATES (ANGSTROEM)
---------------------------------
  C      1.963365   -1.749150   -1.896887
  N      2.738490   -2.015170   -3.097113
  C      0.611877    1.657634   -4.500288
  C      1.694991    1.541794   -5.570447
  H      2.697326    1.734659   -5.183996
  H      1.506656    2.272239   -6.358076
  S      1.780287   -0.033128   -6.428739
  C      4.049736   -2.154717   -3.152044
  N      4.658206   -1.986293   -4.318655
  N      4.764231   -2.454435   -2.050491
  H      4.287363   -2.776259   -1.217496
  H      5.750825   -2.658351   -2.125988
  H      2.345176   -1.690274   -3.971447
  H      4.109004   -1.592677   -5.071760
  H      5.649095   -2.156462   -4.427237
  O      2.569287    0.213657   -7.607360
  O      0.416880   -0.462969   -6.618595
  C      2.088520   -0.300912   -1.415204
  H      2.231272   -2.451616   -1.102643
  H      0.930249   -1.977801   -2.155438
  C      0.680356    0.655418   -3.348038
  H     -0.356865    1.549231   -4.991128
  H      0.650228    2.675438   -4.096000
  C      1.968993    0.733582   -2.535654
  H      3.051356   -0.168602   -0.911868
  H      1.316501   -0.136231   -0.657252
  O      2.505129   -0.933263   -5.482570
  H      2.824195    0.624726   -3.208464
  H      2.058919    1.730331   -2.093112
  H      0.542252   -0.344731   -3.766662
  H     -0.174219    0.829692   -2.685182

 Total Charge           Charge          ....    0
 Multiplicity           Mult            ....    1
 Number of Electrons    NEL             ....  120
 Basis Dimension        Dim             ....  542

ORBITAL ENERGIES
----------------

  NO   OCC          E(Eh)            E(eV)
   0   2.0000     -88.221768     -2400.6363
   1   2.0000     -18.707878      -509.0672
   2   2.0000     -18.686679      -508.4904
   3   2.0000     -18.685023      -508.4453
   4   2.0000     -14.088156      -383.3582
   5   2.0000     -14.059714      -382.5843
   6   2.0000     -14.055617      -382.4728
   7   2.0000     -10.073988      -274.1272
   8   2.0000      -9.974009      -271.4066
   9   2.0000      -9.925097      -270.0756
  10   2.0000      -9.905589      -269.5448
  11   2.0000      -9.893490      -269.2156
  12   2.0000      -9.888909      -269.0909
  13   2.0000      -9.888121      -269.0694
  14   2.0000      -7.752903      -210.9672
  15   2.0000      -5.782111      -157.3392
  16   2.0000      -5.780590      -157.2979
  17   2.0000      -5.779631      -157.2718
  18   2.0000      -0.972744       -26.4697
  19   2.0000      -0.967728       -26.3332
  20   2.0000      -0.869453       -23.6590
  21   2.0000      -0.855853       -23.2889
  22   2.0000      -0.839548       -22.8453
  23   2.0000      -0.838924       -22.8283
  24   2.0000      -0.739527       -20.1235
  25   2.0000      -0.701896       -19.0996
  26   2.0000      -0.658811       -17.9271
  27   2.0000      -0.625781       -17.0284
  28   2.0000      -0.601053       -16.3555
  29   2.0000      -0.572973       -15.5914
  30   2.0000      -0.562806       -15.3147
  31   2.0000      -0.532507       -14.4903
  32   2.0000      -0.509701       -13.8697
  33   2.0000      -0.496163       -13.5013
  34   2.0000      -0.486410       -13.2359
  35   2.0000      -0.462214       -12.5775
  36   2.0000      -0.443768       -12.0755
  37   2.0000      -0.427189       -11.6244
  38   2.0000      -0.422155       -11.4874
  39   2.0000      -0.413414       -11.2496
  40   2.0000      -0.397056       -10.8044
  41   2.0000      -0.382831       -10.4174
  42   2.0000      -0.370305       -10.0765
  43   2.0000      -0.363721        -9.8974
  44   2.0000      -0.344979        -9.3873
  45   2.0000      -0.337791        -9.1918
  46   2.0000      -0.329162        -8.9570
  47   2.0000      -0.321211        -8.7406
  48   2.0000      -0.316061        -8.6005
  49   2.0000      -0.289816        -7.8863
  50   2.0000      -0.287157        -7.8139
  51   2.0000      -0.283384        -7.7113
  52   2.0000      -0.270077        -7.3492
  53   2.0000      -0.254116        -6.9149
  54   2.0000      -0.250640        -6.8203
  55   2.0000      -0.241898        -6.5824
  56   2.0000      -0.212116        -5.7720
  57   2.0000      -0.200690        -5.4611
  58   2.0000      -0.198783        -5.4092
  59   2.0000      -0.167808        -4.5663
  60   0.0000      -0.050753        -1.3811
  61   0.0000      -0.044730        -1.2172
  62   0.0000      -0.017862        -0.4861
  63   0.0000       0.015406         0.4192
  64   0.0000       0.020485         0.5574

MULLIKEN ATOMIC CHARGES
-----------------------
   0 C :   -0.202512
   1 N :   -0.172603
   2 C :   -0.096272
   3 C :   -0.237576
   4 H :    0.079271
   5 H :    0.105748
   6 S :    0.790189
   7 C :    0.342880
   8 N :   -0.341958
   9 N :   -0.388360
  10 H :    0.239908
  11 H :    0.228977
  12 H :    0.267921
  13 H :    0.284466
  14 H :    0.215871
  15 O :   -0.474436
  16 O :   -0.466824
  17 C :   -0.084077
  18 H :    0.093392
  19 H :    0.147130
  20 C :   -0.186140
  21 H :    0.094417
  22 H :    0.061398
  23 C :   -0.192554
  24 H :    0.079827
  25 H :    0.083970
  26 O :   -0.624085
  27 H :    0.100663
  28 H :    0.078104
  29 H :    0.108242
  30 H :    0.065025
Sum of atomic charges:    0.0000000

LOEWDIN ATOMIC CHARGES
----------------------
   0 C :   -0.273894
   1 N :    0.185622
   2 C :   -0.281262
   3 C :   -0.389788
   4 H :    0.119896
   5 H :    0.133387
   6 S :    0.428554
   7 C :   -0.432229
   8 N :    0.068826
   9 N :    0.031865
  10 H :    0.178588
  11 H :    0.176311
  12 H :    0.177575
  13 H :    0.171223
  14 H :    0.172922
  15 O :   -0.314137
  16 O :   -0.311663
  17 C :   -0.262055
  18 H :    0.123598
  19 H :    0.144577
  20 C :   -0.266885
  21 H :    0.141815
  22 H :    0.131291
  23 C :   -0.264431
  24 H :    0.130538
  25 H :    0.138681
  26 O :   -0.395276
  27 H :    0.135324
  28 H :    0.135347
  29 H :    0.134203
  30 H :    0.131475

  Mayer bond orders larger than 0.100000
B(  0-C ,  1-N ) :   0.9263 B(  0-C , 17-C ) :   0.9218 B(  0-C , 18-H ) :   0.9757
B(  0-C , 19-H ) :   0.9650 B(  1-N ,  7-C ) :   1.4294 B(  1-N , 12-H ) :   0.8074
B(  2-C ,  3-C ) :   0.9513 B(  2-C , 20-C ) :   0.9841 B(  2-C , 21-H ) :   0.9506
B(  2-C , 22-H ) :   0.9447 B(  3-C ,  4-H ) :   0.9554 B(  3-C ,  5-H ) :   0.9526
B(  3-C ,  6-S ) :   0.8810 B(  6-S , 15-O ) :   1.9100 B(  6-S , 16-O ) :   1.8465
B(  6-S , 26-O ) :   1.4044 B(  7-C ,  8-N ) :   1.3826 B(  7-C ,  9-N ) :   1.2379
B(  8-N , 13-H ) :   0.8066 B(  8-N , 14-H ) :   0.9210 B(  9-N , 10-H ) :   0.9058
B(  9-N , 11-H ) :   0.9200 B( 12-H , 26-O ) :   0.1420 B( 13-H , 26-O ) :   0.1342
B( 17-C , 23-C ) :   0.9672 B( 17-C , 24-H ) :   0.9630 B( 17-C , 25-H ) :   0.9601
B( 20-C , 23-C ) :   0.9554 B( 20-C , 29-H ) :   0.9507 B( 20-C , 30-H ) :   0.9587
B( 23-C , 27-H ) :   0.9662 B( 23-C , 28-H ) :   0.9618

Dispersion correction           -0.075566865
FINAL SINGLE POINT ENERGY     -1065.231733444233

DIPOLE MOMENT
-------------
                                X             Y             Z
Electronic contribution:      2.24932      -5.02183     -14.38427
Nuclear contribution   :      0.44641       3.59123      19.13564
                        -----------------------------------------
Total Dipole Moment    :      2.69573      -1.43059       4.75137
                        -----------------------------------------
Magnitude (a.u.)       :      5.64704
Magnitude (Debye)      :     14.35364

Rotational constants in cm-1:     0.029186     0.014646     0.011115
Rotational constants in MHz :   874.975540   439.070287   333.231642

                             ****ORCA TERMINATED NORMALLY****
TOTAL RUN TIME: 0 days 0 hours 0 minutes 25 seconds 906 msec
