                         Program Version 5.0.0 -  RELEASE  -
|  1> !BLYP D3BJ RIJCOSX def2-SVP def2/J TightSCF
|  2> *xyz 0 1
|  3> C          0.61188        1.65763       -4.50029
|  4> C          1.69499        1.54179       -5.57045
|  5> H          2.69733        1.73466       -5.18400
|  6> H          1.50666        2.27224       -6.35808
|  7> S          1.78029       -0.03313       -6.42874
|  8> F          2.56929        0.21366       -7.60736
|  9> O          0.41688       -0.46297       -6.61859
| 10> O          2.50513       -0.93326       -5.48257
| 11> H         -0.34424        1.45871       -4.93752
| 12> H          0.61845        2.64655       -4.09174
| 13> H          0.80247        0.94882       -3.72173
| 14> *
| 15> %MaxCore 64000
| 16>
| 17> %pal nprocs 4
| 18> end
| 19>
| 20> %scf
| 21>   MaxIter 150
| 22> end
| 23>
| 24>
| 25>                          ****END OF INPUT****

CARTESIAN COORDINATES (ANGSTROEM)
---------------------------------
  C      0.611880    1.657630   -4.500290
  C      1.694990    1.541790   -5.570450
  H      2.697330    1.734660   -5.184000
  H      1.506660    2.272240   -6.358080
  S      1.780290   -0.033130   -6.428740
  F      2.569290    0.213660   -7.607360
  O      0.416880   -0.462970   -6.618590
  O      2.505130   -0.933260   -5.482570
  H     -0.344240    1.458710   -4.937520
  H      0.618450    2.646550   -4.091740
  H      0.802470    0.948820   -3.721730

 Total Charge           Charge          ....    0
 Multiplicity           Mult            ....    1
 Number of Electrons    NEL             ....   58
 Basis Dimension        Dim             ....  113

ORBITAL ENERGIES
----------------

  NO   OCC          E(Eh)            E(eV)
   0   2.0000     -88.351315     -2404.1615
   1   2.0000     -24.396647      -663.8665
   2   2.0000     -18.779064      -511.0043
   3   2.0000     -18.758135      -510.4348
   4   2.0000      -9.972854      -271.3751
   5   2.0000      -9.939487      -270.4672
   6   2.0000      -7.897552      -214.9033
   7   2.0000      -5.936361      -161.5366
   8   2.0000      -5.929777      -161.3574
   9   2.0000      -5.928331      -161.3181
  10   2.0000      -1.250947       -34.0400
  11   2.0000      -0.991694       -26.9854
  12   2.0000      -0.885219       -24.0880
  13   2.0000      -0.731350       -19.9011
  14   2.0000      -0.650005       -17.6875
  15   2.0000      -0.596499       -16.2316
  16   2.0000      -0.510418       -13.8892
  17   2.0000      -0.504020       -13.7151
  18   2.0000      -0.477011       -12.9801
  19   2.0000      -0.433458       -11.7950
  20   2.0000      -0.411374       -11.1941
  21   2.0000      -0.375271       -10.2116
  22   2.0000      -0.367099        -9.9893
  23   2.0000      -0.354221        -9.6388
  24   2.0000      -0.336293        -9.1510
  25   2.0000      -0.313409        -8.5283
  26   2.0000      -0.269082        -7.3221
  27   2.0000      -0.248445        -6.7605
  28   2.0000      -0.230821        -6.2810
  29   0.0000       0.007944         0.2162
  30   0.0000       0.023992         0.6529
  31   0.0000       0.056200         1.5293
  32   0.0000       0.061842         1.6828
  33   0.0000       0.073327         1.9953

MULLIKEN ATOMIC CHARGES
-----------------------
   0 C :    0.098897
   1 C :   -0.061214
   2 H :    0.035234
   3 H :    0.016140
   4 S :    0.832787
   5 F :   -0.133990
   6 O :   -0.388177
   7 O :   -0.447024
   8 H :    0.018530
   9 H :    0.008167
  10 H :    0.020650
Sum of atomic charges:   -0.0000000

LOEWDIN ATOMIC CHARGES
----------------------
   0 C :   -0.034483
   1 C :   -0.145666
   2 H :    0.030302
   3 H :    0.020462
   4 S :    1.109884
   5 F :   -0.101845
   6 O :   -0.454778
   7 O :   -0.513450
   8 H :    0.028359
   9 H :    0.031218
  10 H :    0.029997

  Mayer bond orders larger than 0.100000
B(  0-C ,  1-C ) :   1.1062 B(  0-C ,  8-H ) :   0.9611 B(  0-C ,  9-H ) :   0.9519
B(  0-C , 10-H ) :   0.9670 B(  1-C ,  2-H ) :   0.9244 B(  1-C ,  3-H ) :   0.9186
B(  1-C ,  4-S ) :   0.9035 B(  4-S ,  5-F ) :   1.0445 B(  4-S ,  6-O ) :   1.7896
B(  4-S ,  7-O ) :   1.7425

Dispersion correction           -0.019568230
FINAL SINGLE POINT ENERGY      -727.153564304318

DIPOLE MOMENT
-------------
                                X             Y             Z
Electronic contribution:      3.87997      -5.79547      -7.60551
Nuclear contribution   :     -3.66946       7.33549       7.42434
                        -----------------------------------------
Total Dipole Moment    :      0.21051       1.54002      -0.18117
                        -----------------------------------------
Magnitude (a.u.)       :      1.56487
Magnitude (Debye)      :      3.97758

Rotational constants in cm-1:     0.158379     0.080294     0.077843
Rotational constants in MHz :  4748.076444  2407.152850  2333.668303

                             ****ORCA TERMINATED NORMALLY****
TOTAL RUN TIME: 0 days 0 hours 0 minutes 3 seconds 776 msec
