                         Program Version 5.0.0 -  RELEASE  -
|  1> !BLYP D3BJ RIJCOSX def2-SVP def2/J TightSCF
|  2> *xyz 0 1
|  3> C          1.96337       -1.74915       -1.89689
|  4> C          2.73849       -2.01517       -3.09711
|  5> C          4.04974       -2.15472       -3.15204
|  6> N          4.65821       -1.98629       -4.31866
|  7> N          4.76423       -2.45444       -2.05049
|  8> H          4.28736       -2.77626       -1.21750
|  9> H          5.75082       -2.65835       -2.12599
| 10> H          2.34518       -1.69027       -3.97145
| 11> H          4.10900       -1.59268       -5.07176
| 12> H          5.64910       -2.15646       -4.42724
| 13> C          2.08852       -0.30091       -1.41520
| 14> H          2.23127       -2.45162       -1.10264
| 15> H          0.93025       -1.97780       -2.15544
| 16> H          1.82118        0.36368       -2.21003
| 17> H          3.09792       -0.11068       -1.11551
| 18> H          1.43391       -0.14382       -0.58352
| 19> *
| 20> %MaxCore 64000
| 21>
| 22> %pal nprocs 4
| 23> end
| 24>
| 25> %scf
| 26>   MaxIter 150
| 27> end
| 28>
| 29>
| 30>                          ****END OF INPUT****

CARTESIAN COORDINATES (ANGSTROEM)
---------------------------------
  C      1.963370   -1.749150   -1.896890
  C      2.738490   -2.015170   -3.097110
  C      4.049740   -2.154720   -3.152040
  N      4.658210   -1.986290   -4.318660
  N      4.764230   -2.454440   -2.050490
  H      4.287360   -2.776260   -1.217500
  H      5.750820   -2.658350   -2.125990
  H      2.345180   -1.690270   -3.971450
  H      4.109000   -1.592680   -5.071760
  H      5.649100   -2.156460   -4.427240
  C      2.088520   -0.300910   -1.415200
  H      2.231270   -2.451620   -1.102640
  H      0.930250   -1.977800   -2.155440
  H      1.821180    0.363680   -2.210030
  H      3.097920   -0.110680   -1.115510
  H      1.433910   -0.143820   -0.583520

 Total Charge           Charge          ....    0
 Multiplicity           Mult            ....    1
 Number of Electrons    NEL             ....   48
 Basis Dimension        Dim             ....  134

ORBITAL ENERGIES
----------------

  NO   OCC          E(Eh)            E(eV)
   0   2.0000     -14.013659      -381.3310
   1   2.0000     -14.011295      -381.2667
   2   2.0000      -9.948983      -270.7256
   3   2.0000      -9.888466      -269.0788
   4   2.0000      -9.881525      -268.8900
   5   2.0000      -9.829131      -267.4643
   6   2.0000      -0.849284       -23.1102
   7   2.0000      -0.767685       -20.8898
   8   2.0000      -0.675056       -18.3692
   9   2.0000      -0.602981       -16.4079
  10   2.0000      -0.536075       -14.5873
  11   2.0000      -0.505721       -13.7614
  12   2.0000      -0.474878       -12.9221
  13   2.0000      -0.441123       -12.0036
  14   2.0000      -0.411817       -11.2061
  15   2.0000      -0.376101       -10.2342
  16   2.0000      -0.356185        -9.6923
  17   2.0000      -0.322595        -8.7783
  18   2.0000      -0.319206        -8.6860
  19   2.0000      -0.297642        -8.0992
  20   2.0000      -0.272048        -7.4028
  21   2.0000      -0.263896        -7.1810
  22   2.0000      -0.203780        -5.5451
  23   2.0000      -0.108365        -2.9488
  24   0.0000       0.019619         0.5339
  25   0.0000       0.051720         1.4074
  26   0.0000       0.062955         1.7131
  27   0.0000       0.080202         2.1824
  28   0.0000       0.085509         2.3268

MULLIKEN ATOMIC CHARGES
-----------------------
   0 C :    0.122857
   1 C :   -0.096460
   2 C :   -0.185672
   3 N :    0.048044
   4 N :    0.015745
   5 H :    0.092595
   6 H :    0.074931
   7 H :   -0.149873
   8 H :    0.095564
   9 H :    0.072896
  10 C :    0.132158
  11 H :   -0.061947
  12 H :   -0.051305
  13 H :   -0.036663
  14 H :   -0.031950
  15 H :   -0.040918
Sum of atomic charges:   -0.0000000

LOEWDIN ATOMIC CHARGES
----------------------
   0 C :   -0.028563
   1 C :   -0.214349
   2 C :    0.008534
   3 N :   -0.000803
   4 N :   -0.010429
   5 H :    0.073188
   6 H :    0.058579
   7 H :   -0.018654
   8 H :    0.077351
   9 H :    0.058406
  10 C :   -0.042983
  11 H :    0.000939
  12 H :    0.016048
  13 H :    0.010143
  14 H :    0.008449
  15 H :    0.004145

  Mayer bond orders larger than 0.100000
B(  0-C ,  1-C ) :   1.1079 B(  0-C , 10-C ) :   1.1097 B(  0-C , 11-H ) :   0.9089
B(  0-C , 12-H ) :   0.8948 B(  1-C ,  2-C ) :   1.6726 B(  1-C ,  7-H ) :   0.8900
B(  2-C ,  3-N ) :   1.2637 B(  2-C ,  4-N ) :   1.2665 B(  3-N ,  8-H ) :   0.9298
B(  3-N ,  9-H ) :   0.9428 B(  4-N ,  5-H ) :   0.9385 B(  4-N ,  6-H ) :   0.9436
B( 10-C , 13-H ) :   0.9568 B( 10-C , 14-H ) :   0.9632 B( 10-C , 15-H ) :   0.9473

Dispersion correction           -0.026191687
FINAL SINGLE POINT ENERGY      -267.588921479304

DIPOLE MOMENT
-------------
                                X             Y             Z
Electronic contribution:      3.49792      -2.50434      -2.58043
Nuclear contribution   :     -2.31778       2.31977       2.35294
                        -----------------------------------------
Total Dipole Moment    :      1.18014      -0.18457      -0.22749
                        -----------------------------------------
Magnitude (a.u.)       :      1.21596
Magnitude (Debye)      :      3.09072

Rotational constants in cm-1:     0.219415     0.075373     0.066689
Rotational constants in MHz :  6577.897266  2259.621393  1999.290981

                             ****ORCA TERMINATED NORMALLY****
TOTAL RUN TIME: 0 days 0 hours 0 minutes 4 seconds 612 msec
