                         Program Version 5.0.0 -  RELEASE  -
|  1> !BLYP D3BJ RIJCOSX def2-SVP def2/J TightSCF
|  2> *xyz 0 1
|  3> C          0.61188        1.65763       -4.50029
|  4> C          1.69499        1.54179       -5.57045
|  5> H          2.69733        1.73466       -5.18400
|  6> H          1.50666        2.27224       -6.35808
|  7> S          1.78029       -0.03313       -6.42874
|  8> O          2.56929        0.21366       -7.60736
|  9> F          0.41688       -0.46297       -6.61859
| 10> O          2.50513       -0.93326       -5.48257
| 11> H         -0.34424        1.45871       -4.93752
| 12> H          0.61845        2.64655       -4.09174
| 13> H          0.80247        0.94882       -3.72173
| 14> *
| 15> %MaxCore 64000
| 16>
| 17> %pal nprocs 4
| 18> end
| 19>
| 20> %scf
| 21>   MaxIter 150
| 22> end
| 23>
| 24>
| 25>                          ****END OF INPUT****

CARTESIAN COORDINATES (ANGSTROEM)
---------------------------------
  C      0.611880    1.657630   -4.500290
  C      1.694990    1.541790   -5.570450
  H      2.697330    1.734660   -5.184000
  H      1.506660    2.272240   -6.358080
  S      1.780290   -0.033130   -6.428740
  O      2.569290    0.213660   -7.607360
  F      0.416880   -0.462970   -6.618590
  O      2.505130   -0.933260   -5.482570
  H     -0.344240    1.458710   -4.937520
  H      0.618450    2.646550   -4.091740
  H      0.802470    0.948820   -3.721730

 Total Charge           Charge          ....    0
 Multiplicity           Mult            ....    1
 Number of Electrons    NEL             ....   58
 Basis Dimension        Dim             ....  113

ORBITAL ENERGIES
----------------

  NO   OCC          E(Eh)            E(eV)
   0   2.0000     -88.350867     -2404.1493
   1   2.0000     -24.396787      -663.8703
   2   2.0000     -18.778185      -510.9804
   3   2.0000     -18.758480      -510.4442
   4   2.0000      -9.972464      -271.3645
   5   2.0000      -9.944906      -270.6147
   6   2.0000      -7.897158      -214.8926
   7   2.0000      -5.936113      -161.5299
   8   2.0000      -5.929294      -161.3443
   9   2.0000      -5.927894      -161.3062
  10   2.0000      -1.249713       -34.0064
  11   2.0000      -0.992497       -27.0072
  12   2.0000      -0.884987       -24.0817
  13   2.0000      -0.735143       -20.0043
  14   2.0000      -0.646385       -17.5890
  15   2.0000      -0.601498       -16.3676
  16   2.0000      -0.521060       -14.1788
  17   2.0000      -0.502770       -13.6811
  18   2.0000      -0.467911       -12.7325
  19   2.0000      -0.434550       -11.8247
  20   2.0000      -0.409078       -11.1316
  21   2.0000      -0.387562       -10.5461
  22   2.0000      -0.367755       -10.0071
  23   2.0000      -0.358135        -9.7453
  24   2.0000      -0.341116        -9.2822
  25   2.0000      -0.312749        -8.5103
  26   2.0000      -0.268771        -7.3136
  27   2.0000      -0.248054        -6.7499
  28   2.0000      -0.231045        -6.2871
  29   0.0000      -0.001081        -0.0294
  30   0.0000       0.033091         0.9005
  31   0.0000       0.053146         1.4462
  32   0.0000       0.064826         1.7640
  33   0.0000       0.073870         2.0101

MULLIKEN ATOMIC CHARGES
-----------------------
   0 C :    0.080512
   1 C :   -0.063382
   2 H :    0.060049
   3 H :    0.027666
   4 S :    0.831883
   5 O :   -0.383363
   6 F :   -0.136945
   7 O :   -0.446074
   8 H :   -0.000645
   9 H :    0.012360
  10 H :    0.017939
Sum of atomic charges:    0.0000000

LOEWDIN ATOMIC CHARGES
----------------------
   0 C :   -0.049802
   1 C :   -0.141932
   2 H :    0.046285
   3 H :    0.025749
   4 S :    1.110519
   5 O :   -0.452027
   6 F :   -0.103584
   7 O :   -0.512889
   8 H :    0.019091
   9 H :    0.032218
  10 H :    0.026373

  Mayer bond orders larger than 0.100000
B(  0-C ,  1-C ) :   1.0804 B(  0-C ,  8-H ) :   0.9662 B(  0-C ,  9-H ) :   0.9523
B(  0-C , 10-H ) :   0.9655 B(  1-C ,  2-H ) :   0.9313 B(  1-C ,  3-H ) :   0.9247
B(  1-C ,  4-S ) :   0.9079 B(  4-S ,  5-O ) :   1.7961 B(  4-S ,  6-F ) :   1.0379
B(  4-S ,  7-O ) :   1.7423

Dispersion correction           -0.019446236
FINAL SINGLE POINT ENERGY      -727.153209150809

DIPOLE MOMENT
-------------
                                X             Y             Z
Electronic contribution:      0.30735      -6.91408      -5.93833
Nuclear contribution   :     -1.42658       8.04056       6.39401
                        -----------------------------------------
Total Dipole Moment    :     -1.11924       1.12648       0.45568
                        -----------------------------------------
Magnitude (a.u.)       :      1.65206
Magnitude (Debye)      :      4.19920

Rotational constants in cm-1:     0.153659     0.082363     0.078978
Rotational constants in MHz :  4606.587369  2469.179541  2367.702074

                             ****ORCA TERMINATED NORMALLY****
TOTAL RUN TIME: 0 days 0 hours 0 minutes 3 seconds 993 msec
