                         Program Version 5.0.0 -  RELEASE  -
|  1> !BLYP D3BJ RIJCOSX def2-SVP def2/J TightSCF
|  2> *xyz 0 1
|  3> C          1.96337       -1.74915       -1.89689
|  4> N          2.73849       -2.01517       -3.09711
|  5> C          4.04974       -2.15472       -3.15204
|  6> C          4.65821       -1.98629       -4.31866
|  7> N          4.76423       -2.45444       -2.05049
|  8> H          4.28736       -2.77626       -1.21750
|  9> H          5.75082       -2.65835       -2.12599
| 10> H          2.34518       -1.69027       -3.97145
| 11> H          4.10900       -1.59268       -5.07176
| 12> H          5.64910       -2.15646       -4.42724
| 13> C          2.08852       -0.30091       -1.41520
| 14> H          2.23127       -2.45162       -1.10264
| 15> H          0.93025       -1.97780       -2.15544
| 16> H          1.82118        0.36368       -2.21003
| 17> H          3.09792       -0.11068       -1.11551
| 18> H          1.43391       -0.14382       -0.58352
| 19> *
| 20> %MaxCore 64000
| 21>
| 22> %pal nprocs 4
| 23> end
| 24>
| 25> %scf
| 26>   MaxIter 150
| 27> end
| 28>
| 29>
| 30>                          ****END OF INPUT****

CARTESIAN COORDINATES (ANGSTROEM)
---------------------------------
  C      1.963370   -1.749150   -1.896890
  N      2.738490   -2.015170   -3.097110
  C      4.049740   -2.154720   -3.152040
  C      4.658210   -1.986290   -4.318660
  N      4.764230   -2.454440   -2.050490
  H      4.287360   -2.776260   -1.217500
  H      5.750820   -2.658350   -2.125990
  H      2.345180   -1.690270   -3.971450
  H      4.109000   -1.592680   -5.071760
  H      5.649100   -2.156460   -4.427240
  C      2.088520   -0.300910   -1.415200
  H      2.231270   -2.451620   -1.102640
  H      0.930250   -1.977800   -2.155440
  H      1.821180    0.363680   -2.210030
  H      3.097920   -0.110680   -1.115510
  H      1.433910   -0.143820   -0.583520

 Total Charge           Charge          ....    0
 Multiplicity           Mult            ....    1
 Number of Electrons    NEL             ....   48
 Basis Dimension        Dim             ....  134

ORBITAL ENERGIES
----------------

  NO   OCC          E(Eh)            E(eV)
   0   2.0000     -14.012615      -381.3026
   1   2.0000     -14.010186      -381.2365
   2   2.0000      -9.956703      -270.9357
   3   2.0000      -9.950246      -270.7600
   4   2.0000      -9.909695      -269.6565
   5   2.0000      -9.827653      -267.4240
   6   2.0000      -0.859373       -23.3847
   7   2.0000      -0.780554       -21.2400
   8   2.0000      -0.679736       -18.4966
   9   2.0000      -0.611539       -16.6408
  10   2.0000      -0.550372       -14.9764
  11   2.0000      -0.526133       -14.3168
  12   2.0000      -0.468461       -12.7475
  13   2.0000      -0.432107       -11.7582
  14   2.0000      -0.419215       -11.4074
  15   2.0000      -0.379980       -10.3398
  16   2.0000      -0.371543       -10.1102
  17   2.0000      -0.343463        -9.3461
  18   2.0000      -0.324604        -8.8329
  19   2.0000      -0.319515        -8.6944
  20   2.0000      -0.307534        -8.3684
  21   2.0000      -0.299465        -8.1488
  22   2.0000      -0.195813        -5.3283
  23   2.0000      -0.114084        -3.1044
  24   0.0000       0.020468         0.5570
  25   0.0000       0.047277         1.2865
  26   0.0000       0.061644         1.6774
  27   0.0000       0.075338         2.0500
  28   0.0000       0.084714         2.3052

MULLIKEN ATOMIC CHARGES
-----------------------
   0 C :    0.089152
   1 N :   -0.017119
   2 C :   -0.148538
   3 C :    0.014008
   4 N :    0.002015
   5 H :    0.074499
   6 H :    0.094974
   7 H :    0.090040
   8 H :   -0.105830
   9 H :   -0.106868
  10 C :    0.104947
  11 H :   -0.021152
  12 H :   -0.022364
  13 H :   -0.017149
  14 H :   -0.008327
  15 H :   -0.022286
Sum of atomic charges:   -0.0000000

LOEWDIN ATOMIC CHARGES
----------------------
   0 C :    0.031994
   1 N :   -0.003022
   2 C :    0.015047
   3 C :   -0.237375
   4 N :   -0.009691
   5 H :    0.056368
   6 H :    0.077030
   7 H :    0.077420
   8 H :   -0.016313
   9 H :   -0.016161
  10 C :   -0.052496
  11 H :    0.010524
  12 H :    0.017503
  13 H :    0.016047
  14 H :    0.017605
  15 H :    0.015519

  Mayer bond orders larger than 0.100000
B(  0-C ,  1-N ) :   1.0589 B(  0-C , 10-C ) :   1.1027 B(  0-C , 11-H ) :   0.9355
B(  0-C , 12-H ) :   0.9393 B(  1-N ,  2-C ) :   1.2300 B(  1-N ,  7-H ) :   0.9155
B(  2-C ,  3-C ) :   1.7365 B(  2-C ,  4-N ) :   1.2356 B(  3-C ,  8-H ) :   0.8971
B(  3-C ,  9-H ) :   0.9140 B(  4-N ,  5-H ) :   0.9446 B(  4-N ,  6-H ) :   0.9405
B( 10-C , 13-H ) :   0.9605 B( 10-C , 14-H ) :   0.9588 B( 10-C , 15-H ) :   0.9483

Dispersion correction           -0.025905936
FINAL SINGLE POINT ENERGY      -267.587005947034

DIPOLE MOMENT
-------------
                                X             Y             Z
Electronic contribution:      1.45713      -2.40401      -1.19744
Nuclear contribution   :     -1.91052       2.32590       2.09379
                        -----------------------------------------
Total Dipole Moment    :     -0.45339      -0.07811       0.89635
                        -----------------------------------------
Magnitude (a.u.)       :      1.00753
Magnitude (Debye)      :      2.56093

Rotational constants in cm-1:     0.219448     0.077923     0.068804
Rotational constants in MHz :  6578.886179  2336.083179  2062.700476

                             ****ORCA TERMINATED NORMALLY****
TOTAL RUN TIME: 0 days 0 hours 0 minutes 4 seconds 791 msec
