                         Program Version 5.0.0 -  RELEASE  -
|  1> !BLYP D3BJ RIJCOSX def2-SVP def2/J TightSCF
|  2> *xyz 0 1
|  3> C          0.61188        1.65763       -4.50029
|  4> C          1.69499        1.54179       -5.57045
|  5> H          2.69733        1.73466       -5.18400
|  6> H          1.50666        2.27224       -6.35808
|  7> S          1.78029       -0.03313       -6.42874
|  8> O          2.56929        0.21366       -7.60736
|  9> O          0.41688       -0.46297       -6.61859
| 10> F          2.50513       -0.93326       -5.48257
| 11> H         -0.34424        1.45871       -4.93752
| 12> H          0.61845        2.64655       -4.09174
| 13> H          0.80247        0.94882       -3.72173
| 14> *
| 15> %MaxCore 64000
| 16>
| 17> %pal nprocs 4
| 18> end
| 19>
| 20> %scf
| 21>   MaxIter 150
| 22> end
| 23>
| 24>
| 25>                          ****END OF INPUT****

CARTESIAN COORDINATES (ANGSTROEM)
---------------------------------
  C      0.611880    1.657630   -4.500290
  C      1.694990    1.541790   -5.570450
  H      2.697330    1.734660   -5.184000
  H      1.506660    2.272240   -6.358080
  S      1.780290   -0.033130   -6.428740
  O      2.569290    0.213660   -7.607360
  O      0.416880   -0.462970   -6.618590
  F      2.505130   -0.933260   -5.482570
  H     -0.344240    1.458710   -4.937520
  H      0.618450    2.646550   -4.091740
  H      0.802470    0.948820   -3.721730

 Total Charge           Charge          ....    0
 Multiplicity           Mult            ....    1
 Number of Electrons    NEL             ....   58
 Basis Dimension        Dim             ....  113

ORBITAL ENERGIES
----------------

  NO   OCC          E(Eh)            E(eV)
   0   2.0000     -88.349733     -2404.1185
   1   2.0000     -24.368860      -663.1104
   2   2.0000     -18.780271      -511.0371
   3   2.0000     -18.778507      -510.9892
   4   2.0000      -9.971590      -271.3408
   5   2.0000      -9.940063      -270.4829
   6   2.0000      -7.895851      -214.8570
   7   2.0000      -5.934384      -161.4828
   8   2.0000      -5.928396      -161.3198
   9   2.0000      -5.926901      -161.2792
  10   2.0000      -1.205628       -32.8068
  11   2.0000      -1.004315       -27.3288
  12   2.0000      -0.914569       -24.8867
  13   2.0000      -0.731965       -19.9178
  14   2.0000      -0.633419       -17.2362
  15   2.0000      -0.587837       -15.9958
  16   2.0000      -0.500252       -13.6126
  17   2.0000      -0.472350       -12.8533
  18   2.0000      -0.466399       -12.6914
  19   2.0000      -0.430474       -11.7138
  20   2.0000      -0.409922       -11.1545
  21   2.0000      -0.387192       -10.5360
  22   2.0000      -0.369256       -10.0480
  23   2.0000      -0.350812        -9.5461
  24   2.0000      -0.344994        -9.3878
  25   2.0000      -0.318771        -8.6742
  26   2.0000      -0.273673        -7.4470
  27   2.0000      -0.271326        -7.3832
  28   2.0000      -0.253810        -6.9065
  29   0.0000       0.006189         0.1684
  30   0.0000       0.031820         0.8659
  31   0.0000       0.057887         1.5752
  32   0.0000       0.063204         1.7199
  33   0.0000       0.074009         2.0139

MULLIKEN ATOMIC CHARGES
-----------------------
   0 C :    0.091135
   1 C :   -0.074679
   2 H :    0.029687
   3 H :    0.051557
   4 S :    0.846178
   5 O :   -0.391620
   6 O :   -0.393685
   7 F :   -0.189712
   8 H :    0.022463
   9 H :    0.006318
  10 H :    0.002358
Sum of atomic charges:   -0.0000000

LOEWDIN ATOMIC CHARGES
----------------------
   0 C :   -0.046203
   1 C :   -0.147595
   2 H :    0.026978
   3 H :    0.041996
   4 S :    1.119299
   5 O :   -0.458395
   6 O :   -0.458259
   7 F :   -0.157962
   8 H :    0.028279
   9 H :    0.029874
  10 H :    0.021988

  Mayer bond orders larger than 0.100000
B(  0-C ,  1-C ) :   1.0835 B(  0-C ,  8-H ) :   0.9621 B(  0-C ,  9-H ) :   0.9503
B(  0-C , 10-H ) :   0.9680 B(  1-C ,  2-H ) :   0.9266 B(  1-C ,  3-H ) :   0.9300
B(  1-C ,  4-S ) :   0.9011 B(  4-S ,  5-O ) :   1.8030 B(  4-S ,  6-O ) :   1.7968
B(  4-S ,  7-F ) :   0.9843

Dispersion correction           -0.019503040
FINAL SINGLE POINT ENERGY      -727.178268817508

DIPOLE MOMENT
-------------
                                X             Y             Z
Electronic contribution:      3.79012      -7.72289      -4.04510
Nuclear contribution   :     -3.60260       8.53062       5.21025
                        -----------------------------------------
Total Dipole Moment    :      0.18752       0.80772       1.16514
                        -----------------------------------------
Magnitude (a.u.)       :      1.43008
Magnitude (Debye)      :      3.63498

Rotational constants in cm-1:     0.154011     0.080858     0.079602
Rotational constants in MHz :  4617.134198  2424.070332  2386.404775

                             ****ORCA TERMINATED NORMALLY****
TOTAL RUN TIME: 0 days 0 hours 0 minutes 3 seconds 788 msec
