                         Program Version 5.0.0 -  RELEASE  -
|  1> !BLYP D3BJ RIJCOSX def2-SVP def2/J TightSCF
|  2> *xyz 0 1
|  3> C          1.96337       -1.74915       -1.89689
|  4> N          2.73849       -2.01517       -3.09711
|  5> C          4.04974       -2.15472       -3.15204
|  6> N          4.65821       -1.98629       -4.31866
|  7> C          4.76423       -2.45444       -2.05049
|  8> H          4.28736       -2.77626       -1.21750
|  9> H          5.75082       -2.65835       -2.12599
| 10> H          2.34518       -1.69027       -3.97145
| 11> H          4.10900       -1.59268       -5.07176
| 12> H          5.64910       -2.15646       -4.42724
| 13> C          2.08852       -0.30091       -1.41520
| 14> H          2.23127       -2.45162       -1.10264
| 15> H          0.93025       -1.97780       -2.15544
| 16> H          1.82118        0.36368       -2.21003
| 17> H          3.09792       -0.11068       -1.11551
| 18> H          1.43391       -0.14382       -0.58352
| 19> *
| 20> %MaxCore 64000
| 21>
| 22> %pal nprocs 4
| 23> end
| 24>
| 25> %scf
| 26>   MaxIter 150
| 27> end
| 28>
| 29>
| 30>                          ****END OF INPUT****

CARTESIAN COORDINATES (ANGSTROEM)
---------------------------------
  C      1.963370   -1.749150   -1.896890
  N      2.738490   -2.015170   -3.097110
  C      4.049740   -2.154720   -3.152040
  N      4.658210   -1.986290   -4.318660
  C      4.764230   -2.454440   -2.050490
  H      4.287360   -2.776260   -1.217500
  H      5.750820   -2.658350   -2.125990
  H      2.345180   -1.690270   -3.971450
  H      4.109000   -1.592680   -5.071760
  H      5.649100   -2.156460   -4.427240
  C      2.088520   -0.300910   -1.415200
  H      2.231270   -2.451620   -1.102640
  H      0.930250   -1.977800   -2.155440
  H      1.821180    0.363680   -2.210030
  H      3.097920   -0.110680   -1.115510
  H      1.433910   -0.143820   -0.583520

 Total Charge           Charge          ....    0
 Multiplicity           Mult            ....    1
 Number of Electrons    NEL             ....   48
 Basis Dimension        Dim             ....  134

ORBITAL ENERGIES
----------------

  NO   OCC          E(Eh)            E(eV)
   0   2.0000     -14.014696      -381.3593
   1   2.0000     -14.013920      -381.3381
   2   2.0000      -9.951794      -270.8021
   3   2.0000      -9.949306      -270.7344
   4   2.0000      -9.902305      -269.4554
   5   2.0000      -9.825757      -267.3724
   6   2.0000      -0.864655       -23.5285
   7   2.0000      -0.784166       -21.3382
   8   2.0000      -0.663808       -18.0631
   9   2.0000      -0.614392       -16.7185
  10   2.0000      -0.563729       -15.3398
  11   2.0000      -0.489825       -13.3288
  12   2.0000      -0.479575       -13.0499
  13   2.0000      -0.457585       -12.4515
  14   2.0000      -0.407582       -11.0909
  15   2.0000      -0.380445       -10.3524
  16   2.0000      -0.357416        -9.7258
  17   2.0000      -0.338317        -9.2061
  18   2.0000      -0.324159        -8.8208
  19   2.0000      -0.309409        -8.4194
  20   2.0000      -0.303866        -8.2686
  21   2.0000      -0.295110        -8.0304
  22   2.0000      -0.194263        -5.2862
  23   2.0000      -0.113626        -3.0919
  24   0.0000       0.017654         0.4804
  25   0.0000       0.050779         1.3818
  26   0.0000       0.066341         1.8052
  27   0.0000       0.073499         2.0000
  28   0.0000       0.091980         2.5029

MULLIKEN ATOMIC CHARGES
-----------------------
   0 C :    0.118353
   1 N :   -0.034502
   2 C :   -0.147870
   3 N :    0.027435
   4 C :   -0.013978
   5 H :   -0.091878
   6 H :   -0.110014
   7 H :    0.065462
   8 H :    0.070549
   9 H :    0.099672
  10 C :    0.096740
  11 H :    0.001162
  12 H :   -0.029578
  13 H :   -0.032025
  14 H :    0.001388
  15 H :   -0.020915
Sum of atomic charges:    0.0000000

LOEWDIN ATOMIC CHARGES
----------------------
   0 C :    0.046150
   1 N :   -0.001962
   2 C :    0.012135
   3 N :    0.001372
   4 C :   -0.251367
   5 H :   -0.014760
   6 H :   -0.017750
   7 H :    0.055511
   8 H :    0.055613
   9 H :    0.079370
  10 C :   -0.050393
  11 H :    0.023494
  12 H :    0.013848
  13 H :    0.009552
  14 H :    0.022419
  15 H :    0.016767

  Mayer bond orders larger than 0.100000
B(  0-C ,  1-N ) :   1.0471 B(  0-C , 10-C ) :   1.1256 B(  0-C , 11-H ) :   0.9303
B(  0-C , 12-H ) :   0.9405 B(  1-N ,  2-C ) :   1.2101 B(  1-N ,  7-H ) :   0.9260
B(  2-C ,  3-N ) :   1.2547 B(  2-C ,  4-C ) :   1.7383 B(  3-N ,  8-H ) :   0.9429
B(  3-N ,  9-H ) :   0.9383 B(  4-C ,  5-H ) :   0.9096 B(  4-C ,  6-H ) :   0.9111
B( 10-C , 13-H ) :   0.9584 B( 10-C , 14-H ) :   0.9573 B( 10-C , 15-H ) :   0.9510

Dispersion correction           -0.026075669
FINAL SINGLE POINT ENERGY      -267.585519352155

DIPOLE MOMENT
-------------
                                X             Y             Z
Electronic contribution:      1.36869      -1.83943      -3.56730
Nuclear contribution   :     -1.88803       2.22658       2.57497
                        -----------------------------------------
Total Dipole Moment    :     -0.51934       0.38715      -0.99233
                        -----------------------------------------
Magnitude (a.u.)       :      1.18503
Magnitude (Debye)      :      3.01212

Rotational constants in cm-1:     0.226509     0.075782     0.067928
Rotational constants in MHz :  6790.555051  2271.890226  2036.439218

                             ****ORCA TERMINATED NORMALLY****
TOTAL RUN TIME: 0 days 0 hours 0 minutes 5 seconds 81 msec
