                         Program Version 5.0.0 -  RELEASE  -
|  1> !BLYP D3BJ RIJCOSX def2-TZVP def2/J TightSCF xyzfile
|  2>
|  3> *xyzfile 0 1 D4.xyz
|  4>
|  5> %MaxCore 64000
|  6>
|  7> %pal nprocs 18
|  8> end
|  9>
| 10> %scf
| 11>   MaxIter 150
| 12> end
| 13>
| 14>
| 15>                          ****END OF INPUT****

CARTESIAN COORDINATES (ANGSTROEM)
---------------------------------
  C      1.963365   -1.749150   -1.896887
  C      2.738490   -2.015170   -3.097113
  C      0.611877    1.657634   -4.500288
  C      1.694991    1.541794   -5.570447
  H      2.697326    1.734659   -5.183996
  H      1.506656    2.272239   -6.358076
  S      1.780287   -0.033128   -6.428739
  C      4.049736   -2.154717   -3.152044
  N      4.658206   -1.986293   -4.318655
  N      4.764231   -2.454435   -2.050491
  H      4.287363   -2.776259   -1.217496
  H      5.750825   -2.658351   -2.125988
  H      2.345176   -1.690274   -3.971447
  H      4.109004   -1.592677   -5.071760
  H      5.649095   -2.156462   -4.427237
  O      2.569287    0.213657   -7.607360
  F      0.416880   -0.462969   -6.618595
  C      2.088520   -0.300912   -1.415204
  H      2.231272   -2.451616   -1.102643
  H      0.930249   -1.977801   -2.155438
  C      0.680356    0.655418   -3.348038
  H     -0.356865    1.549231   -4.991128
  H      0.650228    2.675438   -4.096000
  C      1.968993    0.733582   -2.535654
  H      3.051356   -0.168602   -0.911868
  H      1.316501   -0.136231   -0.657252
  O      2.505129   -0.933263   -5.482570
  H      2.824195    0.624726   -3.208464
  H      2.058919    1.730331   -2.093112
  H      0.542252   -0.344731   -3.766662
  H     -0.174219    0.829692   -2.685182

 Total Charge           Charge          ....    0
 Multiplicity           Mult            ....    1
 Number of Electrons    NEL             ....  120
 Basis Dimension        Dim             ....  542

ORBITAL ENERGIES
----------------

  NO   OCC          E(Eh)            E(eV)
   0   2.0000     -88.343173     -2403.9400
   1   2.0000     -24.407141      -664.1521
   2   2.0000     -18.789771      -511.2957
   3   2.0000     -18.776273      -510.9284
   4   2.0000     -13.986571      -380.5940
   5   2.0000     -13.970910      -380.1678
   6   2.0000      -9.961931      -271.0779
   7   2.0000      -9.929539      -270.1965
   8   2.0000      -9.917556      -269.8704
   9   2.0000      -9.902679      -269.4656
  10   2.0000      -9.887885      -269.0630
  11   2.0000      -9.876039      -268.7407
  12   2.0000      -9.864349      -268.4226
  13   2.0000      -9.789840      -266.3951
  14   2.0000      -7.874965      -214.2887
  15   2.0000      -5.907155      -160.7419
  16   2.0000      -5.900810      -160.5692
  17   2.0000      -5.899862      -160.5434
  18   2.0000      -1.277713       -34.7683
  19   2.0000      -1.016170       -27.6514
  20   2.0000      -0.921106       -25.0646
  21   2.0000      -0.845900       -23.0181
  22   2.0000      -0.764854       -20.8127
  23   2.0000      -0.756512       -20.5857
  24   2.0000      -0.710168       -19.3247
  25   2.0000      -0.674596       -18.3567
  26   2.0000      -0.650047       -17.6887
  27   2.0000      -0.619689       -16.8626
  28   2.0000      -0.581614       -15.8265
  29   2.0000      -0.552334       -15.0298
  30   2.0000      -0.531971       -14.4757
  31   2.0000      -0.528724       -14.3873
  32   2.0000      -0.515672       -14.0321
  33   2.0000      -0.489505       -13.3201
  34   2.0000      -0.482609       -13.1325
  35   2.0000      -0.464215       -12.6319
  36   2.0000      -0.440202       -11.9785
  37   2.0000      -0.436321       -11.8729
  38   2.0000      -0.421758       -11.4766
  39   2.0000      -0.416168       -11.3245
  40   2.0000      -0.408851       -11.1254
  41   2.0000      -0.389817       -10.6074
  42   2.0000      -0.383738       -10.4420
  43   2.0000      -0.377844       -10.2817
  44   2.0000      -0.367072        -9.9885
  45   2.0000      -0.341184        -9.2841
  46   2.0000      -0.335903        -9.1404
  47   2.0000      -0.329858        -8.9759
  48   2.0000      -0.322788        -8.7835
  49   2.0000      -0.310835        -8.4583
  50   2.0000      -0.301485        -8.2038
  51   2.0000      -0.290686        -7.9100
  52   2.0000      -0.286882        -7.8065
  53   2.0000      -0.281268        -7.6537
  54   2.0000      -0.272882        -7.4255
  55   2.0000      -0.267098        -7.2681
  56   2.0000      -0.256757        -6.9867
  57   2.0000      -0.233382        -6.3507
  58   2.0000      -0.195327        -5.3151
  59   2.0000      -0.101325        -2.7572
  60   0.0000      -0.023965        -0.6521
  61   0.0000       0.007822         0.2129
  62   0.0000       0.013051         0.3551
  63   0.0000       0.023413         0.6371
  64   0.0000       0.029258         0.7962

MULLIKEN ATOMIC CHARGES
-----------------------
   0 C :   -0.253291
   1 C :   -0.244226
   2 C :   -0.153676
   3 C :   -0.234148
   4 H :    0.147647
   5 H :    0.134558
   6 S :    0.802906
   7 C :    0.231126
   8 N :   -0.410645
   9 N :   -0.425090
  10 H :    0.210818
  11 H :    0.184333
  12 H :    0.126329
  13 H :    0.231749
  14 H :    0.177020
  15 O :   -0.374561
  16 F :   -0.079407
  17 C :   -0.062866
  18 H :    0.048062
  19 H :    0.070753
  20 C :   -0.209645
  21 H :    0.098989
  22 H :    0.091721
  23 C :   -0.119897
  24 H :    0.062309
  25 H :    0.043073
  26 O :   -0.435388
  27 H :    0.101645
  28 H :    0.061037
  29 H :    0.102714
  30 H :    0.076052
Sum of atomic charges:    0.0000000

LOEWDIN ATOMIC CHARGES
----------------------
   0 C :   -0.291273
   1 C :   -0.287248
   2 C :   -0.282884
   3 C :   -0.362083
   4 H :    0.148014
   5 H :    0.139710
   6 S :    0.524022
   7 C :   -0.466344
   8 N :   -0.005650
   9 N :   -0.016117
  10 H :    0.167043
  11 H :    0.151658
  12 H :    0.113901
  13 H :    0.161577
  14 H :    0.149472
  15 O :   -0.237992
  16 F :    0.118245
  17 C :   -0.254736
  18 H :    0.122513
  19 H :    0.134046
  20 C :   -0.262575
  21 H :    0.134715
  22 H :    0.143167
  23 C :   -0.262262
  24 H :    0.130754
  25 H :    0.122186
  26 O :   -0.269190
  27 H :    0.137342
  28 H :    0.128470
  29 H :    0.135550
  30 H :    0.135971

  Mayer bond orders larger than 0.100000
B(  0-C ,  1-C ) :   1.0207 B(  0-C , 17-C ) :   0.9304 B(  0-C , 18-H ) :   0.9680
B(  0-C , 19-H ) :   0.9835 B(  1-C ,  7-C ) :   1.6456 B(  1-C , 12-H ) :   1.0013
B(  2-C ,  3-C ) :   0.9482 B(  2-C , 20-C ) :   0.9478 B(  2-C , 21-H ) :   0.9708
B(  2-C , 22-H ) :   0.9418 B(  3-C ,  4-H ) :   0.9400 B(  3-C ,  5-H ) :   0.9429
B(  3-C ,  6-S ) :   0.9042 B(  6-S , 15-O ) :   1.9766 B(  6-S , 16-F ) :   1.1470
B(  6-S , 26-O ) :   1.7413 B(  7-C ,  8-N ) :   1.1955 B(  7-C ,  9-N ) :   1.1364
B(  8-N , 13-H ) :   0.8790 B(  8-N , 14-H ) :   0.9355 B(  9-N , 10-H ) :   0.9240
B(  9-N , 11-H ) :   0.9335 B( 17-C , 23-C ) :   0.9899 B( 17-C , 24-H ) :   0.9518
B( 17-C , 25-H ) :   0.9544 B( 20-C , 23-C ) :   0.9282 B( 20-C , 29-H ) :   0.9794
B( 20-C , 30-H ) :   0.9597 B( 23-C , 27-H ) :   0.9683 B( 23-C , 28-H ) :   0.9567

Dispersion correction           -0.076003239
FINAL SINGLE POINT ENERGY     -1073.085918596105

DIPOLE MOMENT
-------------
                                X             Y             Z
Electronic contribution:     -2.84882      -2.27308     -21.82947
Nuclear contribution   :      2.64598       3.36033      21.85869
                        -----------------------------------------
Total Dipole Moment    :     -0.20284       1.08726       0.02922
                        -----------------------------------------
Magnitude (a.u.)       :      1.10640
Magnitude (Debye)      :      2.81225

Rotational constants in cm-1:     0.028973     0.014435     0.011026
Rotational constants in MHz :   868.588266   432.748309   330.548534

                             ****ORCA TERMINATED NORMALLY****
TOTAL RUN TIME: 0 days 0 hours 0 minutes 23 seconds 475 msec
