                         Program Version 5.0.0 -  RELEASE  -
|  1> !BLYP D3BJ RIJCOSX def2-TZVP def2/J TightSCF xyzfile
|  2>
|  3> *xyzfile 0 1 D6.xyz
|  4>
|  5> %MaxCore 64000
|  6>
|  7> %pal nprocs 18
|  8> end
|  9>
| 10> %scf
| 11>   MaxIter 150
| 12> end
| 13>
| 14>
| 15>                          ****END OF INPUT****

CARTESIAN COORDINATES (ANGSTROEM)
---------------------------------
  C      1.963365   -1.749150   -1.896887
  N      2.738490   -2.015170   -3.097113
  C      0.611877    1.657634   -4.500288
  C      1.694991    1.541794   -5.570447
  H      2.697326    1.734659   -5.183996
  H      1.506656    2.272239   -6.358076
  S      1.780287   -0.033128   -6.428739
  C      4.049736   -2.154717   -3.152044
  N      4.658206   -1.986293   -4.318655
  C      4.764231   -2.454435   -2.050491
  H      4.287363   -2.776259   -1.217496
  H      5.750825   -2.658351   -2.125988
  H      2.345176   -1.690274   -3.971447
  H      4.109004   -1.592677   -5.071760
  H      5.649095   -2.156462   -4.427237
  O      2.569287    0.213657   -7.607360
  F      0.416880   -0.462969   -6.618595
  C      2.088520   -0.300912   -1.415204
  H      2.231272   -2.451616   -1.102643
  H      0.930249   -1.977801   -2.155438
  C      0.680356    0.655418   -3.348038
  H     -0.356865    1.549231   -4.991128
  H      0.650228    2.675438   -4.096000
  C      1.968993    0.733582   -2.535654
  H      3.051356   -0.168602   -0.911868
  H      1.316501   -0.136231   -0.657252
  O      2.505129   -0.933263   -5.482570
  H      2.824195    0.624726   -3.208464
  H      2.058919    1.730331   -2.093112
  H      0.542252   -0.344731   -3.766662
  H     -0.174219    0.829692   -2.685182

 Total Charge           Charge          ....    0
 Multiplicity           Mult            ....    1
 Number of Electrons    NEL             ....  120
 Basis Dimension        Dim             ....  542

ORBITAL ENERGIES
----------------

  NO   OCC          E(Eh)            E(eV)
   0   2.0000     -88.361873     -2404.4488
   1   2.0000     -24.423067      -664.5854
   2   2.0000     -18.806714      -511.7567
   3   2.0000     -18.799514      -511.5608
   4   2.0000     -13.972289      -380.2053
   5   2.0000     -13.970254      -380.1499
   6   2.0000      -9.976392      -271.4714
   7   2.0000      -9.943881      -270.5868
   8   2.0000      -9.920947      -269.9627
   9   2.0000      -9.920071      -269.9388
  10   2.0000      -9.918453      -269.8948
  11   2.0000      -9.904724      -269.5212
  12   2.0000      -9.892513      -269.1890
  13   2.0000      -9.793441      -266.4931
  14   2.0000      -7.893517      -214.7935
  15   2.0000      -5.925732      -161.2474
  16   2.0000      -5.919487      -161.0774
  17   2.0000      -5.918335      -161.0461
  18   2.0000      -1.293763       -35.2051
  19   2.0000      -1.034388       -28.1471
  20   2.0000      -0.941698       -25.6249
  21   2.0000      -0.854788       -23.2600
  22   2.0000      -0.778065       -21.1722
  23   2.0000      -0.770107       -20.9557
  24   2.0000      -0.717823       -19.5330
  25   2.0000      -0.682594       -18.5743
  26   2.0000      -0.654580       -17.8120
  27   2.0000      -0.616745       -16.7825
  28   2.0000      -0.605388       -16.4734
  29   2.0000      -0.572403       -15.5759
  30   2.0000      -0.547192       -14.8899
  31   2.0000      -0.541866       -14.7449
  32   2.0000      -0.521920       -14.2022
  33   2.0000      -0.510195       -13.8831
  34   2.0000      -0.475840       -12.9483
  35   2.0000      -0.465089       -12.6557
  36   2.0000      -0.452885       -12.3236
  37   2.0000      -0.451173       -12.2770
  38   2.0000      -0.441672       -12.0185
  39   2.0000      -0.427268       -11.6265
  40   2.0000      -0.410115       -11.1598
  41   2.0000      -0.403957       -10.9922
  42   2.0000      -0.389471       -10.5981
  43   2.0000      -0.380616       -10.3571
  44   2.0000      -0.376622       -10.2484
  45   2.0000      -0.357105        -9.7173
  46   2.0000      -0.345395        -9.3987
  47   2.0000      -0.343465        -9.3461
  48   2.0000      -0.326900        -8.8954
  49   2.0000      -0.319440        -8.6924
  50   2.0000      -0.311752        -8.4832
  51   2.0000      -0.308238        -8.3876
  52   2.0000      -0.300218        -8.1693
  53   2.0000      -0.296245        -8.0612
  54   2.0000      -0.287604        -7.8261
  55   2.0000      -0.285557        -7.7704
  56   2.0000      -0.281820        -7.6687
  57   2.0000      -0.272886        -7.4256
  58   2.0000      -0.179295        -4.8789
  59   2.0000      -0.105698        -2.8762
  60   0.0000      -0.038883        -1.0581
  61   0.0000      -0.004659        -0.1268
  62   0.0000       0.005997         0.1632
  63   0.0000       0.015539         0.4228
  64   0.0000       0.019094         0.5196

MULLIKEN ATOMIC CHARGES
-----------------------
   0 C :   -0.146247
   1 N :   -0.223299
   2 C :   -0.154323
   3 C :   -0.241079
   4 H :    0.155757
   5 H :    0.142040
   6 S :    0.820956
   7 C :    0.293236
   8 N :   -0.421103
   9 C :   -0.504226
  10 H :    0.058818
  11 H :    0.050745
  12 H :    0.198143
  13 H :    0.223004
  14 H :    0.202810
  15 O :   -0.363081
  16 F :   -0.076658
  17 C :   -0.060602
  18 H :    0.100943
  19 H :    0.096526
  20 C :   -0.203257
  21 H :    0.104239
  22 H :    0.099382
  23 C :   -0.200135
  24 H :    0.095361
  25 H :    0.059435
  26 O :   -0.466434
  27 H :    0.109008
  28 H :    0.073870
  29 H :    0.091068
  30 H :    0.085104
Sum of atomic charges:   -0.0000000

LOEWDIN ATOMIC CHARGES
----------------------
   0 C :   -0.280601
   1 N :    0.130199
   2 C :   -0.281023
   3 C :   -0.359801
   4 H :    0.149973
   5 H :    0.142316
   6 S :    0.530960
   7 C :   -0.474462
   8 N :   -0.003149
   9 C :   -0.364886
  10 H :    0.090777
  11 H :    0.087252
  12 H :    0.155193
  13 H :    0.148877
  14 H :    0.166040
  15 O :   -0.226206
  16 F :    0.120861
  17 C :   -0.260721
  18 H :    0.133227
  19 H :    0.124790
  20 C :   -0.266962
  21 H :    0.136167
  22 H :    0.145777
  23 C :   -0.264657
  24 H :    0.140964
  25 H :    0.129765
  26 O :   -0.287542
  27 H :    0.136926
  28 H :    0.133126
  29 H :    0.128633
  30 H :    0.138185

  Mayer bond orders larger than 0.100000
B(  0-C ,  1-N ) :   0.9904 B(  0-C , 17-C ) :   0.9320 B(  0-C , 18-H ) :   0.9634
B(  0-C , 19-H ) :   0.9807 B(  1-N ,  7-C ) :   1.2209 B(  1-N , 12-H ) :   0.8977
B(  2-C ,  3-C ) :   0.9439 B(  2-C , 20-C ) :   0.9487 B(  2-C , 21-H ) :   0.9709
B(  2-C , 22-H ) :   0.9422 B(  3-C ,  4-H ) :   0.9381 B(  3-C ,  5-H ) :   0.9434
B(  3-C ,  6-S ) :   0.9061 B(  6-S , 15-O ) :   1.9883 B(  6-S , 16-F ) :   1.1522
B(  6-S , 26-O ) :   1.6977 B(  7-C ,  8-N ) :   1.1662 B(  7-C ,  9-C ) :   1.6019
B(  8-N , 13-H ) :   0.8863 B(  8-N , 14-H ) :   0.9321 B(  9-C , 10-H ) :   0.9956
B(  9-C , 11-H ) :   0.9924 B( 17-C , 23-C ) :   0.9813 B( 17-C , 24-H ) :   0.9455
B( 17-C , 25-H ) :   0.9597 B( 20-C , 23-C ) :   0.9294 B( 20-C , 29-H ) :   0.9799
B( 20-C , 30-H ) :   0.9615 B( 23-C , 27-H ) :   0.9651 B( 23-C , 28-H ) :   0.9559

Dispersion correction           -0.075416863
FINAL SINGLE POINT ENERGY     -1073.095613469962

DIPOLE MOMENT
-------------
                                X             Y             Z
Electronic contribution:     -4.77943      -1.47249     -22.83415
Nuclear contribution   :      2.90585       3.30398      21.99296
                        -----------------------------------------
Total Dipole Moment    :     -1.87358       1.83149      -0.84119
                        -----------------------------------------
Magnitude (a.u.)       :      2.75177
Magnitude (Debye)      :      6.99445

Rotational constants in cm-1:     0.029065     0.014689     0.011200
Rotational constants in MHz :   871.338526   440.374927   335.770911

                             ****ORCA TERMINATED NORMALLY****
TOTAL RUN TIME: 0 days 0 hours 0 minutes 22 seconds 284 msec
