                         Program Version 5.0.0 -  RELEASE  -
|  1> !BLYP D3BJ RIJCOSX def2-TZVP def2/J TightSCF xyzfile
|  2>
|  3> *xyzfile 0 1 D7.xyz
|  4>
|  5> %MaxCore 64000
|  6>
|  7> %pal nprocs 18
|  8> end
|  9>
| 10> %scf
| 11>   MaxIter 150
| 12> end
| 13>
| 14>
| 15>                          ****END OF INPUT****

CARTESIAN COORDINATES (ANGSTROEM)
---------------------------------
  C      1.963365   -1.749150   -1.896887
  C      2.738490   -2.015170   -3.097113
  C      0.611877    1.657634   -4.500288
  C      1.694991    1.541794   -5.570447
  H      2.697326    1.734659   -5.183996
  H      1.506656    2.272239   -6.358076
  S      1.780287   -0.033128   -6.428739
  C      4.049736   -2.154717   -3.152044
  N      4.658206   -1.986293   -4.318655
  N      4.764231   -2.454435   -2.050491
  H      4.287363   -2.776259   -1.217496
  H      5.750825   -2.658351   -2.125988
  H      2.345176   -1.690274   -3.971447
  H      4.109004   -1.592677   -5.071760
  H      5.649095   -2.156462   -4.427237
  O      2.569287    0.213657   -7.607360
  O      0.416880   -0.462969   -6.618595
  C      2.088520   -0.300912   -1.415204
  H      2.231272   -2.451616   -1.102643
  H      0.930249   -1.977801   -2.155438
  C      0.680356    0.655418   -3.348038
  H     -0.356865    1.549231   -4.991128
  H      0.650228    2.675438   -4.096000
  C      1.968993    0.733582   -2.535654
  H      3.051356   -0.168602   -0.911868
  H      1.316501   -0.136231   -0.657252
  F      2.505129   -0.933263   -5.482570
  H      2.824195    0.624726   -3.208464
  H      2.058919    1.730331   -2.093112
  H      0.542252   -0.344731   -3.766662
  H     -0.174219    0.829692   -2.685182

 Total Charge           Charge          ....    0
 Multiplicity           Mult            ....    1
 Number of Electrons    NEL             ....  120
 Basis Dimension        Dim             ....  542

ORBITAL ENERGIES
----------------

  NO   OCC          E(Eh)            E(eV)
   0   2.0000     -88.332621     -2403.6528
   1   2.0000     -24.382237      -663.4744
   2   2.0000     -18.784210      -511.1443
   3   2.0000     -18.784138      -511.1424
   4   2.0000     -14.005346      -381.1048
   5   2.0000     -14.000171      -380.9640
   6   2.0000      -9.956484      -270.9297
   7   2.0000      -9.940825      -270.5036
   8   2.0000      -9.922704      -270.0105
   9   2.0000      -9.903887      -269.4985
  10   2.0000      -9.895764      -269.2774
  11   2.0000      -9.886277      -269.0193
  12   2.0000      -9.878759      -268.8147
  13   2.0000      -9.817437      -267.1460
  14   2.0000      -7.864706      -214.0095
  15   2.0000      -5.897217      -160.4714
  16   2.0000      -5.890114      -160.2782
  17   2.0000      -5.889760      -160.2685
  18   2.0000      -1.242456       -33.8089
  19   2.0000      -1.020012       -27.7559
  20   2.0000      -0.933533       -25.4027
  21   2.0000      -0.869531       -23.6611
  22   2.0000      -0.788539       -21.4572
  23   2.0000      -0.752361       -20.4728
  24   2.0000      -0.717329       -19.5195
  25   2.0000      -0.676003       -18.3950
  26   2.0000      -0.656918       -17.8757
  27   2.0000      -0.622137       -16.9292
  28   2.0000      -0.593860       -16.1598
  29   2.0000      -0.557857       -15.1801
  30   2.0000      -0.524474       -14.2717
  31   2.0000      -0.512193       -13.9375
  32   2.0000      -0.509348       -13.8601
  33   2.0000      -0.496751       -13.5173
  34   2.0000      -0.483534       -13.1576
  35   2.0000      -0.481609       -13.1053
  36   2.0000      -0.448505       -12.2044
  37   2.0000      -0.434221       -11.8158
  38   2.0000      -0.431797       -11.7498
  39   2.0000      -0.417968       -11.3735
  40   2.0000      -0.411450       -11.1961
  41   2.0000      -0.398100       -10.8329
  42   2.0000      -0.391205       -10.6452
  43   2.0000      -0.378331       -10.2949
  44   2.0000      -0.368767       -10.0346
  45   2.0000      -0.345960        -9.4140
  46   2.0000      -0.343426        -9.3451
  47   2.0000      -0.341287        -9.2869
  48   2.0000      -0.331885        -9.0310
  49   2.0000      -0.317574        -8.6416
  50   2.0000      -0.307076        -8.3560
  51   2.0000      -0.297961        -8.1079
  52   2.0000      -0.290321        -7.9000
  53   2.0000      -0.285343        -7.7646
  54   2.0000      -0.278807        -7.5867
  55   2.0000      -0.274125        -7.4593
  56   2.0000      -0.267941        -7.2911
  57   2.0000      -0.264378        -7.1941
  58   2.0000      -0.217966        -5.9312
  59   2.0000      -0.124117        -3.3774
  60   0.0000      -0.013513        -0.3677
  61   0.0000      -0.000328        -0.0089
  62   0.0000       0.010837         0.2949
  63   0.0000       0.022236         0.6051
  64   0.0000       0.028060         0.7636

MULLIKEN ATOMIC CHARGES
-----------------------
   0 C :   -0.255144
   1 C :   -0.272769
   2 C :   -0.088722
   3 C :   -0.266353
   4 H :    0.131903
   5 H :    0.144964
   6 S :    0.798405
   7 C :    0.269084
   8 N :   -0.418277
   9 N :   -0.419395
  10 H :    0.216687
  11 H :    0.190410
  12 H :    0.104368
  13 H :    0.217364
  14 H :    0.191391
  15 O :   -0.392359
  16 O :   -0.378672
  17 C :   -0.063403
  18 H :    0.056061
  19 H :    0.085056
  20 C :   -0.259211
  21 H :    0.108451
  22 H :    0.084868
  23 C :   -0.127722
  24 H :    0.064674
  25 H :    0.053751
  26 F :   -0.131500
  27 H :    0.085803
  28 H :    0.067394
  29 H :    0.123758
  30 H :    0.079134
Sum of atomic charges:    0.0000000

LOEWDIN ATOMIC CHARGES
----------------------
   0 C :   -0.285294
   1 C :   -0.288410
   2 C :   -0.277070
   3 C :   -0.367458
   4 H :    0.134794
   5 H :    0.148611
   6 S :    0.522839
   7 C :   -0.463841
   8 N :   -0.005980
   9 N :   -0.008263
  10 H :    0.170187
  11 H :    0.155090
  12 H :    0.111720
  13 H :    0.160331
  14 H :    0.155880
  15 O :   -0.247057
  16 O :   -0.236783
  17 C :   -0.253598
  18 H :    0.125337
  19 H :    0.138525
  20 C :   -0.263358
  21 H :    0.142756
  22 H :    0.141116
  23 C :   -0.264675
  24 H :    0.130847
  25 H :    0.125748
  26 F :    0.062009
  27 H :    0.130957
  28 H :    0.130741
  29 H :    0.136607
  30 H :    0.137693

  Mayer bond orders larger than 0.100000
B(  0-C ,  1-C ) :   1.0174 B(  0-C , 17-C ) :   0.9347 B(  0-C , 18-H ) :   0.9689
B(  0-C , 19-H ) :   0.9802 B(  1-C ,  7-C ) :   1.6361 B(  1-C , 12-H ) :   1.0156
B(  2-C ,  3-C ) :   0.9415 B(  2-C , 20-C ) :   0.9595 B(  2-C , 21-H ) :   0.9591
B(  2-C , 22-H ) :   0.9402 B(  3-C ,  4-H ) :   0.9422 B(  3-C ,  5-H ) :   0.9437
B(  3-C ,  6-S ) :   0.8974 B(  6-S , 15-O ) :   1.9607 B(  6-S , 16-O ) :   1.9283
B(  6-S , 26-F ) :   1.0293 B(  7-C ,  8-N ) :   1.1767 B(  7-C ,  9-N ) :   1.1567
B(  8-N , 13-H ) :   0.9054 B(  8-N , 14-H ) :   0.9315 B(  9-N , 10-H ) :   0.9215
B(  9-N , 11-H ) :   0.9318 B( 17-C , 23-C ) :   0.9869 B( 17-C , 24-H ) :   0.9538
B( 17-C , 25-H ) :   0.9576 B( 20-C , 23-C ) :   0.9255 B( 20-C , 29-H ) :   0.9814
B( 20-C , 30-H ) :   0.9598 B( 23-C , 27-H ) :   0.9686 B( 23-C , 28-H ) :   0.9602

Dispersion correction           -0.075280785
FINAL SINGLE POINT ENERGY     -1073.103282040816

DIPOLE MOMENT
-------------
                                X             Y             Z
Electronic contribution:      0.87339      -3.21943     -19.51134
Nuclear contribution   :      0.26049       3.89757      20.56096
                        -----------------------------------------
Total Dipole Moment    :      1.13388       0.67814       1.04963
                        -----------------------------------------
Magnitude (a.u.)       :      1.68739
Magnitude (Debye)      :      4.28900

Rotational constants in cm-1:     0.029090     0.014735     0.011139
Rotational constants in MHz :   872.086433   441.731892   333.928051

                             ****ORCA TERMINATED NORMALLY****
TOTAL RUN TIME: 0 days 0 hours 0 minutes 23 seconds 866 msec
