                         Program Version 5.0.0 -  RELEASE  -
|  1> !BLYP D3BJ RIJCOSX def2-TZVP def2/J TightSCF xyzfile
|  2>
|  3> *xyzfile 0 1 D9.xyz
|  4>
|  5> %MaxCore 64000
|  6>
|  7> %pal nprocs 18
|  8> end
|  9>
| 10> %scf
| 11>   MaxIter 150
| 12> end
| 13>
| 14>
| 15>                          ****END OF INPUT****

CARTESIAN COORDINATES (ANGSTROEM)
---------------------------------
  C      1.963365   -1.749150   -1.896887
  N      2.738490   -2.015170   -3.097113
  C      0.611877    1.657634   -4.500288
  C      1.694991    1.541794   -5.570447
  H      2.697326    1.734659   -5.183996
  H      1.506656    2.272239   -6.358076
  S      1.780287   -0.033128   -6.428739
  C      4.049736   -2.154717   -3.152044
  N      4.658206   -1.986293   -4.318655
  C      4.764231   -2.454435   -2.050491
  H      4.287363   -2.776259   -1.217496
  H      5.750825   -2.658351   -2.125988
  H      2.345176   -1.690274   -3.971447
  H      4.109004   -1.592677   -5.071760
  H      5.649095   -2.156462   -4.427237
  O      2.569287    0.213657   -7.607360
  O      0.416880   -0.462969   -6.618595
  C      2.088520   -0.300912   -1.415204
  H      2.231272   -2.451616   -1.102643
  H      0.930249   -1.977801   -2.155438
  C      0.680356    0.655418   -3.348038
  H     -0.356865    1.549231   -4.991128
  H      0.650228    2.675438   -4.096000
  C      1.968993    0.733582   -2.535654
  H      3.051356   -0.168602   -0.911868
  H      1.316501   -0.136231   -0.657252
  F      2.505129   -0.933263   -5.482570
  H      2.824195    0.624726   -3.208464
  H      2.058919    1.730331   -2.093112
  H      0.542252   -0.344731   -3.766662
  H     -0.174219    0.829692   -2.685182

 Total Charge           Charge          ....    0
 Multiplicity           Mult            ....    1
 Number of Electrons    NEL             ....  120
 Basis Dimension        Dim             ....  542

ORBITAL ENERGIES
----------------

  NO   OCC          E(Eh)            E(eV)
   0   2.0000     -88.348348     -2404.0808
   1   2.0000     -24.405744      -664.1140
   2   2.0000     -18.799543      -511.5616
   3   2.0000     -18.798946      -511.5453
   4   2.0000     -14.000570      -380.9749
   5   2.0000     -13.999654      -380.9500
   6   2.0000      -9.970267      -271.3048
   7   2.0000      -9.940586      -270.4971
   8   2.0000      -9.936747      -270.3926
   9   2.0000      -9.935867      -270.3687
  10   2.0000      -9.921556      -269.9793
  11   2.0000      -9.912872      -269.7430
  12   2.0000      -9.902957      -269.4732
  13   2.0000      -9.813532      -267.0398
  14   2.0000      -7.880545      -214.4405
  15   2.0000      -5.913270      -160.9082
  16   2.0000      -5.905822      -160.7056
  17   2.0000      -5.905443      -160.6953
  18   2.0000      -1.265062       -34.4241
  19   2.0000      -1.035536       -28.1784
  20   2.0000      -0.948326       -25.8053
  21   2.0000      -0.881472       -23.9861
  22   2.0000      -0.801686       -21.8150
  23   2.0000      -0.766601       -20.8603
  24   2.0000      -0.721254       -19.6263
  25   2.0000      -0.687778       -18.7154
  26   2.0000      -0.660315       -17.9681
  27   2.0000      -0.624422       -16.9914
  28   2.0000      -0.620827       -16.8936
  29   2.0000      -0.572174       -15.5697
  30   2.0000      -0.540380       -14.7045
  31   2.0000      -0.533583       -14.5195
  32   2.0000      -0.517997       -14.0954
  33   2.0000      -0.504322       -13.7233
  34   2.0000      -0.488303       -13.2874
  35   2.0000      -0.480861       -13.0849
  36   2.0000      -0.462420       -12.5831
  37   2.0000      -0.449492       -12.2313
  38   2.0000      -0.445591       -12.1251
  39   2.0000      -0.427618       -11.6361
  40   2.0000      -0.416583       -11.3358
  41   2.0000      -0.409932       -11.1548
  42   2.0000      -0.394660       -10.7393
  43   2.0000      -0.388097       -10.5607
  44   2.0000      -0.378855       -10.3092
  45   2.0000      -0.358595        -9.7579
  46   2.0000      -0.351789        -9.5727
  47   2.0000      -0.349607        -9.5133
  48   2.0000      -0.334898        -9.1130
  49   2.0000      -0.325401        -8.8546
  50   2.0000      -0.323175        -8.7940
  51   2.0000      -0.317262        -8.6331
  52   2.0000      -0.307668        -8.3721
  53   2.0000      -0.301962        -8.2168
  54   2.0000      -0.298393        -8.1197
  55   2.0000      -0.294872        -8.0239
  56   2.0000      -0.287763        -7.8304
  57   2.0000      -0.285190        -7.7604
  58   2.0000      -0.204003        -5.5512
  59   2.0000      -0.126614        -3.4453
  60   0.0000      -0.028890        -0.7861
  61   0.0000      -0.002155        -0.0586
  62   0.0000       0.009389         0.2555
  63   0.0000       0.016024         0.4360
  64   0.0000       0.024506         0.6668

MULLIKEN ATOMIC CHARGES
-----------------------
   0 C :   -0.151472
   1 N :   -0.234204
   2 C :   -0.087677
   3 C :   -0.273658
   4 H :    0.140160
   5 H :    0.151535
   6 S :    0.803939
   7 C :    0.302406
   8 N :   -0.425887
   9 C :   -0.489937
  10 H :    0.066910
  11 H :    0.058468
  12 H :    0.182786
  13 H :    0.204493
  14 H :    0.216490
  15 O :   -0.380420
  16 O :   -0.374092
  17 C :   -0.054596
  18 H :    0.107965
  19 H :    0.111244
  20 C :   -0.252018
  21 H :    0.113345
  22 H :    0.092394
  23 C :   -0.215928
  24 H :    0.098835
  25 H :    0.068460
  26 F :   -0.153925
  27 H :    0.094643
  28 H :    0.080657
  29 H :    0.110460
  30 H :    0.088622
Sum of atomic charges:    0.0000000

LOEWDIN ATOMIC CHARGES
----------------------
   0 C :   -0.275233
   1 N :    0.128652
   2 C :   -0.275320
   3 C :   -0.365812
   4 H :    0.136714
   5 H :    0.151032
   6 S :    0.522790
   7 C :   -0.477275
   8 N :   -0.004762
   9 C :   -0.346378
  10 H :    0.093750
  11 H :    0.090085
  12 H :    0.157075
  13 H :    0.145867
  14 H :    0.172275
  15 O :   -0.236739
  16 O :   -0.232998
  17 C :   -0.259807
  18 H :    0.135692
  19 H :    0.129114
  20 C :   -0.267570
  21 H :    0.144122
  22 H :    0.143659
  23 C :   -0.267405
  24 H :    0.141107
  25 H :    0.132895
  26 F :    0.048898
  27 H :    0.130451
  28 H :    0.135453
  29 H :    0.129657
  30 H :    0.140012

  Mayer bond orders larger than 0.100000
B(  0-C ,  1-N ) :   0.9685 B(  0-C , 17-C ) :   0.9327 B(  0-C , 18-H ) :   0.9634
B(  0-C , 19-H ) :   0.9783 B(  1-N ,  7-C ) :   1.2062 B(  1-N , 12-H ) :   0.9207
B(  2-C ,  3-C ) :   0.9372 B(  2-C , 20-C ) :   0.9596 B(  2-C , 21-H ) :   0.9591
B(  2-C , 22-H ) :   0.9405 B(  3-C ,  4-H ) :   0.9414 B(  3-C ,  5-H ) :   0.9428
B(  3-C ,  6-S ) :   0.8989 B(  6-S , 15-O ) :   1.9699 B(  6-S , 16-O ) :   1.9307
B(  6-S , 26-F ) :   0.9968 B(  7-C ,  8-N ) :   1.1437 B(  7-C ,  9-C ) :   1.6229
B(  8-N , 13-H ) :   0.9113 B(  8-N , 14-H ) :   0.9274 B(  9-C , 10-H ) :   0.9960
B(  9-C , 11-H ) :   0.9917 B( 17-C , 23-C ) :   0.9744 B( 17-C , 24-H ) :   0.9484
B( 17-C , 25-H ) :   0.9605 B( 20-C , 23-C ) :   0.9259 B( 20-C , 29-H ) :   0.9823
B( 20-C , 30-H ) :   0.9621 B( 23-C , 27-H ) :   0.9685 B( 23-C , 28-H ) :   0.9593

Dispersion correction           -0.074711399
FINAL SINGLE POINT ENERGY     -1073.104071567222

DIPOLE MOMENT
-------------
                                X             Y             Z
Electronic contribution:     -1.03326      -2.44167     -20.46389
Nuclear contribution   :      0.52036       3.84122      20.69523
                        -----------------------------------------
Total Dipole Moment    :     -0.51290       1.39955       0.23134
                        -----------------------------------------
Magnitude (a.u.)       :      1.50842
Magnitude (Debye)      :      3.83409

Rotational constants in cm-1:     0.029184     0.014996     0.011314
Rotational constants in MHz :   874.907122   449.569665   339.178205

                             ****ORCA TERMINATED NORMALLY****
TOTAL RUN TIME: 0 days 0 hours 0 minutes 22 seconds 572 msec
