                         Program Version 5.0.0 -  RELEASE  -
|  1> !LC-BLYP RIJCOSX def2-SVP def2/J TightSCF
|  2> *xyz -1 1
|  3> C          2.49556        1.81615       -2.13636
|  4> C          1.87218        0.42790       -2.07750
|  5> H          2.61427       -0.36583       -2.19889
|  6> H          1.38995        0.27309       -1.11236
|  7> S          0.57902        0.14047       -3.29794
|  8> O          0.22886       -1.24687       -3.12787
|  9> O         -0.43927        1.11897       -3.01455
| 10> O          1.24788        0.40347       -4.59565
| 11> H          2.96535        1.95613       -3.08747
| 12> H          3.22581        1.91242       -1.36024
| 13> H          1.73350        2.55528       -2.00274
| 14> *
| 15>
| 16> %MaxCore 64000
| 17>
| 18> %pal nprocs 4
| 19> end
| 20>
| 21> %scf
| 22>   MaxIter 150
| 23> end
| 24>
| 25>
| 26>                          ****END OF INPUT****

CARTESIAN COORDINATES (ANGSTROEM)
---------------------------------
  C      2.495560    1.816150   -2.136360
  C      1.872180    0.427900   -2.077500
  H      2.614270   -0.365830   -2.198890
  H      1.389950    0.273090   -1.112360
  S      0.579020    0.140470   -3.297940
  O      0.228860   -1.246870   -3.127870
  O     -0.439270    1.118970   -3.014550
  O      1.247880    0.403470   -4.595650
  H      2.965350    1.956130   -3.087470
  H      3.225810    1.912420   -1.360240
  H      1.733500    2.555280   -2.002740

 Total Charge           Charge          ....   -1
 Multiplicity           Mult            ....    1
 Number of Electrons    NEL             ....   58
 Basis Dimension        Dim             ....  113

ORBITAL ENERGIES
----------------

  NO   OCC          E(Eh)            E(eV)
   0   2.0000     -88.262192     -2401.7363
   1   2.0000     -18.696577      -508.7597
   2   2.0000     -18.696194      -508.7493
   3   2.0000     -18.679710      -508.3007
   4   2.0000      -9.930899      -270.2335
   5   2.0000      -9.925337      -270.0821
   6   2.0000      -7.818328      -212.7475
   7   2.0000      -5.852136      -159.2447
   8   2.0000      -5.852022      -159.2416
   9   2.0000      -5.851911      -159.2386
  10   2.0000      -0.997313       -27.1383
  11   2.0000      -0.852674       -23.2024
  12   2.0000      -0.824774       -22.4432
  13   2.0000      -0.722646       -19.6642
  14   2.0000      -0.594421       -16.1750
  15   2.0000      -0.461319       -12.5531
  16   2.0000      -0.409703       -11.1486
  17   2.0000      -0.396576       -10.7914
  18   2.0000      -0.360239        -9.8026
  19   2.0000      -0.338839        -9.2203
  20   2.0000      -0.333425        -9.0730
  21   2.0000      -0.313081        -8.5194
  22   2.0000      -0.293499        -7.9865
  23   2.0000      -0.219293        -5.9673
  24   2.0000      -0.216918        -5.9026
  25   2.0000      -0.183735        -4.9997
  26   2.0000      -0.173895        -4.7319
  27   2.0000      -0.163567        -4.4509
  28   2.0000      -0.126701        -3.4477
  29   0.0000       0.277174         7.5423
  30   0.0000       0.329093         8.9551
  31   0.0000       0.337910         9.1950
  32   0.0000       0.344993         9.3877
  33   0.0000       0.375979        10.2309

MULLIKEN ATOMIC CHARGES
-----------------------
   0 C :    0.040999
   1 C :   -0.090841
   2 H :   -0.009262
   3 H :   -0.016369
   4 S :    0.740426
   5 O :   -0.524297
   6 O :   -0.525720
   7 O :   -0.573502
   8 H :    0.000663
   9 H :   -0.041037
  10 H :   -0.001060
Sum of atomic charges:   -1.0000000

LOEWDIN ATOMIC CHARGES
----------------------
   0 C :   -0.087525
   1 C :   -0.199824
   2 H :    0.009369
   3 H :    0.005499
   4 S :    1.066448
   5 O :   -0.596025
   6 O :   -0.596395
   7 O :   -0.643562
   8 H :    0.018901
   9 H :    0.004067
  10 H :    0.019048

  Mayer bond orders larger than 0.100000
B(  0-C ,  1-C ) :   1.0624 B(  0-C ,  8-H ) :   0.9626 B(  0-C ,  9-H ) :   0.9599
B(  0-C , 10-H ) :   0.9630 B(  1-C ,  2-H ) :   0.9431 B(  1-C ,  3-H ) :   0.9399
B(  1-C ,  4-S ) :   0.9002 B(  4-S ,  5-O ) :   1.6774 B(  4-S ,  6-O ) :   1.6637
B(  4-S ,  7-O ) :   1.6186

FINAL SINGLE POINT ENERGY      -701.871705543781

DIPOLE MOMENT
-------------
                                X             Y             Z
Electronic contribution:     -5.81036      -3.65998      -4.18744
Nuclear contribution   :      6.89220       4.11756       5.35566
                        -----------------------------------------
Total Dipole Moment    :      1.08184       0.45758       1.16822
                        -----------------------------------------
Magnitude (a.u.)       :      1.65665
Magnitude (Debye)      :      4.21088

Rotational constants in cm-1:     0.162183     0.084017     0.082390
Rotational constants in MHz :  4862.117324  2518.774315  2469.980309

                             ****ORCA TERMINATED NORMALLY****
TOTAL RUN TIME: 0 days 0 hours 0 minutes 9 seconds 721 msec
