                         Program Version 5.0.0 -  RELEASE  -
|  1> !LC-BLYP RIJCOSX def2-SVP def2/J TightSCF
|  2> *xyz 1 1
|  3> C          3.38093        2.08304       -3.35013
|  4> N          4.53592        1.18245       -3.42852
|  5> C          2.49556        1.81615       -2.13636
|  6> C          4.67196        0.12227       -4.22060
|  7> N          5.86602       -0.50785       -4.22428
|  8> N          3.69888       -0.31284       -4.98699
|  9> H          2.73141       -0.05009       -4.84900
| 10> H          3.89005       -1.05517       -5.64373
| 11> H          5.25193        1.30346       -2.72101
| 12> H          6.69516       -0.06232       -3.85160
| 13> H          5.97538       -1.39688       -4.69141
| 14> H          2.80646        1.98651       -4.26848
| 15> H          3.77871        3.09828       -3.30738
| 16> H          2.11090        0.81901       -2.18783
| 17> H          1.68276        2.51198       -2.12786
| 18> H          3.07216        1.93031       -1.24227
| 19> *
| 20>
| 21> %MaxCore 64000
| 22>
| 23> %pal nprocs 4
| 24> end
| 25>
| 26> %scf
| 27>   MaxIter 150
| 28> end
| 29>
| 30>
| 31>                          ****END OF INPUT****

CARTESIAN COORDINATES (ANGSTROEM)
---------------------------------
  C      3.380930    2.083040   -3.350130
  N      4.535920    1.182450   -3.428520
  C      2.495560    1.816150   -2.136360
  C      4.671960    0.122270   -4.220600
  N      5.866020   -0.507850   -4.224280
  N      3.698880   -0.312840   -4.986990
  H      2.731410   -0.050090   -4.849000
  H      3.890050   -1.055170   -5.643730
  H      5.251930    1.303460   -2.721010
  H      6.695160   -0.062320   -3.851600
  H      5.975380   -1.396880   -4.691410
  H      2.806460    1.986510   -4.268480
  H      3.778710    3.098280   -3.307380
  H      2.110900    0.819010   -2.187830
  H      1.682760    2.511980   -2.127860
  H      3.072160    1.930310   -1.242270

 Total Charge           Charge          ....    1
 Multiplicity           Mult            ....    1
 Number of Electrons    NEL             ....   48
 Basis Dimension        Dim             ....  134

ORBITAL ENERGIES
----------------

  NO   OCC          E(Eh)            E(eV)
   0   2.0000     -14.410932      -392.1414
   1   2.0000     -14.404447      -391.9649
   2   2.0000     -14.402503      -391.9120
   3   2.0000     -10.420210      -283.5483
   4   2.0000     -10.287457      -279.9359
   5   2.0000     -10.218102      -278.0487
   6   2.0000      -1.303478       -35.4694
   7   2.0000      -1.193505       -32.4769
   8   2.0000      -1.177825       -32.0503
   9   2.0000      -1.029355       -28.0102
  10   2.0000      -0.938446       -25.5364
  11   2.0000      -0.903064       -24.5736
  12   2.0000      -0.888917       -24.1886
  13   2.0000      -0.841690       -22.9036
  14   2.0000      -0.795089       -21.6355
  15   2.0000      -0.790490       -21.5103
  16   2.0000      -0.743587       -20.2340
  17   2.0000      -0.735141       -20.0042
  18   2.0000      -0.703420       -19.1410
  19   2.0000      -0.657156       -17.8821
  20   2.0000      -0.625431       -17.0188
  21   2.0000      -0.608176       -16.5493
  22   2.0000      -0.572357       -15.5746
  23   2.0000      -0.538951       -14.6656
  24   0.0000      -0.072414        -1.9705
  25   0.0000      -0.061881        -1.6839
  26   0.0000      -0.029413        -0.8004
  27   0.0000      -0.020136        -0.5479
  28   0.0000       0.000170         0.0046

MULLIKEN ATOMIC CHARGES
-----------------------
   0 C :   -0.004140
   1 N :   -0.060888
   2 C :    0.017476
   3 C :   -0.081771
   4 N :   -0.011524
   5 N :    0.032410
   6 H :    0.175762
   7 H :    0.170411
   8 H :    0.163494
   9 H :    0.173057
  10 H :    0.167997
  11 H :    0.046165
  12 H :    0.076129
  13 H :    0.023736
  14 H :    0.067805
  15 H :    0.043881
Sum of atomic charges:    1.0000000

LOEWDIN ATOMIC CHARGES
----------------------
   0 C :    0.029398
   1 N :    0.033848
   2 C :   -0.060509
   3 C :    0.133174
   4 N :    0.032033
   5 N :    0.060568
   6 H :    0.114702
   7 H :    0.114956
   8 H :    0.108396
   9 H :    0.112693
  10 H :    0.109392
  11 H :    0.035632
  12 H :    0.052691
  13 H :    0.030506
  14 H :    0.053299
  15 H :    0.039221

  Mayer bond orders larger than 0.100000
B(  0-C ,  1-N ) :   0.9428 B(  0-C ,  2-C ) :   1.1047 B(  0-C , 11-H ) :   0.9531
B(  0-C , 12-H ) :   0.9479 B(  1-N ,  3-C ) :   1.3955 B(  1-N ,  8-H ) :   0.9078
B(  2-C , 13-H ) :   0.9662 B(  2-C , 14-H ) :   0.9612 B(  2-C , 15-H ) :   0.9665
B(  3-C ,  4-N ) :   1.3804 B(  3-C ,  5-N ) :   1.4285 B(  4-N ,  9-H ) :   0.9253
B(  4-N , 10-H ) :   0.9286 B(  5-N ,  6-H ) :   0.9214 B(  5-N ,  7-H ) :   0.9217

FINAL SINGLE POINT ENERGY      -283.456493447090

DIPOLE MOMENT
-------------
                                X             Y             Z
Electronic contribution:      3.62986      -2.72896      -2.86823
Nuclear contribution   :     -2.93277       1.85779       2.25966
                        -----------------------------------------
Total Dipole Moment    :      0.69709      -0.87116      -0.60857
                        -----------------------------------------
Magnitude (a.u.)       :      1.27091
Magnitude (Debye)      :      3.23040

Rotational constants in cm-1:     0.245511     0.068839     0.059711
Rotational constants in MHz :  7360.233487  2063.743353  1790.088408

                             ****ORCA TERMINATED NORMALLY****
TOTAL RUN TIME: 0 days 0 hours 0 minutes 13 seconds 313 msec
