                         Program Version 5.0.0 -  RELEASE  -
|  1> !LC-BLYP RIJCOSX def2-TZVP def2/J TightSCF xyzfile
|  2>
|  3> *xyzfile 0 1 B.xyz
|  4>
|  5> %MaxCore 64000
|  6>
|  7> %pal nprocs 18
|  8> end
|  9>
| 10> %scf
| 11>   MaxIter 150
| 12> end
| 13>
| 14>
| 15>                          ****END OF INPUT****

CARTESIAN COORDINATES (ANGSTROEM)
---------------------------------
  C      3.380928    2.083045   -3.350127
  N      4.535924    1.182447   -3.428518
  C      2.495557    1.816150   -2.136364
  C      1.872181    0.427903   -2.077497
  H      2.614270   -0.365825   -2.198894
  H      1.389953    0.273087   -1.112360
  S      0.579024    0.140472   -3.297943
  C      4.671956    0.122273   -4.220598
  N      5.866023   -0.507849   -4.224284
  N      3.698881   -0.312844   -4.986988
  H      2.731405   -0.050091   -4.849000
  H      3.890046   -1.055172   -5.643730
  H      5.251933    1.303459   -2.721014
  H      6.695165   -0.062322   -3.851596
  H      5.975383   -1.396884   -4.691414
  O      0.228860   -1.246868   -3.127871
  O     -0.439269    1.118966   -3.014550
  O      1.247881    0.403474   -4.595647
  H      1.697003    2.561969   -2.141109
  H      3.080787    1.987436   -1.225838
  H      2.806463    1.986511   -4.268484
  H      3.778714    3.098282   -3.307383

 Total Charge           Charge          ....    0
 Multiplicity           Mult            ....    1
 Number of Electrons    NEL             ....   96
 Basis Dimension        Dim             ....  413

ORBITAL ENERGIES
----------------

  NO   OCC          E(Eh)            E(eV)
   0   2.0000     -88.401023     -2405.5141
   1   2.0000     -18.869097      -513.4542
   2   2.0000     -18.852534      -513.0035
   3   2.0000     -18.852434      -513.0008
   4   2.0000     -14.263470      -388.1287
   5   2.0000     -14.258223      -387.9860
   6   2.0000     -14.227565      -387.1517
   7   2.0000     -10.267434      -279.3911
   8   2.0000     -10.131652      -275.6963
   9   2.0000     -10.082642      -274.3626
  10   2.0000     -10.068505      -273.9780
  11   2.0000      -7.943146      -216.1440
  12   2.0000      -5.971639      -162.4966
  13   2.0000      -5.970498      -162.4655
  14   2.0000      -5.969144      -162.4287
  15   2.0000      -1.177733       -32.0477
  16   2.0000      -1.167079       -31.7578
  17   2.0000      -1.069272       -29.0964
  18   2.0000      -1.052483       -28.6395
  19   2.0000      -1.024532       -27.8789
  20   2.0000      -1.023816       -27.8594
  21   2.0000      -0.918515       -24.9941
  22   2.0000      -0.846587       -23.0368
  23   2.0000      -0.791765       -21.5450
  24   2.0000      -0.757542       -20.6138
  25   2.0000      -0.747170       -20.3315
  26   2.0000      -0.710104       -19.3229
  27   2.0000      -0.668523       -18.1914
  28   2.0000      -0.653070       -17.7709
  29   2.0000      -0.633284       -17.2325
  30   2.0000      -0.617478       -16.8024
  31   2.0000      -0.590241       -16.0613
  32   2.0000      -0.578682       -15.7467
  33   2.0000      -0.556370       -15.1396
  34   2.0000      -0.537886       -14.6366
  35   2.0000      -0.520169       -14.1545
  36   2.0000      -0.498739       -13.5714
  37   2.0000      -0.480549       -13.0764
  38   2.0000      -0.473213       -12.8768
  39   2.0000      -0.460651       -12.5350
  40   2.0000      -0.439755       -11.9663
  41   2.0000      -0.408882       -11.1262
  42   2.0000      -0.402441       -10.9510
  43   2.0000      -0.395294       -10.7565
  44   2.0000      -0.361435        -9.8352
  45   2.0000      -0.351880        -9.5751
  46   2.0000      -0.343597        -9.3497
  47   2.0000      -0.310608        -8.4521
  48   0.0000       0.025796         0.7019
  49   0.0000       0.052208         1.4207
  50   0.0000       0.061836         1.6827
  51   0.0000       0.083633         2.2758
  52   0.0000       0.118696         3.2299

MULLIKEN ATOMIC CHARGES
-----------------------
   0 C :   -0.330766
   1 N :   -0.246900
   2 C :   -0.196091
   3 C :   -0.379645
   4 H :    0.133902
   5 H :    0.160247
   6 S :    0.727039
   7 C :    0.390638
   8 N :   -0.450515
   9 N :   -0.344953
  10 H :    0.286749
  11 H :    0.239429
  12 H :    0.230319
  13 H :    0.260015
  14 H :    0.263600
  15 O :   -0.452121
  16 O :   -0.447005
  17 O :   -0.542250
  18 H :    0.171242
  19 H :    0.123481
  20 H :    0.244444
  21 H :    0.159142
Sum of atomic charges:   -0.0000000

LOEWDIN ATOMIC CHARGES
----------------------
   0 C :   -0.277897
   1 N :    0.159631
   2 C :   -0.300864
   3 C :   -0.406549
   4 H :    0.126971
   5 H :    0.143407
   6 S :    0.407874
   7 C :   -0.434790
   8 N :    0.014390
   9 N :    0.092741
  10 H :    0.138619
  11 H :    0.186434
  12 H :    0.198654
  13 H :    0.183131
  14 H :    0.184898
  15 O :   -0.326145
  16 O :   -0.319872
  17 O :   -0.367151
  18 H :    0.160977
  19 H :    0.138456
  20 H :    0.155253
  21 H :    0.141830

  Mayer bond orders larger than 0.100000
B(  0-C ,  1-N ) :   0.8118 B(  0-C ,  2-C ) :   0.9115 B(  0-C , 20-H ) :   0.9568
B(  0-C , 21-H ) :   0.9809 B(  1-N ,  7-C ) :   1.3482 B(  1-N , 12-H ) :   0.9221
B(  2-C ,  3-C ) :   0.8955 B(  2-C , 18-H ) :   0.9566 B(  2-C , 19-H ) :   0.9737
B(  3-C ,  4-H ) :   0.9578 B(  3-C ,  5-H ) :   0.9648 B(  3-C ,  6-S ) :   0.9116
B(  6-S , 15-O ) :   1.9314 B(  6-S , 16-O ) :   1.9006 B(  6-S , 17-O ) :   1.4941
B(  7-C ,  8-N ) :   1.2136 B(  7-C ,  9-N ) :   1.4461 B(  8-N , 13-H ) :   0.9153
B(  8-N , 14-H ) :   0.9147 B(  9-N , 10-H ) :   0.7401 B(  9-N , 11-H ) :   0.9213
B( 10-H , 17-O ) :   0.2459

FINAL SINGLE POINT ENERGY      -946.023093317802

DIPOLE MOMENT
-------------
                                X             Y             Z
Electronic contribution:     -7.04018      -3.22829      -2.43315
Nuclear contribution   :     13.40759       3.44219       2.21042
                        -----------------------------------------
Total Dipole Moment    :      6.36742       0.21391      -0.22273
                        -----------------------------------------
Magnitude (a.u.)       :      6.37490
Magnitude (Debye)      :     16.20371

Rotational constants in cm-1:     0.059860     0.020817     0.017914
Rotational constants in MHz :  1794.564877   624.092098   537.039275

                             ****ORCA TERMINATED NORMALLY****
TOTAL RUN TIME: 0 days 0 hours 0 minutes 40 seconds 399 msec
