                         Program Version 5.0.0 -  RELEASE  -
|  1> !LC-BLYP RIJCOSX def2-SVP def2/J TightSCF
|  2> *xyz 0 1
|  3> C          2.49556        1.81615       -2.13636
|  4> C          1.87218        0.42790       -2.07750
|  5> H          2.61427       -0.36583       -2.19889
|  6> H          1.38995        0.27309       -1.11236
|  7> S          0.57902        0.14047       -3.29794
|  8> F          0.22886       -1.24687       -3.12787
|  9> O         -0.43927        1.11897       -3.01455
| 10> O          1.24788        0.40347       -4.59565
| 11> H          2.96535        1.95613       -3.08747
| 12> H          3.22581        1.91242       -1.36024
| 13> H          1.73350        2.55528       -2.00274
| 14> *
| 15>
| 16> %MaxCore 64000
| 17>
| 18> %pal nprocs 4
| 19> end
| 20>
| 21> %scf
| 22>   MaxIter 150
| 23> end
| 24>
| 25>
| 26>                          ****END OF INPUT****

CARTESIAN COORDINATES (ANGSTROEM)
---------------------------------
  C      2.495560    1.816150   -2.136360
  C      1.872180    0.427900   -2.077500
  H      2.614270   -0.365830   -2.198890
  H      1.389950    0.273090   -1.112360
  S      0.579020    0.140470   -3.297940
  F      0.228860   -1.246870   -3.127870
  O     -0.439270    1.118970   -3.014550
  O      1.247880    0.403470   -4.595650
  H      2.965350    1.956130   -3.087470
  H      3.225810    1.912420   -1.360240
  H      1.733500    2.555280   -2.002740

 Total Charge           Charge          ....    0
 Multiplicity           Mult            ....    1
 Number of Electrons    NEL             ....   58
 Basis Dimension        Dim             ....  113

ORBITAL ENERGIES
----------------

  NO   OCC          E(Eh)            E(eV)
   0   2.0000     -88.536284     -2409.1948
   1   2.0000     -24.574785      -668.7139
   2   2.0000     -18.948917      -515.6262
   3   2.0000     -18.932477      -515.1789
   4   2.0000     -10.138417      -275.8804
   5   2.0000     -10.099894      -274.8321
   6   2.0000      -8.094869      -220.2726
   7   2.0000      -6.133117      -166.8906
   8   2.0000      -6.126175      -166.7017
   9   2.0000      -6.124962      -166.6687
  10   2.0000      -1.447893       -39.3992
  11   2.0000      -1.190115       -32.3847
  12   2.0000      -1.079433       -29.3729
  13   2.0000      -0.921852       -25.0849
  14   2.0000      -0.830278       -22.5930
  15   2.0000      -0.772784       -21.0285
  16   2.0000      -0.684431       -18.6243
  17   2.0000      -0.680785       -18.5251
  18   2.0000      -0.645349       -17.5609
  19   2.0000      -0.594974       -16.1901
  20   2.0000      -0.575301       -15.6547
  21   2.0000      -0.529247       -14.4015
  22   2.0000      -0.523491       -14.2449
  23   2.0000      -0.505475       -13.7547
  24   2.0000      -0.480363       -13.0713
  25   2.0000      -0.474741       -12.9184
  26   2.0000      -0.417824       -11.3696
  27   2.0000      -0.403564       -10.9815
  28   2.0000      -0.386507       -10.5174
  29   0.0000       0.117345         3.1931
  30   0.0000       0.130490         3.5508
  31   0.0000       0.163061         4.4371
  32   0.0000       0.166182         4.5220
  33   0.0000       0.175293         4.7700

MULLIKEN ATOMIC CHARGES
-----------------------
   0 C :    0.020842
   1 C :   -0.130810
   2 H :    0.059358
   3 H :    0.054893
   4 S :    0.825379
   5 F :   -0.130909
   6 O :   -0.389335
   7 O :   -0.436517
   8 H :    0.047582
   9 H :    0.035084
  10 H :    0.044432
Sum of atomic charges:   -0.0000000

LOEWDIN ATOMIC CHARGES
----------------------
   0 C :   -0.062449
   1 C :   -0.164911
   2 H :    0.036931
   3 H :    0.034441
   4 S :    1.121445
   5 F :   -0.101089
   6 O :   -0.467219
   7 O :   -0.514326
   8 H :    0.038933
   9 H :    0.039714
  10 H :    0.038530

  Mayer bond orders larger than 0.100000
B(  0-C ,  1-C ) :   1.0788 B(  0-C ,  8-H ) :   0.9682 B(  0-C ,  9-H ) :   0.9622
B(  0-C , 10-H ) :   0.9678 B(  1-C ,  2-H ) :   0.9325 B(  1-C ,  3-H ) :   0.9313
B(  1-C ,  4-S ) :   0.9281 B(  4-S ,  5-F ) :   1.0655 B(  4-S ,  6-O ) :   1.8140
B(  4-S ,  7-O ) :   1.7703

FINAL SINGLE POINT ENERGY      -726.362837885026

DIPOLE MOMENT
-------------
                                X             Y             Z
Electronic contribution:     -6.88641      -6.46605      -4.13463
Nuclear contribution   :      7.60530       5.82028       5.38743
                        -----------------------------------------
Total Dipole Moment    :      0.71889      -0.64577       1.25280
                        -----------------------------------------
Magnitude (a.u.)       :      1.58219
Magnitude (Debye)      :      4.02161

Rotational constants in cm-1:     0.157861     0.081452     0.078859
Rotational constants in MHz :  4732.562506  2441.865430  2364.129821

                             ****ORCA TERMINATED NORMALLY****
TOTAL RUN TIME: 0 days 0 hours 0 minutes 10 seconds 12 msec
