                         Program Version 5.0.0 -  RELEASE  -
|  1> !LC-BLYP RIJCOSX def2-SVP def2/J TightSCF
|  2> *xyz 0 1
|  3> C          3.38093        2.08304       -3.35013
|  4> C          4.53592        1.18245       -3.42852
|  5> C          2.49556        1.81615       -2.13636
|  6> C          4.67196        0.12227       -4.22060
|  7> N          5.86602       -0.50785       -4.22428
|  8> N          3.69888       -0.31284       -4.98699
|  9> H          2.73141       -0.05009       -4.84900
| 10> H          3.89005       -1.05517       -5.64373
| 11> H          5.25193        1.30346       -2.72101
| 12> H          6.69516       -0.06232       -3.85160
| 13> H          5.97538       -1.39688       -4.69141
| 14> H          2.80646        1.98651       -4.26848
| 15> H          3.77871        3.09828       -3.30738
| 16> H          2.11090        0.81901       -2.18783
| 17> H          1.68276        2.51198       -2.12786
| 18> H          3.07216        1.93031       -1.24227
| 19> *
| 20>
| 21> %MaxCore 64000
| 22>
| 23> %pal nprocs 4
| 24> end
| 25>
| 26> %scf
| 27>   MaxIter 150
| 28> end
| 29>
| 30>
| 31>                          ****END OF INPUT****

CARTESIAN COORDINATES (ANGSTROEM)
---------------------------------
  C      3.380930    2.083040   -3.350130
  C      4.535920    1.182450   -3.428520
  C      2.495560    1.816150   -2.136360
  C      4.671960    0.122270   -4.220600
  N      5.866020   -0.507850   -4.224280
  N      3.698880   -0.312840   -4.986990
  H      2.731410   -0.050090   -4.849000
  H      3.890050   -1.055170   -5.643730
  H      5.251930    1.303460   -2.721010
  H      6.695160   -0.062320   -3.851600
  H      5.975380   -1.396880   -4.691410
  H      2.806460    1.986510   -4.268480
  H      3.778710    3.098280   -3.307380
  H      2.110900    0.819010   -2.187830
  H      1.682760    2.511980   -2.127860
  H      3.072160    1.930310   -1.242270

 Total Charge           Charge          ....    0
 Multiplicity           Mult            ....    1
 Number of Electrons    NEL             ....   48
 Basis Dimension        Dim             ....  134

ORBITAL ENERGIES
----------------

  NO   OCC          E(Eh)            E(eV)
   0   2.0000     -14.180625      -385.8744
   1   2.0000     -14.172039      -385.6408
   2   2.0000     -10.121053      -275.4078
   3   2.0000     -10.050294      -273.4824
   4   2.0000     -10.044876      -273.3350
   5   2.0000      -9.994640      -271.9680
   6   2.0000      -1.042982       -28.3810
   7   2.0000      -0.949742       -25.8438
   8   2.0000      -0.863782       -23.5047
   9   2.0000      -0.785315       -21.3695
  10   2.0000      -0.709360       -19.3027
  11   2.0000      -0.672097       -18.2887
  12   2.0000      -0.638978       -17.3875
  13   2.0000      -0.599405       -16.3106
  14   2.0000      -0.571240       -15.5442
  15   2.0000      -0.536628       -14.6024
  16   2.0000      -0.510791       -13.8993
  17   2.0000      -0.489783       -13.3277
  18   2.0000      -0.469017       -12.7626
  19   2.0000      -0.443744       -12.0749
  20   2.0000      -0.415461       -11.3053
  21   2.0000      -0.408037       -11.1032
  22   2.0000      -0.352293        -9.5864
  23   2.0000      -0.237553        -6.4642
  24   0.0000       0.116771         3.1775
  25   0.0000       0.145226         3.9518
  26   0.0000       0.168067         4.5733
  27   0.0000       0.179423         4.8824
  28   0.0000       0.190997         5.1973

MULLIKEN ATOMIC CHARGES
-----------------------
   0 C :    0.062768
   1 C :   -0.185149
   2 C :    0.056078
   3 C :   -0.111329
   4 N :   -0.047269
   5 N :    0.001894
   6 H :    0.119453
   7 H :    0.095348
   8 H :   -0.110255
   9 H :    0.115743
  10 H :    0.088543
  11 H :   -0.040436
  12 H :   -0.015121
  13 H :   -0.016526
  14 H :   -0.008838
  15 H :   -0.004903
Sum of atomic charges:    0.0000000

LOEWDIN ATOMIC CHARGES
----------------------
   0 C :   -0.047113
   1 C :   -0.224178
   2 C :   -0.067289
   3 C :    0.016503
   4 N :   -0.034401
   5 N :   -0.009824
   6 H :    0.082328
   7 H :    0.066863
   8 H :   -0.010720
   9 H :    0.081977
  10 H :    0.060471
  11 H :    0.009756
  12 H :    0.023844
  13 H :    0.015242
  14 H :    0.015330
  15 H :    0.021211

  Mayer bond orders larger than 0.100000
B(  0-C ,  1-C ) :   1.0618 B(  0-C ,  2-C ) :   1.0967 B(  0-C , 11-H ) :   0.9364
B(  0-C , 12-H ) :   0.9197 B(  1-C ,  3-C ) :   1.7195 B(  1-C ,  8-H ) :   0.9370
B(  2-C , 13-H ) :   0.9677 B(  2-C , 14-H ) :   0.9633 B(  2-C , 15-H ) :   0.9674
B(  3-C ,  4-N ) :   1.2267 B(  3-C ,  5-N ) :   1.2693 B(  4-N ,  9-H ) :   0.9450
B(  4-N , 10-H ) :   0.9505 B(  5-N ,  6-H ) :   0.9392 B(  5-N ,  7-H ) :   0.9447

FINAL SINGLE POINT ENERGY      -266.984299901637

DIPOLE MOMENT
-------------
                                X             Y             Z
Electronic contribution:      3.04402      -2.94379      -3.00588
Nuclear contribution   :     -2.84307       1.95814       2.32378
                        -----------------------------------------
Total Dipole Moment    :      0.20094      -0.98565      -0.68211
                        -----------------------------------------
Magnitude (a.u.)       :      1.21538
Magnitude (Debye)      :      3.08925

Rotational constants in cm-1:     0.248902     0.068887     0.059904
Rotational constants in MHz :  7461.898926  2065.183281  1795.882140

                             ****ORCA TERMINATED NORMALLY****
TOTAL RUN TIME: 0 days 0 hours 0 minutes 13 seconds 837 msec
