                         Program Version 5.0.0 -  RELEASE  -
|  1> !LC-BLYP RIJCOSX def2-SVP def2/J TightSCF
|  2> *xyz 0 1
|  3> C          3.38093        2.08304       -3.35013
|  4> N          4.53592        1.18245       -3.42852
|  5> C          2.49556        1.81615       -2.13636
|  6> C          4.67196        0.12227       -4.22060
|  7> C          5.86602       -0.50785       -4.22428
|  8> N          3.69888       -0.31284       -4.98699
|  9> H          2.73141       -0.05009       -4.84900
| 10> H          3.89005       -1.05517       -5.64373
| 11> H          5.25193        1.30346       -2.72101
| 12> H          6.69516       -0.06232       -3.85160
| 13> H          5.97538       -1.39688       -4.69141
| 14> H          2.80646        1.98651       -4.26848
| 15> H          3.77871        3.09828       -3.30738
| 16> H          2.11090        0.81901       -2.18783
| 17> H          1.68276        2.51198       -2.12786
| 18> H          3.07216        1.93031       -1.24227
| 19> *
| 20>
| 21> %MaxCore 64000
| 22>
| 23> %pal nprocs 4
| 24> end
| 25>
| 26> %scf
| 27>   MaxIter 150
| 28> end
| 29>
| 30>
| 31>                          ****END OF INPUT****

CARTESIAN COORDINATES (ANGSTROEM)
---------------------------------
  C      3.380930    2.083040   -3.350130
  N      4.535920    1.182450   -3.428520
  C      2.495560    1.816150   -2.136360
  C      4.671960    0.122270   -4.220600
  C      5.866020   -0.507850   -4.224280
  N      3.698880   -0.312840   -4.986990
  H      2.731410   -0.050090   -4.849000
  H      3.890050   -1.055170   -5.643730
  H      5.251930    1.303460   -2.721010
  H      6.695160   -0.062320   -3.851600
  H      5.975380   -1.396880   -4.691410
  H      2.806460    1.986510   -4.268480
  H      3.778710    3.098280   -3.307380
  H      2.110900    0.819010   -2.187830
  H      1.682760    2.511980   -2.127860
  H      3.072160    1.930310   -1.242270

 Total Charge           Charge          ....    0
 Multiplicity           Mult            ....    1
 Number of Electrons    NEL             ....   48
 Basis Dimension        Dim             ....  134

ORBITAL ENERGIES
----------------

  NO   OCC          E(Eh)            E(eV)
   0   2.0000     -14.181417      -385.8960
   1   2.0000     -14.176942      -385.7742
   2   2.0000     -10.125550      -275.5302
   3   2.0000     -10.120953      -275.4051
   4   2.0000     -10.076863      -274.2054
   5   2.0000      -9.985425      -271.7172
   6   2.0000      -1.052541       -28.6411
   7   2.0000      -0.971647       -26.4398
   8   2.0000      -0.868588       -23.6355
   9   2.0000      -0.789731       -21.4897
  10   2.0000      -0.723392       -19.6845
  11   2.0000      -0.698732       -19.0135
  12   2.0000      -0.640437       -17.4272
  13   2.0000      -0.594368       -16.1736
  14   2.0000      -0.577446       -15.7131
  15   2.0000      -0.543891       -14.8000
  16   2.0000      -0.526984       -14.3400
  17   2.0000      -0.497959       -13.5501
  18   2.0000      -0.481767       -13.1096
  19   2.0000      -0.461319       -12.5531
  20   2.0000      -0.457104       -12.4384
  21   2.0000      -0.445206       -12.1147
  22   2.0000      -0.342224        -9.3124
  23   2.0000      -0.239999        -6.5307
  24   0.0000       0.112491         3.0610
  25   0.0000       0.147265         4.0073
  26   0.0000       0.158564         4.3147
  27   0.0000       0.182308         4.9609
  28   0.0000       0.188692         5.1346

MULLIKEN ATOMIC CHARGES
-----------------------
   0 C :    0.037015
   1 N :   -0.082690
   2 C :    0.032716
   3 C :   -0.111546
   4 C :   -0.091054
   5 N :   -0.011814
   6 H :    0.099133
   7 H :    0.119759
   8 H :    0.115850
   9 H :   -0.072897
  10 H :   -0.082389
  11 H :    0.005902
  12 H :    0.014063
  13 H :    0.006681
  14 H :    0.010548
  15 H :    0.010725
Sum of atomic charges:    0.0000000

LOEWDIN ATOMIC CHARGES
----------------------
   0 C :    0.018842
   1 N :   -0.021799
   2 C :   -0.076581
   3 C :    0.030948
   4 C :   -0.280944
   5 N :   -0.006576
   6 H :    0.065894
   7 H :    0.086832
   8 H :    0.084456
   9 H :   -0.010512
  10 H :   -0.013020
  11 H :    0.021106
  12 H :    0.024805
  13 H :    0.023658
  14 H :    0.027368
  15 H :    0.025524

  Mayer bond orders larger than 0.100000
B(  0-C ,  1-N ) :   1.0231 B(  0-C ,  2-C ) :   1.0972 B(  0-C , 11-H ) :   0.9509
B(  0-C , 12-H ) :   0.9535 B(  1-N ,  3-C ) :   1.2116 B(  1-N ,  8-H ) :   0.9281
B(  2-C , 13-H ) :   0.9656 B(  2-C , 14-H ) :   0.9607 B(  2-C , 15-H ) :   0.9664
B(  3-C ,  4-C ) :   1.7317 B(  3-C ,  5-N ) :   1.2624 B(  4-C ,  9-H ) :   0.9317
B(  4-C , 10-H ) :   0.9301 B(  5-N ,  6-H ) :   0.9472 B(  5-N ,  7-H ) :   0.9399

FINAL SINGLE POINT ENERGY      -266.975595014209

DIPOLE MOMENT
-------------
                                X             Y             Z
Electronic contribution:      1.45020      -1.12505      -2.07388
Nuclear contribution   :     -2.56090       1.59955       2.15496
                        -----------------------------------------
Total Dipole Moment    :     -1.11071       0.47450       0.08108
                        -----------------------------------------
Magnitude (a.u.)       :      1.21054
Magnitude (Debye)      :      3.07694

Rotational constants in cm-1:     0.249834     0.071381     0.061833
Rotational constants in MHz :  7489.842787  2139.945635  1853.706310

                             ****ORCA TERMINATED NORMALLY****
TOTAL RUN TIME: 0 days 0 hours 0 minutes 15 seconds 306 msec
