                         Program Version 5.0.0 -  RELEASE  -
|  1> !LC-BLYP RIJCOSX def2-SVP def2/J TightSCF
|  2> *xyz 0 1
|  3> C          2.49556        1.81615       -2.13636
|  4> C          1.87218        0.42790       -2.07750
|  5> H          2.61427       -0.36583       -2.19889
|  6> H          1.38995        0.27309       -1.11236
|  7> S          0.57902        0.14047       -3.29794
|  8> O          0.22886       -1.24687       -3.12787
|  9> O         -0.43927        1.11897       -3.01455
| 10> F          1.24788        0.40347       -4.59565
| 11> H          2.96535        1.95613       -3.08747
| 12> H          3.22581        1.91242       -1.36024
| 13> H          1.73350        2.55528       -2.00274
| 14> *
| 15>
| 16> %MaxCore 64000
| 17>
| 18> %pal nprocs 4
| 19> end
| 20>
| 21> %scf
| 22>   MaxIter 150
| 23> end
| 24>
| 25>
| 26>                          ****END OF INPUT****

CARTESIAN COORDINATES (ANGSTROEM)
---------------------------------
  C      2.495560    1.816150   -2.136360
  C      1.872180    0.427900   -2.077500
  H      2.614270   -0.365830   -2.198890
  H      1.389950    0.273090   -1.112360
  S      0.579020    0.140470   -3.297940
  O      0.228860   -1.246870   -3.127870
  O     -0.439270    1.118970   -3.014550
  F      1.247880    0.403470   -4.595650
  H      2.965350    1.956130   -3.087470
  H      3.225810    1.912420   -1.360240
  H      1.733500    2.555280   -2.002740

 Total Charge           Charge          ....    0
 Multiplicity           Mult            ....    1
 Number of Electrons    NEL             ....   58
 Basis Dimension        Dim             ....  113

ORBITAL ENERGIES
----------------

  NO   OCC          E(Eh)            E(eV)
   0   2.0000     -88.534968     -2409.1589
   1   2.0000     -24.552147      -668.0979
   2   2.0000     -18.949832      -515.6512
   3   2.0000     -18.949022      -515.6291
   4   2.0000     -10.137098      -275.8445
   5   2.0000     -10.104218      -274.9498
   6   2.0000      -8.093340      -220.2310
   7   2.0000      -6.131466      -166.8457
   8   2.0000      -6.124872      -166.6662
   9   2.0000      -6.123642      -166.6328
  10   2.0000      -1.411508       -38.4091
  11   2.0000      -1.199873       -32.6502
  12   2.0000      -1.102751       -30.0074
  13   2.0000      -0.924755       -25.1639
  14   2.0000      -0.813807       -22.1448
  15   2.0000      -0.769188       -20.9307
  16   2.0000      -0.679841       -18.4994
  17   2.0000      -0.653974       -17.7955
  18   2.0000      -0.634539       -17.2667
  19   2.0000      -0.594250       -16.1704
  20   2.0000      -0.570946       -15.5362
  21   2.0000      -0.547371       -14.8947
  22   2.0000      -0.528081       -14.3698
  23   2.0000      -0.504699       -13.7335
  24   2.0000      -0.496812       -13.5189
  25   2.0000      -0.472043       -12.8449
  26   2.0000      -0.426460       -11.6046
  27   2.0000      -0.415380       -11.3031
  28   2.0000      -0.404974       -11.0199
  29   0.0000       0.107235         2.9180
  30   0.0000       0.145700         3.9647
  31   0.0000       0.165264         4.4971
  32   0.0000       0.169668         4.6169
  33   0.0000       0.174114         4.7379

MULLIKEN ATOMIC CHARGES
-----------------------
   0 C :    0.006862
   1 C :   -0.140767
   2 H :    0.064642
   3 H :    0.085048
   4 S :    0.834279
   5 O :   -0.389064
   6 O :   -0.393943
   7 F :   -0.175906
   8 H :    0.025972
   9 H :    0.037704
  10 H :    0.045173
Sum of atomic charges:    0.0000000

LOEWDIN ATOMIC CHARGES
----------------------
   0 C :   -0.076822
   1 C :   -0.163919
   2 H :    0.039186
   3 H :    0.052935
   4 S :    1.128254
   5 O :   -0.469148
   6 O :   -0.470977
   7 F :   -0.145508
   8 H :    0.029129
   9 H :    0.040343
  10 H :    0.036526

  Mayer bond orders larger than 0.100000
B(  0-C ,  1-C ) :   1.0555 B(  0-C ,  8-H ) :   0.9726 B(  0-C ,  9-H ) :   0.9609
B(  0-C , 10-H ) :   0.9673 B(  1-C ,  2-H ) :   0.9371 B(  1-C ,  3-H ) :   0.9371
B(  1-C ,  4-S ) :   0.9297 B(  4-S ,  5-O ) :   1.8275 B(  4-S ,  6-O ) :   1.8182
B(  4-S ,  7-F ) :   1.0133

FINAL SINGLE POINT ENERGY      -726.382880546283

DIPOLE MOMENT
-------------
                                X             Y             Z
Electronic contribution:     -5.13950      -3.65082      -6.63024
Nuclear contribution   :      6.54345       4.10057       6.91691
                        -----------------------------------------
Total Dipole Moment    :      1.40394       0.44975       0.28667
                        -----------------------------------------
Magnitude (a.u.)       :      1.50184
Magnitude (Debye)      :      3.81736

Rotational constants in cm-1:     0.152835     0.082826     0.080611
Rotational constants in MHz :  4581.878371  2483.049050  2416.647141

                             ****ORCA TERMINATED NORMALLY****
TOTAL RUN TIME: 0 days 0 hours 0 minutes 10 seconds 349 msec
