                         Program Version 5.0.0 -  RELEASE  -
|  1> !LC-BLYP RIJCOSX def2-SVP def2/J TightSCF
|  2> *xyz 0 1
|  3> C          3.38093        2.08304       -3.35013
|  4> N          4.53592        1.18245       -3.42852
|  5> C          2.49556        1.81615       -2.13636
|  6> C          4.67196        0.12227       -4.22060
|  7> N          5.86602       -0.50785       -4.22428
|  8> C          3.69888       -0.31284       -4.98699
|  9> H          2.73141       -0.05009       -4.84900
| 10> H          3.89005       -1.05517       -5.64373
| 11> H          5.25193        1.30346       -2.72101
| 12> H          6.69516       -0.06232       -3.85160
| 13> H          5.97538       -1.39688       -4.69141
| 14> H          2.80646        1.98651       -4.26848
| 15> H          3.77871        3.09828       -3.30738
| 16> H          2.11090        0.81901       -2.18783
| 17> H          1.68276        2.51198       -2.12786
| 18> H          3.07216        1.93031       -1.24227
| 19> *
| 20>
| 21> %MaxCore 64000
| 22>
| 23> %pal nprocs 4
| 24> end
| 25>
| 26> %scf
| 27>   MaxIter 150
| 28> end
| 29>
| 30>
| 31>                          ****END OF INPUT****

CARTESIAN COORDINATES (ANGSTROEM)
---------------------------------
  C      3.380930    2.083040   -3.350130
  N      4.535920    1.182450   -3.428520
  C      2.495560    1.816150   -2.136360
  C      4.671960    0.122270   -4.220600
  N      5.866020   -0.507850   -4.224280
  C      3.698880   -0.312840   -4.986990
  H      2.731410   -0.050090   -4.849000
  H      3.890050   -1.055170   -5.643730
  H      5.251930    1.303460   -2.721010
  H      6.695160   -0.062320   -3.851600
  H      5.975380   -1.396880   -4.691410
  H      2.806460    1.986510   -4.268480
  H      3.778710    3.098280   -3.307380
  H      2.110900    0.819010   -2.187830
  H      1.682760    2.511980   -2.127860
  H      3.072160    1.930310   -1.242270

 Total Charge           Charge          ....    0
 Multiplicity           Mult            ....    1
 Number of Electrons    NEL             ....   48
 Basis Dimension        Dim             ....  134

ORBITAL ENERGIES
----------------

  NO   OCC          E(Eh)            E(eV)
   0   2.0000     -14.177050      -385.7772
   1   2.0000     -14.173711      -385.6863
   2   2.0000     -10.123110      -275.4638
   3   2.0000     -10.111144      -275.1382
   4   2.0000     -10.068130      -273.9677
   5   2.0000      -9.989422      -271.8260
   6   2.0000      -1.045872       -28.4596
   7   2.0000      -0.962733       -26.1973
   8   2.0000      -0.851920       -23.1819
   9   2.0000      -0.802353       -21.8331
  10   2.0000      -0.735725       -20.0201
  11   2.0000      -0.659062       -17.9340
  12   2.0000      -0.640285       -17.4230
  13   2.0000      -0.608407       -16.5556
  14   2.0000      -0.554223       -15.0812
  15   2.0000      -0.547160       -14.8890
  16   2.0000      -0.519190       -14.1279
  17   2.0000      -0.494088       -13.4448
  18   2.0000      -0.472065       -12.8455
  19   2.0000      -0.468415       -12.7462
  20   2.0000      -0.447379       -12.1738
  21   2.0000      -0.440956       -11.9990
  22   2.0000      -0.334499        -9.1022
  23   2.0000      -0.251742        -6.8503
  24   0.0000       0.121697         3.3116
  25   0.0000       0.145393         3.9564
  26   0.0000       0.165711         4.5092
  27   0.0000       0.184023         5.0075
  28   0.0000       0.191989         5.2243

MULLIKEN ATOMIC CHARGES
-----------------------
   0 C :    0.064922
   1 N :   -0.101767
   2 C :    0.023196
   3 C :   -0.043395
   4 N :   -0.064118
   5 C :   -0.103055
   6 H :   -0.060633
   7 H :   -0.081889
   8 H :    0.091364
   9 H :    0.094452
  10 H :    0.115479
  11 H :    0.030049
  12 H :    0.004584
  13 H :    0.021385
  14 H :    0.009744
  15 H :   -0.000319
Sum of atomic charges:   -0.0000000

LOEWDIN ATOMIC CHARGES
----------------------
   0 C :    0.031615
   1 N :   -0.027466
   2 C :   -0.074538
   3 C :    0.036419
   4 N :   -0.033774
   5 C :   -0.260149
   6 H :   -0.006129
   7 H :   -0.007205
   8 H :    0.064318
   9 H :    0.063150
  10 H :    0.080650
  11 H :    0.033823
  12 H :    0.021025
  13 H :    0.030041
  14 H :    0.027649
  15 H :    0.020570

  Mayer bond orders larger than 0.100000
B(  0-C ,  1-N ) :   1.0041 B(  0-C ,  2-C ) :   1.1116 B(  0-C , 11-H ) :   0.9412
B(  0-C , 12-H ) :   0.9566 B(  1-N ,  3-C ) :   1.1877 B(  1-N ,  8-H ) :   0.9319
B(  2-C , 13-H ) :   0.9672 B(  2-C , 14-H ) :   0.9620 B(  2-C , 15-H ) :   0.9663
B(  3-C ,  4-N ) :   1.2247 B(  3-C ,  5-C ) :   1.7910 B(  4-N ,  9-H ) :   0.9514
B(  4-N , 10-H ) :   0.9470 B(  5-C ,  6-H ) :   0.9277 B(  5-C ,  7-H ) :   0.9197

FINAL SINGLE POINT ENERGY      -266.979506503488

DIPOLE MOMENT
-------------
                                X             Y             Z
Electronic contribution:      3.80608      -1.34278      -1.32006
Nuclear contribution   :     -3.02065       1.64092       1.99316
                        -----------------------------------------
Total Dipole Moment    :      0.78544       0.29814       0.67310
                        -----------------------------------------
Magnitude (a.u.)       :      1.07650
Magnitude (Debye)      :      2.73626

Rotational constants in cm-1:     0.259304     0.069422     0.060943
Rotational constants in MHz :  7773.747720  2081.225169  1827.013389

                             ****ORCA TERMINATED NORMALLY****
TOTAL RUN TIME: 0 days 0 hours 0 minutes 13 seconds 466 msec
