                         Program Version 5.0.0 -  RELEASE  -
|  1> !LC-BLYP RIJCOSX def2-TZVP def2/J TightSCF xyzfile
|  2>
|  3> *xyzfile 0 1 D3.xyz
|  4>
|  5> %MaxCore 64000
|  6>
|  7> %pal nprocs 18
|  8> end
|  9>
| 10> %scf
| 11>   MaxIter 150
| 12> end
| 13>
| 14>
| 15>                          ****END OF INPUT****

CARTESIAN COORDINATES (ANGSTROEM)
---------------------------------
  C      3.380928    2.083045   -3.350127
  N      4.535924    1.182447   -3.428518
  C      2.495557    1.816150   -2.136364
  C      1.872181    0.427903   -2.077497
  H      2.614270   -0.365825   -2.198894
  H      1.389953    0.273087   -1.112360
  S      0.579024    0.140472   -3.297943
  C      4.671956    0.122273   -4.220598
  N      5.866023   -0.507849   -4.224284
  C      3.698881   -0.312844   -4.986988
  H      2.731405   -0.050091   -4.849000
  H      3.890046   -1.055172   -5.643730
  H      5.251933    1.303459   -2.721014
  H      6.695165   -0.062322   -3.851596
  H      5.975383   -1.396884   -4.691414
  F      0.228860   -1.246868   -3.127871
  O     -0.439269    1.118966   -3.014550
  O      1.247881    0.403474   -4.595647
  H      1.697003    2.561969   -2.141109
  H      3.080787    1.987436   -1.225838
  H      2.806463    1.986511   -4.268484
  H      3.778714    3.098282   -3.307383

 Total Charge           Charge          ....    0
 Multiplicity           Mult            ....    1
 Number of Electrons    NEL             ....   96
 Basis Dimension        Dim             ....  413

ORBITAL ENERGIES
----------------

  NO   OCC          E(Eh)            E(eV)
   0   2.0000     -88.519109     -2408.7274
   1   2.0000     -24.576744      -668.7672
   2   2.0000     -18.952688      -515.7289
   3   2.0000     -18.937087      -515.3043
   4   2.0000     -14.169494      -385.5715
   5   2.0000     -14.158448      -385.2710
   6   2.0000     -10.125241      -275.5218
   7   2.0000     -10.105905      -274.9956
   8   2.0000     -10.103721      -274.9362
   9   2.0000     -10.096260      -274.7332
  10   2.0000      -9.955440      -270.9013
  11   2.0000      -8.061823      -219.3734
  12   2.0000      -6.093454      -165.8113
  13   2.0000      -6.086640      -165.6259
  14   2.0000      -6.086455      -165.6209
  15   2.0000      -1.466986       -39.9187
  16   2.0000      -1.204599       -32.7788
  17   2.0000      -1.104622       -30.0583
  18   2.0000      -1.061506       -28.8851
  19   2.0000      -0.981320       -26.7031
  20   2.0000      -0.931391       -25.3445
  21   2.0000      -0.860081       -23.4040
  22   2.0000      -0.821740       -22.3607
  23   2.0000      -0.800796       -21.7908
  24   2.0000      -0.750976       -20.4351
  25   2.0000      -0.694258       -18.8917
  26   2.0000      -0.691940       -18.8286
  27   2.0000      -0.676431       -18.4066
  28   2.0000      -0.659333       -17.9414
  29   2.0000      -0.641277       -17.4500
  30   2.0000      -0.620003       -16.8711
  31   2.0000      -0.600502       -16.3405
  32   2.0000      -0.593887       -16.1605
  33   2.0000      -0.555690       -15.1211
  34   2.0000      -0.554373       -15.0853
  35   2.0000      -0.548502       -14.9255
  36   2.0000      -0.508946       -13.8491
  37   2.0000      -0.498864       -13.5748
  38   2.0000      -0.492556       -13.4031
  39   2.0000      -0.481139       -13.0925
  40   2.0000      -0.478025       -13.0077
  41   2.0000      -0.468391       -12.7456
  42   2.0000      -0.449541       -12.2326
  43   2.0000      -0.434712       -11.8291
  44   2.0000      -0.416301       -11.3281
  45   2.0000      -0.377865       -10.2822
  46   2.0000      -0.344812        -9.3828
  47   2.0000      -0.254909        -6.9364
  48   0.0000       0.080066         2.1787
  49   0.0000       0.099113         2.6970
  50   0.0000       0.103863         2.8263
  51   0.0000       0.124974         3.4007
  52   0.0000       0.134373         3.6565

MULLIKEN ATOMIC CHARGES
-----------------------
   0 C :   -0.283162
   1 N :   -0.312338
   2 C :   -0.232604
   3 C :   -0.359169
   4 H :    0.204293
   5 H :    0.176815
   6 S :    0.767158
   7 C :    0.431405
   8 N :   -0.499709
   9 C :   -0.596249
  10 H :    0.105284
  11 H :    0.086609
  12 H :    0.187443
  13 H :    0.209341
  14 H :    0.237304
  15 F :   -0.063554
  16 O :   -0.358174
  17 O :   -0.379672
  18 H :    0.161647
  19 H :    0.139979
  20 H :    0.231309
  21 H :    0.146046
Sum of atomic charges:   -0.0000000

LOEWDIN ATOMIC CHARGES
----------------------
   0 C :   -0.281540
   1 N :    0.110673
   2 C :   -0.292300
   3 C :   -0.379168
   4 H :    0.152381
   5 H :    0.144071
   6 S :    0.516002
   7 C :   -0.484526
   8 N :   -0.034575
   9 C :   -0.342354
  10 H :    0.079670
  11 H :    0.098807
  12 H :    0.175470
  13 H :    0.155688
  14 H :    0.172855
  15 F :    0.118340
  16 O :   -0.249728
  17 O :   -0.255838
  18 H :    0.154765
  19 H :    0.147893
  20 H :    0.155398
  21 H :    0.138017

  Mayer bond orders larger than 0.100000
B(  0-C ,  1-N ) :   0.8613 B(  0-C ,  2-C ) :   0.9191 B(  0-C , 20-H ) :   0.9697
B(  0-C , 21-H ) :   0.9884 B(  1-N ,  7-C ) :   1.1258 B(  1-N , 12-H ) :   0.9381
B(  2-C ,  3-C ) :   0.9154 B(  2-C , 18-H ) :   0.9658 B(  2-C , 19-H ) :   0.9663
B(  3-C ,  4-H ) :   0.9311 B(  3-C ,  5-H ) :   0.9442 B(  3-C ,  6-S ) :   0.9373
B(  6-S , 15-F ) :   1.1928 B(  6-S , 16-O ) :   1.9819 B(  6-S , 17-O ) :   1.8139
B(  7-C ,  8-N ) :   1.0626 B(  7-C ,  9-C ) :   1.5801 B(  8-N , 13-H ) :   0.9367
B(  8-N , 14-H ) :   0.9318 B(  9-C , 10-H ) :   1.0187 B(  9-C , 11-H ) :   1.0171

FINAL SINGLE POINT ENERGY      -953.876107618536

DIPOLE MOMENT
-------------
                                X             Y             Z
Electronic contribution:    -14.65927      -5.50450       0.09331
Nuclear contribution   :     15.84345       5.19593       1.66752
                        -----------------------------------------
Total Dipole Moment    :      1.18418      -0.30856       1.76083
                        -----------------------------------------
Magnitude (a.u.)       :      2.14430
Magnitude (Debye)      :      5.45037

Rotational constants in cm-1:     0.059060     0.020573     0.017713
Rotational constants in MHz :  1770.576058   616.749938   531.036486

                             ****ORCA TERMINATED NORMALLY****
TOTAL RUN TIME: 0 days 0 hours 0 minutes 33 seconds 716 msec
