                         Program Version 5.0.0 -  RELEASE  -
|  1> !LC-BLYP RIJCOSX def2-TZVP def2/J TightSCF xyzfile
|  2>
|  3> *xyzfile 0 1 D5.xyz
|  4>
|  5> %MaxCore 64000
|  6>
|  7> %pal nprocs 18
|  8> end
|  9>
| 10> %scf
| 11>   MaxIter 150
| 12> end
| 13>
| 14>
| 15>                          ****END OF INPUT****

CARTESIAN COORDINATES (ANGSTROEM)
---------------------------------
  C      3.380928    2.083045   -3.350127
  N      4.535924    1.182447   -3.428518
  C      2.495557    1.816150   -2.136364
  C      1.872181    0.427903   -2.077497
  H      2.614270   -0.365825   -2.198894
  H      1.389953    0.273087   -1.112360
  S      0.579024    0.140472   -3.297943
  C      4.671956    0.122273   -4.220598
  C      5.866023   -0.507849   -4.224284
  N      3.698881   -0.312844   -4.986988
  H      2.731405   -0.050091   -4.849000
  H      3.890046   -1.055172   -5.643730
  H      5.251933    1.303459   -2.721014
  H      6.695165   -0.062322   -3.851596
  H      5.975383   -1.396884   -4.691414
  O      0.228860   -1.246868   -3.127871
  F     -0.439269    1.118966   -3.014550
  O      1.247881    0.403474   -4.595647
  H      1.697003    2.561969   -2.141109
  H      3.080787    1.987436   -1.225838
  H      2.806463    1.986511   -4.268484
  H      3.778714    3.098282   -3.307383

 Total Charge           Charge          ....    0
 Multiplicity           Mult            ....    1
 Number of Electrons    NEL             ....   96
 Basis Dimension        Dim             ....  413

ORBITAL ENERGIES
----------------

  NO   OCC          E(Eh)            E(eV)
   0   2.0000     -88.541663     -2409.3411
   1   2.0000     -24.597125      -669.3218
   2   2.0000     -18.972657      -516.2722
   3   2.0000     -18.967363      -516.1282
   4   2.0000     -14.170311      -385.5938
   5   2.0000     -14.139908      -384.7665
   6   2.0000     -10.139988      -275.9231
   7   2.0000     -10.113224      -275.1948
   8   2.0000     -10.108890      -275.0769
   9   2.0000     -10.108049      -275.0540
  10   2.0000      -9.966476      -271.2016
  11   2.0000      -8.084298      -219.9849
  12   2.0000      -6.115984      -166.4244
  13   2.0000      -6.109402      -166.2453
  14   2.0000      -6.108621      -166.2240
  15   2.0000      -1.487777       -40.4845
  16   2.0000      -1.226580       -33.3769
  17   2.0000      -1.130473       -30.7617
  18   2.0000      -1.062934       -28.9239
  19   2.0000      -0.982644       -26.7391
  20   2.0000      -0.947139       -25.7730
  21   2.0000      -0.876702       -23.8563
  22   2.0000      -0.834753       -22.7148
  23   2.0000      -0.796689       -21.6790
  24   2.0000      -0.744457       -20.2577
  25   2.0000      -0.718045       -19.5390
  26   2.0000      -0.715731       -19.4760
  27   2.0000      -0.701309       -19.0836
  28   2.0000      -0.678035       -18.4503
  29   2.0000      -0.646523       -17.5928
  30   2.0000      -0.616485       -16.7754
  31   2.0000      -0.601419       -16.3655
  32   2.0000      -0.592427       -16.1208
  33   2.0000      -0.582462       -15.8496
  34   2.0000      -0.562632       -15.3100
  35   2.0000      -0.552931       -15.0460
  36   2.0000      -0.524107       -14.2617
  37   2.0000      -0.516018       -14.0416
  38   2.0000      -0.508173       -13.8281
  39   2.0000      -0.492159       -13.3923
  40   2.0000      -0.484077       -13.1724
  41   2.0000      -0.465244       -12.6599
  42   2.0000      -0.453450       -12.3390
  43   2.0000      -0.441808       -12.0222
  44   2.0000      -0.437752       -11.9118
  45   2.0000      -0.431116       -11.7313
  46   2.0000      -0.344507        -9.3745
  47   2.0000      -0.243670        -6.6306
  48   0.0000       0.068462         1.8629
  49   0.0000       0.089041         2.4229
  50   0.0000       0.113226         3.0810
  51   0.0000       0.114302         3.1103
  52   0.0000       0.117897         3.2081

MULLIKEN ATOMIC CHARGES
-----------------------
   0 C :   -0.314578
   1 N :   -0.288698
   2 C :   -0.222103
   3 C :   -0.384033
   4 H :    0.228350
   5 H :    0.186463
   6 S :    0.779153
   7 C :    0.373845
   8 C :   -0.637919
   9 N :   -0.445302
  10 H :    0.246314
  11 H :    0.229793
  12 H :    0.219601
  13 H :    0.102204
  14 H :    0.094259
  15 O :   -0.338911
  16 F :   -0.060529
  17 O :   -0.424923
  18 H :    0.141007
  19 H :    0.150436
  20 H :    0.212932
  21 H :    0.152639
Sum of atomic charges:    0.0000000

LOEWDIN ATOMIC CHARGES
----------------------
   0 C :   -0.300791
   1 N :    0.119600
   2 C :   -0.303799
   3 C :   -0.373465
   4 H :    0.165750
   5 H :    0.147854
   6 S :    0.521938
   7 C :   -0.482321
   8 C :   -0.380016
   9 N :    0.006626
  10 H :    0.127765
  11 H :    0.178515
  12 H :    0.193528
  13 H :    0.093443
  14 H :    0.094093
  15 O :   -0.234117
  16 F :    0.122706
  17 O :   -0.277104
  18 H :    0.144755
  19 H :    0.150578
  20 H :    0.145511
  21 H :    0.138950

  Mayer bond orders larger than 0.100000
B(  0-C ,  1-N ) :   0.8933 B(  0-C ,  2-C ) :   0.8882 B(  0-C , 20-H ) :   0.9777
B(  0-C , 21-H ) :   0.9889 B(  1-N ,  7-C ) :   1.1451 B(  1-N , 12-H ) :   0.9321
B(  2-C ,  3-C ) :   0.8882 B(  2-C , 18-H ) :   0.9762 B(  2-C , 19-H ) :   0.9637
B(  3-C ,  4-H ) :   0.9250 B(  3-C ,  5-H ) :   0.9522 B(  3-C ,  6-S ) :   0.9367
B(  6-S , 15-O ) :   2.0212 B(  6-S , 16-F ) :   1.1917 B(  6-S , 17-O ) :   1.7522
B(  7-C ,  8-C ) :   1.5247 B(  7-C ,  9-N ) :   1.1896 B(  8-C , 13-H ) :   1.0098
B(  8-C , 14-H ) :   1.0150 B(  9-N , 10-H ) :   0.8641 B(  9-N , 11-H ) :   0.9343
B( 10-H , 17-O ) :   0.1105

FINAL SINGLE POINT ENERGY      -953.891696813037

DIPOLE MOMENT
-------------
                                X             Y             Z
Electronic contribution:    -17.92606      -1.18908      -0.16553
Nuclear contribution   :     16.78714       2.58368       1.61768
                        -----------------------------------------
Total Dipole Moment    :     -1.13893       1.39461       1.45216
                        -----------------------------------------
Magnitude (a.u.)       :      2.31319
Magnitude (Debye)      :      5.87966

Rotational constants in cm-1:     0.059928     0.020911     0.017993
Rotational constants in MHz :  1796.610847   626.896941   539.414615

                             ****ORCA TERMINATED NORMALLY****
TOTAL RUN TIME: 0 days 0 hours 0 minutes 37 seconds 367 msec
