                         Program Version 5.0.0 -  RELEASE  -
|  1> !LC-BLYP RIJCOSX def2-TZVP def2/J TightSCF xyzfile
|  2>
|  3> *xyzfile 0 1 D7.xyz
|  4>
|  5> %MaxCore 64000
|  6>
|  7> %pal nprocs 18
|  8> end
|  9>
| 10> %scf
| 11>   MaxIter 150
| 12> end
| 13>
| 14>
| 15>                          ****END OF INPUT****

CARTESIAN COORDINATES (ANGSTROEM)
---------------------------------
  C      3.380928    2.083045   -3.350127
  C      4.535924    1.182447   -3.428518
  C      2.495557    1.816150   -2.136364
  C      1.872181    0.427903   -2.077497
  H      2.614270   -0.365825   -2.198894
  H      1.389953    0.273087   -1.112360
  S      0.579024    0.140472   -3.297943
  C      4.671956    0.122273   -4.220598
  N      5.866023   -0.507849   -4.224284
  N      3.698881   -0.312844   -4.986988
  H      2.731405   -0.050091   -4.849000
  H      3.890046   -1.055172   -5.643730
  H      5.251933    1.303459   -2.721014
  H      6.695165   -0.062322   -3.851596
  H      5.975383   -1.396884   -4.691414
  O      0.228860   -1.246868   -3.127871
  O     -0.439269    1.118966   -3.014550
  F      1.247881    0.403474   -4.595647
  H      1.697003    2.561969   -2.141109
  H      3.080787    1.987436   -1.225838
  H      2.806463    1.986511   -4.268484
  H      3.778714    3.098282   -3.307383

 Total Charge           Charge          ....    0
 Multiplicity           Mult            ....    1
 Number of Electrons    NEL             ....   96
 Basis Dimension        Dim             ....  413

ORBITAL ENERGIES
----------------

  NO   OCC          E(Eh)            E(eV)
   0   2.0000     -88.517233     -2408.6764
   1   2.0000     -24.571678      -668.6294
   2   2.0000     -18.954870      -515.7882
   3   2.0000     -18.954236      -515.7710
   4   2.0000     -14.173167      -385.6715
   5   2.0000     -14.172681      -385.6582
   6   2.0000     -10.125998      -275.5424
   7   2.0000     -10.116617      -275.2871
   8   2.0000     -10.078522      -274.2505
   9   2.0000     -10.059387      -273.7298
  10   2.0000     -10.001696      -272.1600
  11   2.0000      -8.060472      -219.3366
  12   2.0000      -6.092782      -165.7930
  13   2.0000      -6.084894      -165.5784
  14   2.0000      -6.084731      -165.5740
  15   2.0000      -1.453188       -39.5433
  16   2.0000      -1.215539       -33.0765
  17   2.0000      -1.121703       -30.5231
  18   2.0000      -1.071695       -29.1623
  19   2.0000      -0.979287       -26.6478
  20   2.0000      -0.938058       -25.5259
  21   2.0000      -0.873926       -23.7807
  22   2.0000      -0.836387       -22.7592
  23   2.0000      -0.795321       -21.6418
  24   2.0000      -0.752151       -20.4671
  25   2.0000      -0.704175       -19.1616
  26   2.0000      -0.693512       -18.8714
  27   2.0000      -0.677777       -18.4433
  28   2.0000      -0.657434       -17.8897
  29   2.0000      -0.650295       -17.6954
  30   2.0000      -0.618043       -16.8178
  31   2.0000      -0.598045       -16.2736
  32   2.0000      -0.581168       -15.8144
  33   2.0000      -0.576147       -15.6778
  34   2.0000      -0.562767       -15.3137
  35   2.0000      -0.554716       -15.0946
  36   2.0000      -0.514588       -14.0026
  37   2.0000      -0.513477       -13.9724
  38   2.0000      -0.509551       -13.8656
  39   2.0000      -0.490807       -13.3555
  40   2.0000      -0.463505       -12.6126
  41   2.0000      -0.450751       -12.2656
  42   2.0000      -0.442466       -12.0401
  43   2.0000      -0.435778       -11.8581
  44   2.0000      -0.426987       -11.6189
  45   2.0000      -0.419126       -11.4050
  46   2.0000      -0.372301       -10.1308
  47   2.0000      -0.264658        -7.2017
  48   0.0000       0.078529         2.1369
  49   0.0000       0.093566         2.5461
  50   0.0000       0.111513         3.0344
  51   0.0000       0.125124         3.4048
  52   0.0000       0.132169         3.5965

MULLIKEN ATOMIC CHARGES
-----------------------
   0 C :   -0.398579
   1 C :   -0.373214
   2 C :   -0.192294
   3 C :   -0.393520
   4 H :    0.212658
   5 H :    0.191878
   6 S :    0.752235
   7 C :    0.351422
   8 N :   -0.473009
   9 N :   -0.437076
  10 H :    0.233370
  11 H :    0.216276
  12 H :    0.111027
  13 H :    0.242708
  14 H :    0.211972
  15 O :   -0.360993
  16 O :   -0.357671
  17 F :   -0.117314
  18 H :    0.160040
  19 H :    0.134573
  20 H :    0.149476
  21 H :    0.136037
Sum of atomic charges:   -0.0000000

LOEWDIN ATOMIC CHARGES
----------------------
   0 C :   -0.294303
   1 C :   -0.288671
   2 C :   -0.294804
   3 C :   -0.373869
   4 H :    0.151980
   5 H :    0.155757
   6 S :    0.512889
   7 C :   -0.469727
   8 N :   -0.025612
   9 N :   -0.000871
  10 H :    0.139243
  11 H :    0.167481
  12 H :    0.123618
  13 H :    0.176180
  14 H :    0.159095
  15 O :   -0.250782
  16 O :   -0.246335
  17 F :    0.076506
  18 H :    0.146665
  19 H :    0.149296
  20 H :    0.137114
  21 H :    0.149149

  Mayer bond orders larger than 0.100000
B(  0-C ,  1-C ) :   0.9414 B(  0-C ,  2-C ) :   0.9043 B(  0-C , 20-H ) :   1.0008
B(  0-C , 21-H ) :   0.9996 B(  1-C ,  7-C ) :   1.6036 B(  1-C , 12-H ) :   0.9937
B(  2-C ,  3-C ) :   0.8893 B(  2-C , 18-H ) :   0.9741 B(  2-C , 19-H ) :   0.9646
B(  3-C ,  4-H ) :   0.9343 B(  3-C ,  5-H ) :   0.9486 B(  3-C ,  6-S ) :   0.9327
B(  6-S , 15-O ) :   2.0008 B(  6-S , 16-O ) :   1.9911 B(  6-S , 17-F ) :   1.0371
B(  7-C ,  8-N ) :   1.1126 B(  7-C ,  9-N ) :   1.1486 B(  8-N , 13-H ) :   0.9262
B(  8-N , 14-H ) :   0.9342 B(  9-N , 10-H ) :   0.9012 B(  9-N , 11-H ) :   0.9310

FINAL SINGLE POINT ENERGY      -953.913520612146

DIPOLE MOMENT
-------------
                                X             Y             Z
Electronic contribution:    -13.19591      -3.90829      -3.69308
Nuclear contribution   :     14.80811       3.53278       3.42836
                        -----------------------------------------
Total Dipole Moment    :      1.61220      -0.37550      -0.26473
                        -----------------------------------------
Magnitude (a.u.)       :      1.67638
Magnitude (Debye)      :      4.26103

Rotational constants in cm-1:     0.059173     0.020923     0.018056
Rotational constants in MHz :  1773.956621   627.264018   541.303397

                             ****ORCA TERMINATED NORMALLY****
TOTAL RUN TIME: 0 days 0 hours 0 minutes 37 seconds 848 msec
