                         Program Version 5.0.0 -  RELEASE  -
|  1> !B3LYP D3BJ RIJCOSX def2-SVP def2/J TightSCF
|  2> *xyz -1 1
|  3> C          4.93020       -7.37532       -2.64962
|  4> C          3.84189       -6.95161       -3.63283
|  5> H          3.45814       -5.95442       -3.40712
|  6> H          2.98848       -7.64361       -3.56708
|  7> S          4.31812       -6.91593       -5.36869
|  8> O          5.40615       -5.89948       -5.51297
|  9> O          3.11191       -6.44508       -6.04379
| 10> O          4.76340       -8.23942       -5.69863
| 11> H          5.27901       -8.35440       -2.90385
| 12> H          4.53000       -7.38577       -1.65734
| 13> H          5.74437       -6.68276       -2.69856
| 14> *
| 15>
| 16> %MaxCore 64000
| 17>
| 18> %pal nprocs 4
| 19> end
| 20>
| 21> %scf
| 22>   MaxIter 150
| 23> end
| 24>
| 25>
| 26>                          ****END OF INPUT****

CARTESIAN COORDINATES (ANGSTROEM)
---------------------------------
  C      4.930200   -7.375320   -2.649620
  C      3.841890   -6.951610   -3.632830
  H      3.458140   -5.954420   -3.407120
  H      2.988480   -7.643610   -3.567080
  S      4.318120   -6.915930   -5.368690
  O      5.406150   -5.899480   -5.512970
  O      3.111910   -6.445080   -6.043790
  O      4.763400   -8.239420   -5.698630
  H      5.279010   -8.354400   -2.903850
  H      4.530000   -7.385770   -1.657340
  H      5.744370   -6.682760   -2.698560

 Total Charge           Charge          ....   -1
 Multiplicity           Mult            ....    1
 Number of Electrons    NEL             ....   58
 Basis Dimension        Dim             ....  113

ORBITAL ENERGIES
----------------

  NO   OCC          E(Eh)            E(eV)
   0   2.0000     -88.838736     -2417.4249
   1   2.0000     -18.884136      -513.8635
   2   2.0000     -18.873132      -513.5640
   3   2.0000     -18.864658      -513.3334
   4   2.0000     -10.035315      -273.0748
   5   2.0000     -10.030576      -272.9459
   6   2.0000      -7.899231      -214.9490
   7   2.0000      -5.867677      -159.6676
   8   2.0000      -5.867379      -159.6595
   9   2.0000      -5.867267      -159.6565
  10   2.0000      -0.895422       -24.3657
  11   2.0000      -0.757782       -20.6203
  12   2.0000      -0.725997       -19.7554
  13   2.0000      -0.615923       -16.7601
  14   2.0000      -0.490488       -13.3469
  15   2.0000      -0.360447        -9.8083
  16   2.0000      -0.307216        -8.3598
  17   2.0000      -0.292483        -7.9589
  18   2.0000      -0.258129        -7.0240
  19   2.0000      -0.236612        -6.4385
  20   2.0000      -0.234607        -6.3840
  21   2.0000      -0.213715        -5.8155
  22   2.0000      -0.199433        -5.4268
  23   2.0000      -0.115946        -3.1551
  24   2.0000      -0.114620        -3.1190
  25   2.0000      -0.084762        -2.3065
  26   2.0000      -0.077128        -2.0988
  27   2.0000      -0.064808        -1.7635
  28   2.0000      -0.028760        -0.7826
  29   0.0000       0.200718         5.4618
  30   0.0000       0.252411         6.8685
  31   0.0000       0.259321         7.0565
  32   0.0000       0.266180         7.2431
  33   0.0000       0.293058         7.9745

MULLIKEN ATOMIC CHARGES
-----------------------
   0 C :    0.062105
   1 C :   -0.073474
   2 H :   -0.012561
   3 H :   -0.017068
   4 S :    0.873430
   5 O :   -0.621588
   6 O :   -0.590741
   7 O :   -0.563002
   8 H :   -0.006495
   9 H :   -0.043675
  10 H :   -0.006930
Sum of atomic charges:   -1.0000000

LOEWDIN ATOMIC CHARGES
----------------------
   0 C :   -0.067106
   1 C :   -0.182120
   2 H :    0.004927
   3 H :    0.003601
   4 S :    1.108953
   5 O :   -0.662307
   6 O :   -0.628333
   7 O :   -0.601548
   8 H :    0.012502
   9 H :   -0.000847
  10 H :    0.012280

  Mayer bond orders larger than 0.100000
B(  0-C ,  1-C ) :   1.0593 B(  0-C ,  8-H ) :   0.9643 B(  0-C ,  9-H ) :   0.9574
B(  0-C , 10-H ) :   0.9639 B(  1-C ,  2-H ) :   0.9401 B(  1-C ,  3-H ) :   0.9357
B(  1-C ,  4-S ) :   0.8792 B(  4-S ,  5-O ) :   1.5680 B(  4-S ,  6-O ) :   1.6091
B(  4-S ,  7-O ) :   1.6311

Dispersion correction           -0.016598040
FINAL SINGLE POINT ENERGY      -702.526375155459

DIPOLE MOMENT
-------------
                                X             Y             Z
Electronic contribution:     -0.34545       0.82463      -7.98543
Nuclear contribution   :      0.07504      -1.14369       9.75001
                        -----------------------------------------
Total Dipole Moment    :     -0.27041      -0.31906       1.76457
                        -----------------------------------------
Magnitude (a.u.)       :      1.81346
Magnitude (Debye)      :      4.60945

Rotational constants in cm-1:     0.160553     0.082191     0.080550
Rotational constants in MHz :  4813.250478  2464.013016  2414.833054

                             ****ORCA TERMINATED NORMALLY****
TOTAL RUN TIME: 0 days 0 hours 0 minutes 12 seconds 901 msec
