                         Program Version 5.0.0 -  RELEASE  -
|  1> !B3LYP D3BJ RIJCOSX def2-SVP def2/J TightSCF
|  2> *xyz 1 1
|  3> C          5.55821       -1.99291       -6.21505
|  4> C          4.18188       -2.58967       -6.29891
|  5> N          3.14587       -1.76843       -6.48675
|  6> N          4.01910       -3.86431       -6.22743
|  7> H          4.76849       -4.59115       -5.99077
|  8> H          3.12241       -4.33339       -6.31462
|  9> H          3.28164       -0.77779       -6.56655
| 10> H          2.21255       -2.13419       -6.56225
| 11> C          6.41926       -2.54294       -5.07763
| 12> H          6.03683       -2.19819       -7.17685
| 13> H          5.46761       -0.90737       -6.12797
| 14> H          6.50056       -3.60553       -5.17358
| 15> H          5.96544       -2.30329       -4.13874
| 16> H          7.39438       -2.10494       -5.12457
| 17> *
| 18>
| 19> %MaxCore 64000
| 20>
| 21> %pal nprocs 4
| 22> end
| 23>
| 24> %scf
| 25>   MaxIter 150
| 26> end
| 27>
| 28>
| 29>                          ****END OF INPUT****

CARTESIAN COORDINATES (ANGSTROEM)
---------------------------------
  C      5.558210   -1.992910   -6.215050
  C      4.181880   -2.589670   -6.298910
  N      3.145870   -1.768430   -6.486750
  N      4.019100   -3.864310   -6.227430
  H      4.768490   -4.591150   -5.990770
  H      3.122410   -4.333390   -6.314620
  H      3.281640   -0.777790   -6.566550
  H      2.212550   -2.134190   -6.562250
  C      6.419260   -2.542940   -5.077630
  H      6.036830   -2.198190   -7.176850
  H      5.467610   -0.907370   -6.127970
  H      6.500560   -3.605530   -5.173580
  H      5.965440   -2.303290   -4.138740
  H      7.394380   -2.104940   -5.124570

 Total Charge           Charge          ....    1
 Multiplicity           Mult            ....    1
 Number of Electrons    NEL             ....   40
 Basis Dimension        Dim             ....  115

ORBITAL ENERGIES
----------------

  NO   OCC          E(Eh)            E(eV)
   0   2.0000     -14.580120      -396.7452
   1   2.0000     -14.568677      -396.4338
   2   2.0000     -10.503845      -285.8241
   3   2.0000     -10.379335      -282.4361
   4   2.0000     -10.338627      -281.3283
   5   2.0000      -1.192693       -32.4548
   6   2.0000      -1.095080       -29.7986
   7   2.0000      -0.959811       -26.1178
   8   2.0000      -0.860072       -23.4037
   9   2.0000      -0.810877       -22.0651
  10   2.0000      -0.773206       -21.0400
  11   2.0000      -0.742371       -20.2009
  12   2.0000      -0.697140       -18.9702
  13   2.0000      -0.650792       -17.7090
  14   2.0000      -0.622220       -16.9315
  15   2.0000      -0.600429       -16.3385
  16   2.0000      -0.548135       -14.9155
  17   2.0000      -0.538161       -14.6441
  18   2.0000      -0.522836       -14.2271
  19   2.0000      -0.489985       -13.3332
  20   0.0000      -0.200218        -5.4482
  21   0.0000      -0.145052        -3.9471
  22   0.0000      -0.109898        -2.9905
  23   0.0000      -0.098388        -2.6773
  24   0.0000      -0.075496        -2.0544

MULLIKEN ATOMIC CHARGES
-----------------------
   0 C :    0.030905
   1 C :   -0.083079
   2 N :    0.032048
   3 N :    0.020159
   4 H :    0.206350
   5 H :    0.168978
   6 H :    0.173673
   7 H :    0.160068
   8 C :    0.026059
   9 H :    0.090182
  10 H :    0.040996
  11 H :    0.020823
  12 H :    0.047571
  13 H :    0.065266
Sum of atomic charges:    1.0000000

LOEWDIN ATOMIC CHARGES
----------------------
   0 C :   -0.024173
   1 C :    0.144723
   2 N :    0.096862
   3 N :    0.092631
   4 H :    0.148068
   5 H :    0.112744
   6 H :    0.113560
   7 H :    0.104911
   8 C :   -0.020275
   9 H :    0.068695
  10 H :    0.049350
  11 H :    0.023072
  12 H :    0.038125
  13 H :    0.051707

  Mayer bond orders larger than 0.100000
B(  0-C ,  1-C ) :   1.0256 B(  0-C ,  8-C ) :   1.0943 B(  0-C ,  9-H ) :   0.9090
B(  0-C , 10-H ) :   0.9199 B(  1-C ,  2-N ) :   1.4990 B(  1-C ,  3-N ) :   1.5280
B(  2-N ,  6-H ) :   0.9212 B(  2-N ,  7-H ) :   0.9331 B(  3-N ,  4-H ) :   0.9104
B(  3-N ,  5-H ) :   0.9295 B(  8-C , 11-H ) :   0.9674 B(  8-C , 12-H ) :   0.9743
B(  8-C , 13-H ) :   0.9555

Dispersion correction           -0.016577058
FINAL SINGLE POINT ENERGY      -228.731474567491

DIPOLE MOMENT
-------------
                                X             Y             Z
Electronic contribution:     -3.82892      -0.49506      -1.58448
Nuclear contribution   :      2.76041       0.12669       1.26265
                        -----------------------------------------
Total Dipole Moment    :     -1.06851      -0.36837      -0.32183
                        -----------------------------------------
Magnitude (a.u.)       :      1.17515
Magnitude (Debye)      :      2.98700

Rotational constants in cm-1:     0.280918     0.124524     0.094121
Rotational constants in MHz :  8421.697738  3733.133254  2821.684112

                             ****ORCA TERMINATED NORMALLY****
TOTAL RUN TIME: 0 days 0 hours 0 minutes 12 seconds 593 msec
