                         Program Version 5.0.0 -  RELEASE  -
|  1> !B3LYP D3BJ RIJCOSX def2-TZVP def2/J TightSCF xyzfile
|  2>
|  3> *xyzfile 0 1 B.xyz
|  4>
|  5> %MaxCore 64000
|  6>
|  7> %pal nprocs 18
|  8> end
|  9>
| 10> %scf
| 11>   MaxIter 150
| 12> end
| 13>
| 14>
| 15>                          ****END OF INPUT****

CARTESIAN COORDINATES (ANGSTROEM)
---------------------------------
  C      5.558206   -1.992914   -6.215054
  C      4.930199   -7.375319   -2.649623
  C      3.841892   -6.951611   -3.632829
  H      3.458144   -5.954425   -3.407121
  H      2.988484   -7.643606   -3.567078
  S      4.318115   -6.915930   -5.368692
  C      4.181880   -2.589671   -6.298911
  N      3.145873   -1.768431   -6.486753
  N      4.019102   -3.864307   -6.227427
  H      4.768490   -4.591153   -5.990773
  H      3.122405   -4.333392   -6.314620
  H      3.281635   -0.777786   -6.566549
  H      2.212549   -2.134193   -6.562246
  O      5.406154   -5.899480   -5.512972
  O      3.111910   -6.445079   -6.043792
  C      6.419260   -2.542944   -5.077630
  C      5.872267   -5.002756   -2.427819
  C      6.173994   -6.485522   -2.606315
  H      6.734852   -6.613767   -3.534015
  H      6.821463   -6.831018   -1.793617
  H      4.469612   -7.406168   -1.655876
  H      5.230134   -8.398678   -2.885906
  C      5.896512   -2.169314   -3.694552
  H      7.428880   -2.143665   -5.208078
  H      6.505894   -3.627541   -5.175502
  C      6.807804   -2.623428   -2.551019
  H      4.894708   -2.589732   -3.557501
  H      5.778823   -1.081255   -3.635790
  C      7.111544   -4.122463   -2.520363
  H      7.751615   -2.071393   -2.614406
  H      6.345837   -2.326401   -1.604086
  H      5.362882   -4.828697   -1.471335
  H      5.174429   -4.702577   -3.211298
  H      7.778329   -4.329347   -1.677651
  H      7.673189   -4.402845   -3.417586
  O      4.763396   -8.239424   -5.698629
  H      6.036826   -2.198189   -7.176852
  H      5.467610   -0.907371   -6.127968

 Total Charge           Charge          ....    0
 Multiplicity           Mult            ....    1
 Number of Electrons    NEL             ....  136
 Basis Dimension        Dim             ....  634

ORBITAL ENERGIES
----------------

  NO   OCC          E(Eh)            E(eV)
   0   2.0000     -88.990720     -2421.5606
   1   2.0000     -19.066014      -518.8126
   2   2.0000     -19.053552      -518.4735
   3   2.0000     -19.047722      -518.3149
   4   2.0000     -14.404113      -391.9558
   5   2.0000     -14.365236      -390.8979
   6   2.0000     -10.325397      -280.9683
   7   2.0000     -10.225815      -278.2586
   8   2.0000     -10.192412      -277.3496
   9   2.0000     -10.180684      -277.0305
  10   2.0000     -10.169109      -276.7155
  11   2.0000     -10.160611      -276.4843
  12   2.0000     -10.156634      -276.3761
  13   2.0000     -10.149032      -276.1692
  14   2.0000     -10.148022      -276.1417
  15   2.0000     -10.140668      -275.9416
  16   2.0000      -8.034367      -218.6263
  17   2.0000      -5.997971      -163.2131
  18   2.0000      -5.997013      -163.1870
  19   2.0000      -5.996229      -163.1657
  20   2.0000      -1.077307       -29.3150
  21   2.0000      -1.037517       -28.2323
  22   2.0000      -0.948247       -25.8031
  23   2.0000      -0.939631       -25.5687
  24   2.0000      -0.933095       -25.3908
  25   2.0000      -0.839946       -22.8561
  26   2.0000      -0.804106       -21.8808
  27   2.0000      -0.780336       -21.2340
  28   2.0000      -0.741339       -20.1729
  29   2.0000      -0.707187       -19.2435
  30   2.0000      -0.675305       -18.3760
  31   2.0000      -0.653807       -17.7910
  32   2.0000      -0.626776       -17.0554
  33   2.0000      -0.608033       -16.5454
  34   2.0000      -0.596721       -16.2376
  35   2.0000      -0.575217       -15.6524
  36   2.0000      -0.559863       -15.2346
  37   2.0000      -0.539512       -14.6809
  38   2.0000      -0.512621       -13.9491
  39   2.0000      -0.501437       -13.6448
  40   2.0000      -0.487010       -13.2522
  41   2.0000      -0.471353       -12.8262
  42   2.0000      -0.463945       -12.6246
  43   2.0000      -0.450500       -12.2587
  44   2.0000      -0.444476       -12.0948
  45   2.0000      -0.436396       -11.8749
  46   2.0000      -0.427776       -11.6404
  47   2.0000      -0.421845       -11.4790
  48   2.0000      -0.407925       -11.1002
  49   2.0000      -0.399753       -10.8778
  50   2.0000      -0.394613       -10.7380
  51   2.0000      -0.392350       -10.6764
  52   2.0000      -0.373366       -10.1598
  53   2.0000      -0.367355        -9.9962
  54   2.0000      -0.361296        -9.8314
  55   2.0000      -0.345011        -9.3882
  56   2.0000      -0.334990        -9.1155
  57   2.0000      -0.329148        -8.9566
  58   2.0000      -0.326236        -8.8773
  59   2.0000      -0.316858        -8.6221
  60   2.0000      -0.312376        -8.5002
  61   2.0000      -0.305746        -8.3198
  62   2.0000      -0.301145        -8.1946
  63   2.0000      -0.298530        -8.1234
  64   2.0000      -0.264528        -7.1982
  65   2.0000      -0.260666        -7.0931
  66   2.0000      -0.251539        -6.8447
  67   2.0000      -0.228300        -6.2124
  68   0.0000      -0.047158        -1.2832
  69   0.0000      -0.021383        -0.5819
  70   0.0000       0.017130         0.4661
  71   0.0000       0.028940         0.7875
  72   0.0000       0.041556         1.1308

MULLIKEN ATOMIC CHARGES
-----------------------
   0 C :   -0.147386
   1 C :   -0.145069
   2 C :   -0.247543
   3 H :    0.089445
   4 H :    0.116239
   5 S :    0.901825
   6 C :    0.262972
   7 N :   -0.390450
   8 N :   -0.300845
   9 H :    0.320623
  10 H :    0.255123
  11 H :    0.252108
  12 H :    0.250835
  13 O :   -0.602546
  14 O :   -0.585877
  15 C :   -0.270728
  16 C :   -0.198485
  17 C :   -0.152633
  18 H :    0.123363
  19 H :    0.073255
  20 H :    0.074335
  21 H :    0.109270
  22 C :   -0.199947
  23 H :    0.101649
  24 H :    0.183601
  25 C :   -0.128086
  26 H :    0.109569
  27 H :    0.079769
  28 C :   -0.185075
  29 H :    0.088773
  30 H :    0.086484
  31 H :    0.070836
  32 H :    0.064538
  33 H :    0.086271
  34 H :    0.105380
  35 O :   -0.490708
  36 H :    0.145483
  37 H :    0.093633
Sum of atomic charges:   -0.0000000

LOEWDIN ATOMIC CHARGES
----------------------
   0 C :   -0.201740
   1 C :   -0.282889
   2 C :   -0.387024
   3 H :    0.120158
   4 H :    0.136177
   5 S :    0.476842
   6 C :   -0.324728
   7 N :    0.056784
   8 N :    0.122462
   9 H :    0.167824
  10 H :    0.183080
  11 H :    0.180056
  12 H :    0.179799
  13 O :   -0.373122
  14 O :   -0.377289
  15 C :   -0.247672
  16 C :   -0.267469
  17 C :   -0.267449
  18 H :    0.140961
  19 H :    0.130035
  20 H :    0.132991
  21 H :    0.141450
  22 C :   -0.265979
  23 H :    0.142614
  24 H :    0.150346
  25 C :   -0.260566
  26 H :    0.133570
  27 H :    0.131146
  28 C :   -0.262550
  29 H :    0.133490
  30 H :    0.134803
  31 H :    0.128733
  32 H :    0.128913
  33 H :    0.133632
  34 H :    0.136939
  35 O :   -0.311988
  36 H :    0.163882
  37 H :    0.143777

  Mayer bond orders larger than 0.100000
B(  0-C ,  6-C ) :   0.9693 B(  0-C , 15-C ) :   0.9565 B(  0-C , 36-H ) :   0.9406
B(  0-C , 37-H ) :   0.9754 B(  1-C ,  2-C ) :   0.9527 B(  1-C , 17-C ) :   0.9906
B(  1-C , 20-H ) :   0.9542 B(  1-C , 21-H ) :   0.9609 B(  2-C ,  3-H ) :   0.9513
B(  2-C ,  4-H ) :   0.9546 B(  2-C ,  5-S ) :   0.8956 B(  5-S , 13-O ) :   1.4607
B(  5-S , 14-O ) :   1.6723 B(  5-S , 35-O ) :   1.8926 B(  6-C ,  7-N ) :   1.3080
B(  6-C ,  8-N ) :   1.6094 B(  7-N , 11-H ) :   0.9084 B(  7-N , 12-H ) :   0.9055
B(  8-N ,  9-H ) :   0.7114 B(  8-N , 10-H ) :   0.8775 B(  9-H , 13-O ) :   0.2282
B( 15-C , 22-C ) :   0.9452 B( 15-C , 23-H ) :   0.9598 B( 15-C , 24-H ) :   0.9628
B( 16-C , 17-C ) :   0.9642 B( 16-C , 28-C ) :   0.9718 B( 16-C , 31-H ) :   0.9589
B( 16-C , 32-H ) :   0.9652 B( 17-C , 18-H ) :   0.9635 B( 17-C , 19-H ) :   0.9667
B( 22-C , 25-C ) :   0.9802 B( 22-C , 26-H ) :   0.9717 B( 22-C , 27-H ) :   0.9602
B( 25-C , 28-C ) :   0.9559 B( 25-C , 29-H ) :   0.9731 B( 25-C , 30-H ) :   0.9707
B( 28-C , 33-H ) :   0.9669 B( 28-C , 34-H ) :   0.9815

Dispersion correction           -0.075799948
FINAL SINGLE POINT ENERGY     -1127.598672596867

DIPOLE MOMENT
-------------
                                X             Y             Z
Electronic contribution:     -9.21620     -11.45052     -14.23667
Nuclear contribution   :      8.53517      16.50844      14.36520
                        -----------------------------------------
Total Dipole Moment    :     -0.68104       5.05792       0.12853
                        -----------------------------------------
Magnitude (a.u.)       :      5.10518
Magnitude (Debye)      :     12.97633

Rotational constants in cm-1:     0.017951     0.012436     0.008288
Rotational constants in MHz :   538.163255   372.824050   248.467077

                             ****ORCA TERMINATED NORMALLY****
TOTAL RUN TIME: 0 days 0 hours 1 minutes 35 seconds 573 msec
