                         Program Version 5.0.0 -  RELEASE  -
|  1> !B3LYP D3BJ RIJCOSX def2-SVP def2/J TightSCF
|  2> *xyz 0 1
|  3> C          4.93020       -7.37532       -2.64962
|  4> C          3.84189       -6.95161       -3.63283
|  5> H          3.45814       -5.95442       -3.40712
|  6> H          2.98848       -7.64361       -3.56708
|  7> S          4.31812       -6.91593       -5.36869
|  8> F          5.40615       -5.89948       -5.51297
|  9> O          3.11191       -6.44508       -6.04379
| 10> O          4.76340       -8.23942       -5.69863
| 11> H          5.27901       -8.35440       -2.90385
| 12> H          4.53000       -7.38577       -1.65734
| 13> H          5.74437       -6.68276       -2.69856
| 14> *
| 15>
| 16> %MaxCore 64000
| 17>
| 18> %pal nprocs 4
| 19> end
| 20>
| 21> %scf
| 22>   MaxIter 150
| 23> end
| 24>
| 25>
| 26>                          ****END OF INPUT****

CARTESIAN COORDINATES (ANGSTROEM)
---------------------------------
  C      4.930200   -7.375320   -2.649620
  C      3.841890   -6.951610   -3.632830
  H      3.458140   -5.954420   -3.407120
  H      2.988480   -7.643610   -3.567080
  S      4.318120   -6.915930   -5.368690
  F      5.406150   -5.899480   -5.512970
  O      3.111910   -6.445080   -6.043790
  O      4.763400   -8.239420   -5.698630
  H      5.279010   -8.354400   -2.903850
  H      4.530000   -7.385770   -1.657340
  H      5.744370   -6.682760   -2.698560

 Total Charge           Charge          ....    0
 Multiplicity           Mult            ....    1
 Number of Electrons    NEL             ....   58
 Basis Dimension        Dim             ....  113

ORBITAL ENERGIES
----------------

  NO   OCC          E(Eh)            E(eV)
   0   2.0000     -89.110874     -2424.8302
   1   2.0000     -24.773122      -674.1109
   2   2.0000     -19.137267      -520.7515
   3   2.0000     -19.126083      -520.4472
   4   2.0000     -10.242015      -278.6994
   5   2.0000     -10.206360      -277.7292
   6   2.0000      -8.173675      -222.4170
   7   2.0000      -6.145827      -167.2365
   8   2.0000      -6.139818      -167.0729
   9   2.0000      -6.138649      -167.0411
  10   2.0000      -1.322302       -35.9817
  11   2.0000      -1.102896       -30.0113
  12   2.0000      -1.005251       -27.3543
  13   2.0000      -0.815731       -22.1972
  14   2.0000      -0.710283       -19.3278
  15   2.0000      -0.663698       -18.0601
  16   2.0000      -0.570985       -15.5373
  17   2.0000      -0.547753       -14.9051
  18   2.0000      -0.534087       -14.5333
  19   2.0000      -0.490048       -13.3349
  20   2.0000      -0.472410       -12.8549
  21   2.0000      -0.446861       -12.1597
  22   2.0000      -0.428496       -11.6600
  23   2.0000      -0.406445       -11.0599
  24   2.0000      -0.399464       -10.8700
  25   2.0000      -0.371713       -10.1148
  26   2.0000      -0.329026        -8.9533
  27   2.0000      -0.317868        -8.6496
  28   2.0000      -0.304951        -8.2981
  29   0.0000       0.019851         0.5402
  30   0.0000       0.057235         1.5574
  31   0.0000       0.084968         2.3121
  32   0.0000       0.091235         2.4826
  33   0.0000       0.094723         2.5775

MULLIKEN ATOMIC CHARGES
-----------------------
   0 C :    0.034632
   1 C :   -0.117796
   2 H :    0.056198
   3 H :    0.083906
   4 S :    0.957582
   5 F :   -0.220948
   6 O :   -0.454891
   7 O :   -0.429319
   8 H :    0.039215
   9 H :    0.030351
  10 H :    0.021070
Sum of atomic charges:    0.0000000

LOEWDIN ATOMIC CHARGES
----------------------
   0 C :   -0.053916
   1 C :   -0.144155
   2 H :    0.033169
   3 H :    0.052889
   4 S :    1.172832
   5 F :   -0.171644
   6 O :   -0.502394
   7 O :   -0.475959
   8 H :    0.030646
   9 H :    0.034300
  10 H :    0.024232

  Mayer bond orders larger than 0.100000
B(  0-C ,  1-C ) :   1.0563 B(  0-C ,  8-H ) :   0.9685 B(  0-C ,  9-H ) :   0.9596
B(  0-C , 10-H ) :   0.9725 B(  1-C ,  2-H ) :   0.9344 B(  1-C ,  3-H ) :   0.9352
B(  1-C ,  4-S ) :   0.9126 B(  4-S ,  5-F ) :   0.9580 B(  4-S ,  6-O ) :   1.7635
B(  4-S ,  7-O ) :   1.7872

Dispersion correction           -0.015794977
FINAL SINGLE POINT ENERGY      -727.049989138932

DIPOLE MOMENT
-------------
                                X             Y             Z
Electronic contribution:      1.29999       2.62939      -8.82896
Nuclear contribution   :     -0.98922      -2.24849      10.35711
                        -----------------------------------------
Total Dipole Moment    :      0.31077       0.38090       1.52815
                        -----------------------------------------
Magnitude (a.u.)       :      1.60528
Magnitude (Debye)      :      4.08029

Rotational constants in cm-1:     0.151436     0.080885     0.078670
Rotational constants in MHz :  4539.936009  2424.868817  2358.476812

                             ****ORCA TERMINATED NORMALLY****
TOTAL RUN TIME: 0 days 0 hours 0 minutes 13 seconds 315 msec
