                         Program Version 5.0.0 -  RELEASE  -
|  1> !B3LYP D3BJ RIJCOSX def2-SVP def2/J TightSCF
|  2> *xyz 0 1
|  3> C          4.93020       -7.37532       -2.64962
|  4> C          3.84189       -6.95161       -3.63283
|  5> H          3.45814       -5.95442       -3.40712
|  6> H          2.98848       -7.64361       -3.56708
|  7> S          4.31812       -6.91593       -5.36869
|  8> O          5.40615       -5.89948       -5.51297
|  9> F          3.11191       -6.44508       -6.04379
| 10> O          4.76340       -8.23942       -5.69863
| 11> H          5.27901       -8.35440       -2.90385
| 12> H          4.53000       -7.38577       -1.65734
| 13> H          5.74437       -6.68276       -2.69856
| 14> *
| 15>
| 16> %MaxCore 64000
| 17>
| 18> %pal nprocs 4
| 19> end
| 20>
| 21> %scf
| 22>   MaxIter 150
| 23> end
| 24>
| 25>
| 26>                          ****END OF INPUT****

CARTESIAN COORDINATES (ANGSTROEM)
---------------------------------
  C      4.930200   -7.375320   -2.649620
  C      3.841890   -6.951610   -3.632830
  H      3.458140   -5.954420   -3.407120
  H      2.988480   -7.643610   -3.567080
  S      4.318120   -6.915930   -5.368690
  O      5.406150   -5.899480   -5.512970
  F      3.111910   -6.445080   -6.043790
  O      4.763400   -8.239420   -5.698630
  H      5.279010   -8.354400   -2.903850
  H      4.530000   -7.385770   -1.657340
  H      5.744370   -6.682760   -2.698560

 Total Charge           Charge          ....    0
 Multiplicity           Mult            ....    1
 Number of Electrons    NEL             ....   58
 Basis Dimension        Dim             ....  113

ORBITAL ENERGIES
----------------

  NO   OCC          E(Eh)            E(eV)
   0   2.0000     -89.112033     -2424.8617
   1   2.0000     -24.788285      -674.5235
   2   2.0000     -19.135787      -520.7112
   3   2.0000     -19.117201      -520.2055
   4   2.0000     -10.242977      -278.7256
   5   2.0000     -10.204654      -277.6828
   6   2.0000      -8.174901      -222.4504
   7   2.0000      -6.147186      -167.2734
   8   2.0000      -6.140939      -167.1035
   9   2.0000      -6.139673      -167.0690
  10   2.0000      -1.350587       -36.7514
  11   2.0000      -1.095929       -29.8218
  12   2.0000      -0.985137       -26.8069
  13   2.0000      -0.815348       -22.1868
  14   2.0000      -0.724187       -19.7061
  15   2.0000      -0.664707       -18.0876
  16   2.0000      -0.574333       -15.6284
  17   2.0000      -0.568026       -15.4568
  18   2.0000      -0.543911       -14.8006
  19   2.0000      -0.491997       -13.3879
  20   2.0000      -0.473682       -12.8895
  21   2.0000      -0.431617       -11.7449
  22   2.0000      -0.427795       -11.6409
  23   2.0000      -0.409481       -11.1426
  24   2.0000      -0.388234       -10.5644
  25   2.0000      -0.373410       -10.1610
  26   2.0000      -0.325077        -8.8458
  27   2.0000      -0.308261        -8.3882
  28   2.0000      -0.290482        -7.9044
  29   0.0000       0.039429         1.0729
  30   0.0000       0.043487         1.1834
  31   0.0000       0.081605         2.2206
  32   0.0000       0.086694         2.3591
  33   0.0000       0.094364         2.5678

MULLIKEN ATOMIC CHARGES
-----------------------
   0 C :    0.045421
   1 C :   -0.110432
   2 H :    0.052720
   3 H :    0.052420
   4 S :    0.950231
   5 O :   -0.484146
   6 F :   -0.189545
   7 O :   -0.426805
   8 H :    0.039168
   9 H :    0.030266
  10 H :    0.040699
Sum of atomic charges:   -0.0000000

LOEWDIN ATOMIC CHARGES
----------------------
   0 C :   -0.039205
   1 C :   -0.148318
   2 H :    0.031695
   3 H :    0.032982
   4 S :    1.168602
   5 O :   -0.534782
   6 F :   -0.137211
   7 O :   -0.474657
   8 H :    0.032691
   9 H :    0.034931
  10 H :    0.033274

  Mayer bond orders larger than 0.100000
B(  0-C ,  1-C ) :   1.0816 B(  0-C ,  8-H ) :   0.9691 B(  0-C ,  9-H ) :   0.9609
B(  0-C , 10-H ) :   0.9700 B(  1-C ,  2-H ) :   0.9297 B(  1-C ,  3-H ) :   0.9267
B(  1-C ,  4-S ) :   0.9093 B(  4-S ,  5-O ) :   1.7240 B(  4-S ,  6-F ) :   0.9967
B(  4-S ,  7-O ) :   1.7838

Dispersion correction           -0.015854765
FINAL SINGLE POINT ENERGY      -727.037754385916

DIPOLE MOMENT
-------------
                                X             Y             Z
Electronic contribution:     -2.58079       1.70610      -9.73457
Nuclear contribution   :      1.40145      -1.67996      10.91024
                        -----------------------------------------
Total Dipole Moment    :     -1.17934       0.02614       1.17567
                        -----------------------------------------
Magnitude (a.u.)       :      1.66545
Magnitude (Debye)      :      4.23324

Rotational constants in cm-1:     0.155875     0.079864     0.077188
Rotational constants in MHz :  4673.017506  2394.277415  2314.027118

                             ****ORCA TERMINATED NORMALLY****
TOTAL RUN TIME: 0 days 0 hours 0 minutes 13 seconds 481 msec
