                         Program Version 5.0.0 -  RELEASE  -
|  1> !B3LYP D3BJ RIJCOSX def2-SVP def2/J TightSCF
|  2> *xyz 0 1
|  3> C          5.55821       -1.99291       -6.21505
|  4> C          4.18188       -2.58967       -6.29891
|  5> N          3.14587       -1.76843       -6.48675
|  6> C          4.01910       -3.86431       -6.22743
|  7> H          4.76849       -4.59115       -5.99077
|  8> H          3.12241       -4.33339       -6.31462
|  9> H          3.28164       -0.77779       -6.56655
| 10> H          2.21255       -2.13419       -6.56225
| 11> C          6.41926       -2.54294       -5.07763
| 12> H          6.03683       -2.19819       -7.17685
| 13> H          5.46761       -0.90737       -6.12797
| 14> H          6.50056       -3.60553       -5.17358
| 15> H          5.96544       -2.30329       -4.13874
| 16> H          7.39438       -2.10494       -5.12457
| 17> *
| 18>
| 19> %MaxCore 64000
| 20>
| 21> %pal nprocs 4
| 22> end
| 23>
| 24> %scf
| 25>   MaxIter 150
| 26> end
| 27>
| 28>
| 29>                          ****END OF INPUT****

CARTESIAN COORDINATES (ANGSTROEM)
---------------------------------
  C      5.558210   -1.992910   -6.215050
  C      4.181880   -2.589670   -6.298910
  N      3.145870   -1.768430   -6.486750
  C      4.019100   -3.864310   -6.227430
  H      4.768490   -4.591150   -5.990770
  H      3.122410   -4.333390   -6.314620
  H      3.281640   -0.777790   -6.566550
  H      2.212550   -2.134190   -6.562250
  C      6.419260   -2.542940   -5.077630
  H      6.036830   -2.198190   -7.176850
  H      5.467610   -0.907370   -6.127970
  H      6.500560   -3.605530   -5.173580
  H      5.965440   -2.303290   -4.138740
  H      7.394380   -2.104940   -5.124570

 Total Charge           Charge          ....    0
 Multiplicity           Mult            ....    1
 Number of Electrons    NEL             ....   40
 Basis Dimension        Dim             ....  115

ORBITAL ENERGIES
----------------

  NO   OCC          E(Eh)            E(eV)
   0   2.0000     -14.317971      -389.6118
   1   2.0000     -10.193814      -277.3878
   2   2.0000     -10.178557      -276.9726
   3   2.0000     -10.164390      -276.5871
   4   2.0000     -10.112694      -275.1804
   5   2.0000      -0.905480       -24.6394
   6   2.0000      -0.767823       -20.8935
   7   2.0000      -0.699249       -19.0275
   8   2.0000      -0.629848       -17.1390
   9   2.0000      -0.547821       -14.9070
  10   2.0000      -0.514481       -13.9997
  11   2.0000      -0.478263       -13.0142
  12   2.0000      -0.441762       -12.0210
  13   2.0000      -0.413082       -11.2405
  14   2.0000      -0.378884       -10.3099
  15   2.0000      -0.366312        -9.9678
  16   2.0000      -0.346813        -9.4373
  17   2.0000      -0.330986        -9.0066
  18   2.0000      -0.318094        -8.6558
  19   2.0000      -0.182188        -4.9576
  20   0.0000       0.055985         1.5234
  21   0.0000       0.065469         1.7815
  22   0.0000       0.094487         2.5711
  23   0.0000       0.101460         2.7609
  24   0.0000       0.123397         3.3578

MULLIKEN ATOMIC CHARGES
-----------------------
   0 C :    0.075790
   1 C :   -0.078159
   2 N :   -0.056885
   3 C :   -0.088789
   4 H :   -0.026819
   5 H :   -0.063019
   6 H :    0.094787
   7 H :    0.099515
   8 C :    0.042889
   9 H :    0.018195
  10 H :   -0.031203
  11 H :    0.013325
  12 H :    0.005524
  13 H :   -0.005152
Sum of atomic charges:   -0.0000000

LOEWDIN ATOMIC CHARGES
----------------------
   0 C :   -0.022516
   1 C :    0.004176
   2 N :   -0.006512
   3 C :   -0.176859
   4 H :    0.009298
   5 H :   -0.009385
   6 H :    0.061839
   7 H :    0.070299
   8 C :   -0.034185
   9 H :    0.033216
  10 H :    0.012031
  11 H :    0.020841
  12 H :    0.020725
  13 H :    0.017031

  Mayer bond orders larger than 0.100000
B(  0-C ,  1-C ) :   1.0048 B(  0-C ,  8-C ) :   1.1162 B(  0-C ,  9-H ) :   0.9280
B(  0-C , 10-H ) :   0.9246 B(  1-C ,  2-N ) :   1.2618 B(  1-C ,  3-C ) :   1.8809
B(  2-N ,  6-H ) :   0.9512 B(  2-N ,  7-H ) :   0.9498 B(  3-C ,  4-H ) :   0.9501
B(  3-C ,  5-H ) :   0.9405 B(  8-C , 11-H ) :   0.9700 B(  8-C , 12-H ) :   0.9726
B(  8-C , 13-H ) :   0.9603

Dispersion correction           -0.017353458
FINAL SINGLE POINT ENERGY      -212.276535078999

DIPOLE MOMENT
-------------
                                X             Y             Z
Electronic contribution:     -2.84725       0.86487      -1.30780
Nuclear contribution   :      2.61570      -0.17401       1.22349
                        -----------------------------------------
Total Dipole Moment    :     -0.23154       0.69086      -0.08431
                        -----------------------------------------
Magnitude (a.u.)       :      0.73349
Magnitude (Debye)      :      1.86438

Rotational constants in cm-1:     0.298189     0.125314     0.096441
Rotational constants in MHz :  8939.495008  3756.825352  2891.223400

                             ****ORCA TERMINATED NORMALLY****
TOTAL RUN TIME: 0 days 0 hours 0 minutes 12 seconds 696 msec
