                         Program Version 5.0.0 -  RELEASE  -
|  1> !B3LYP D3BJ RIJCOSX def2-SVP def2/J TightSCF
|  2> *xyz 0 1
|  3> C          4.93020       -7.37532       -2.64962
|  4> C          3.84189       -6.95161       -3.63283
|  5> H          3.45814       -5.95442       -3.40712
|  6> H          2.98848       -7.64361       -3.56708
|  7> S          4.31812       -6.91593       -5.36869
|  8> O          5.40615       -5.89948       -5.51297
|  9> O          3.11191       -6.44508       -6.04379
| 10> F          4.76340       -8.23942       -5.69863
| 11> H          5.27901       -8.35440       -2.90385
| 12> H          4.53000       -7.38577       -1.65734
| 13> H          5.74437       -6.68276       -2.69856
| 14> *
| 15>
| 16> %MaxCore 64000
| 17>
| 18> %pal nprocs 4
| 19> end
| 20>
| 21> %scf
| 22>   MaxIter 150
| 23> end
| 24>
| 25>
| 26>                          ****END OF INPUT****

CARTESIAN COORDINATES (ANGSTROEM)
---------------------------------
  C      4.930200   -7.375320   -2.649620
  C      3.841890   -6.951610   -3.632830
  H      3.458140   -5.954420   -3.407120
  H      2.988480   -7.643610   -3.567080
  S      4.318120   -6.915930   -5.368690
  O      5.406150   -5.899480   -5.512970
  O      3.111910   -6.445080   -6.043790
  F      4.763400   -8.239420   -5.698630
  H      5.279010   -8.354400   -2.903850
  H      4.530000   -7.385770   -1.657340
  H      5.744370   -6.682760   -2.698560

 Total Charge           Charge          ....    0
 Multiplicity           Mult            ....    1
 Number of Electrons    NEL             ....   58
 Basis Dimension        Dim             ....  113

ORBITAL ENERGIES
----------------

  NO   OCC          E(Eh)            E(eV)
   0   2.0000     -89.112868     -2424.8844
   1   2.0000     -24.802043      -674.8979
   2   2.0000     -19.125691      -520.4365
   3   2.0000     -19.118297      -520.2353
   4   2.0000     -10.242911      -278.7238
   5   2.0000     -10.207273      -277.7540
   6   2.0000      -8.175833      -222.4757
   7   2.0000      -6.148393      -167.3063
   8   2.0000      -6.141585      -167.1210
   9   2.0000      -6.140461      -167.0905
  10   2.0000      -1.373316       -37.3698
  11   2.0000      -1.084012       -29.4975
  12   2.0000      -0.977295       -26.5935
  13   2.0000      -0.817974       -22.2582
  14   2.0000      -0.727981       -19.8094
  15   2.0000      -0.675027       -18.3684
  16   2.0000      -0.594438       -16.1755
  17   2.0000      -0.582836       -15.8598
  18   2.0000      -0.539042       -14.6681
  19   2.0000      -0.490900       -13.3581
  20   2.0000      -0.470964       -12.8156
  21   2.0000      -0.443795       -12.0763
  22   2.0000      -0.422131       -11.4868
  23   2.0000      -0.407065       -11.0768
  24   2.0000      -0.394720       -10.7409
  25   2.0000      -0.363090        -9.8802
  26   2.0000      -0.315824        -8.5940
  27   2.0000      -0.307321        -8.3626
  28   2.0000      -0.284653        -7.7458
  29   0.0000       0.025948         0.7061
  30   0.0000       0.055124         1.5000
  31   0.0000       0.079901         2.1742
  32   0.0000       0.090182         2.4540
  33   0.0000       0.092678         2.5219

MULLIKEN ATOMIC CHARGES
-----------------------
   0 C :    0.034822
   1 C :   -0.115280
   2 H :    0.083505
   3 H :    0.055585
   4 S :    0.943601
   5 O :   -0.479721
   6 O :   -0.448032
   7 F :   -0.164284
   8 H :    0.017644
   9 H :    0.031062
  10 H :    0.041098
Sum of atomic charges:    0.0000000

LOEWDIN ATOMIC CHARGES
----------------------
   0 C :   -0.054169
   1 C :   -0.144041
   2 H :    0.051341
   3 H :    0.034049
   4 S :    1.164488
   5 O :   -0.530726
   6 O :   -0.497135
   7 F :   -0.112587
   8 H :    0.022819
   9 H :    0.034559
  10 H :    0.031401

  Mayer bond orders larger than 0.100000
B(  0-C ,  1-C ) :   1.0551 B(  0-C ,  8-H ) :   0.9714 B(  0-C ,  9-H ) :   0.9596
B(  0-C , 10-H ) :   0.9690 B(  1-C ,  2-H ) :   0.9367 B(  1-C ,  3-H ) :   0.9310
B(  1-C ,  4-S ) :   0.9089 B(  4-S ,  5-O ) :   1.7215 B(  4-S ,  6-O ) :   1.7580
B(  4-S ,  7-F ) :   1.0225

Dispersion correction           -0.015779339
FINAL SINGLE POINT ENERGY      -727.025487495874

DIPOLE MOMENT
-------------
                                X             Y             Z
Electronic contribution:      0.20993      -1.31157      -9.15247
Nuclear contribution   :     -0.31946       0.18980      10.55057
                        -----------------------------------------
Total Dipole Moment    :     -0.10953      -1.12178       1.39810
                        -----------------------------------------
Magnitude (a.u.)       :      1.79585
Magnitude (Debye)      :      4.56469

Rotational constants in cm-1:     0.151421     0.081183     0.078684
Rotational constants in MHz :  4539.489207  2433.790160  2358.892966

                             ****ORCA TERMINATED NORMALLY****
TOTAL RUN TIME: 0 days 0 hours 0 minutes 13 seconds 188 msec
