                         Program Version 5.0.0 -  RELEASE  -
|  1> !B3LYP D3BJ RIJCOSX def2-TZVP def2/J TightSCF xyzfile
|  2>
|  3> *xyzfile 0 1 D1.xyz
|  4>
|  5> %MaxCore 64000
|  6>
|  7> %pal nprocs 18
|  8> end
|  9>
| 10> %scf
| 11>   MaxIter 150
| 12> end
| 13>
| 14>
| 15>                          ****END OF INPUT****

CARTESIAN COORDINATES (ANGSTROEM)
---------------------------------
  C      5.558206   -1.992914   -6.215054
  C      4.930199   -7.375319   -2.649623
  C      3.841892   -6.951611   -3.632829
  H      3.458144   -5.954425   -3.407121
  H      2.988484   -7.643606   -3.567078
  S      4.318115   -6.915930   -5.368692
  C      4.181880   -2.589671   -6.298911
  C      3.145873   -1.768431   -6.486753
  N      4.019102   -3.864307   -6.227427
  H      4.768490   -4.591153   -5.990773
  H      3.122405   -4.333392   -6.314620
  H      3.281635   -0.777786   -6.566549
  H      2.212549   -2.134193   -6.562246
  F      5.406154   -5.899480   -5.512972
  O      3.111910   -6.445079   -6.043792
  C      6.419260   -2.542944   -5.077630
  C      5.872267   -5.002756   -2.427819
  C      6.173994   -6.485522   -2.606315
  H      6.734852   -6.613767   -3.534015
  H      6.821463   -6.831018   -1.793617
  H      4.469612   -7.406168   -1.655876
  H      5.230134   -8.398678   -2.885906
  C      5.896512   -2.169314   -3.694552
  H      7.428880   -2.143665   -5.208078
  H      6.505894   -3.627541   -5.175502
  C      6.807804   -2.623428   -2.551019
  H      4.894708   -2.589732   -3.557501
  H      5.778823   -1.081255   -3.635790
  C      7.111544   -4.122463   -2.520363
  H      7.751615   -2.071393   -2.614406
  H      6.345837   -2.326401   -1.604086
  H      5.362882   -4.828697   -1.471335
  H      5.174429   -4.702577   -3.211298
  H      7.778329   -4.329347   -1.677651
  H      7.673189   -4.402845   -3.417586
  O      4.763396   -8.239424   -5.698629
  H      6.036826   -2.198189   -7.176852
  H      5.467610   -0.907371   -6.127968

 Total Charge           Charge          ....    0
 Multiplicity           Mult            ....    1
 Number of Electrons    NEL             ....  136
 Basis Dimension        Dim             ....  634

ORBITAL ENERGIES
----------------

  NO   OCC          E(Eh)            E(eV)
   0   2.0000     -89.114548     -2424.9301
   1   2.0000     -24.808723      -675.0797
   2   2.0000     -19.158333      -521.3248
   3   2.0000     -19.150915      -521.1229
   4   2.0000     -14.296362      -389.0238
   5   2.0000     -10.240781      -278.6658
   6   2.0000     -10.203973      -277.6642
   7   2.0000     -10.187604      -277.2188
   8   2.0000     -10.178570      -276.9730
   9   2.0000     -10.176593      -276.9192
  10   2.0000     -10.171504      -276.7807
  11   2.0000     -10.166184      -276.6359
  12   2.0000     -10.164826      -276.5990
  13   2.0000     -10.160878      -276.4916
  14   2.0000     -10.159569      -276.4559
  15   2.0000     -10.084230      -274.4058
  16   2.0000      -8.158787      -222.0119
  17   2.0000      -6.125992      -166.6967
  18   2.0000      -6.118888      -166.5034
  19   2.0000      -6.118648      -166.4969
  20   2.0000      -1.379092       -37.5270
  21   2.0000      -1.132233       -30.8096
  22   2.0000      -1.040548       -28.3148
  23   2.0000      -0.918494       -24.9935
  24   2.0000      -0.851312       -23.1654
  25   2.0000      -0.818587       -22.2749
  26   2.0000      -0.791215       -21.5301
  27   2.0000      -0.759867       -20.6770
  28   2.0000      -0.741902       -20.1882
  29   2.0000      -0.712237       -19.3810
  30   2.0000      -0.697265       -18.9736
  31   2.0000      -0.659114       -17.9354
  32   2.0000      -0.624293       -16.9879
  33   2.0000      -0.616705       -16.7814
  34   2.0000      -0.608774       -16.5656
  35   2.0000      -0.587358       -15.9828
  36   2.0000      -0.571793       -15.5593
  37   2.0000      -0.560503       -15.2521
  38   2.0000      -0.556927       -15.1547
  39   2.0000      -0.508908       -13.8481
  40   2.0000      -0.503158       -13.6916
  41   2.0000      -0.490786       -13.3550
  42   2.0000      -0.485386       -13.2080
  43   2.0000      -0.475669       -12.9436
  44   2.0000      -0.464968       -12.6524
  45   2.0000      -0.462037       -12.5727
  46   2.0000      -0.451767       -12.2932
  47   2.0000      -0.434586       -11.8257
  48   2.0000      -0.431700       -11.7472
  49   2.0000      -0.421754       -11.4765
  50   2.0000      -0.410429       -11.1683
  51   2.0000      -0.408681       -11.1208
  52   2.0000      -0.394805       -10.7432
  53   2.0000      -0.379505       -10.3269
  54   2.0000      -0.375126       -10.2077
  55   2.0000      -0.370139       -10.0720
  56   2.0000      -0.368337       -10.0230
  57   2.0000      -0.357525        -9.7287
  58   2.0000      -0.355170        -9.6647
  59   2.0000      -0.345566        -9.4033
  60   2.0000      -0.341838        -9.3019
  61   2.0000      -0.337505        -9.1840
  62   2.0000      -0.335736        -9.1358
  63   2.0000      -0.329998        -8.9797
  64   2.0000      -0.320253        -8.7145
  65   2.0000      -0.313152        -8.5213
  66   2.0000      -0.308535        -8.3957
  67   2.0000      -0.172562        -4.6957
  68   0.0000      -0.010661        -0.2901
  69   0.0000       0.021899         0.5959
  70   0.0000       0.029572         0.8047
  71   0.0000       0.033627         0.9150
  72   0.0000       0.040076         1.0905

MULLIKEN ATOMIC CHARGES
-----------------------
   0 C :   -0.138099
   1 C :   -0.150530
   2 C :   -0.279529
   3 H :    0.162825
   4 H :    0.166396
   5 S :    0.899535
   6 C :    0.188602
   7 C :   -0.438060
   8 N :   -0.443783
   9 H :    0.245139
  10 H :    0.241468
  11 H :    0.081858
  12 H :    0.080693
  13 F :   -0.149880
  14 O :   -0.447291
  15 C :   -0.232712
  16 C :   -0.244110
  17 C :   -0.199050
  18 H :    0.108858
  19 H :    0.103492
  20 H :    0.106248
  21 H :    0.130148
  22 C :   -0.186057
  23 H :    0.089006
  24 H :    0.079811
  25 C :   -0.127639
  26 H :    0.115236
  27 H :    0.088603
  28 C :   -0.165211
  29 H :    0.089674
  30 H :    0.085871
  31 H :    0.091208
  32 H :    0.076023
  33 H :    0.091809
  34 H :    0.097305
  35 O :   -0.402740
  36 H :    0.095959
  37 H :    0.088925
Sum of atomic charges:    0.0000000

LOEWDIN ATOMIC CHARGES
----------------------
   0 C :   -0.206905
   1 C :   -0.279143
   2 C :   -0.360814
   3 H :    0.141685
   4 H :    0.156342
   5 S :    0.576862
   6 C :   -0.377661
   7 C :   -0.287821
   8 N :   -0.009042
   9 H :    0.151693
  10 H :    0.170363
  11 H :    0.095302
  12 H :    0.091203
  13 F :    0.057542
  14 O :   -0.272691
  15 C :   -0.263172
  16 C :   -0.267839
  17 C :   -0.268823
  18 H :    0.132295
  19 H :    0.140084
  20 H :    0.145594
  21 H :    0.144404
  22 C :   -0.260908
  23 H :    0.135519
  24 H :    0.123167
  25 C :   -0.262163
  26 H :    0.136204
  27 H :    0.137424
  28 C :   -0.263711
  29 H :    0.134600
  30 H :    0.133607
  31 H :    0.135639
  32 H :    0.126917
  33 H :    0.134199
  34 H :    0.133729
  35 O :   -0.243147
  36 H :    0.142420
  37 H :    0.147046

  Mayer bond orders larger than 0.100000
B(  0-C ,  6-C ) :   0.9766 B(  0-C , 15-C ) :   0.9539 B(  0-C , 36-H ) :   0.9609
B(  0-C , 37-H ) :   0.9756 B(  1-C ,  2-C ) :   0.9390 B(  1-C , 17-C ) :   0.9748
B(  1-C , 20-H ) :   0.9488 B(  1-C , 21-H ) :   0.9667 B(  2-C ,  3-H ) :   0.9401
B(  2-C ,  4-H ) :   0.9401 B(  2-C ,  5-S ) :   0.9046 B(  5-S , 13-F ) :   1.0108
B(  5-S , 14-O ) :   1.8472 B(  5-S , 35-O ) :   1.9596 B(  6-C ,  7-C ) :   1.6992
B(  6-C ,  8-N ) :   1.2236 B(  7-C , 11-H ) :   0.9952 B(  7-C , 12-H ) :   0.9925
B(  8-N ,  9-H ) :   0.8833 B(  8-N , 10-H ) :   0.9005 B( 15-C , 22-C ) :   0.9446
B( 15-C , 23-H ) :   0.9614 B( 15-C , 24-H ) :   0.9859 B( 16-C , 17-C ) :   0.9212
B( 16-C , 28-C ) :   0.9667 B( 16-C , 31-H ) :   0.9580 B( 16-C , 32-H ) :   0.9842
B( 17-C , 18-H ) :   0.9834 B( 17-C , 19-H ) :   0.9705 B( 22-C , 25-C ) :   0.9587
B( 22-C , 26-H ) :   0.9833 B( 22-C , 27-H ) :   0.9647 B( 25-C , 28-C ) :   0.9622
B( 25-C , 29-H ) :   0.9707 B( 25-C , 30-H ) :   0.9744 B( 28-C , 33-H ) :   0.9675
B( 28-C , 34-H ) :   0.9766

Dispersion correction           -0.074995879
FINAL SINGLE POINT ENERGY     -1135.476449253081

DIPOLE MOMENT
-------------
                                X             Y             Z
Electronic contribution:     -7.01433     -18.80786     -13.23291
Nuclear contribution   :      7.78491      18.17172      15.09294
                        -----------------------------------------
Total Dipole Moment    :      0.77058      -0.63614       1.86002
                        -----------------------------------------
Magnitude (a.u.)       :      2.11144
Magnitude (Debye)      :      5.36684

Rotational constants in cm-1:     0.018190     0.012573     0.008405
Rotational constants in MHz :   545.327178   376.916509   251.974803

                             ****ORCA TERMINATED NORMALLY****
TOTAL RUN TIME: 0 days 0 hours 1 minutes 18 seconds 487 msec
