                         Program Version 5.0.0 -  RELEASE  -
|  1> !B3LYP D3BJ RIJCOSX def2-TZVP def2/J TightSCF xyzfile
|  2>
|  3> *xyzfile 0 1 D2.xyz
|  4>
|  5> %MaxCore 64000
|  6>
|  7> %pal nprocs 18
|  8> end
|  9>
| 10> %scf
| 11>   MaxIter 150
| 12> end
| 13>
| 14>
| 15>                          ****END OF INPUT****

CARTESIAN COORDINATES (ANGSTROEM)
---------------------------------
  C      5.558206   -1.992914   -6.215054
  C      4.930199   -7.375319   -2.649623
  C      3.841892   -6.951611   -3.632829
  H      3.458144   -5.954425   -3.407121
  H      2.988484   -7.643606   -3.567078
  S      4.318115   -6.915930   -5.368692
  C      4.181880   -2.589671   -6.298911
  N      3.145873   -1.768431   -6.486753
  C      4.019102   -3.864307   -6.227427
  H      4.768490   -4.591153   -5.990773
  H      3.122405   -4.333392   -6.314620
  H      3.281635   -0.777786   -6.566549
  H      2.212549   -2.134193   -6.562246
  F      5.406154   -5.899480   -5.512972
  O      3.111910   -6.445079   -6.043792
  C      6.419260   -2.542944   -5.077630
  C      5.872267   -5.002756   -2.427819
  C      6.173994   -6.485522   -2.606315
  H      6.734852   -6.613767   -3.534015
  H      6.821463   -6.831018   -1.793617
  H      4.469612   -7.406168   -1.655876
  H      5.230134   -8.398678   -2.885906
  C      5.896512   -2.169314   -3.694552
  H      7.428880   -2.143665   -5.208078
  H      6.505894   -3.627541   -5.175502
  C      6.807804   -2.623428   -2.551019
  H      4.894708   -2.589732   -3.557501
  H      5.778823   -1.081255   -3.635790
  C      7.111544   -4.122463   -2.520363
  H      7.751615   -2.071393   -2.614406
  H      6.345837   -2.326401   -1.604086
  H      5.362882   -4.828697   -1.471335
  H      5.174429   -4.702577   -3.211298
  H      7.778329   -4.329347   -1.677651
  H      7.673189   -4.402845   -3.417586
  O      4.763396   -8.239424   -5.698629
  H      6.036826   -2.198189   -7.176852
  H      5.467610   -0.907371   -6.127968

 Total Charge           Charge          ....    0
 Multiplicity           Mult            ....    1
 Number of Electrons    NEL             ....  136
 Basis Dimension        Dim             ....  634

ORBITAL ENERGIES
----------------

  NO   OCC          E(Eh)            E(eV)
   0   2.0000     -89.092525     -2424.3309
   1   2.0000     -24.777105      -674.2193
   2   2.0000     -19.137815      -520.7664
   3   2.0000     -19.125445      -520.4298
   4   2.0000     -14.302973      -389.2037
   5   2.0000     -10.224642      -278.2267
   6   2.0000     -10.192014      -277.3388
   7   2.0000     -10.177247      -276.9370
   8   2.0000     -10.175753      -276.8963
   9   2.0000     -10.169293      -276.7205
  10   2.0000     -10.165192      -276.6089
  11   2.0000     -10.162664      -276.5401
  12   2.0000     -10.162412      -276.5333
  13   2.0000     -10.161241      -276.5014
  14   2.0000     -10.157892      -276.4103
  15   2.0000     -10.078306      -274.2446
  16   2.0000      -8.136447      -221.4040
  17   2.0000      -6.103462      -166.0836
  18   2.0000      -6.096860      -165.9040
  19   2.0000      -6.096332      -165.8896
  20   2.0000      -1.349096       -36.7108
  21   2.0000      -1.109759       -30.1981
  22   2.0000      -1.017287       -27.6818
  23   2.0000      -0.914827       -24.8937
  24   2.0000      -0.838451       -22.8154
  25   2.0000      -0.813164       -22.1273
  26   2.0000      -0.784668       -21.3519
  27   2.0000      -0.756728       -20.5916
  28   2.0000      -0.720861       -19.6156
  29   2.0000      -0.710225       -19.3262
  30   2.0000      -0.683082       -18.5876
  31   2.0000      -0.657568       -17.8933
  32   2.0000      -0.621163       -16.9027
  33   2.0000      -0.603260       -16.4155
  34   2.0000      -0.588856       -16.0236
  35   2.0000      -0.564493       -15.3606
  36   2.0000      -0.561776       -15.2867
  37   2.0000      -0.544240       -14.8095
  38   2.0000      -0.537918       -14.6375
  39   2.0000      -0.512565       -13.9476
  40   2.0000      -0.493053       -13.4167
  41   2.0000      -0.488856       -13.3024
  42   2.0000      -0.483123       -13.1464
  43   2.0000      -0.468680       -12.7534
  44   2.0000      -0.455182       -12.3861
  45   2.0000      -0.454021       -12.3545
  46   2.0000      -0.447363       -12.1734
  47   2.0000      -0.432791       -11.7768
  48   2.0000      -0.417526       -11.3615
  49   2.0000      -0.412368       -11.2211
  50   2.0000      -0.406098       -11.0505
  51   2.0000      -0.400310       -10.8930
  52   2.0000      -0.377309       -10.2671
  53   2.0000      -0.373033       -10.1507
  54   2.0000      -0.366646        -9.9769
  55   2.0000      -0.361392        -9.8340
  56   2.0000      -0.351142        -9.5551
  57   2.0000      -0.347912        -9.4672
  58   2.0000      -0.341192        -9.2843
  59   2.0000      -0.337006        -9.1704
  60   2.0000      -0.330089        -8.9822
  61   2.0000      -0.327820        -8.9204
  62   2.0000      -0.321397        -8.7457
  63   2.0000      -0.317241        -8.6326
  64   2.0000      -0.313527        -8.5315
  65   2.0000      -0.307200        -8.3594
  66   2.0000      -0.302942        -8.2435
  67   2.0000      -0.181819        -4.9475
  68   0.0000       0.008869         0.2413
  69   0.0000       0.031982         0.8703
  70   0.0000       0.034329         0.9341
  71   0.0000       0.036690         0.9984
  72   0.0000       0.045608         1.2411

MULLIKEN ATOMIC CHARGES
-----------------------
   0 C :   -0.142528
   1 C :   -0.147155
   2 C :   -0.277316
   3 H :    0.159112
   4 H :    0.158816
   5 S :    0.899834
   6 C :    0.220281
   7 N :   -0.441697
   8 C :   -0.489722
   9 H :    0.129370
  10 H :    0.116921
  11 H :    0.209405
  12 H :    0.213426
  13 F :   -0.138844
  14 O :   -0.435307
  15 C :   -0.204610
  16 C :   -0.243737
  17 C :   -0.198724
  18 H :    0.109301
  19 H :    0.097572
  20 H :    0.100084
  21 H :    0.125748
  22 C :   -0.196116
  23 H :    0.080840
  24 H :    0.091960
  25 C :   -0.124498
  26 H :    0.118283
  27 H :    0.079620
  28 C :   -0.167557
  29 H :    0.087348
  30 H :    0.082929
  31 H :    0.085075
  32 H :    0.096498
  33 H :    0.088282
  34 H :    0.097962
  35 O :   -0.415447
  36 H :    0.105789
  37 H :    0.068800
Sum of atomic charges:    0.0000000

LOEWDIN ATOMIC CHARGES
----------------------
   0 C :   -0.208120
   1 C :   -0.280652
   2 C :   -0.362045
   3 H :    0.140899
   4 H :    0.153564
   5 S :    0.580019
   6 C :   -0.367425
   7 N :   -0.006411
   8 C :   -0.308183
   9 H :    0.096246
  10 H :    0.101664
  11 H :    0.156554
  12 H :    0.165173
  13 F :    0.061094
  14 O :   -0.262069
  15 C :   -0.252297
  16 C :   -0.267503
  17 C :   -0.268995
  18 H :    0.133050
  19 H :    0.138166
  20 H :    0.143205
  21 H :    0.143404
  22 C :   -0.262718
  23 H :    0.133588
  24 H :    0.131993
  25 C :   -0.262647
  26 H :    0.136192
  27 H :    0.133081
  28 C :   -0.263621
  29 H :    0.133634
  30 H :    0.132827
  31 H :    0.133945
  32 H :    0.131652
  33 H :    0.133326
  34 H :    0.134228
  35 O :   -0.255044
  36 H :    0.147956
  37 H :    0.132265

  Mayer bond orders larger than 0.100000
B(  0-C ,  6-C ) :   0.9444 B(  0-C , 15-C ) :   0.9760 B(  0-C , 36-H ) :   0.9583
B(  0-C , 37-H ) :   0.9754 B(  1-C ,  2-C ) :   0.9404 B(  1-C , 17-C ) :   0.9771
B(  1-C , 20-H ) :   0.9501 B(  1-C , 21-H ) :   0.9663 B(  2-C ,  3-H ) :   0.9424
B(  2-C ,  4-H ) :   0.9436 B(  2-C ,  5-S ) :   0.9035 B(  5-S , 13-F ) :   1.0356
B(  5-S , 14-O ) :   1.8703 B(  5-S , 35-O ) :   1.9478 B(  6-C ,  7-N ) :   1.1474
B(  6-C ,  8-C ) :   1.7623 B(  7-N , 11-H ) :   0.9280 B(  7-N , 12-H ) :   0.9219
B(  8-C ,  9-H ) :   1.0127 B(  8-C , 10-H ) :   0.9743 B( 15-C , 22-C ) :   0.9583
B( 15-C , 23-H ) :   0.9608 B( 15-C , 24-H ) :   0.9752 B( 16-C , 17-C ) :   0.9275
B( 16-C , 28-C ) :   0.9688 B( 16-C , 31-H ) :   0.9584 B( 16-C , 32-H ) :   0.9806
B( 17-C , 18-H ) :   0.9815 B( 17-C , 19-H ) :   0.9700 B( 22-C , 25-C ) :   0.9656
B( 22-C , 26-H ) :   0.9794 B( 22-C , 27-H ) :   0.9641 B( 25-C , 28-C ) :   0.9638
B( 25-C , 29-H ) :   0.9710 B( 25-C , 30-H ) :   0.9740 B( 28-C , 33-H ) :   0.9677
B( 28-C , 34-H ) :   0.9765

Dispersion correction           -0.075539486
FINAL SINGLE POINT ENERGY     -1135.469881952313

DIPOLE MOMENT
-------------
                                X             Y             Z
Electronic contribution:     -7.76836     -16.93149     -13.65936
Nuclear contribution   :      7.91684      17.85507      15.13212
                        -----------------------------------------
Total Dipole Moment    :      0.14848       0.92358       1.47276
                        -----------------------------------------
Magnitude (a.u.)       :      1.74472
Magnitude (Debye)      :      4.43474

Rotational constants in cm-1:     0.018015     0.012410     0.008313
Rotational constants in MHz :   540.084467   372.038374   249.228144

                             ****ORCA TERMINATED NORMALLY****
TOTAL RUN TIME: 0 days 0 hours 1 minutes 33 seconds 957 msec
