                         Program Version 5.0.0 -  RELEASE  -
|  1> !B3LYP D3BJ RIJCOSX def2-TZVP def2/J TightSCF xyzfile
|  2>
|  3> *xyzfile 0 1 D4.xyz
|  4>
|  5> %MaxCore 64000
|  6>
|  7> %pal nprocs 18
|  8> end
|  9>
| 10> %scf
| 11>   MaxIter 150
| 12> end
| 13>
| 14>
| 15>                          ****END OF INPUT****

CARTESIAN COORDINATES (ANGSTROEM)
---------------------------------
  C      5.558206   -1.992914   -6.215054
  C      4.930199   -7.375319   -2.649623
  C      3.841892   -6.951611   -3.632829
  H      3.458144   -5.954425   -3.407121
  H      2.988484   -7.643606   -3.567078
  S      4.318115   -6.915930   -5.368692
  C      4.181880   -2.589671   -6.298911
  N      3.145873   -1.768431   -6.486753
  C      4.019102   -3.864307   -6.227427
  H      4.768490   -4.591153   -5.990773
  H      3.122405   -4.333392   -6.314620
  H      3.281635   -0.777786   -6.566549
  H      2.212549   -2.134193   -6.562246
  O      5.406154   -5.899480   -5.512972
  F      3.111910   -6.445079   -6.043792
  C      6.419260   -2.542944   -5.077630
  C      5.872267   -5.002756   -2.427819
  C      6.173994   -6.485522   -2.606315
  H      6.734852   -6.613767   -3.534015
  H      6.821463   -6.831018   -1.793617
  H      4.469612   -7.406168   -1.655876
  H      5.230134   -8.398678   -2.885906
  C      5.896512   -2.169314   -3.694552
  H      7.428880   -2.143665   -5.208078
  H      6.505894   -3.627541   -5.175502
  C      6.807804   -2.623428   -2.551019
  H      4.894708   -2.589732   -3.557501
  H      5.778823   -1.081255   -3.635790
  C      7.111544   -4.122463   -2.520363
  H      7.751615   -2.071393   -2.614406
  H      6.345837   -2.326401   -1.604086
  H      5.362882   -4.828697   -1.471335
  H      5.174429   -4.702577   -3.211298
  H      7.778329   -4.329347   -1.677651
  H      7.673189   -4.402845   -3.417586
  O      4.763396   -8.239424   -5.698629
  H      6.036826   -2.198189   -7.176852
  H      5.467610   -0.907371   -6.127968

 Total Charge           Charge          ....    0
 Multiplicity           Mult            ....    1
 Number of Electrons    NEL             ....  136
 Basis Dimension        Dim             ....  634

ORBITAL ENERGIES
----------------

  NO   OCC          E(Eh)            E(eV)
   0   2.0000     -89.100517     -2424.5483
   1   2.0000     -24.791752      -674.6179
   2   2.0000     -19.141925      -520.8783
   3   2.0000     -19.125399      -520.4286
   4   2.0000     -14.298539      -389.0830
   5   2.0000     -10.228938      -278.3436
   6   2.0000     -10.193488      -277.3789
   7   2.0000     -10.169759      -276.7332
   8   2.0000     -10.165054      -276.6052
   9   2.0000     -10.157000      -276.3860
  10   2.0000     -10.154561      -276.3196
  11   2.0000     -10.154182      -276.3093
  12   2.0000     -10.153346      -276.2866
  13   2.0000     -10.148704      -276.1603
  14   2.0000     -10.148479      -276.1542
  15   2.0000     -10.068178      -273.9691
  16   2.0000      -8.144255      -221.6164
  17   2.0000      -6.110857      -166.2849
  18   2.0000      -6.104713      -166.1177
  19   2.0000      -6.104523      -166.1125
  20   2.0000      -1.369648       -37.2700
  21   2.0000      -1.109603       -30.1938
  22   2.0000      -1.012591       -27.5540
  23   2.0000      -0.910148       -24.7664
  24   2.0000      -0.834770       -22.7152
  25   2.0000      -0.805223       -21.9112
  26   2.0000      -0.778374       -21.1806
  27   2.0000      -0.754189       -20.5225
  28   2.0000      -0.722057       -19.6482
  29   2.0000      -0.703611       -19.1462
  30   2.0000      -0.678573       -18.4649
  31   2.0000      -0.649611       -17.6768
  32   2.0000      -0.615805       -16.7569
  33   2.0000      -0.596970       -16.2444
  34   2.0000      -0.582512       -15.8510
  35   2.0000      -0.566732       -15.4216
  36   2.0000      -0.563670       -15.3382
  37   2.0000      -0.550039       -14.9673
  38   2.0000      -0.536500       -14.5989
  39   2.0000      -0.511691       -13.9238
  40   2.0000      -0.493612       -13.4319
  41   2.0000      -0.490688       -13.3523
  42   2.0000      -0.476220       -12.9586
  43   2.0000      -0.464969       -12.6524
  44   2.0000      -0.455412       -12.3924
  45   2.0000      -0.446756       -12.1569
  46   2.0000      -0.441730       -12.0201
  47   2.0000      -0.424095       -11.5402
  48   2.0000      -0.413788       -11.2598
  49   2.0000      -0.407593       -11.0912
  50   2.0000      -0.405077       -11.0227
  51   2.0000      -0.392220       -10.6729
  52   2.0000      -0.385863       -10.4999
  53   2.0000      -0.367729       -10.0064
  54   2.0000      -0.363350        -9.8873
  55   2.0000      -0.356660        -9.7052
  56   2.0000      -0.350180        -9.5289
  57   2.0000      -0.341056        -9.2806
  58   2.0000      -0.337423        -9.1817
  59   2.0000      -0.334289        -9.0965
  60   2.0000      -0.323411        -8.8005
  61   2.0000      -0.320809        -8.7297
  62   2.0000      -0.319905        -8.7050
  63   2.0000      -0.307022        -8.3545
  64   2.0000      -0.302911        -8.2426
  65   2.0000      -0.298491        -8.1224
  66   2.0000      -0.268854        -7.3159
  67   2.0000      -0.175975        -4.7885
  68   0.0000       0.020766         0.5651
  69   0.0000       0.023348         0.6353
  70   0.0000       0.037616         1.0236
  71   0.0000       0.041914         1.1405
  72   0.0000       0.047864         1.3024

MULLIKEN ATOMIC CHARGES
-----------------------
   0 C :   -0.137893
   1 C :   -0.161856
   2 C :   -0.267306
   3 H :    0.153050
   4 H :    0.141984
   5 S :    0.909248
   6 C :    0.183383
   7 N :   -0.441854
   8 C :   -0.476623
   9 H :    0.183440
  10 H :    0.057244
  11 H :    0.207697
  12 H :    0.206034
  13 O :   -0.459676
  14 F :   -0.115646
  15 C :   -0.203263
  16 C :   -0.225462
  17 C :   -0.178199
  18 H :    0.127885
  19 H :    0.088543
  20 H :    0.104684
  21 H :    0.123702
  22 C :   -0.201641
  23 H :    0.074519
  24 H :    0.131526
  25 C :   -0.120651
  26 H :    0.111373
  27 H :    0.073860
  28 C :   -0.179133
  29 H :    0.083926
  30 H :    0.077590
  31 H :    0.074230
  32 H :    0.109512
  33 H :    0.081412
  34 H :    0.104283
  35 O :   -0.406387
  36 H :    0.102374
  37 H :    0.064089
Sum of atomic charges:   -0.0000000

LOEWDIN ATOMIC CHARGES
----------------------
   0 C :   -0.207488
   1 C :   -0.270300
   2 C :   -0.367469
   3 H :    0.139597
   4 H :    0.141225
   5 S :    0.584794
   6 C :   -0.369710
   7 N :   -0.010841
   8 C :   -0.316637
   9 H :    0.098130
  10 H :    0.085090
  11 H :    0.155314
  12 H :    0.161495
  13 O :   -0.274171
  14 F :    0.091405
  15 C :   -0.250362
  16 C :   -0.266492
  17 C :   -0.265758
  18 H :    0.140950
  19 H :    0.135260
  20 H :    0.145371
  21 H :    0.144291
  22 C :   -0.263159
  23 H :    0.132114
  24 H :    0.141991
  25 C :   -0.263372
  26 H :    0.134879
  27 H :    0.130957
  28 C :   -0.262379
  29 H :    0.132631
  30 H :    0.131148
  31 H :    0.129808
  32 H :    0.135121
  33 H :    0.131381
  34 H :    0.137108
  35 O :   -0.250482
  36 H :    0.147907
  37 H :    0.130652

  Mayer bond orders larger than 0.100000
B(  0-C ,  6-C ) :   0.9541 B(  0-C , 15-C ) :   0.9745 B(  0-C , 36-H ) :   0.9568
B(  0-C , 37-H ) :   0.9753 B(  1-C ,  2-C ) :   0.9579 B(  1-C , 17-C ) :   0.9856
B(  1-C , 20-H ) :   0.9515 B(  1-C , 21-H ) :   0.9639 B(  2-C ,  3-H ) :   0.9372
B(  2-C ,  4-H ) :   0.9386 B(  2-C ,  5-S ) :   0.9106 B(  5-S , 13-O ) :   1.7419
B(  5-S , 14-F ) :   1.1105 B(  5-S , 35-O ) :   1.9575 B(  6-C ,  7-N ) :   1.1345
B(  6-C ,  8-C ) :   1.8119 B(  7-N , 11-H ) :   0.9275 B(  7-N , 12-H ) :   0.9253
B(  8-C ,  9-H ) :   0.9651 B(  8-C , 10-H ) :   0.9624 B( 15-C , 22-C ) :   0.9619
B( 15-C , 23-H ) :   0.9600 B( 15-C , 24-H ) :   0.9691 B( 16-C , 17-C ) :   0.9449
B( 16-C , 28-C ) :   0.9812 B( 16-C , 31-H ) :   0.9592 B( 16-C , 32-H ) :   0.9677
B( 17-C , 18-H ) :   0.9684 B( 17-C , 19-H ) :   0.9701 B( 22-C , 25-C ) :   0.9693
B( 22-C , 26-H ) :   0.9791 B( 22-C , 27-H ) :   0.9645 B( 25-C , 28-C ) :   0.9633
B( 25-C , 29-H ) :   0.9705 B( 25-C , 30-H ) :   0.9733 B( 28-C , 33-H ) :   0.9672
B( 28-C , 34-H ) :   0.9771

Dispersion correction           -0.076078789
FINAL SINGLE POINT ENERGY     -1135.462068810383

DIPOLE MOMENT
-------------
                                X             Y             Z
Electronic contribution:    -11.73011     -18.13886     -14.68411
Nuclear contribution   :     10.61624      18.49702      15.75668
                        -----------------------------------------
Total Dipole Moment    :     -1.11387       0.35816       1.07257
                        -----------------------------------------
Magnitude (a.u.)       :      1.58725
Magnitude (Debye)      :      4.03448

Rotational constants in cm-1:     0.017796     0.012372     0.008231
Rotational constants in MHz :   533.524905   370.895973   246.762347

                             ****ORCA TERMINATED NORMALLY****
TOTAL RUN TIME: 0 days 0 hours 1 minutes 34 seconds 983 msec
