                         Program Version 5.0.0 -  RELEASE  -
|  1> !B3LYP D3BJ RIJCOSX def2-TZVP def2/J TightSCF xyzfile
|  2>
|  3> *xyzfile 0 1 D5.xyz
|  4>
|  5> %MaxCore 64000
|  6>
|  7> %pal nprocs 18
|  8> end
|  9>
| 10> %scf
| 11>   MaxIter 150
| 12> end
| 13>
| 14>
| 15>                          ****END OF INPUT****

CARTESIAN COORDINATES (ANGSTROEM)
---------------------------------
  C      5.558206   -1.992914   -6.215054
  C      4.930199   -7.375319   -2.649623
  C      3.841892   -6.951611   -3.632829
  H      3.458144   -5.954425   -3.407121
  H      2.988484   -7.643606   -3.567078
  S      4.318115   -6.915930   -5.368692
  C      4.181880   -2.589671   -6.298911
  C      3.145873   -1.768431   -6.486753
  N      4.019102   -3.864307   -6.227427
  H      4.768490   -4.591153   -5.990773
  H      3.122405   -4.333392   -6.314620
  H      3.281635   -0.777786   -6.566549
  H      2.212549   -2.134193   -6.562246
  O      5.406154   -5.899480   -5.512972
  O      3.111910   -6.445079   -6.043792
  C      6.419260   -2.542944   -5.077630
  C      5.872267   -5.002756   -2.427819
  C      6.173994   -6.485522   -2.606315
  H      6.734852   -6.613767   -3.534015
  H      6.821463   -6.831018   -1.793617
  H      4.469612   -7.406168   -1.655876
  H      5.230134   -8.398678   -2.885906
  C      5.896512   -2.169314   -3.694552
  H      7.428880   -2.143665   -5.208078
  H      6.505894   -3.627541   -5.175502
  C      6.807804   -2.623428   -2.551019
  H      4.894708   -2.589732   -3.557501
  H      5.778823   -1.081255   -3.635790
  C      7.111544   -4.122463   -2.520363
  H      7.751615   -2.071393   -2.614406
  H      6.345837   -2.326401   -1.604086
  H      5.362882   -4.828697   -1.471335
  H      5.174429   -4.702577   -3.211298
  H      7.778329   -4.329347   -1.677651
  H      7.673189   -4.402845   -3.417586
  F      4.763396   -8.239424   -5.698629
  H      6.036826   -2.198189   -7.176852
  H      5.467610   -0.907371   -6.127968

 Total Charge           Charge          ....    0
 Multiplicity           Mult            ....    1
 Number of Electrons    NEL             ....  136
 Basis Dimension        Dim             ....  634

ORBITAL ENERGIES
----------------

  NO   OCC          E(Eh)            E(eV)
   0   2.0000     -89.128442     -2425.3082
   1   2.0000     -24.830302      -675.6669
   2   2.0000     -19.158434      -521.3275
   3   2.0000     -19.158346      -521.3251
   4   2.0000     -14.267375      -388.2350
   5   2.0000     -10.247298      -278.8432
   6   2.0000     -10.208553      -277.7888
   7   2.0000     -10.179727      -277.0045
   8   2.0000     -10.167417      -276.6695
   9   2.0000     -10.160538      -276.4823
  10   2.0000     -10.158360      -276.4230
  11   2.0000     -10.155283      -276.3393
  12   2.0000     -10.147518      -276.1280
  13   2.0000     -10.146850      -276.1098
  14   2.0000     -10.143385      -276.0155
  15   2.0000     -10.066484      -273.9230
  16   2.0000      -8.172196      -222.3767
  17   2.0000      -6.138954      -167.0494
  18   2.0000      -6.132824      -166.8826
  19   2.0000      -6.132046      -166.8615
  20   2.0000      -1.414867       -38.5005
  21   2.0000      -1.128430       -30.7061
  22   2.0000      -1.032193       -28.0874
  23   2.0000      -0.894660       -24.3449
  24   2.0000      -0.853394       -23.2220
  25   2.0000      -0.810122       -22.0445
  26   2.0000      -0.784845       -21.3567
  27   2.0000      -0.757387       -20.6095
  28   2.0000      -0.738267       -20.0893
  29   2.0000      -0.707133       -19.2421
  30   2.0000      -0.684343       -18.6219
  31   2.0000      -0.650922       -17.7125
  32   2.0000      -0.627084       -17.0638
  33   2.0000      -0.618321       -16.8254
  34   2.0000      -0.605858       -16.4862
  35   2.0000      -0.591935       -16.1074
  36   2.0000      -0.572303       -15.5732
  37   2.0000      -0.554662       -15.0931
  38   2.0000      -0.544606       -14.8195
  39   2.0000      -0.510710       -13.8971
  40   2.0000      -0.507682       -13.8147
  41   2.0000      -0.501812       -13.6550
  42   2.0000      -0.480519       -13.0756
  43   2.0000      -0.463885       -12.6229
  44   2.0000      -0.459567       -12.5055
  45   2.0000      -0.450502       -12.2588
  46   2.0000      -0.439436       -11.9577
  47   2.0000      -0.431114       -11.7312
  48   2.0000      -0.420487       -11.4420
  49   2.0000      -0.417727       -11.3669
  50   2.0000      -0.403345       -10.9756
  51   2.0000      -0.398501       -10.8438
  52   2.0000      -0.391372       -10.6498
  53   2.0000      -0.376488       -10.2448
  54   2.0000      -0.367695       -10.0055
  55   2.0000      -0.359401        -9.7798
  56   2.0000      -0.357206        -9.7201
  57   2.0000      -0.349333        -9.5058
  58   2.0000      -0.347530        -9.4568
  59   2.0000      -0.339755        -9.2452
  60   2.0000      -0.329460        -8.9651
  61   2.0000      -0.326292        -8.8789
  62   2.0000      -0.321170        -8.7395
  63   2.0000      -0.313948        -8.5430
  64   2.0000      -0.307091        -8.3564
  65   2.0000      -0.296339        -8.0638
  66   2.0000      -0.291259        -7.9256
  67   2.0000      -0.153163        -4.1678
  68   0.0000      -0.010764        -0.2929
  69   0.0000       0.015723         0.4278
  70   0.0000       0.030608         0.8329
  71   0.0000       0.037552         1.0218
  72   0.0000       0.042958         1.1689

MULLIKEN ATOMIC CHARGES
-----------------------
   0 C :   -0.128901
   1 C :   -0.186366
   2 C :   -0.275804
   3 H :    0.176642
   4 H :    0.155363
   5 S :    0.915424
   6 C :    0.187688
   7 C :   -0.452936
   8 N :   -0.444997
   9 H :    0.275105
  10 H :    0.220497
  11 H :    0.075147
  12 H :    0.071324
  13 O :   -0.472642
  14 O :   -0.433356
  15 C :   -0.234039
  16 C :   -0.218738
  17 C :   -0.162883
  18 H :    0.112458
  19 H :    0.096042
  20 H :    0.112213
  21 H :    0.116687
  22 C :   -0.190004
  23 H :    0.077858
  24 H :    0.116896
  25 C :   -0.123991
  26 H :    0.111020
  27 H :    0.082669
  28 C :   -0.178870
  29 H :    0.085282
  30 H :    0.080209
  31 H :    0.082482
  32 H :    0.089844
  33 H :    0.084073
  34 H :    0.102435
  35 F :   -0.093550
  36 H :    0.087863
  37 H :    0.081859
Sum of atomic charges:   -0.0000000

LOEWDIN ATOMIC CHARGES
----------------------
   0 C :   -0.207194
   1 C :   -0.281796
   2 C :   -0.359822
   3 H :    0.153552
   4 H :    0.145878
   5 S :    0.586789
   6 C :   -0.379201
   7 C :   -0.306568
   8 N :   -0.005074
   9 H :    0.151278
  10 H :    0.164203
  11 H :    0.092529
  12 H :    0.088224
  13 O :   -0.284339
  14 O :   -0.266918
  15 C :   -0.262402
  16 C :   -0.265593
  17 C :   -0.269182
  18 H :    0.135697
  19 H :    0.136969
  20 H :    0.147066
  21 H :    0.137056
  22 C :   -0.261112
  23 H :    0.132440
  24 H :    0.132371
  25 C :   -0.263137
  26 H :    0.135811
  27 H :    0.135395
  28 C :   -0.262736
  29 H :    0.133400
  30 H :    0.131719
  31 H :    0.132244
  32 H :    0.132638
  33 H :    0.131683
  34 H :    0.136231
  35 F :    0.116290
  36 H :    0.141108
  37 H :    0.144503

  Mayer bond orders larger than 0.100000
B(  0-C ,  6-C ) :   0.9812 B(  0-C , 15-C ) :   0.9560 B(  0-C , 36-H ) :   0.9574
B(  0-C , 37-H ) :   0.9761 B(  1-C ,  2-C ) :   0.9415 B(  1-C , 17-C ) :   0.9578
B(  1-C , 20-H ) :   0.9510 B(  1-C , 21-H ) :   0.9755 B(  2-C ,  3-H ) :   0.9369
B(  2-C ,  4-H ) :   0.9457 B(  2-C ,  5-S ) :   0.9107 B(  5-S , 13-O ) :   1.7205
B(  5-S , 14-O ) :   1.8746 B(  5-S , 35-F ) :   1.1510 B(  6-C ,  7-C ) :   1.6810
B(  6-C ,  8-N ) :   1.2490 B(  7-C , 11-H ) :   0.9959 B(  7-C , 12-H ) :   0.9927
B(  8-N ,  9-H ) :   0.8337 B(  8-N , 10-H ) :   0.9115 B(  9-H , 13-O ) :   0.1000
B( 15-C , 22-C ) :   0.9508 B( 15-C , 23-H ) :   0.9605 B( 15-C , 24-H ) :   0.9803
B( 16-C , 17-C ) :   0.9339 B( 16-C , 28-C ) :   0.9790 B( 16-C , 31-H ) :   0.9600
B( 16-C , 32-H ) :   0.9700 B( 17-C , 18-H ) :   0.9733 B( 17-C , 19-H ) :   0.9700
B( 22-C , 25-C ) :   0.9606 B( 22-C , 26-H ) :   0.9835 B( 22-C , 27-H ) :   0.9656
B( 25-C , 28-C ) :   0.9638 B( 25-C , 29-H ) :   0.9698 B( 25-C , 30-H ) :   0.9741
B( 28-C , 33-H ) :   0.9672 B( 28-C , 34-H ) :   0.9765

Dispersion correction           -0.075678570
FINAL SINGLE POINT ENERGY     -1135.466388382492

DIPOLE MOMENT
-------------
                                X             Y             Z
Electronic contribution:     -8.10011     -23.39798     -13.63662
Nuclear contribution   :      8.54118      20.92489      15.31138
                        -----------------------------------------
Total Dipole Moment    :      0.44107      -2.47309       1.67476
                        -----------------------------------------
Magnitude (a.u.)       :      3.01919
Magnitude (Debye)      :      7.67417

Rotational constants in cm-1:     0.018156     0.012306     0.008278
Rotational constants in MHz :   544.309022   368.914527   248.178402

                             ****ORCA TERMINATED NORMALLY****
TOTAL RUN TIME: 0 days 0 hours 1 minutes 39 seconds 364 msec
