                         Program Version 5.0.0 -  RELEASE  -
|  1> !B3LYP D3BJ RIJCOSX def2-TZVP def2/J TightSCF xyzfile
|  2>
|  3> *xyzfile 0 1 D6.xyz
|  4>
|  5> %MaxCore 64000
|  6>
|  7> %pal nprocs 18
|  8> end
|  9>
| 10> %scf
| 11>   MaxIter 150
| 12> end
| 13>
| 14>
| 15>                          ****END OF INPUT****

CARTESIAN COORDINATES (ANGSTROEM)
---------------------------------
  C      5.558206   -1.992914   -6.215054
  C      4.930199   -7.375319   -2.649623
  C      3.841892   -6.951611   -3.632829
  H      3.458144   -5.954425   -3.407121
  H      2.988484   -7.643606   -3.567078
  S      4.318115   -6.915930   -5.368692
  C      4.181880   -2.589671   -6.298911
  N      3.145873   -1.768431   -6.486753
  C      4.019102   -3.864307   -6.227427
  H      4.768490   -4.591153   -5.990773
  H      3.122405   -4.333392   -6.314620
  H      3.281635   -0.777786   -6.566549
  H      2.212549   -2.134193   -6.562246
  O      5.406154   -5.899480   -5.512972
  O      3.111910   -6.445079   -6.043792
  C      6.419260   -2.542944   -5.077630
  C      5.872267   -5.002756   -2.427819
  C      6.173994   -6.485522   -2.606315
  H      6.734852   -6.613767   -3.534015
  H      6.821463   -6.831018   -1.793617
  H      4.469612   -7.406168   -1.655876
  H      5.230134   -8.398678   -2.885906
  C      5.896512   -2.169314   -3.694552
  H      7.428880   -2.143665   -5.208078
  H      6.505894   -3.627541   -5.175502
  C      6.807804   -2.623428   -2.551019
  H      4.894708   -2.589732   -3.557501
  H      5.778823   -1.081255   -3.635790
  C      7.111544   -4.122463   -2.520363
  H      7.751615   -2.071393   -2.614406
  H      6.345837   -2.326401   -1.604086
  H      5.362882   -4.828697   -1.471335
  H      5.174429   -4.702577   -3.211298
  H      7.778329   -4.329347   -1.677651
  H      7.673189   -4.402845   -3.417586
  F      4.763396   -8.239424   -5.698629
  H      6.036826   -2.198189   -7.176852
  H      5.467610   -0.907371   -6.127968

 Total Charge           Charge          ....    0
 Multiplicity           Mult            ....    1
 Number of Electrons    NEL             ....  136
 Basis Dimension        Dim             ....  634

ORBITAL ENERGIES
----------------

  NO   OCC          E(Eh)            E(eV)
   0   2.0000     -89.102637     -2424.6060
   1   2.0000     -24.807811      -675.0548
   2   2.0000     -19.133152      -520.6395
   3   2.0000     -19.129207      -520.5322
   4   2.0000     -14.286458      -388.7543
   5   2.0000     -10.229635      -278.3625
   6   2.0000     -10.195634      -277.4373
   7   2.0000     -10.168613      -276.7020
   8   2.0000     -10.157851      -276.4092
   9   2.0000     -10.155385      -276.3421
  10   2.0000     -10.154049      -276.3057
  11   2.0000     -10.151475      -276.2357
  12   2.0000     -10.146483      -276.0998
  13   2.0000     -10.144648      -276.0499
  14   2.0000     -10.143605      -276.0215
  15   2.0000     -10.052980      -273.5555
  16   2.0000      -8.146365      -221.6739
  17   2.0000      -6.113239      -166.3497
  18   2.0000      -6.106731      -166.1726
  19   2.0000      -6.106392      -166.1634
  20   2.0000      -1.392755       -37.8988
  21   2.0000      -1.101670       -29.9780
  22   2.0000      -1.004914       -27.3451
  23   2.0000      -0.898007       -24.4360
  24   2.0000      -0.838141       -22.8070
  25   2.0000      -0.803419       -21.8621
  26   2.0000      -0.775622       -21.1057
  27   2.0000      -0.752542       -20.4777
  28   2.0000      -0.724669       -19.7192
  29   2.0000      -0.701694       -19.0941
  30   2.0000      -0.676606       -18.4114
  31   2.0000      -0.646266       -17.5858
  32   2.0000      -0.615048       -16.7363
  33   2.0000      -0.602190       -16.3864
  34   2.0000      -0.595954       -16.2167
  35   2.0000      -0.581724       -15.8295
  36   2.0000      -0.556176       -15.1343
  37   2.0000      -0.546312       -14.8659
  38   2.0000      -0.527846       -14.3634
  39   2.0000      -0.501715       -13.6524
  40   2.0000      -0.494399       -13.4533
  41   2.0000      -0.487738       -13.2720
  42   2.0000      -0.470865       -12.8129
  43   2.0000      -0.463447       -12.6110
  44   2.0000      -0.458191       -12.4680
  45   2.0000      -0.446427       -12.1479
  46   2.0000      -0.441446       -12.0124
  47   2.0000      -0.418914       -11.3992
  48   2.0000      -0.415065       -11.2945
  49   2.0000      -0.409507       -11.1432
  50   2.0000      -0.408127       -11.1057
  51   2.0000      -0.390434       -10.6243
  52   2.0000      -0.373075       -10.1519
  53   2.0000      -0.365810        -9.9542
  54   2.0000      -0.355092        -9.6626
  55   2.0000      -0.346895        -9.4395
  56   2.0000      -0.345265        -9.3951
  57   2.0000      -0.338929        -9.2227
  58   2.0000      -0.330406        -8.9908
  59   2.0000      -0.325476        -8.8567
  60   2.0000      -0.319139        -8.6842
  61   2.0000      -0.317301        -8.6342
  62   2.0000      -0.315337        -8.5807
  63   2.0000      -0.304813        -8.2944
  64   2.0000      -0.300014        -8.1638
  65   2.0000      -0.292400        -7.9566
  66   2.0000      -0.266703        -7.2574
  67   2.0000      -0.162125        -4.4116
  68   0.0000       0.008530         0.2321
  69   0.0000       0.032047         0.8720
  70   0.0000       0.043569         1.1856
  71   0.0000       0.045906         1.2492
  72   0.0000       0.049276         1.3409

MULLIKEN ATOMIC CHARGES
-----------------------
   0 C :   -0.134802
   1 C :   -0.180409
   2 C :   -0.271650
   3 H :    0.171168
   4 H :    0.146227
   5 S :    0.895949
   6 C :    0.207823
   7 N :   -0.447199
   8 C :   -0.492240
   9 H :    0.174844
  10 H :    0.095174
  11 H :    0.203436
  12 H :    0.206844
  13 O :   -0.457289
  14 O :   -0.421966
  15 C :   -0.204412
  16 C :   -0.220948
  17 C :   -0.161696
  18 H :    0.111925
  19 H :    0.089568
  20 H :    0.105726
  21 H :    0.111637
  22 C :   -0.200102
  23 H :    0.070682
  24 H :    0.125939
  25 C :   -0.120292
  26 H :    0.113996
  27 H :    0.073288
  28 C :   -0.179910
  29 H :    0.082914
  30 H :    0.077158
  31 H :    0.076249
  32 H :    0.110019
  33 H :    0.080507
  34 H :    0.103132
  35 F :   -0.099987
  36 H :    0.097809
  37 H :    0.060887
Sum of atomic charges:   -0.0000000

LOEWDIN ATOMIC CHARGES
----------------------
   0 C :   -0.209897
   1 C :   -0.283164
   2 C :   -0.362473
   3 H :    0.152016
   4 H :    0.142605
   5 S :    0.577005
   6 C :   -0.375683
   7 N :   -0.015759
   8 C :   -0.298773
   9 H :    0.100608
  10 H :    0.096621
  11 H :    0.153114
  12 H :    0.161722
  13 O :   -0.275687
  14 O :   -0.256809
  15 C :   -0.251615
  16 C :   -0.265378
  17 C :   -0.269711
  18 H :    0.136106
  19 H :    0.134849
  20 H :    0.144479
  21 H :    0.135947
  22 C :   -0.262884
  23 H :    0.130685
  24 H :    0.140449
  25 C :   -0.263659
  26 H :    0.135663
  27 H :    0.131039
  28 C :   -0.262673
  29 H :    0.132400
  30 H :    0.130927
  31 H :    0.130506
  32 H :    0.136886
  33 H :    0.130827
  34 H :    0.136708
  35 F :    0.107371
  36 H :    0.146244
  37 H :    0.129383

  Mayer bond orders larger than 0.100000
B(  0-C ,  6-C ) :   0.9505 B(  0-C , 15-C ) :   0.9771 B(  0-C , 36-H ) :   0.9575
B(  0-C , 37-H ) :   0.9753 B(  1-C ,  2-C ) :   0.9422 B(  1-C , 17-C ) :   0.9595
B(  1-C , 20-H ) :   0.9527 B(  1-C , 21-H ) :   0.9752 B(  2-C ,  3-H ) :   0.9400
B(  2-C ,  4-H ) :   0.9481 B(  2-C ,  5-S ) :   0.9065 B(  5-S , 13-O ) :   1.7600
B(  5-S , 14-O ) :   1.8948 B(  5-S , 35-F ) :   1.1321 B(  6-C ,  7-N ) :   1.1259
B(  6-C ,  8-C ) :   1.7848 B(  7-N , 11-H ) :   0.9299 B(  7-N , 12-H ) :   0.9239
B(  8-C ,  9-H ) :   0.9868 B(  8-C , 10-H ) :   0.9762 B( 15-C , 22-C ) :   0.9634
B( 15-C , 23-H ) :   0.9597 B( 15-C , 24-H ) :   0.9693 B( 16-C , 17-C ) :   0.9401
B( 16-C , 28-C ) :   0.9801 B( 16-C , 31-H ) :   0.9600 B( 16-C , 32-H ) :   0.9675
B( 17-C , 18-H ) :   0.9713 B( 17-C , 19-H ) :   0.9692 B( 22-C , 25-C ) :   0.9675
B( 22-C , 26-H ) :   0.9797 B( 22-C , 27-H ) :   0.9646 B( 25-C , 28-C ) :   0.9652
B( 25-C , 29-H ) :   0.9702 B( 25-C , 30-H ) :   0.9736 B( 28-C , 33-H ) :   0.9672
B( 28-C , 34-H ) :   0.9765

Dispersion correction           -0.076239328
FINAL SINGLE POINT ENERGY     -1135.449277298616

DIPOLE MOMENT
-------------
                                X             Y             Z
Electronic contribution:     -8.87456     -21.46634     -14.09650
Nuclear contribution   :      8.67311      20.60825      15.35056
                        -----------------------------------------
Total Dipole Moment    :     -0.20145      -0.85810       1.25406
                        -----------------------------------------
Magnitude (a.u.)       :      1.53283
Magnitude (Debye)      :      3.89615

Rotational constants in cm-1:     0.017976     0.012151     0.008188
Rotational constants in MHz :   538.898457   364.286417   245.482451

                             ****ORCA TERMINATED NORMALLY****
TOTAL RUN TIME: 0 days 0 hours 1 minutes 16 seconds 593 msec
