                         Program Version 5.0.0 -  RELEASE  -
|  1> !M062X D3Zero RIJCOSX def2-SVPD def2/J TightSCF
|  2> *xyz -1 1
|  3> C         -0.90349       -0.87394       -1.98739
|  4> C         -0.96015       -0.52236       -0.48987
|  5> H         -1.69039       -1.20813       -0.02168
|  6> H         -1.41449        0.48633       -0.40668
|  7> O          0.26170       -0.58031        0.13861
|  8> H         -1.88568       -0.80774       -2.40670
|  9> H         -0.53143       -1.87013       -2.10605
| 10> H         -0.25399       -0.18836       -2.49039
| 11> *
| 12>
| 13> %MaxCore 64000
| 14>
| 15> %pal nprocs 4
| 16> end
| 17>
| 18> %scf
| 19>   MaxIter 150
| 20> end
| 21>
| 22>
| 23>                          ****END OF INPUT****

CARTESIAN COORDINATES (ANGSTROEM)
---------------------------------
  C     -0.903490   -0.873940   -1.987390
  C     -0.960150   -0.522360   -0.489870
  H     -1.690390   -1.208130   -0.021680
  H     -1.414490    0.486330   -0.406680
  O      0.261700   -0.580310    0.138610
  H     -1.885680   -0.807740   -2.406700
  H     -0.531430   -1.870130   -2.106050
  H     -0.253990   -0.188360   -2.490390

 Total Charge           Charge          ....   -1
 Multiplicity           Mult            ....    1
 Number of Electrons    NEL             ....   26
 Basis Dimension        Dim             ....  103

ORBITAL ENERGIES
----------------

  NO   OCC          E(Eh)            E(eV)
   0   2.0000     -19.297876      -525.1219
   1   2.0000     -10.362884      -281.9884
   2   2.0000     -10.341679      -281.4114
   3   2.0000      -0.773993       -21.0614
   4   2.0000      -0.611654       -16.6440
   5   2.0000      -0.447749       -12.1839
   6   2.0000      -0.319093        -8.6830
   7   2.0000      -0.294763        -8.0209
   8   2.0000      -0.236314        -6.4304
   9   2.0000      -0.220517        -6.0006
  10   2.0000      -0.174259        -4.7418
  11   2.0000      -0.031176        -0.8483
  12   2.0000      -0.029153        -0.7933
  13   0.0000       0.200478         5.4553
  14   0.0000       0.231884         6.3099
  15   0.0000       0.272987         7.4284
  16   0.0000       0.284759         7.7487
  17   0.0000       0.297098         8.0845

MULLIKEN ATOMIC CHARGES
-----------------------
   0 C :    0.343456
   1 C :    0.168132
   2 H :   -0.162760
   3 H :   -0.155838
   4 O :   -0.918535
   5 H :   -0.069310
   6 H :   -0.102563
   7 H :   -0.102581
Sum of atomic charges:   -1.0000000

LOEWDIN ATOMIC CHARGES
----------------------
   0 C :    0.062859
   1 C :   -0.253740
   2 H :   -0.032854
   3 H :   -0.031117
   4 O :   -0.602137
   5 H :   -0.058336
   6 H :   -0.042301
   7 H :   -0.042373

  Mayer bond orders larger than 0.100000
B(  0-C ,  1-C ) :   1.1816 B(  0-C ,  2-H ) :   0.1131 B(  0-C ,  3-H ) :   0.1111
B(  0-C ,  4-O ) :   0.1263 B(  0-C ,  5-H ) :   0.8904 B(  0-C ,  6-H ) :   0.8942
B(  0-C ,  7-H ) :   0.8939 B(  1-C ,  2-H ) :   0.9786 B(  1-C ,  3-H ) :   0.9811
B(  1-C ,  4-O ) :   1.1300 B(  1-C ,  5-H ) :   0.1206 B(  1-C ,  6-H ) :   0.1777
B(  1-C ,  7-H ) :   0.1785

Dispersion correction           -0.000015280
FINAL SINGLE POINT ENERGY      -154.233643116518

DIPOLE MOMENT
-------------
                                X             Y             Z
Electronic contribution:      1.81996       0.17055       2.07994
Nuclear contribution   :     -2.90669      -0.27617      -3.31210
                        -----------------------------------------
Total Dipole Moment    :     -1.08674      -0.10562      -1.23216
                        -----------------------------------------
Magnitude (a.u.)       :      1.64632
Magnitude (Debye)      :      4.18462

Rotational constants in cm-1:     1.291883     0.321656     0.284469
Rotational constants in MHz : 38729.676116  9643.011620  8528.167295

                             ****ORCA TERMINATED NORMALLY****
TOTAL RUN TIME: 0 days 0 hours 0 minutes 11 seconds 319 msec
