                         Program Version 5.0.0 -  RELEASE  -
|  1> !M062X D3Zero RIJCOSX def2-SVPD def2/J TightSCF
|  2> *xyz 1 1
|  3> C          4.36645       -0.13321       -1.41606
|  4> C          4.50829       -0.93187       -2.72425
|  5> C          3.05650       -0.32080       -0.70738
|  6> N          2.38983        0.71129       -0.24391
|  7> N          2.51600       -1.50772       -0.55023
|  8> H          2.96768       -2.32291       -0.95631
|  9> H          1.54987       -1.49063       -0.24988
| 10> H          2.74307        1.64947       -0.41280
| 11> H          1.44036        0.50278        0.03703
| 12> H          4.48784        0.93300       -1.61157
| 13> H          5.16967       -0.41443       -0.72982
| 14> H          5.46700       -0.73824       -3.15818
| 15> H          3.74074       -0.63528       -3.40821
| 16> H          4.41574       -1.97727       -2.51573
| 17> *
| 18>
| 19> %MaxCore 64000
| 20>
| 21> %pal nprocs 4
| 22> end
| 23>
| 24> %scf
| 25>   MaxIter 150
| 26> end
| 27>
| 28>
| 29>                          ****END OF INPUT****

CARTESIAN COORDINATES (ANGSTROEM)
---------------------------------
  C      4.366450   -0.133210   -1.416060
  C      4.508290   -0.931870   -2.724250
  C      3.056500   -0.320800   -0.707380
  N      2.389830    0.711290   -0.243910
  N      2.516000   -1.507720   -0.550230
  H      2.967680   -2.322910   -0.956310
  H      1.549870   -1.490630   -0.249880
  H      2.743070    1.649470   -0.412800
  H      1.440360    0.502780    0.037030
  H      4.487840    0.933000   -1.611570
  H      5.169670   -0.414430   -0.729820
  H      5.467000   -0.738240   -3.158180
  H      3.740740   -0.635280   -3.408210
  H      4.415740   -1.977270   -2.515730

 Total Charge           Charge          ....    1
 Multiplicity           Mult            ....    1
 Number of Electrons    NEL             ....   40
 Basis Dimension        Dim             ....  172

ORBITAL ENERGIES
----------------

  NO   OCC          E(Eh)            E(eV)
   0   2.0000     -15.010513      -408.4568
   1   2.0000     -15.009286      -408.4234
   2   2.0000     -10.878026      -296.0061
   3   2.0000     -10.753511      -292.6179
   4   2.0000     -10.711522      -291.4753
   5   2.0000      -1.315285       -35.7907
   6   2.0000      -1.201058       -32.6825
   7   2.0000      -1.061309       -28.8797
   8   2.0000      -0.943702       -25.6794
   9   2.0000      -0.899778       -24.4842
  10   2.0000      -0.846548       -23.0357
  11   2.0000      -0.832018       -22.6404
  12   2.0000      -0.775510       -21.1027
  13   2.0000      -0.735471       -20.0132
  14   2.0000      -0.696925       -18.9643
  15   2.0000      -0.672527       -18.3004
  16   2.0000      -0.618468       -16.8294
  17   2.0000      -0.604863       -16.4592
  18   2.0000      -0.590422       -16.0662
  19   2.0000      -0.556682       -15.1481
  20   0.0000      -0.175052        -4.7634
  21   0.0000      -0.139149        -3.7864
  22   0.0000      -0.095343        -2.5944
  23   0.0000      -0.095197        -2.5904
  24   0.0000      -0.062581        -1.7029

MULLIKEN ATOMIC CHARGES
-----------------------
   0 C :   -0.334277
   1 C :    0.672833
   2 C :    0.682786
   3 N :   -0.034280
   4 N :    0.016131
   5 H :    0.018485
   6 H :   -0.085009
   7 H :    0.047194
   8 H :   -0.049704
   9 H :    0.103002
  10 H :    0.057954
  11 H :    0.024948
  12 H :   -0.023337
  13 H :   -0.096724
Sum of atomic charges:    1.0000000

LOEWDIN ATOMIC CHARGES
----------------------
   0 C :    0.019145
   1 C :    0.171868
   2 C :   -0.038177
   3 N :    0.273878
   4 N :    0.281676
   5 H :    0.049628
   6 H :    0.045959
   7 H :    0.060146
   8 H :    0.045279
   9 H :    0.037344
  10 H :    0.057687
  11 H :    0.009977
  12 H :    0.003285
  13 H :   -0.017694

  Mayer bond orders larger than 0.100000
B(  0-C ,  1-C ) :   1.3231 B(  0-C ,  2-C ) :   1.1509 B(  0-C ,  9-H ) :   0.8796
B(  0-C , 10-H ) :   0.8587 B(  0-C , 11-H ) :   0.1680 B(  0-C , 12-H ) :   0.1868
B(  0-C , 13-H ) :   0.1849 B(  1-C ,  9-H ) :   0.1154 B(  1-C , 11-H ) :   0.8406
B(  1-C , 12-H ) :   0.7886 B(  1-C , 13-H ) :   0.8376 B(  2-C ,  3-N ) :   1.0697
B(  2-C ,  4-N ) :   1.0850 B(  2-C ,  6-H ) :  -0.1665 B(  2-C ,  8-H ) :  -0.1155
B(  2-C ,  9-H ) :   0.1467 B(  2-C , 10-H ) :   0.1346 B(  3-N ,  4-N ) :   0.1963
B(  3-N ,  7-H ) :   1.1065 B(  3-N ,  8-H ) :   1.2143 B(  4-N ,  5-H ) :   1.0729
B(  4-N ,  6-H ) :   1.2751 B(  5-H ,  6-H ) :  -0.1924 B(  7-H ,  8-H ) :  -0.1564

Dispersion correction           -0.000199306
FINAL SINGLE POINT ENERGY      -228.751566854472

DIPOLE MOMENT
-------------
                                X             Y             Z
Electronic contribution:     -2.66118       0.62762       3.10865
Nuclear contribution   :      1.78847      -0.48174      -2.67127
                        -----------------------------------------
Total Dipole Moment    :     -0.87272       0.14588       0.43738
                        -----------------------------------------
Magnitude (a.u.)       :      0.98702
Magnitude (Debye)      :      2.50881

Rotational constants in cm-1:     0.286883     0.123210     0.094446
Rotational constants in MHz :  8600.540572  3693.747366  2831.415242

                             ****ORCA TERMINATED NORMALLY****
TOTAL RUN TIME: 0 days 0 hours 0 minutes 23 seconds 443 msec
