                         Program Version 5.0.0 -  RELEASE  -
|  1> !M062X D3Zero RIJCOSX def2-SVPD def2/J TightSCF
|  2> *xyz 0 1
|  3> C         -0.90349       -0.87394       -1.98739
|  4> C         -0.96015       -0.52236       -0.48987
|  5> H         -1.69039       -1.20813       -0.02168
|  6> H         -1.41449        0.48633       -0.40668
|  7> F          0.26170       -0.58031        0.13861
|  8> H         -1.88568       -0.80774       -2.40670
|  9> H         -0.53143       -1.87013       -2.10605
| 10> H         -0.25399       -0.18836       -2.49039
| 11> *
| 12>
| 13> %MaxCore 64000
| 14>
| 15> %pal nprocs 4
| 16> end
| 17>
| 18> %scf
| 19>   MaxIter 150
| 20> end
| 21>
| 22>
| 23>                          ****END OF INPUT****

CARTESIAN COORDINATES (ANGSTROEM)
---------------------------------
  C     -0.903490   -0.873940   -1.987390
  C     -0.960150   -0.522360   -0.489870
  H     -1.690390   -1.208130   -0.021680
  H     -1.414490    0.486330   -0.406680
  F      0.261700   -0.580310    0.138610
  H     -1.885680   -0.807740   -2.406700
  H     -0.531430   -1.870130   -2.106050
  H     -0.253990   -0.188360   -2.490390

 Total Charge           Charge          ....    0
 Multiplicity           Mult            ....    1
 Number of Electrons    NEL             ....   26
 Basis Dimension        Dim             ....  103

ORBITAL ENERGIES
----------------

  NO   OCC          E(Eh)            E(eV)
   0   2.0000     -25.244163      -686.9286
   1   2.0000     -10.632620      -289.3283
   2   2.0000     -10.548326      -287.0345
   3   2.0000      -1.317553       -35.8525
   4   2.0000      -0.855677       -23.2842
   5   2.0000      -0.716597       -19.4996
   6   2.0000      -0.589603       -16.0439
   7   2.0000      -0.581194       -15.8151
   8   2.0000      -0.544547       -14.8179
   9   2.0000      -0.482921       -13.1409
  10   2.0000      -0.469604       -12.7786
  11   2.0000      -0.407857       -11.0984
  12   2.0000      -0.401577       -10.9275
  13   0.0000       0.039495         1.0747
  14   0.0000       0.069727         1.8974
  15   0.0000       0.100901         2.7457
  16   0.0000       0.105661         2.8752
  17   0.0000       0.133109         3.6221

MULLIKEN ATOMIC CHARGES
-----------------------
   0 C :    0.255193
   1 C :    0.391177
   2 H :   -0.047450
   3 H :   -0.040644
   4 F :   -0.477209
   5 H :   -0.008989
   6 H :   -0.035998
   7 H :   -0.036080
Sum of atomic charges:   -0.0000000

LOEWDIN ATOMIC CHARGES
----------------------
   0 C :    0.136330
   1 C :    0.078488
   2 H :    0.029319
   3 H :    0.031469
   4 F :   -0.234959
   5 H :   -0.012377
   6 H :   -0.014097
   7 H :   -0.014172

  Mayer bond orders larger than 0.100000
B(  0-C ,  1-C ) :   1.3418 B(  0-C ,  5-H ) :   0.8696 B(  0-C ,  6-H ) :   0.9011
B(  0-C ,  7-H ) :   0.9010 B(  1-C ,  2-H ) :   0.9592 B(  1-C ,  3-H ) :   0.9592
B(  1-C ,  4-F ) :   0.6829 B(  1-C ,  5-H ) :   0.1123 B(  1-C ,  6-H ) :   0.1357
B(  1-C ,  7-H ) :   0.1362

Dispersion correction           -0.000019428
FINAL SINGLE POINT ENERGY      -178.848674683266

DIPOLE MOMENT
-------------
                                X             Y             Z
Electronic contribution:      3.19437       0.37653       3.96477
Nuclear contribution   :     -3.84149      -0.36812      -4.38946
                        -----------------------------------------
Total Dipole Moment    :     -0.64712       0.00841      -0.42470
                        -----------------------------------------
Magnitude (a.u.)       :      0.77408
Magnitude (Debye)      :      1.96756

Rotational constants in cm-1:     1.270659     0.299196     0.265842
Rotational constants in MHz : 38093.410361  8969.665806  7969.741481

                             ****ORCA TERMINATED NORMALLY****
TOTAL RUN TIME: 0 days 0 hours 0 minutes 10 seconds 462 msec
