                         Program Version 5.0.0 -  RELEASE  -
|  1> !M062X D3Zero RIJCOSX def2-SVPD def2/J TightSCF
|  2> *xyz 0 1
|  3> C          4.36645       -0.13321       -1.41606
|  4> C          4.50829       -0.93187       -2.72425
|  5> C          3.05650       -0.32080       -0.70738
|  6> C          2.38983        0.71129       -0.24391
|  7> N          2.51600       -1.50772       -0.55023
|  8> H          2.96768       -2.32291       -0.95631
|  9> H          1.54987       -1.49063       -0.24988
| 10> H          2.74307        1.64947       -0.41280
| 11> H          1.44036        0.50278        0.03703
| 12> H          4.48784        0.93300       -1.61157
| 13> H          5.16967       -0.41443       -0.72982
| 14> H          5.46700       -0.73824       -3.15818
| 15> H          3.74074       -0.63528       -3.40821
| 16> H          4.41574       -1.97727       -2.51573
| 17> *
| 18>
| 19> %MaxCore 64000
| 20>
| 21> %pal nprocs 4
| 22> end
| 23>
| 24> %scf
| 25>   MaxIter 150
| 26> end
| 27>
| 28>
| 29>                          ****END OF INPUT****

CARTESIAN COORDINATES (ANGSTROEM)
---------------------------------
  C      4.366450   -0.133210   -1.416060
  C      4.508290   -0.931870   -2.724250
  C      3.056500   -0.320800   -0.707380
  C      2.389830    0.711290   -0.243910
  N      2.516000   -1.507720   -0.550230
  H      2.967680   -2.322910   -0.956310
  H      1.549870   -1.490630   -0.249880
  H      2.743070    1.649470   -0.412800
  H      1.440360    0.502780    0.037030
  H      4.487840    0.933000   -1.611570
  H      5.169670   -0.414430   -0.729820
  H      5.467000   -0.738240   -3.158180
  H      3.740740   -0.635280   -3.408210
  H      4.415740   -1.977270   -2.515730

 Total Charge           Charge          ....    0
 Multiplicity           Mult            ....    1
 Number of Electrons    NEL             ....   40
 Basis Dimension        Dim             ....  172

ORBITAL ENERGIES
----------------

  NO   OCC          E(Eh)            E(eV)
   0   2.0000     -14.760287      -401.6478
   1   2.0000     -10.568722      -287.5896
   2   2.0000     -10.552133      -287.1381
   3   2.0000     -10.543588      -286.9056
   4   2.0000     -10.482403      -285.2407
   5   2.0000      -1.031147       -28.0589
   6   2.0000      -0.867474       -23.6052
   7   2.0000      -0.809389       -22.0246
   8   2.0000      -0.716882       -19.5073
   9   2.0000      -0.637958       -17.3597
  10   2.0000      -0.608340       -16.5538
  11   2.0000      -0.541373       -14.7315
  12   2.0000      -0.509250       -13.8574
  13   2.0000      -0.498226       -13.5574
  14   2.0000      -0.459776       -12.5111
  15   2.0000      -0.446957       -12.1623
  16   2.0000      -0.419844       -11.4245
  17   2.0000      -0.406219       -11.0538
  18   2.0000      -0.389673       -10.6035
  19   2.0000      -0.242670        -6.6034
  20   0.0000       0.035686         0.9711
  21   0.0000       0.063735         1.7343
  22   0.0000       0.070055         1.9063
  23   0.0000       0.083024         2.2592
  24   0.0000       0.090219         2.4550

MULLIKEN ATOMIC CHARGES
-----------------------
   0 C :   -0.134532
   1 C :    0.709133
   2 C :   -0.227024
   3 C :    0.394189
   4 N :    0.195045
   5 H :   -0.144391
   6 H :   -0.111028
   7 H :   -0.146230
   8 H :   -0.385750
   9 H :    0.132580
  10 H :   -0.059972
  11 H :   -0.048782
  12 H :   -0.031778
  13 H :   -0.141461
Sum of atomic charges:   -0.0000000

LOEWDIN ATOMIC CHARGES
----------------------
   0 C :   -0.024038
   1 C :    0.131756
   2 C :   -0.266426
   3 C :    0.172576
   4 N :    0.160877
   5 H :   -0.002789
   6 H :    0.007072
   7 H :   -0.078867
   8 H :   -0.085416
   9 H :    0.021378
  10 H :    0.026604
  11 H :   -0.017354
  12 H :   -0.010711
  13 H :   -0.034663

  Mayer bond orders larger than 0.100000
B(  0-C ,  1-C ) :   1.2839 B(  0-C ,  2-C ) :   1.1514 B(  0-C ,  9-H ) :   0.8744
B(  0-C , 10-H ) :   0.8309 B(  0-C , 11-H ) :   0.2119 B(  0-C , 12-H ) :   0.1949
B(  0-C , 13-H ) :   0.2120 B(  1-C ,  9-H ) :   0.1080 B(  1-C , 11-H ) :   0.8051
B(  1-C , 12-H ) :   0.7864 B(  1-C , 13-H ) :   0.8143 B(  2-C ,  3-C ) :   1.8577
B(  2-C ,  4-N ) :   1.2248 B(  2-C ,  8-H ) :   0.2771 B(  2-C , 10-H ) :   0.2135
B(  3-C ,  4-N ) :   0.2499 B(  3-C ,  7-H ) :   1.0043 B(  3-C ,  8-H ) :   0.6554
B(  4-N ,  5-H ) :   1.1163 B(  4-N ,  6-H ) :   1.1581 B(  5-H ,  6-H ) :  -0.1607

Dispersion correction           -0.000195866
FINAL SINGLE POINT ENERGY      -212.297990709235

DIPOLE MOMENT
-------------
                                X             Y             Z
Electronic contribution:     -1.49288      -0.41948       2.07288
Nuclear contribution   :      1.56827      -0.21459      -2.46657
                        -----------------------------------------
Total Dipole Moment    :      0.07538      -0.63406      -0.39369
                        -----------------------------------------
Magnitude (a.u.)       :      0.75014
Magnitude (Debye)      :      1.90671

Rotational constants in cm-1:     0.294070     0.127722     0.097792
Rotational constants in MHz :  8815.983970  3829.010547  2931.715816

                             ****ORCA TERMINATED NORMALLY****
TOTAL RUN TIME: 0 days 0 hours 0 minutes 21 seconds 434 msec
