                         Program Version 5.0.0 -  RELEASE  -
|  1> !M062X D3Zero RIJCOSX def2-SVPD def2/J TightSCF
|  2> *xyz 0 1
|  3> C          4.36645       -0.13321       -1.41606
|  4> C          4.50829       -0.93187       -2.72425
|  5> C          3.05650       -0.32080       -0.70738
|  6> N          2.38983        0.71129       -0.24391
|  7> C          2.51600       -1.50772       -0.55023
|  8> H          2.96768       -2.32291       -0.95631
|  9> H          1.54987       -1.49063       -0.24988
| 10> H          2.74307        1.64947       -0.41280
| 11> H          1.44036        0.50278        0.03703
| 12> H          4.48784        0.93300       -1.61157
| 13> H          5.16967       -0.41443       -0.72982
| 14> H          5.46700       -0.73824       -3.15818
| 15> H          3.74074       -0.63528       -3.40821
| 16> H          4.41574       -1.97727       -2.51573
| 17> *
| 18>
| 19> %MaxCore 64000
| 20>
| 21> %pal nprocs 4
| 22> end
| 23>
| 24> %scf
| 25>   MaxIter 150
| 26> end
| 27>
| 28>
| 29>                          ****END OF INPUT****

CARTESIAN COORDINATES (ANGSTROEM)
---------------------------------
  C      4.366450   -0.133210   -1.416060
  C      4.508290   -0.931870   -2.724250
  C      3.056500   -0.320800   -0.707380
  N      2.389830    0.711290   -0.243910
  C      2.516000   -1.507720   -0.550230
  H      2.967680   -2.322910   -0.956310
  H      1.549870   -1.490630   -0.249880
  H      2.743070    1.649470   -0.412800
  H      1.440360    0.502780    0.037030
  H      4.487840    0.933000   -1.611570
  H      5.169670   -0.414430   -0.729820
  H      5.467000   -0.738240   -3.158180
  H      3.740740   -0.635280   -3.408210
  H      4.415740   -1.977270   -2.515730

 Total Charge           Charge          ....    0
 Multiplicity           Mult            ....    1
 Number of Electrons    NEL             ....   40
 Basis Dimension        Dim             ....  172

ORBITAL ENERGIES
----------------

  NO   OCC          E(Eh)            E(eV)
   0   2.0000     -14.760892      -401.6643
   1   2.0000     -10.568997      -287.5970
   2   2.0000     -10.553437      -287.1736
   3   2.0000     -10.537423      -286.7378
   4   2.0000     -10.480897      -285.1997
   5   2.0000      -1.031585       -28.0708
   6   2.0000      -0.869386       -23.6572
   7   2.0000      -0.797842       -21.7104
   8   2.0000      -0.726832       -19.7781
   9   2.0000      -0.628406       -17.0998
  10   2.0000      -0.605265       -16.4701
  11   2.0000      -0.549900       -14.9635
  12   2.0000      -0.520488       -14.1632
  13   2.0000      -0.474089       -12.9006
  14   2.0000      -0.457372       -12.4457
  15   2.0000      -0.446504       -12.1500
  16   2.0000      -0.420896       -11.4532
  17   2.0000      -0.403656       -10.9840
  18   2.0000      -0.391418       -10.6510
  19   2.0000      -0.241063        -6.5597
  20   0.0000       0.039660         1.0792
  21   0.0000       0.059989         1.6324
  22   0.0000       0.070364         1.9147
  23   0.0000       0.078943         2.1481
  24   0.0000       0.094424         2.5694

MULLIKEN ATOMIC CHARGES
-----------------------
   0 C :   -0.017456
   1 C :    0.700635
   2 C :   -0.084199
   3 N :    0.098548
   4 C :    0.393179
   5 H :   -0.213815
   6 H :   -0.440863
   7 H :   -0.097172
   8 H :   -0.055885
   9 H :   -0.024257
  10 H :   -0.054847
  11 H :   -0.016753
  12 H :   -0.062498
  13 H :   -0.124616
Sum of atomic charges:    0.0000000

LOEWDIN ATOMIC CHARGES
----------------------
   0 C :   -0.024962
   1 C :    0.135941
   2 C :   -0.260257
   3 N :    0.152067
   4 C :    0.177260
   5 H :   -0.085664
   6 H :   -0.085586
   7 H :    0.004638
   8 H :    0.006402
   9 H :    0.009935
  10 H :    0.028556
  11 H :   -0.019036
  12 H :   -0.011397
  13 H :   -0.027896

  Mayer bond orders larger than 0.100000
B(  0-C ,  1-C ) :   1.3035 B(  0-C ,  2-C ) :   1.0727 B(  0-C ,  9-H ) :   0.7909
B(  0-C , 10-H ) :   0.8617 B(  0-C , 11-H ) :   0.1849 B(  0-C , 12-H ) :   0.1940
B(  0-C , 13-H ) :   0.1893 B(  1-C , 11-H ) :   0.8048 B(  1-C , 12-H ) :   0.7995
B(  1-C , 13-H ) :   0.8386 B(  2-C ,  3-N ) :   1.1120 B(  2-C ,  4-C ) :   1.8243
B(  2-C ,  5-H ) :   0.1226 B(  2-C ,  6-H ) :   0.2287 B(  2-C ,  9-H ) :   0.2124
B(  2-C , 10-H ) :   0.1567 B(  3-N ,  4-C ) :   0.2669 B(  3-N ,  7-H ) :   1.1300
B(  3-N ,  8-H ) :   1.1234 B(  4-C ,  5-H ) :   0.8434 B(  4-C ,  6-H ) :   0.7800
B(  5-H ,  6-H ) :  -0.1727 B(  7-H ,  8-H ) :  -0.1335

Dispersion correction           -0.000196402
FINAL SINGLE POINT ENERGY      -212.296650628235

DIPOLE MOMENT
-------------
                                X             Y             Z
Electronic contribution:     -1.60297       1.44927       2.34585
Nuclear contribution   :      1.59749      -0.72853      -2.53752
                        -----------------------------------------
Total Dipole Moment    :     -0.00548       0.72074      -0.19167
                        -----------------------------------------
Magnitude (a.u.)       :      0.74581
Magnitude (Debye)      :      1.89570

Rotational constants in cm-1:     0.304597     0.124127     0.096828
Rotational constants in MHz :  9131.600925  3721.227051  2902.830760

                             ****ORCA TERMINATED NORMALLY****
TOTAL RUN TIME: 0 days 0 hours 0 minutes 24 seconds 531 msec
