                         Program Version 5.0.0 -  RELEASE  -
|  1> !M062X D3Zero RIJCOSX def2-SVPD def2/J TightSCF xyzfile
|  2>
|  3> *xyzfile 0 1 D2.xyz
|  4>
|  5> %MaxCore 64000
|  6>
|  7> %pal nprocs 4
|  8> end
|  9>
| 10> %scf
| 11>   MaxIter 150
| 12> end
| 13>
| 14>
| 15>                          ****END OF INPUT****

CARTESIAN COORDINATES (ANGSTROEM)
---------------------------------
  C      4.366454   -0.133215   -1.416062
  C      4.508292   -0.931872   -2.724249
  H      4.753716   -1.972051   -2.488408
  C      3.294164   -0.918214   -3.656570
  H      5.385637   -0.536236   -3.242640
  H      2.483463   -1.477378   -3.185764
  H      3.553092   -1.478495   -4.560331
  C      2.772335    0.460100   -4.051448
  H      2.608762    1.065107   -3.155194
  C      1.465354    0.410537   -4.853644
  H      3.532940    0.988848   -4.635671
  C      0.326171   -0.375613   -4.192580
  H      1.666704   -0.022269   -5.839323
  H      1.138198    1.439246   -5.035449
  C     -0.017405    0.080588   -2.778406
  H      0.585573   -1.439385   -4.168057
  H     -0.560005   -0.311425   -4.831461
  H      0.902090    0.201296   -2.206729
  C     -0.903495   -0.873945   -1.987388
  H     -0.479549    1.074657   -2.811915
  H     -0.502554   -1.892096   -2.081204
  H     -1.917039   -0.895427   -2.406277
  C     -0.960148   -0.522365   -0.489867
  H     -1.690392   -1.208130   -0.021677
  H     -1.414490    0.486329   -0.406677
  F      0.261703   -0.580307    0.138611
  C      3.056503   -0.320797   -0.707384
  N      2.389825    0.711285   -0.243909
  C      2.515999   -1.507721   -0.550229
  H      2.967683   -2.322915   -0.956305
  H      1.549872   -1.490634   -0.249876
  H      2.743071    1.649471   -0.412802
  H      1.440364    0.502778    0.037031
  H      4.487835    0.932997   -1.611569
  H      5.169672   -0.414432   -0.729817

 Total Charge           Charge          ....    0
 Multiplicity           Mult            ....    1
 Number of Electrons    NEL             ....  104
 Basis Dimension        Dim             ....  439

ORBITAL ENERGIES
----------------

  NO   OCC          E(Eh)            E(eV)
   0   2.0000     -25.275955      -687.7937
   1   2.0000     -14.736849      -401.0100
   2   2.0000     -10.645009      -289.6654
   3   2.0000     -10.561567      -287.3949
   4   2.0000     -10.552515      -287.1485
   5   2.0000     -10.543968      -286.9160
   6   2.0000     -10.543272      -286.8970
   7   2.0000     -10.541724      -286.8549
   8   2.0000     -10.540125      -286.8114
   9   2.0000     -10.539415      -286.7921
  10   2.0000     -10.536907      -286.7238
  11   2.0000     -10.530918      -286.5608
  12   2.0000     -10.456544      -284.5370
  13   2.0000      -1.358729       -36.9729
  14   2.0000      -1.014268       -27.5996
  15   2.0000      -0.911818       -24.8118
  16   2.0000      -0.887971       -24.1629
  17   2.0000      -0.861544       -23.4438
  18   2.0000      -0.817473       -22.2446
  19   2.0000      -0.785010       -21.3612
  20   2.0000      -0.772539       -21.0219
  21   2.0000      -0.723890       -19.6980
  22   2.0000      -0.698398       -19.0044
  23   2.0000      -0.666370       -18.1328
  24   2.0000      -0.632819       -17.2199
  25   2.0000      -0.624459       -16.9924
  26   2.0000      -0.609972       -16.5982
  27   2.0000      -0.606210       -16.4958
  28   2.0000      -0.593511       -16.1502
  29   2.0000      -0.561013       -15.2659
  30   2.0000      -0.548921       -14.9369
  31   2.0000      -0.533633       -14.5209
  32   2.0000      -0.522175       -14.2091
  33   2.0000      -0.505538       -13.7564
  34   2.0000      -0.498995       -13.5783
  35   2.0000      -0.482004       -13.1160
  36   2.0000      -0.467664       -12.7258
  37   2.0000      -0.456901       -12.4329
  38   2.0000      -0.446919       -12.1613
  39   2.0000      -0.432905       -11.7799
  40   2.0000      -0.428035       -11.6474
  41   2.0000      -0.424420       -11.5490
  42   2.0000      -0.414273       -11.2730
  43   2.0000      -0.411727       -11.2036
  44   2.0000      -0.396014       -10.7761
  45   2.0000      -0.388176       -10.5628
  46   2.0000      -0.376032       -10.2323
  47   2.0000      -0.370148       -10.0723
  48   2.0000      -0.366437        -9.9712
  49   2.0000      -0.360209        -9.8018
  50   2.0000      -0.357549        -9.7294
  51   2.0000      -0.223893        -6.0924
  52   0.0000       0.034935         0.9506
  53   0.0000       0.044863         1.2208
  54   0.0000       0.048857         1.3295
  55   0.0000       0.053696         1.4611
  56   0.0000       0.066611         1.8126

MULLIKEN ATOMIC CHARGES
-----------------------
   0 C :    0.655532
   1 C :    0.454075
   2 H :    0.097595
   3 C :   -0.035509
   4 H :   -0.220657
   5 H :   -0.040762
   6 H :   -0.236439
   7 C :    0.002081
   8 H :    0.059801
   9 C :    0.785820
  10 H :   -0.424659
  11 C :    0.077043
  12 H :   -0.031014
  13 H :   -0.005446
  14 C :    0.812405
  15 H :    0.171133
  16 H :   -0.473639
  17 H :   -1.085893
  18 C :    0.020093
  19 H :    0.007639
  20 H :    0.046287
  21 H :   -0.185986
  22 C :    1.115368
  23 H :   -0.083746
  24 H :   -0.013044
  25 F :   -0.829049
  26 C :   -0.542309
  27 N :    0.374883
  28 C :    0.779276
  29 H :   -0.238439
  30 H :   -0.645916
  31 H :   -0.089081
  32 H :   -0.173631
  33 H :    0.219157
  34 H :   -0.322969
Sum of atomic charges:   -0.0000000

LOEWDIN ATOMIC CHARGES
----------------------
   0 C :    0.020277
   1 C :   -0.018036
   2 H :    0.019603
   3 C :   -0.028879
   4 H :    0.018267
   5 H :   -0.012548
   6 H :    0.026961
   7 C :   -0.029894
   8 H :   -0.000908
   9 C :   -0.026206
  10 H :    0.024223
  11 C :   -0.032816
  12 H :    0.022198
  13 H :    0.021070
  14 C :   -0.029436
  15 H :    0.014014
  16 H :    0.021265
  17 H :   -0.029154
  18 C :   -0.011218
  19 H :    0.035533
  20 H :    0.032323
  21 H :    0.033883
  22 C :    0.176741
  23 H :    0.037432
  24 H :    0.042145
  25 F :   -0.242280
  26 C :   -0.240534
  27 N :    0.182892
  28 C :    0.201072
  29 H :   -0.073408
  30 H :   -0.133359
  31 H :    0.007034
  32 H :   -0.064108
  33 H :    0.008947
  34 H :    0.026907

  Mayer bond orders larger than 0.100000
B(  0-C ,  1-C ) :   1.1353 B(  0-C ,  3-C ) :   0.1099 B(  0-C ,  4-H ) :   0.1717
B(  0-C , 26-C ) :   1.1727 B(  0-C , 29-H ) :  -0.1471 B(  0-C , 33-H ) :   0.5553
B(  0-C , 34-H ) :   0.7624 B(  1-C ,  2-H ) :   0.6441 B(  1-C ,  3-C ) :   1.2813
B(  1-C ,  4-H ) :   0.8194 B(  1-C ,  5-H ) :   0.1211 B(  1-C , 26-C ) :   0.1096
B(  1-C , 28-C ) :   0.1079 B(  1-C , 33-H ) :   0.1268 B(  2-H ,  3-C ) :   0.2467
B(  2-H ,  4-H ) :  -0.2261 B(  3-C ,  4-H ) :   0.2225 B(  3-C ,  5-H ) :   0.8510
B(  3-C ,  6-H ) :   0.8799 B(  3-C ,  7-C ) :   1.2478 B(  3-C ,  8-H ) :   0.1266
B(  3-C , 10-H ) :   0.1672 B(  4-H , 29-H ) :  -0.1674 B(  5-H ,  7-C ) :   0.1274
B(  5-H , 14-C ) :   0.1071 B(  5-H , 15-H ) :   0.1861 B(  5-H , 29-H ) :   0.1512
B(  5-H , 30-H ) :  -0.1246 B(  6-H ,  7-C ) :   0.1606 B(  7-C ,  8-H ) :   0.8326
B(  7-C ,  9-C ) :   1.1291 B(  7-C , 10-H ) :   1.0196 B(  7-C , 11-C ) :   0.1769
B(  7-C , 12-H ) :   0.1030 B(  7-C , 13-H ) :   0.2712 B(  8-H , 17-H ) :   0.2818
B(  9-C , 11-C ) :   1.1261 B(  9-C , 12-H ) :   0.7182 B(  9-C , 13-H ) :   0.6666
B( 11-C , 12-H ) :   0.1890 B( 11-C , 13-H ) :   0.1210 B( 11-C , 14-C ) :   1.1384
B( 11-C , 15-H ) :   0.7982 B( 11-C , 16-H ) :   1.0585 B( 11-C , 17-H ) :   0.2017
B( 11-C , 19-H ) :   0.1050 B( 12-H , 13-H ) :  -0.1580 B( 14-C , 15-H ) :   0.1364
B( 14-C , 16-H ) :   0.2210 B( 14-C , 17-H ) :  -0.1292 B( 14-C , 18-C ) :   1.1347
B( 14-C , 19-H ) :   0.6190 B( 14-C , 20-H ) :   0.1303 B( 14-C , 21-H ) :   0.2206
B( 14-C , 29-H ) :  -0.1184 B( 15-H , 16-H ) :  -0.1033 B( 17-H , 18-C ) :   0.1529
B( 17-H , 19-H ) :   0.2857 B( 17-H , 29-H ) :   0.1238 B( 18-C , 20-H ) :   0.8881
B( 18-C , 21-H ) :   0.8979 B( 18-C , 22-C ) :   1.1298 B( 18-C , 23-H ) :   0.2066
B( 18-C , 24-H ) :   0.1172 B( 18-C , 25-F ) :   0.1234 B( 22-C , 23-H ) :   0.7390
B( 22-C , 24-H ) :   0.7975 B( 22-C , 25-F ) :   0.6086 B( 24-H , 25-F ) :   0.1528
B( 25-F , 26-C ) :   0.1119 B( 25-F , 28-C ) :  -0.1103 B( 25-F , 30-H ) :   0.1826
B( 26-C , 27-N ) :   0.9808 B( 26-C , 28-C ) :   2.0500 B( 26-C , 30-H ) :   0.5707
B( 26-C , 33-H ) :   0.2515 B( 26-C , 34-H ) :   0.3160 B( 27-N , 28-C ) :   0.3715
B( 27-N , 29-H ) :   0.2019 B( 27-N , 30-H ) :  -0.1267 B( 27-N , 31-H ) :   1.0977
B( 27-N , 32-H ) :   1.0869 B( 28-C , 29-H ) :   0.7794 B( 28-C , 30-H ) :   0.1058
B( 29-H , 30-H ) :  -0.4218 B( 31-H , 32-H ) :  -0.1810 B( 33-H , 34-H ) :  -0.1492

Dispersion correction           -0.002138619
FINAL SINGLE POINT ENERGY      -586.273659244739

DIPOLE MOMENT
-------------
                                X             Y             Z
Electronic contribution:     -2.79919       0.00322      10.67144
Nuclear contribution   :      1.85154       0.58682     -11.15333
                        -----------------------------------------
Total Dipole Moment    :     -0.94765       0.59004      -0.48189
                        -----------------------------------------
Magnitude (a.u.)       :      1.21589
Magnitude (Debye)      :      3.09056

Rotational constants in cm-1:     0.028379     0.022321     0.014415
Rotational constants in MHz :   850.785777   669.176075   432.155504

                             ****ORCA TERMINATED NORMALLY****
TOTAL RUN TIME: 0 days 0 hours 3 minutes 4 seconds 196 msec
