                         Program Version 5.0.0 -  RELEASE  -
|  1> !wB97X-D3 RIJCOSX def2-TZVP def2/J TightSCF
|  2> *xyz -1 1
|  3> C         -1.10433        0.25137       -2.86006
|  4> C         -0.71189        0.84252       -4.21834
|  5> H          0.15463        1.49980       -4.13091
|  6> H         -1.53813        1.45922       -4.58267
|  7> C         -0.39762       -0.20587       -5.28802
|  8> O          0.61717       -0.00535       -5.99827
|  9> O         -1.13317       -1.22138       -5.34147
| 10> C         -0.19626       -0.86337       -2.32576
| 11> H         -1.14384        1.06671       -2.12968
| 12> H         -2.11440       -0.15683       -2.93032
| 13> H         -0.15538       -1.66172       -3.03700
| 14> H         -0.58845       -1.22999       -1.40020
| 15> H          0.78852       -0.47602       -2.16737
| 16> *
| 17>
| 18> %MaxCore 64000
| 19>
| 20> %pal nprocs 18
| 21> end
| 22>
| 23> %scf
| 24>   MaxIter 150
| 25> end
| 26>
| 27>
| 28>                          ****END OF INPUT****

CARTESIAN COORDINATES (ANGSTROEM)
---------------------------------
  C     -1.104330    0.251370   -2.860060
  C     -0.711890    0.842520   -4.218340
  H      0.154630    1.499800   -4.130910
  H     -1.538130    1.459220   -4.582670
  C     -0.397620   -0.205870   -5.288020
  O      0.617170   -0.005350   -5.998270
  O     -1.133170   -1.221380   -5.341470
  C     -0.196260   -0.863370   -2.325760
  H     -1.143840    1.066710   -2.129680
  H     -2.114400   -0.156830   -2.930320
  H     -0.155380   -1.661720   -3.037000
  H     -0.588450   -1.229990   -1.400200
  H      0.788520   -0.476020   -2.167370

 Total Charge           Charge          ....   -1
 Multiplicity           Mult            ....    1
 Number of Electrons    NEL             ....   48
 Basis Dimension        Dim             ....  228

ORBITAL ENERGIES
----------------

  NO   OCC          E(Eh)            E(eV)
   0   2.0000     -18.956790      -515.8405
   1   2.0000     -18.955429      -515.8034
   2   2.0000     -10.153003      -276.2773
   3   2.0000     -10.122959      -275.4597
   4   2.0000     -10.112055      -275.1630
   5   2.0000     -10.097644      -274.7709
   6   2.0000      -0.931394       -25.3445
   7   2.0000      -0.836188       -22.7538
   8   2.0000      -0.748763       -20.3749
   9   2.0000      -0.653409       -17.7802
  10   2.0000      -0.552310       -15.0291
  11   2.0000      -0.424771       -11.5586
  12   2.0000      -0.402052       -10.9404
  13   2.0000      -0.389326       -10.5941
  14   2.0000      -0.352049        -9.5798
  15   2.0000      -0.328150        -8.9294
  16   2.0000      -0.306633        -8.3439
  17   2.0000      -0.297436        -8.0936
  18   2.0000      -0.285990        -7.7822
  19   2.0000      -0.264920        -7.2088
  20   2.0000      -0.252527        -6.8716
  21   2.0000      -0.136006        -3.7009
  22   2.0000      -0.130266        -3.5447
  23   2.0000      -0.118373        -3.2211
  24   0.0000       0.250199         6.8083
  25   0.0000       0.284995         7.7551
  26   0.0000       0.298875         8.1328
  27   0.0000       0.311298         8.4708
  28   0.0000       0.324635         8.8338

MULLIKEN ATOMIC CHARGES
-----------------------
   0 C :   -0.118635
   1 C :   -0.159505
   2 H :    0.048773
   3 H :    0.043582
   4 C :    0.254258
   5 O :   -0.555476
   6 O :   -0.559877
   7 C :   -0.331455
   8 H :    0.034640
   9 H :    0.061631
  10 H :    0.147981
  11 H :    0.062036
  12 H :    0.072047
Sum of atomic charges:   -1.0000000

LOEWDIN ATOMIC CHARGES
----------------------
   0 C :   -0.303706
   1 C :   -0.268880
   2 H :    0.123098
   3 H :    0.125835
   4 C :   -0.694441
   5 O :   -0.115846
   6 O :   -0.115632
   7 C :   -0.314587
   8 H :    0.110973
   9 H :    0.127044
  10 H :    0.124264
  11 H :    0.097302
  12 H :    0.104577

  Mayer bond orders larger than 0.100000
B(  0-C ,  1-C ) :   0.9724 B(  0-C ,  7-C ) :   0.9810 B(  0-C ,  8-H ) :   0.9701
B(  0-C ,  9-H ) :   0.9712 B(  1-C ,  2-H ) :   0.9653 B(  1-C ,  3-H ) :   0.9562
B(  1-C ,  4-C ) :   0.9539 B(  4-C ,  5-O ) :   1.8638 B(  4-C ,  6-O ) :   1.8180
B(  7-C , 10-H ) :   0.9730 B(  7-C , 11-H ) :   0.9788 B(  7-C , 12-H ) :   0.9792

Dispersion correction           -0.003359286
FINAL SINGLE POINT ENERGY      -307.184596260673

DIPOLE MOMENT
-------------
                                X             Y             Z
Electronic contribution:      0.68369      -1.04918      -7.18844
Nuclear contribution   :     -1.15173       1.87787       9.37659
                        -----------------------------------------
Total Dipole Moment    :     -0.46804       0.82869       2.18816
                        -----------------------------------------
Magnitude (a.u.)       :      2.38617
Magnitude (Debye)      :      6.06516

Rotational constants in cm-1:     0.203160     0.081703     0.075834
Rotational constants in MHz :  6090.598467  2449.397428  2273.436534

                             ****ORCA TERMINATED NORMALLY****
TOTAL RUN TIME: 0 days 0 hours 0 minutes 14 seconds 210 msec
