                         Program Version 5.0.0 -  RELEASE  -
|  1> !wB97X-D3 RIJCOSX def2-TZVP def2/J TightSCF
|  2> *xyz 1 1
|  3> C          2.23447       -2.98975       -2.39762
|  4> N          2.75680       -2.94555       -3.76503
|  5> C          1.98721       -2.59045       -4.81898
|  6> N          0.74322       -3.01749       -4.91352
|  7> N          2.49964       -1.84860       -5.80324
|  8> H          3.30978       -1.29282       -5.55895
|  9> H          1.80103       -1.30430       -6.28913
| 10> H          3.71612       -2.62880       -3.82953
| 11> H          0.39583       -3.62775       -4.18502
| 12> H          0.03920       -2.45438       -5.37137
| 13> C          2.19120       -1.61950       -1.71549
| 14> H          2.87278       -3.66637       -1.82801
| 15> H          1.24619       -3.44744       -2.40784
| 16> C          1.29873       -0.55431       -2.35977
| 17> H          1.87292       -1.78796       -0.68131
| 18> H          3.21681       -1.23843       -1.65443
| 19> H          1.61097       -0.39090       -3.37007
| 20> H          1.37981        0.35955       -1.80916
| 21> H          0.28197       -0.88750       -2.35015
| 22> *
| 23>
| 24> %MaxCore 64000
| 25>
| 26> %pal nprocs 18
| 27> end
| 28>
| 29> %scf
| 30>   MaxIter 150
| 31> end
| 32>
| 33>
| 34>                          ****END OF INPUT****

CARTESIAN COORDINATES (ANGSTROEM)
---------------------------------
  C      2.234470   -2.989750   -2.397620
  N      2.756800   -2.945550   -3.765030
  C      1.987210   -2.590450   -4.818980
  N      0.743220   -3.017490   -4.913520
  N      2.499640   -1.848600   -5.803240
  H      3.309780   -1.292820   -5.558950
  H      1.801030   -1.304300   -6.289130
  H      3.716120   -2.628800   -3.829530
  H      0.395830   -3.627750   -4.185020
  H      0.039200   -2.454380   -5.371370
  C      2.191200   -1.619500   -1.715490
  H      2.872780   -3.666370   -1.828010
  H      1.246190   -3.447440   -2.407840
  C      1.298730   -0.554310   -2.359770
  H      1.872920   -1.787960   -0.681310
  H      3.216810   -1.238430   -1.654430
  H      1.610970   -0.390900   -3.370070
  H      1.379810    0.359550   -1.809160
  H      0.281970   -0.887500   -2.350150

 Total Charge           Charge          ....    1
 Multiplicity           Mult            ....    1
 Number of Electrons    NEL             ....   56
 Basis Dimension        Dim             ....  289

ORBITAL ENERGIES
----------------

  NO   OCC          E(Eh)            E(eV)
   0   2.0000     -14.648153      -398.5965
   1   2.0000     -14.645027      -398.5114
   2   2.0000     -14.642736      -398.4491
   3   2.0000     -10.615747      -288.8692
   4   2.0000     -10.480707      -285.1945
   5   2.0000     -10.423260      -283.6313
   6   2.0000     -10.402284      -283.0605
   7   2.0000      -1.337473       -36.3945
   8   2.0000      -1.220921       -33.2229
   9   2.0000      -1.216340       -33.0983
  10   2.0000      -1.056912       -28.7600
  11   2.0000      -0.982275       -26.7291
  12   2.0000      -0.934884       -25.4395
  13   2.0000      -0.888176       -24.1685
  14   2.0000      -0.874800       -23.8045
  15   2.0000      -0.835872       -22.7452
  16   2.0000      -0.798884       -21.7387
  17   2.0000      -0.781960       -21.2782
  18   2.0000      -0.750241       -20.4151
  19   2.0000      -0.724718       -19.7206
  20   2.0000      -0.697689       -18.9851
  21   2.0000      -0.685493       -18.6532
  22   2.0000      -0.656285       -17.8584
  23   2.0000      -0.617347       -16.7989
  24   2.0000      -0.590490       -16.0681
  25   2.0000      -0.587022       -15.9737
  26   2.0000      -0.576318       -15.6824
  27   2.0000      -0.537322       -14.6213
  28   0.0000      -0.109496        -2.9795
  29   0.0000      -0.066290        -1.8038
  30   0.0000      -0.038404        -1.0450
  31   0.0000      -0.025513        -0.6942
  32   0.0000      -0.004611        -0.1255

MULLIKEN ATOMIC CHARGES
-----------------------
   0 C :   -0.168349
   1 N :   -0.269624
   2 C :    0.356717
   3 N :   -0.393495
   4 N :   -0.368194
   5 H :    0.284058
   6 H :    0.282620
   7 H :    0.259767
   8 H :    0.292286
   9 H :    0.298923
  10 C :   -0.219447
  11 H :    0.186222
  12 H :    0.128385
  13 C :   -0.334999
  14 H :    0.153316
  15 H :    0.132126
  16 H :    0.078914
  17 H :    0.170559
  18 H :    0.130214
Sum of atomic charges:    1.0000000

LOEWDIN ATOMIC CHARGES
----------------------
   0 C :   -0.264302
   1 N :    0.153127
   2 C :   -0.404554
   3 N :    0.084970
   4 N :    0.056318
   5 H :    0.196335
   6 H :    0.200213
   7 H :    0.207480
   8 H :    0.198620
   9 H :    0.200861
  10 C :   -0.284204
  11 H :    0.153540
  12 H :    0.135668
  13 C :   -0.292812
  14 H :    0.155409
  15 H :    0.143301
  16 H :    0.105890
  17 H :    0.133884
  18 H :    0.120255

  Mayer bond orders larger than 0.100000
B(  0-C ,  1-N ) :   0.8581 B(  0-C , 10-C ) :   0.9665 B(  0-C , 11-H ) :   0.9604
B(  0-C , 12-H ) :   0.9888 B(  1-N ,  2-C ) :   1.3554 B(  1-N ,  7-H ) :   0.9030
B(  2-C ,  3-N ) :   1.3441 B(  2-C ,  4-N ) :   1.3351 B(  3-N ,  8-H ) :   0.8928
B(  3-N ,  9-H ) :   0.8848 B(  4-N ,  5-H ) :   0.8951 B(  4-N ,  6-H ) :   0.8920
B( 10-C , 13-C ) :   0.9551 B( 10-C , 14-H ) :   0.9630 B( 10-C , 15-H ) :   0.9679
B( 13-C , 16-H ) :   0.9588 B( 13-C , 17-H ) :   0.9672 B( 13-C , 18-H ) :   0.9758

Dispersion correction           -0.006059597
FINAL SINGLE POINT ENERGY      -323.737395007633

DIPOLE MOMENT
-------------
                                X             Y             Z
Electronic contribution:      1.23049      -3.54668      -5.58864
Nuclear contribution   :     -1.48325       3.81474       4.74728
                        -----------------------------------------
Total Dipole Moment    :     -0.25276       0.26806      -0.84136
                        -----------------------------------------
Magnitude (a.u.)       :      0.91850
Magnitude (Debye)      :      2.33463

Rotational constants in cm-1:     0.127669     0.058023     0.053953
Rotational constants in MHz :  3827.411023  1739.493733  1617.466565

                             ****ORCA TERMINATED NORMALLY****
TOTAL RUN TIME: 0 days 0 hours 0 minutes 27 seconds 919 msec
