                         Program Version 5.0.0 -  RELEASE  -
|  1> !wB97X-D3 RIJCOSX def2-TZVP def2/J TightSCF xyzfile
|  2>
|  3> *xyzfile 0 1 B.xyz
|  4>
|  5> %MaxCore 64000
|  6>
|  7> %pal nprocs 18
|  8> end
|  9>
| 10> %scf
| 11>   MaxIter 150
| 12> end
| 13>
| 14>
| 15>                          ****END OF INPUT****

CARTESIAN COORDINATES (ANGSTROEM)
---------------------------------
  C      2.234473   -2.989754   -2.397622
  N      2.756799   -2.945553   -3.765029
  C     -1.104325    0.251374   -2.860056
  C     -0.711893    0.842517   -4.218344
  H      0.154626    1.499800   -4.130909
  H     -1.538134    1.459222   -4.582671
  C     -0.397624   -0.205875   -5.288018
  C      1.987208   -2.590451   -4.818975
  N      0.743221   -3.017493   -4.913524
  N      2.499636   -1.848598   -5.803241
  H      3.309780   -1.292818   -5.558947
  H      1.801025   -1.304298   -6.289129
  H      3.716116   -2.628797   -3.829533
  H      0.395828   -3.627747   -4.185024
  H      0.039201   -2.454383   -5.371367
  O      0.617165   -0.005348   -5.998273
  O     -1.133173   -1.221380   -5.341465
  C      2.191199   -1.619503   -1.715492
  H      2.872783   -3.666368   -1.828014
  H      1.246188   -3.447444   -2.407842
  C      1.298729   -0.554314   -2.359773
  H      1.872917   -1.787955   -0.681310
  H      3.216809   -1.238432   -1.654428
  C     -0.196255   -0.863365   -2.325763
  H      1.612531   -0.371346   -3.393065
  H      1.480944    0.388638   -1.834444
  H     -0.404105   -1.761825   -2.909448
  H     -0.490439   -1.087880   -1.294131
  H     -1.143842    1.066711   -2.129680
  H     -2.114401   -0.156834   -2.930323

 Total Charge           Charge          ....    0
 Multiplicity           Mult            ....    1
 Number of Electrons    NEL             ....  102
 Basis Dimension        Dim             ....  505

ORBITAL ENERGIES
----------------

  NO   OCC          E(Eh)            E(eV)
   0   2.0000     -19.142985      -520.9071
   1   2.0000     -19.141415      -520.8644
   2   2.0000     -14.491095      -394.3227
   3   2.0000     -14.459778      -393.4706
   4   2.0000     -14.458984      -393.4490
   5   2.0000     -10.444652      -284.2134
   6   2.0000     -10.351093      -281.6675
   7   2.0000     -10.331872      -281.1445
   8   2.0000     -10.299953      -280.2760
   9   2.0000     -10.279899      -279.7303
  10   2.0000     -10.265957      -279.3509
  11   2.0000     -10.256150      -279.0840
  12   2.0000     -10.242197      -278.7043
  13   2.0000      -1.168713       -31.8023
  14   2.0000      -1.120639       -30.4941
  15   2.0000      -1.061236       -28.8777
  16   2.0000      -1.040336       -28.3090
  17   2.0000      -1.021269       -27.7901
  18   2.0000      -0.937255       -25.5040
  19   2.0000      -0.893240       -24.3063
  20   2.0000      -0.840333       -22.8666
  21   2.0000      -0.794131       -21.6094
  22   2.0000      -0.764520       -20.8036
  23   2.0000      -0.731311       -19.9000
  24   2.0000      -0.718583       -19.5536
  25   2.0000      -0.686444       -18.6791
  26   2.0000      -0.662949       -18.0398
  27   2.0000      -0.637415       -17.3449
  28   2.0000      -0.612712       -16.6727
  29   2.0000      -0.602047       -16.3825
  30   2.0000      -0.583695       -15.8831
  31   2.0000      -0.572905       -15.5895
  32   2.0000      -0.566520       -15.4158
  33   2.0000      -0.549485       -14.9522
  34   2.0000      -0.537181       -14.6174
  35   2.0000      -0.526167       -14.3177
  36   2.0000      -0.510820       -13.9001
  37   2.0000      -0.506113       -13.7720
  38   2.0000      -0.487714       -13.2714
  39   2.0000      -0.476752       -12.9731
  40   2.0000      -0.463256       -12.6058
  41   2.0000      -0.453000       -12.3267
  42   2.0000      -0.438731       -11.9385
  43   2.0000      -0.421906       -11.4807
  44   2.0000      -0.407721       -11.0947
  45   2.0000      -0.401354       -10.9214
  46   2.0000      -0.396967       -10.8020
  47   2.0000      -0.386686       -10.5223
  48   2.0000      -0.321059        -8.7365
  49   2.0000      -0.311209        -8.4684
  50   2.0000      -0.306118        -8.3299
  51   0.0000       0.060683         1.6513
  52   0.0000       0.074549         2.0286
  53   0.0000       0.097795         2.6611
  54   0.0000       0.113996         3.1020
  55   0.0000       0.128258         3.4901

MULLIKEN ATOMIC CHARGES
-----------------------
   0 C :   -0.170568
   1 N :   -0.284851
   2 C :   -0.173353
   3 C :   -0.175057
   4 H :    0.099407
   5 H :    0.110683
   6 C :    0.301773
   7 C :    0.308902
   8 N :   -0.363670
   9 N :   -0.360221
  10 H :    0.241552
  11 H :    0.292507
  12 H :    0.232198
  13 H :    0.247393
  14 H :    0.291950
  15 O :   -0.566735
  16 O :   -0.540260
  17 C :   -0.216454
  18 H :    0.150863
  19 H :    0.130236
  20 C :   -0.189237
  21 H :    0.116989
  22 H :    0.116160
  23 C :   -0.204411
  24 H :    0.118271
  25 H :    0.114842
  26 H :    0.075578
  27 H :    0.095438
  28 H :    0.093917
  29 H :    0.106157
Sum of atomic charges:   -0.0000000

LOEWDIN ATOMIC CHARGES
----------------------
   0 C :   -0.273577
   1 N :    0.123944
   2 C :   -0.263842
   3 C :   -0.245486
   4 H :    0.135455
   5 H :    0.145117
   6 C :   -0.648156
   7 C :   -0.423230
   8 N :    0.088791
   9 N :    0.044263
  10 H :    0.177749
  11 H :    0.175213
  12 H :    0.193744
  13 H :    0.178879
  14 H :    0.168269
  15 O :   -0.077465
  16 O :   -0.066458
  17 C :   -0.269685
  18 H :    0.138886
  19 H :    0.133555
  20 C :   -0.265605
  21 H :    0.144987
  22 H :    0.136248
  23 C :   -0.271599
  24 H :    0.141903
  25 H :    0.142411
  26 H :    0.129513
  27 H :    0.132811
  28 H :    0.131611
  29 H :    0.141753

  Mayer bond orders larger than 0.100000
B(  0-C ,  1-N ) :   0.8738 B(  0-C , 17-C ) :   0.9676 B(  0-C , 18-H ) :   0.9783
B(  0-C , 19-H ) :   0.9893 B(  1-N ,  7-C ) :   1.3011 B(  1-N , 12-H ) :   0.9137
B(  2-C ,  3-C ) :   0.9604 B(  2-C , 23-C ) :   0.9986 B(  2-C , 28-H ) :   0.9755
B(  2-C , 29-H ) :   0.9666 B(  3-C ,  4-H ) :   0.9745 B(  3-C ,  5-H ) :   0.9521
B(  3-C ,  6-C ) :   0.9585 B(  6-C , 15-O ) :   1.7048 B(  6-C , 16-O ) :   1.7038
B(  7-C ,  8-N ) :   1.4149 B(  7-C ,  9-N ) :   1.3780 B(  8-N , 13-H ) :   0.9135
B(  8-N , 14-H ) :   0.7761 B(  9-N , 10-H ) :   0.9136 B(  9-N , 11-H ) :   0.8115
B( 11-H , 15-O ) :   0.1338 B( 14-H , 16-O ) :   0.1773 B( 17-C , 20-C ) :   0.9645
B( 17-C , 21-H ) :   0.9748 B( 17-C , 22-H ) :   0.9818 B( 20-C , 23-C ) :   0.9390
B( 20-C , 24-H ) :   0.9512 B( 20-C , 25-H ) :   0.9706 B( 23-C , 26-H ) :   0.9752
B( 23-C , 27-H ) :   0.9725

Dispersion correction           -0.016101868
FINAL SINGLE POINT ENERGY      -629.908518263514

DIPOLE MOMENT
-------------
                                X             Y             Z
Electronic contribution:      0.62899      -2.86152     -10.23462
Nuclear contribution   :      1.76912       1.50070      12.36652
                        -----------------------------------------
Total Dipole Moment    :      2.39811      -1.36082       2.13191
                        -----------------------------------------
Magnitude (a.u.)       :      3.48537
Magnitude (Debye)      :      8.85910

Rotational constants in cm-1:     0.033272     0.023886     0.017112
Rotational constants in MHz :   997.469575   716.074432   513.001395

                             ****ORCA TERMINATED NORMALLY****
TOTAL RUN TIME: 0 days 0 hours 1 minutes 18 seconds 843 msec
