                         Program Version 5.0.0 -  RELEASE  -
|  1> !wB97X-D3 RIJCOSX def2-TZVP def2/J TightSCF
|  2> *xyz 0 1
|  3> C         -1.10433        0.25137       -2.86006
|  4> C         -0.71189        0.84252       -4.21834
|  5> H          0.15463        1.49980       -4.13091
|  6> H         -1.53813        1.45922       -4.58267
|  7> C         -0.39762       -0.20587       -5.28802
|  8> F          0.61717       -0.00535       -5.99827
|  9> O         -1.13317       -1.22138       -5.34147
| 10> C         -0.19626       -0.86337       -2.32576
| 11> H         -1.14384        1.06671       -2.12968
| 12> H         -2.11440       -0.15683       -2.93032
| 13> H         -0.15538       -1.66172       -3.03700
| 14> H         -0.58845       -1.22999       -1.40020
| 15> H          0.78852       -0.47602       -2.16737
| 16> *
| 17>
| 18> %MaxCore 64000
| 19>
| 20> %pal nprocs 18
| 21> end
| 22>
| 23> %scf
| 24>   MaxIter 150
| 25> end
| 26>
| 27>
| 28>                          ****END OF INPUT****

CARTESIAN COORDINATES (ANGSTROEM)
---------------------------------
  C     -1.104330    0.251370   -2.860060
  C     -0.711890    0.842520   -4.218340
  H      0.154630    1.499800   -4.130910
  H     -1.538130    1.459220   -4.582670
  C     -0.397620   -0.205870   -5.288020
  F      0.617170   -0.005350   -5.998270
  O     -1.133170   -1.221380   -5.341470
  C     -0.196260   -0.863370   -2.325760
  H     -1.143840    1.066710   -2.129680
  H     -2.114400   -0.156830   -2.930320
  H     -0.155380   -1.661720   -3.037000
  H     -0.588450   -1.229990   -1.400200
  H      0.788520   -0.476020   -2.167370

 Total Charge           Charge          ....    0
 Multiplicity           Mult            ....    1
 Number of Electrons    NEL             ....   48
 Basis Dimension        Dim             ....  228

ORBITAL ENERGIES
----------------

  NO   OCC          E(Eh)            E(eV)
   0   2.0000     -24.854522      -676.3259
   1   2.0000     -19.234572      -523.3993
   2   2.0000     -10.454704      -284.4870
   3   2.0000     -10.305725      -280.4330
   4   2.0000     -10.287354      -279.9331
   5   2.0000     -10.261042      -279.2172
   6   2.0000      -1.435384       -39.0588
   7   2.0000      -1.148718       -31.2582
   8   2.0000      -0.927842       -25.2479
   9   2.0000      -0.844100       -22.9691
  10   2.0000      -0.771880       -21.0039
  11   2.0000      -0.718623       -19.5547
  12   2.0000      -0.652576       -17.7575
  13   2.0000      -0.635630       -17.2964
  14   2.0000      -0.613645       -16.6981
  15   2.0000      -0.567602       -15.4452
  16   2.0000      -0.554304       -15.0834
  17   2.0000      -0.515520       -14.0280
  18   2.0000      -0.498460       -13.5638
  19   2.0000      -0.463058       -12.6005
  20   2.0000      -0.450196       -12.2504
  21   2.0000      -0.440765       -11.9938
  22   2.0000      -0.436016       -11.8646
  23   2.0000      -0.388667       -10.5762
  24   0.0000       0.056939         1.5494
  25   0.0000       0.111540         3.0352
  26   0.0000       0.152373         4.1463
  27   0.0000       0.157947         4.2980
  28   0.0000       0.163063         4.4372

MULLIKEN ATOMIC CHARGES
-----------------------
   0 C :   -0.169251
   1 C :   -0.236149
   2 H :    0.120037
   3 H :    0.135609
   4 C :    0.396842
   5 F :   -0.104664
   6 O :   -0.359526
   7 C :   -0.367604
   8 H :    0.106859
   9 H :    0.113380
  10 H :    0.139326
  11 H :    0.119484
  12 H :    0.105658
Sum of atomic charges:    0.0000000

LOEWDIN ATOMIC CHARGES
----------------------
   0 C :   -0.281672
   1 C :   -0.240297
   2 H :    0.142259
   3 H :    0.157424
   4 C :   -0.492709
   5 F :    0.324925
   6 O :    0.060410
   7 C :   -0.300022
   8 H :    0.136255
   9 H :    0.141645
  10 H :    0.120561
  11 H :    0.117954
  12 H :    0.113266

  Mayer bond orders larger than 0.100000
B(  0-C ,  1-C ) :   0.9766 B(  0-C ,  7-C ) :   0.9782 B(  0-C ,  8-H ) :   0.9712
B(  0-C ,  9-H ) :   0.9667 B(  1-C ,  2-H ) :   0.9671 B(  1-C ,  3-H ) :   0.9389
B(  1-C ,  4-C ) :   0.9894 B(  4-C ,  5-F ) :   1.1611 B(  4-C ,  6-O ) :   2.0275
B(  7-C , 10-H ) :   0.9743 B(  7-C , 11-H ) :   0.9764 B(  7-C , 12-H ) :   0.9771

Dispersion correction           -0.003283612
FINAL SINGLE POINT ENERGY      -331.754100561803

DIPOLE MOMENT
-------------
                                X             Y             Z
Electronic contribution:      2.62200      -0.67559     -10.70211
Nuclear contribution   :     -2.39146       1.63977      11.24418
                        -----------------------------------------
Total Dipole Moment    :      0.23055       0.96418       0.54206
                        -----------------------------------------
Magnitude (a.u.)       :      1.12988
Magnitude (Debye)      :      2.87192

Rotational constants in cm-1:     0.198868     0.077542     0.072498
Rotational constants in MHz :  5961.919605  2324.650173  2173.425242

                             ****ORCA TERMINATED NORMALLY****
TOTAL RUN TIME: 0 days 0 hours 0 minutes 18 seconds 580 msec
