                         Program Version 5.0.0 -  RELEASE  -
|  1> !wB97X-D3 RIJCOSX def2-TZVP def2/J TightSCF
|  2> *xyz 0 1
|  3> C          2.23447       -2.98975       -2.39762
|  4> C          2.75680       -2.94555       -3.76503
|  5> C          1.98721       -2.59045       -4.81898
|  6> N          0.74322       -3.01749       -4.91352
|  7> N          2.49964       -1.84860       -5.80324
|  8> H          3.30978       -1.29282       -5.55895
|  9> H          1.80103       -1.30430       -6.28913
| 10> H          3.71612       -2.62880       -3.82953
| 11> H          0.39583       -3.62775       -4.18502
| 12> H          0.03920       -2.45438       -5.37137
| 13> C          2.19120       -1.61950       -1.71549
| 14> H          2.87278       -3.66637       -1.82801
| 15> H          1.24619       -3.44744       -2.40784
| 16> C          1.29873       -0.55431       -2.35977
| 17> H          1.87292       -1.78796       -0.68131
| 18> H          3.21681       -1.23843       -1.65443
| 19> H          1.61097       -0.39090       -3.37007
| 20> H          1.37981        0.35955       -1.80916
| 21> H          0.28197       -0.88750       -2.35015
| 22> *
| 23>
| 24> %MaxCore 64000
| 25>
| 26> %pal nprocs 18
| 27> end
| 28>
| 29> %scf
| 30>   MaxIter 150
| 31> end
| 32>
| 33>
| 34>                          ****END OF INPUT****

CARTESIAN COORDINATES (ANGSTROEM)
---------------------------------
  C      2.234470   -2.989750   -2.397620
  C      2.756800   -2.945550   -3.765030
  C      1.987210   -2.590450   -4.818980
  N      0.743220   -3.017490   -4.913520
  N      2.499640   -1.848600   -5.803240
  H      3.309780   -1.292820   -5.558950
  H      1.801030   -1.304300   -6.289130
  H      3.716120   -2.628800   -3.829530
  H      0.395830   -3.627750   -4.185020
  H      0.039200   -2.454380   -5.371370
  C      2.191200   -1.619500   -1.715490
  H      2.872780   -3.666370   -1.828010
  H      1.246190   -3.447440   -2.407840
  C      1.298730   -0.554310   -2.359770
  H      1.872920   -1.787960   -0.681310
  H      3.216810   -1.238430   -1.654430
  H      1.610970   -0.390900   -3.370070
  H      1.379810    0.359550   -1.809160
  H      0.281970   -0.887500   -2.350150

 Total Charge           Charge          ....    0
 Multiplicity           Mult            ....    1
 Number of Electrons    NEL             ....   56
 Basis Dimension        Dim             ....  289

ORBITAL ENERGIES
----------------

  NO   OCC          E(Eh)            E(eV)
   0   2.0000     -14.425740      -392.5444
   1   2.0000     -14.422790      -392.4641
   2   2.0000     -10.324497      -280.9438
   3   2.0000     -10.255190      -279.0579
   4   2.0000     -10.250248      -278.9234
   5   2.0000     -10.248269      -278.8696
   6   2.0000     -10.196253      -277.4542
   7   2.0000      -1.089366       -29.6432
   8   2.0000      -0.995258       -27.0823
   9   2.0000      -0.903521       -24.5860
  10   2.0000      -0.836741       -22.7689
  11   2.0000      -0.773406       -21.0454
  12   2.0000      -0.708169       -19.2703
  13   2.0000      -0.674870       -18.3642
  14   2.0000      -0.645506       -17.5651
  15   2.0000      -0.610489       -16.6122
  16   2.0000      -0.568718       -15.4756
  17   2.0000      -0.551323       -15.0023
  18   2.0000      -0.540547       -14.7090
  19   2.0000      -0.511058       -13.9066
  20   2.0000      -0.485657       -13.2154
  21   2.0000      -0.471463       -12.8291
  22   2.0000      -0.447337       -12.1727
  23   2.0000      -0.432291       -11.7632
  24   2.0000      -0.408859       -11.1256
  25   2.0000      -0.404808       -11.0154
  26   2.0000      -0.370492       -10.0816
  27   2.0000      -0.245956        -6.6928
  28   0.0000       0.092025         2.5041
  29   0.0000       0.128055         3.4846
  30   0.0000       0.133891         3.6434
  31   0.0000       0.139840         3.8052
  32   0.0000       0.157534         4.2867

MULLIKEN ATOMIC CHARGES
-----------------------
   0 C :   -0.157624
   1 C :   -0.344061
   2 C :    0.255096
   3 N :   -0.472403
   4 N :   -0.451364
   5 H :    0.250235
   6 H :    0.219458
   7 H :    0.072629
   8 H :    0.249926
   9 H :    0.225714
  10 C :   -0.128269
  11 H :    0.100178
  12 H :    0.047543
  13 C :   -0.342770
  14 H :    0.088490
  15 H :    0.079744
  16 H :    0.092791
  17 H :    0.118348
  18 H :    0.096341
Sum of atomic charges:   -0.0000000

LOEWDIN ATOMIC CHARGES
----------------------
   0 C :   -0.294534
   1 C :   -0.283691
   2 C :   -0.467868
   3 N :    0.002495
   4 N :   -0.022001
   5 H :    0.176496
   6 H :    0.164897
   7 H :    0.116249
   8 H :    0.178317
   9 H :    0.161722
  10 C :   -0.285686
  11 H :    0.138414
  12 H :    0.124698
  13 C :   -0.306063
  14 H :    0.128544
  15 H :    0.131191
  16 H :    0.111986
  17 H :    0.113921
  18 H :    0.110911

  Mayer bond orders larger than 0.100000
B(  0-C ,  1-C ) :   0.9931 B(  0-C , 10-C ) :   0.9544 B(  0-C , 11-H ) :   0.9797
B(  0-C , 12-H ) :   0.9882 B(  1-C ,  2-C ) :   1.6370 B(  1-C ,  7-H ) :   1.0457
B(  2-C ,  3-N ) :   1.1572 B(  2-C ,  4-N ) :   1.1586 B(  3-N ,  8-H ) :   0.9218
B(  3-N ,  9-H ) :   0.9143 B(  4-N ,  5-H ) :   0.9216 B(  4-N ,  6-H ) :   0.9263
B( 10-C , 13-C ) :   0.9718 B( 10-C , 14-H ) :   0.9740 B( 10-C , 15-H ) :   0.9755
B( 13-C , 16-H ) :   0.9781 B( 13-C , 17-H ) :   0.9801 B( 13-C , 18-H ) :   0.9820

Dispersion correction           -0.006035613
FINAL SINGLE POINT ENERGY      -307.252452833226

DIPOLE MOMENT
-------------
                                X             Y             Z
Electronic contribution:      0.53619      -2.80428      -5.06858
Nuclear contribution   :     -1.30515       3.65216       4.73330
                        -----------------------------------------
Total Dipole Moment    :     -0.76896       0.84788      -0.33528
                        -----------------------------------------
Magnitude (a.u.)       :      1.19273
Magnitude (Debye)      :      3.03169

Rotational constants in cm-1:     0.129987     0.058163     0.054282
Rotational constants in MHz :  3896.918182  1743.696851  1627.337267

                             ****ORCA TERMINATED NORMALLY****
TOTAL RUN TIME: 0 days 0 hours 0 minutes 27 seconds 613 msec
