                         Program Version 5.0.0 -  RELEASE  -
|  1> !wB97X-D3 RIJCOSX def2-TZVP def2/J TightSCF
|  2> *xyz 0 1
|  3> C         -1.10433        0.25137       -2.86006
|  4> C         -0.71189        0.84252       -4.21834
|  5> H          0.15463        1.49980       -4.13091
|  6> H         -1.53813        1.45922       -4.58267
|  7> C         -0.39762       -0.20587       -5.28802
|  8> O          0.61717       -0.00535       -5.99827
|  9> F         -1.13317       -1.22138       -5.34147
| 10> C         -0.19626       -0.86337       -2.32576
| 11> H         -1.14384        1.06671       -2.12968
| 12> H         -2.11440       -0.15683       -2.93032
| 13> H         -0.15538       -1.66172       -3.03700
| 14> H         -0.58845       -1.22999       -1.40020
| 15> H          0.78852       -0.47602       -2.16737
| 16> *
| 17>
| 18> %MaxCore 64000
| 19>
| 20> %pal nprocs 18
| 21> end
| 22>
| 23> %scf
| 24>   MaxIter 150
| 25> end
| 26>
| 27>
| 28>                          ****END OF INPUT****

CARTESIAN COORDINATES (ANGSTROEM)
---------------------------------
  C     -1.104330    0.251370   -2.860060
  C     -0.711890    0.842520   -4.218340
  H      0.154630    1.499800   -4.130910
  H     -1.538130    1.459220   -4.582670
  C     -0.397620   -0.205870   -5.288020
  O      0.617170   -0.005350   -5.998270
  F     -1.133170   -1.221380   -5.341470
  C     -0.196260   -0.863370   -2.325760
  H     -1.143840    1.066710   -2.129680
  H     -2.114400   -0.156830   -2.930320
  H     -0.155380   -1.661720   -3.037000
  H     -0.588450   -1.229990   -1.400200
  H      0.788520   -0.476020   -2.167370

 Total Charge           Charge          ....    0
 Multiplicity           Mult            ....    1
 Number of Electrons    NEL             ....   48
 Basis Dimension        Dim             ....  228

ORBITAL ENERGIES
----------------

  NO   OCC          E(Eh)            E(eV)
   0   2.0000     -24.855290      -676.3468
   1   2.0000     -19.233087      -523.3589
   2   2.0000     -10.453423      -284.4521
   3   2.0000     -10.304489      -280.3994
   4   2.0000     -10.292404      -280.0705
   5   2.0000     -10.269278      -279.4413
   6   2.0000      -1.435985       -39.0751
   7   2.0000      -1.146747       -31.2046
   8   2.0000      -0.933480       -25.4013
   9   2.0000      -0.844711       -22.9857
  10   2.0000      -0.771765       -21.0008
  11   2.0000      -0.725805       -19.7502
  12   2.0000      -0.655320       -17.8322
  13   2.0000      -0.646622       -17.5955
  14   2.0000      -0.596113       -16.2211
  15   2.0000      -0.574894       -15.6436
  16   2.0000      -0.555239       -15.1088
  17   2.0000      -0.518589       -14.1115
  18   2.0000      -0.499493       -13.5919
  19   2.0000      -0.472255       -12.8507
  20   2.0000      -0.459551       -12.5050
  21   2.0000      -0.446984       -12.1631
  22   2.0000      -0.435997       -11.8641
  23   2.0000      -0.382820       -10.4171
  24   0.0000       0.060920         1.6577
  25   0.0000       0.106267         2.8917
  26   0.0000       0.148937         4.0528
  27   0.0000       0.156668         4.2632
  28   0.0000       0.162563         4.4236

MULLIKEN ATOMIC CHARGES
-----------------------
   0 C :   -0.193983
   1 C :   -0.223701
   2 H :    0.140837
   3 H :    0.129900
   4 C :    0.378684
   5 O :   -0.353281
   6 F :   -0.108010
   7 C :   -0.346008
   8 H :    0.111745
   9 H :    0.105858
  10 H :    0.117793
  11 H :    0.122333
  12 H :    0.117835
Sum of atomic charges:    0.0000000

LOEWDIN ATOMIC CHARGES
----------------------
   0 C :   -0.291045
   1 C :   -0.235845
   2 H :    0.154886
   3 H :    0.153301
   4 C :   -0.496332
   5 O :    0.058572
   6 F :    0.327860
   7 C :   -0.298040
   8 H :    0.137950
   9 H :    0.136385
  10 H :    0.115885
  11 H :    0.118409
  12 H :    0.118014

  Mayer bond orders larger than 0.100000
B(  0-C ,  1-C ) :   0.9621 B(  0-C ,  7-C ) :   0.9769 B(  0-C ,  8-H ) :   0.9709
B(  0-C ,  9-H ) :   0.9720 B(  1-C ,  2-H ) :   0.9671 B(  1-C ,  3-H ) :   0.9451
B(  1-C ,  4-C ) :   0.9994 B(  4-C ,  5-O ) :   2.0474 B(  4-C ,  6-F ) :   1.1480
B(  7-C , 10-H ) :   0.9774 B(  7-C , 11-H ) :   0.9755 B(  7-C , 12-H ) :   0.9750

Dispersion correction           -0.003297995
FINAL SINGLE POINT ENERGY      -331.753126855504

DIPOLE MOMENT
-------------
                                X             Y             Z
Electronic contribution:     -0.35799      -2.72989      -9.52283
Nuclear contribution   :     -0.41432       3.01336      10.50227
                        -----------------------------------------
Total Dipole Moment    :     -0.77231       0.28347       0.97944
                        -----------------------------------------
Magnitude (a.u.)       :      1.27911
Magnitude (Debye)      :      3.25124

Rotational constants in cm-1:     0.192167     0.080512     0.073747
Rotational constants in MHz :  5761.018137  2413.690728  2210.882638

                             ****ORCA TERMINATED NORMALLY****
TOTAL RUN TIME: 0 days 0 hours 0 minutes 14 seconds 38 msec
