                         Program Version 5.0.0 -  RELEASE  -
|  1> !wB97X-D3 RIJCOSX def2-TZVP def2/J TightSCF
|  2> *xyz 0 1
|  3> C          2.23447       -2.98975       -2.39762
|  4> N          2.75680       -2.94555       -3.76503
|  5> C          1.98721       -2.59045       -4.81898
|  6> C          0.74322       -3.01749       -4.91352
|  7> N          2.49964       -1.84860       -5.80324
|  8> H          3.30978       -1.29282       -5.55895
|  9> H          1.80103       -1.30430       -6.28913
| 10> H          3.71612       -2.62880       -3.82953
| 11> H          0.39583       -3.62775       -4.18502
| 12> H          0.03920       -2.45438       -5.37137
| 13> C          2.19120       -1.61950       -1.71549
| 14> H          2.87278       -3.66637       -1.82801
| 15> H          1.24619       -3.44744       -2.40784
| 16> C          1.29873       -0.55431       -2.35977
| 17> H          1.87292       -1.78796       -0.68131
| 18> H          3.21681       -1.23843       -1.65443
| 19> H          1.61097       -0.39090       -3.37007
| 20> H          1.37981        0.35955       -1.80916
| 21> H          0.28197       -0.88750       -2.35015
| 22> *
| 23>
| 24> %MaxCore 64000
| 25>
| 26> %pal nprocs 18
| 27> end
| 28>
| 29> %scf
| 30>   MaxIter 150
| 31> end
| 32>
| 33>
| 34>                          ****END OF INPUT****

CARTESIAN COORDINATES (ANGSTROEM)
---------------------------------
  C      2.234470   -2.989750   -2.397620
  N      2.756800   -2.945550   -3.765030
  C      1.987210   -2.590450   -4.818980
  C      0.743220   -3.017490   -4.913520
  N      2.499640   -1.848600   -5.803240
  H      3.309780   -1.292820   -5.558950
  H      1.801030   -1.304300   -6.289130
  H      3.716120   -2.628800   -3.829530
  H      0.395830   -3.627750   -4.185020
  H      0.039200   -2.454380   -5.371370
  C      2.191200   -1.619500   -1.715490
  H      2.872780   -3.666370   -1.828010
  H      1.246190   -3.447440   -2.407840
  C      1.298730   -0.554310   -2.359770
  H      1.872920   -1.787960   -0.681310
  H      3.216810   -1.238430   -1.654430
  H      1.610970   -0.390900   -3.370070
  H      1.379810    0.359550   -1.809160
  H      0.281970   -0.887500   -2.350150

 Total Charge           Charge          ....    0
 Multiplicity           Mult            ....    1
 Number of Electrons    NEL             ....   56
 Basis Dimension        Dim             ....  289

ORBITAL ENERGIES
----------------

  NO   OCC          E(Eh)            E(eV)
   0   2.0000     -14.423023      -392.4704
   1   2.0000     -14.421306      -392.4237
   2   2.0000     -10.321058      -280.8503
   3   2.0000     -10.306054      -280.4420
   4   2.0000     -10.274774      -279.5908
   5   2.0000     -10.256865      -279.1035
   6   2.0000     -10.187055      -277.2039
   7   2.0000      -1.086241       -29.5581
   8   2.0000      -1.005034       -27.3484
   9   2.0000      -0.894902       -24.3515
  10   2.0000      -0.834487       -22.7076
  11   2.0000      -0.801218       -21.8022
  12   2.0000      -0.714531       -19.4434
  13   2.0000      -0.667051       -18.1514
  14   2.0000      -0.644467       -17.5368
  15   2.0000      -0.612369       -16.6634
  16   2.0000      -0.572252       -15.5718
  17   2.0000      -0.556374       -15.1397
  18   2.0000      -0.524159       -14.2631
  19   2.0000      -0.509566       -13.8660
  20   2.0000      -0.498652       -13.5690
  21   2.0000      -0.476190       -12.9578
  22   2.0000      -0.462533       -12.5862
  23   2.0000      -0.452308       -12.3079
  24   2.0000      -0.438010       -11.9189
  25   2.0000      -0.427961       -11.6454
  26   2.0000      -0.345431        -9.3997
  27   2.0000      -0.262651        -7.1471
  28   0.0000       0.096123         2.6156
  29   0.0000       0.124468         3.3869
  30   0.0000       0.131690         3.5835
  31   0.0000       0.149043         4.0557
  32   0.0000       0.161066         4.3828

MULLIKEN ATOMIC CHARGES
-----------------------
   0 C :   -0.094629
   1 N :   -0.336009
   2 C :    0.274616
   3 C :   -0.449562
   4 N :   -0.457351
   5 H :    0.210331
   6 H :    0.246474
   7 H :    0.195132
   8 H :    0.073358
   9 H :    0.095313
  10 C :   -0.203863
  11 H :    0.119892
  12 H :    0.117408
  13 C :   -0.300541
  14 H :    0.096372
  15 H :    0.086342
  16 H :    0.094493
  17 H :    0.119139
  18 H :    0.113086
Sum of atomic charges:   -0.0000000

LOEWDIN ATOMIC CHARGES
----------------------
   0 C :   -0.278917
   1 N :    0.100794
   2 C :   -0.468801
   3 C :   -0.316732
   4 N :   -0.024995
   5 H :    0.156289
   6 H :    0.180303
   7 H :    0.175055
   8 H :    0.098257
   9 H :    0.097659
  10 C :   -0.297404
  11 H :    0.131398
  12 H :    0.137099
  13 C :   -0.300578
  14 H :    0.135049
  15 H :    0.128855
  16 H :    0.114136
  17 H :    0.114225
  18 H :    0.118310

  Mayer bond orders larger than 0.100000
B(  0-C ,  1-N ) :   0.9144 B(  0-C , 10-C ) :   0.9872 B(  0-C , 11-H ) :   0.9801
B(  0-C , 12-H ) :   0.9790 B(  1-N ,  2-C ) :   1.1288 B(  1-N ,  7-H ) :   0.9305
B(  2-C ,  3-C ) :   1.6475 B(  2-C ,  4-N ) :   1.1533 B(  3-C ,  8-H ) :   1.0200
B(  3-C ,  9-H ) :   0.9798 B(  4-N ,  5-H ) :   0.9269 B(  4-N ,  6-H ) :   0.9212
B( 10-C , 13-C ) :   0.9747 B( 10-C , 14-H ) :   0.9705 B( 10-C , 15-H ) :   0.9779
B( 13-C , 16-H ) :   0.9759 B( 13-C , 17-H ) :   0.9775 B( 13-C , 18-H ) :   0.9769

Dispersion correction           -0.006060786
FINAL SINGLE POINT ENERGY      -307.247744102369

DIPOLE MOMENT
-------------
                                X             Y             Z
Electronic contribution:      2.38664      -2.65832      -3.89367
Nuclear contribution   :     -1.74624       3.63640       4.48172
                        -----------------------------------------
Total Dipole Moment    :      0.64040       0.97808       0.58805
                        -----------------------------------------
Magnitude (a.u.)       :      1.30865
Magnitude (Debye)      :      3.32632

Rotational constants in cm-1:     0.131012     0.059513     0.054636
Rotational constants in MHz :  3927.631151  1784.169731  1637.945644

                             ****ORCA TERMINATED NORMALLY****
TOTAL RUN TIME: 0 days 0 hours 0 minutes 23 seconds 324 msec
