                         Program Version 5.0.0 -  RELEASE  -
|  1> !wB97X-D3 RIJCOSX def2-TZVP def2/J TightSCF
|  2> *xyz 0 1
|  3> C          2.23447       -2.98975       -2.39762
|  4> N          2.75680       -2.94555       -3.76503
|  5> C          1.98721       -2.59045       -4.81898
|  6> N          0.74322       -3.01749       -4.91352
|  7> C          2.49964       -1.84860       -5.80324
|  8> H          3.30978       -1.29282       -5.55895
|  9> H          1.80103       -1.30430       -6.28913
| 10> H          3.71612       -2.62880       -3.82953
| 11> H          0.39583       -3.62775       -4.18502
| 12> H          0.03920       -2.45438       -5.37137
| 13> C          2.19120       -1.61950       -1.71549
| 14> H          2.87278       -3.66637       -1.82801
| 15> H          1.24619       -3.44744       -2.40784
| 16> C          1.29873       -0.55431       -2.35977
| 17> H          1.87292       -1.78796       -0.68131
| 18> H          3.21681       -1.23843       -1.65443
| 19> H          1.61097       -0.39090       -3.37007
| 20> H          1.37981        0.35955       -1.80916
| 21> H          0.28197       -0.88750       -2.35015
| 22> *
| 23>
| 24> %MaxCore 64000
| 25>
| 26> %pal nprocs 18
| 27> end
| 28>
| 29> %scf
| 30>   MaxIter 150
| 31> end
| 32>
| 33>
| 34>                          ****END OF INPUT****

CARTESIAN COORDINATES (ANGSTROEM)
---------------------------------
  C      2.234470   -2.989750   -2.397620
  N      2.756800   -2.945550   -3.765030
  C      1.987210   -2.590450   -4.818980
  N      0.743220   -3.017490   -4.913520
  C      2.499640   -1.848600   -5.803240
  H      3.309780   -1.292820   -5.558950
  H      1.801030   -1.304300   -6.289130
  H      3.716120   -2.628800   -3.829530
  H      0.395830   -3.627750   -4.185020
  H      0.039200   -2.454380   -5.371370
  C      2.191200   -1.619500   -1.715490
  H      2.872780   -3.666370   -1.828010
  H      1.246190   -3.447440   -2.407840
  C      1.298730   -0.554310   -2.359770
  H      1.872920   -1.787960   -0.681310
  H      3.216810   -1.238430   -1.654430
  H      1.610970   -0.390900   -3.370070
  H      1.379810    0.359550   -1.809160
  H      0.281970   -0.887500   -2.350150

 Total Charge           Charge          ....    0
 Multiplicity           Mult            ....    1
 Number of Electrons    NEL             ....   56
 Basis Dimension        Dim             ....  289

ORBITAL ENERGIES
----------------

  NO   OCC          E(Eh)            E(eV)
   0   2.0000     -14.423660      -392.4877
   1   2.0000     -14.422719      -392.4621
   2   2.0000     -10.325990      -280.9845
   3   2.0000     -10.314459      -280.6707
   4   2.0000     -10.277991      -279.6784
   5   2.0000     -10.259103      -279.1644
   6   2.0000     -10.183273      -277.1010
   7   2.0000      -1.088530       -29.6204
   8   2.0000      -1.005114       -27.3505
   9   2.0000      -0.902229       -24.5509
  10   2.0000      -0.842719       -22.9316
  11   2.0000      -0.788147       -21.4466
  12   2.0000      -0.709486       -19.3061
  13   2.0000      -0.706585       -19.2271
  14   2.0000      -0.642914       -17.4946
  15   2.0000      -0.593690       -16.1551
  16   2.0000      -0.588346       -16.0097
  17   2.0000      -0.551798       -15.0152
  18   2.0000      -0.547502       -14.8983
  19   2.0000      -0.503511       -13.7012
  20   2.0000      -0.488139       -13.2829
  21   2.0000      -0.477927       -13.0050
  22   2.0000      -0.463673       -12.6172
  23   2.0000      -0.454549       -12.3689
  24   2.0000      -0.438137       -11.9223
  25   2.0000      -0.435513       -11.8509
  26   2.0000      -0.347640        -9.4598
  27   2.0000      -0.258582        -7.0364
  28   0.0000       0.098696         2.6856
  29   0.0000       0.121384         3.3030
  30   0.0000       0.128251         3.4899
  31   0.0000       0.140248         3.8163
  32   0.0000       0.152835         4.1589

MULLIKEN ATOMIC CHARGES
-----------------------
   0 C :   -0.138430
   1 N :   -0.314589
   2 C :    0.238567
   3 N :   -0.473997
   4 C :   -0.399920
   5 H :    0.065685
   6 H :    0.064901
   7 H :    0.225880
   8 H :    0.226825
   9 H :    0.255992
  10 C :   -0.173630
  11 H :    0.127577
  12 H :    0.090036
  13 C :   -0.332461
  14 H :    0.093450
  15 H :    0.094248
  16 H :    0.129908
  17 H :    0.121963
  18 H :    0.097995
Sum of atomic charges:    0.0000000

LOEWDIN ATOMIC CHARGES
----------------------
   0 C :   -0.293447
   1 N :    0.102467
   2 C :   -0.466211
   3 N :    0.005509
   4 C :   -0.352593
   5 H :    0.094040
   6 H :    0.099409
   7 H :    0.191936
   8 H :    0.163652
   9 H :    0.179013
  10 C :   -0.296918
  11 H :    0.132984
  12 H :    0.124475
  13 C :   -0.301808
  14 H :    0.134142
  15 H :    0.132731
  16 H :    0.121564
  17 H :    0.116596
  18 H :    0.112459

  Mayer bond orders larger than 0.100000
B(  0-C ,  1-N ) :   0.9441 B(  0-C , 10-C ) :   0.9679 B(  0-C , 11-H ) :   0.9792
B(  0-C , 12-H ) :   0.9920 B(  1-N ,  2-C ) :   1.1834 B(  1-N ,  7-H ) :   0.9252
B(  2-C ,  3-N ) :   1.1087 B(  2-C ,  4-C ) :   1.7179 B(  3-N ,  8-H ) :   0.9297
B(  3-N ,  9-H ) :   0.9161 B(  4-C ,  5-H ) :   1.0114 B(  4-C ,  6-H ) :   0.9972
B( 10-C , 13-C ) :   0.9656 B( 10-C , 14-H ) :   0.9691 B( 10-C , 15-H ) :   0.9727
B( 13-C , 16-H ) :   0.9701 B( 13-C , 17-H ) :   0.9767 B( 13-C , 18-H ) :   0.9805

Dispersion correction           -0.006083774
FINAL SINGLE POINT ENERGY      -307.242917546969

DIPOLE MOMENT
-------------
                                X             Y             Z
Electronic contribution:      0.72876      -3.82842      -3.00254
Nuclear contribution   :     -1.36148       3.89245       4.28682
                        -----------------------------------------
Total Dipole Moment    :     -0.63273       0.06403       1.28429
                        -----------------------------------------
Magnitude (a.u.)       :      1.43312
Magnitude (Debye)      :      3.64271

Rotational constants in cm-1:     0.130039     0.059901     0.055416
Rotational constants in MHz :  3898.472533  1795.778295  1661.317267

                             ****ORCA TERMINATED NORMALLY****
TOTAL RUN TIME: 0 days 0 hours 0 minutes 24 seconds 142 msec
