                         Program Version 5.0.0 -  RELEASE  -
|  1> !wB97X-D3 RIJCOSX def2-TZVP def2/J TightSCF xyzfile
|  2>
|  3> *xyzfile 0 1 D1.xyz
|  4>
|  5> %MaxCore 64000
|  6>
|  7> %pal nprocs 18
|  8> end
|  9>
| 10> %scf
| 11>   MaxIter 150
| 12> end
| 13>
| 14>
| 15>                          ****END OF INPUT****

CARTESIAN COORDINATES (ANGSTROEM)
---------------------------------
  C      2.234473   -2.989754   -2.397622
  C      2.756799   -2.945553   -3.765029
  C     -1.104325    0.251374   -2.860056
  C     -0.711893    0.842517   -4.218344
  H      0.154626    1.499800   -4.130909
  H     -1.538134    1.459222   -4.582671
  C     -0.397624   -0.205875   -5.288018
  C      1.987208   -2.590451   -4.818975
  N      0.743221   -3.017493   -4.913524
  N      2.499636   -1.848598   -5.803241
  H      3.309780   -1.292818   -5.558947
  H      1.801025   -1.304298   -6.289129
  H      3.716116   -2.628797   -3.829533
  H      0.395828   -3.627747   -4.185024
  H      0.039201   -2.454383   -5.371367
  F      0.617165   -0.005348   -5.998273
  O     -1.133173   -1.221380   -5.341465
  C      2.191199   -1.619503   -1.715492
  H      2.872783   -3.666368   -1.828014
  H      1.246188   -3.447444   -2.407842
  C      1.298729   -0.554314   -2.359773
  H      1.872917   -1.787955   -0.681310
  H      3.216809   -1.238432   -1.654428
  C     -0.196255   -0.863365   -2.325763
  H      1.612531   -0.371346   -3.393065
  H      1.480944    0.388638   -1.834444
  H     -0.404105   -1.761825   -2.909448
  H     -0.490439   -1.087880   -1.294131
  H     -1.143842    1.066711   -2.129680
  H     -2.114401   -0.156834   -2.930323

 Total Charge           Charge          ....    0
 Multiplicity           Mult            ....    1
 Number of Electrons    NEL             ....  102
 Basis Dimension        Dim             ....  505

ORBITAL ENERGIES
----------------

  NO   OCC          E(Eh)            E(eV)
   0   2.0000     -24.891862      -677.3420
   1   2.0000     -19.268204      -524.3145
   2   2.0000     -14.408042      -392.0628
   3   2.0000     -14.398317      -391.7981
   4   2.0000     -10.486032      -285.3395
   5   2.0000     -10.321328      -280.8576
   6   2.0000     -10.312646      -280.6214
   7   2.0000     -10.295123      -280.1445
   8   2.0000     -10.274164      -279.5742
   9   2.0000     -10.270272      -279.4683
  10   2.0000     -10.257177      -279.1120
  11   2.0000     -10.245976      -278.8072
  12   2.0000     -10.184992      -277.1477
  13   2.0000      -1.474713       -40.1290
  14   2.0000      -1.187498       -32.3135
  15   2.0000      -1.075101       -29.2550
  16   2.0000      -0.979990       -26.6669
  17   2.0000      -0.949472       -25.8364
  18   2.0000      -0.907632       -24.6979
  19   2.0000      -0.869693       -23.6655
  20   2.0000      -0.824060       -22.4238
  21   2.0000      -0.801243       -21.8029
  22   2.0000      -0.764705       -20.8087
  23   2.0000      -0.724422       -19.7125
  24   2.0000      -0.698287       -19.0013
  25   2.0000      -0.688325       -18.7303
  26   2.0000      -0.676517       -18.4090
  27   2.0000      -0.656968       -17.8770
  28   2.0000      -0.649263       -17.6674
  29   2.0000      -0.621160       -16.9026
  30   2.0000      -0.596222       -16.2240
  31   2.0000      -0.584979       -15.9181
  32   2.0000      -0.577803       -15.7228
  33   2.0000      -0.555789       -15.1238
  34   2.0000      -0.544614       -14.8197
  35   2.0000      -0.537956       -14.6385
  36   2.0000      -0.521783       -14.1984
  37   2.0000      -0.508168       -13.8280
  38   2.0000      -0.492430       -13.3997
  39   2.0000      -0.484661       -13.1883
  40   2.0000      -0.473081       -12.8732
  41   2.0000      -0.465073       -12.6553
  42   2.0000      -0.453300       -12.3349
  43   2.0000      -0.441091       -12.0027
  44   2.0000      -0.431109       -11.7311
  45   2.0000      -0.421046       -11.4572
  46   2.0000      -0.409741       -11.1496
  47   2.0000      -0.403062       -10.9679
  48   2.0000      -0.396732       -10.7956
  49   2.0000      -0.351536        -9.5658
  50   2.0000      -0.234507        -6.3813
  51   0.0000       0.025330         0.6893
  52   0.0000       0.099822         2.7163
  53   0.0000       0.124108         3.3772
  54   0.0000       0.127936         3.4813
  55   0.0000       0.131090         3.5671

MULLIKEN ATOMIC CHARGES
-----------------------
   0 C :   -0.183971
   1 C :   -0.322338
   2 C :   -0.184248
   3 C :   -0.226996
   4 H :    0.141254
   5 H :    0.153256
   6 C :    0.395400
   7 C :    0.144409
   8 N :   -0.424865
   9 N :   -0.418008
  10 H :    0.243599
  11 H :    0.213693
  12 H :    0.064423
  13 H :    0.236145
  14 H :    0.237038
  15 F :   -0.123502
  16 O :   -0.369152
  17 C :   -0.157304
  18 H :    0.102534
  19 H :    0.067831
  20 C :   -0.156603
  21 H :    0.090624
  22 H :    0.093279
  23 C :   -0.250336
  24 H :    0.080180
  25 H :    0.100530
  26 H :    0.099562
  27 H :    0.110435
  28 H :    0.119312
  29 H :    0.123816
Sum of atomic charges:   -0.0000000

LOEWDIN ATOMIC CHARGES
----------------------
   0 C :   -0.292734
   1 C :   -0.289652
   2 C :   -0.254744
   3 C :   -0.232436
   4 H :    0.146945
   5 H :    0.160261
   6 C :   -0.482663
   7 C :   -0.480501
   8 N :    0.014243
   9 N :   -0.020238
  10 H :    0.172460
  11 H :    0.151455
  12 H :    0.114083
  13 H :    0.173040
  14 H :    0.145086
  15 F :    0.333630
  16 O :    0.075059
  17 C :   -0.259349
  18 H :    0.138022
  19 H :    0.126181
  20 C :   -0.266077
  21 H :    0.132425
  22 H :    0.135259
  23 C :   -0.267719
  24 H :    0.132607
  25 H :    0.135373
  26 H :    0.133944
  27 H :    0.139640
  28 H :    0.141722
  29 H :    0.144678

  Mayer bond orders larger than 0.100000
B(  0-C ,  1-C ) :   0.9757 B(  0-C , 17-C ) :   0.9478 B(  0-C , 18-H ) :   0.9867
B(  0-C , 19-H ) :   0.9916 B(  1-C ,  7-C ) :   1.6859 B(  1-C , 12-H ) :   1.0375
B(  2-C ,  3-C ) :   0.9621 B(  2-C , 23-C ) :   0.9774 B(  2-C , 28-H ) :   0.9715
B(  2-C , 29-H ) :   0.9716 B(  3-C ,  4-H ) :   0.9617 B(  3-C ,  5-H ) :   0.9391
B(  3-C ,  6-C ) :   0.9999 B(  6-C , 15-F ) :   1.1072 B(  6-C , 16-O ) :   1.9522
B(  7-C ,  8-N ) :   1.2178 B(  7-C ,  9-N ) :   1.1524 B(  8-N , 13-H ) :   0.9246
B(  8-N , 14-H ) :   0.8748 B(  9-N , 10-H ) :   0.9231 B(  9-N , 11-H ) :   0.9256
B( 17-C , 20-C ) :   0.9964 B( 17-C , 21-H ) :   0.9750 B( 17-C , 22-H ) :   0.9772
B( 20-C , 23-C ) :   0.9311 B( 20-C , 24-H ) :   0.9558 B( 20-C , 25-H ) :   0.9736
B( 23-C , 26-H ) :   0.9811 B( 23-C , 27-H ) :   0.9755

Dispersion correction           -0.015947558
FINAL SINGLE POINT ENERGY      -637.799127496837

DIPOLE MOMENT
-------------
                                X             Y             Z
Electronic contribution:     -3.11552       2.28691     -14.55646
Nuclear contribution   :      2.31842      -0.27661      14.74721
                        -----------------------------------------
Total Dipole Moment    :     -0.79709       2.01030       0.19075
                        -----------------------------------------
Magnitude (a.u.)       :      2.17096
Magnitude (Debye)      :      5.51813

Rotational constants in cm-1:     0.032691     0.023990     0.017099
Rotational constants in MHz :   980.050971   719.190545   512.606858

                             ****ORCA TERMINATED NORMALLY****
TOTAL RUN TIME: 0 days 0 hours 1 minutes 14 seconds 924 msec
