                         Program Version 5.0.0 -  RELEASE  -
|  1> !wB97X-D3 RIJCOSX def2-TZVP def2/J TightSCF xyzfile
|  2>
|  3> *xyzfile 0 1 D3.xyz
|  4>
|  5> %MaxCore 64000
|  6>
|  7> %pal nprocs 18
|  8> end
|  9>
| 10> %scf
| 11>   MaxIter 150
| 12> end
| 13>
| 14>
| 15>                          ****END OF INPUT****

CARTESIAN COORDINATES (ANGSTROEM)
---------------------------------
  C      2.234473   -2.989754   -2.397622
  N      2.756799   -2.945553   -3.765029
  C     -1.104325    0.251374   -2.860056
  C     -0.711893    0.842517   -4.218344
  H      0.154626    1.499800   -4.130909
  H     -1.538134    1.459222   -4.582671
  C     -0.397624   -0.205875   -5.288018
  C      1.987208   -2.590451   -4.818975
  N      0.743221   -3.017493   -4.913524
  C      2.499636   -1.848598   -5.803241
  H      3.309780   -1.292818   -5.558947
  H      1.801025   -1.304298   -6.289129
  H      3.716116   -2.628797   -3.829533
  H      0.395828   -3.627747   -4.185024
  H      0.039201   -2.454383   -5.371367
  F      0.617165   -0.005348   -5.998273
  O     -1.133173   -1.221380   -5.341465
  C      2.191199   -1.619503   -1.715492
  H      2.872783   -3.666368   -1.828014
  H      1.246188   -3.447444   -2.407842
  C      1.298729   -0.554314   -2.359773
  H      1.872917   -1.787955   -0.681310
  H      3.216809   -1.238432   -1.654428
  C     -0.196255   -0.863365   -2.325763
  H      1.612531   -0.371346   -3.393065
  H      1.480944    0.388638   -1.834444
  H     -0.404105   -1.761825   -2.909448
  H     -0.490439   -1.087880   -1.294131
  H     -1.143842    1.066711   -2.129680
  H     -2.114401   -0.156834   -2.930323

 Total Charge           Charge          ....    0
 Multiplicity           Mult            ....    1
 Number of Electrons    NEL             ....  102
 Basis Dimension        Dim             ....  505

ORBITAL ENERGIES
----------------

  NO   OCC          E(Eh)            E(eV)
   0   2.0000     -24.867682      -676.6840
   1   2.0000     -19.256401      -523.9933
   2   2.0000     -14.413915      -392.2226
   3   2.0000     -14.395727      -391.7277
   4   2.0000     -10.474698      -285.0310
   5   2.0000     -10.315671      -280.7037
   6   2.0000     -10.312889      -280.6280
   7   2.0000     -10.310275      -280.5568
   8   2.0000     -10.295357      -280.1509
   9   2.0000     -10.279783      -279.7271
  10   2.0000     -10.279674      -279.7242
  11   2.0000     -10.279264      -279.7130
  12   2.0000     -10.168877      -276.7092
  13   2.0000      -1.451466       -39.4964
  14   2.0000      -1.176212       -32.0063
  15   2.0000      -1.075610       -29.2688
  16   2.0000      -0.991536       -26.9811
  17   2.0000      -0.948403       -25.8074
  18   2.0000      -0.908019       -24.7084
  19   2.0000      -0.860639       -23.4192
  20   2.0000      -0.824400       -22.4331
  21   2.0000      -0.800576       -21.7848
  22   2.0000      -0.764520       -20.8036
  23   2.0000      -0.728719       -19.8295
  24   2.0000      -0.702831       -19.1250
  25   2.0000      -0.688397       -18.7322
  26   2.0000      -0.665833       -18.1182
  27   2.0000      -0.648496       -17.6465
  28   2.0000      -0.636808       -17.3284
  29   2.0000      -0.628301       -17.0969
  30   2.0000      -0.596546       -16.2328
  31   2.0000      -0.583084       -15.8665
  32   2.0000      -0.575471       -15.6594
  33   2.0000      -0.563174       -15.3247
  34   2.0000      -0.548975       -14.9384
  35   2.0000      -0.535276       -14.5656
  36   2.0000      -0.513229       -13.9657
  37   2.0000      -0.508299       -13.8315
  38   2.0000      -0.488648       -13.2968
  39   2.0000      -0.478349       -13.0165
  40   2.0000      -0.474638       -12.9156
  41   2.0000      -0.465203       -12.6588
  42   2.0000      -0.458219       -12.4688
  43   2.0000      -0.453458       -12.3392
  44   2.0000      -0.440685       -11.9916
  45   2.0000      -0.428693       -11.6653
  46   2.0000      -0.425939       -11.5904
  47   2.0000      -0.417893       -11.3715
  48   2.0000      -0.404712       -11.0128
  49   2.0000      -0.333272        -9.0688
  50   2.0000      -0.246442        -6.7060
  51   0.0000       0.036417         0.9910
  52   0.0000       0.100903         2.7457
  53   0.0000       0.118058         3.2125
  54   0.0000       0.120194         3.2706
  55   0.0000       0.134332         3.6554

MULLIKEN ATOMIC CHARGES
-----------------------
   0 C :   -0.169683
   1 N :   -0.299263
   2 C :   -0.187008
   3 C :   -0.229315
   4 H :    0.142018
   5 H :    0.150837
   6 C :    0.407772
   7 C :    0.192495
   8 N :   -0.441150
   9 C :   -0.403569
  10 H :    0.063575
  11 H :    0.054388
  12 H :    0.220930
  13 H :    0.214299
  14 H :    0.257343
  15 F :   -0.090619
  16 O :   -0.387355
  17 C :   -0.198387
  18 H :    0.132333
  19 H :    0.108171
  20 C :   -0.182511
  21 H :    0.096890
  22 H :    0.110164
  23 C :   -0.236548
  24 H :    0.121314
  25 H :    0.106720
  26 H :    0.097094
  27 H :    0.107049
  28 H :    0.118326
  29 H :    0.123687
Sum of atomic charges:    0.0000000

LOEWDIN ATOMIC CHARGES
----------------------
   0 C :   -0.290346
   1 N :    0.102073
   2 C :   -0.254566
   3 C :   -0.231621
   4 H :    0.147354
   5 H :    0.159623
   6 C :   -0.477327
   7 C :   -0.480465
   8 N :    0.016312
   9 C :   -0.360842
  10 H :    0.091215
  11 H :    0.092858
  12 H :    0.189627
  13 H :    0.158070
  14 H :    0.156664
  15 F :    0.351036
  16 O :    0.066276
  17 C :   -0.270007
  18 H :    0.132730
  19 H :    0.126284
  20 C :   -0.266096
  21 H :    0.138022
  22 H :    0.136633
  23 C :   -0.269701
  24 H :    0.141104
  25 H :    0.137669
  26 H :    0.133272
  27 H :    0.137949
  28 H :    0.141057
  29 H :    0.145143

  Mayer bond orders larger than 0.100000
B(  0-C ,  1-N ) :   0.9369 B(  0-C , 17-C ) :   0.9652 B(  0-C , 18-H ) :   0.9847
B(  0-C , 19-H ) :   0.9948 B(  1-N ,  7-C ) :   1.1881 B(  1-N , 12-H ) :   0.9225
B(  2-C ,  3-C ) :   0.9622 B(  2-C , 23-C ) :   0.9845 B(  2-C , 28-H ) :   0.9727
B(  2-C , 29-H ) :   0.9706 B(  3-C ,  4-H ) :   0.9627 B(  3-C ,  5-H ) :   0.9406
B(  3-C ,  6-C ) :   0.9988 B(  6-C , 15-F ) :   1.1579 B(  6-C , 16-O ) :   1.9311
B(  7-C ,  8-N ) :   1.1590 B(  7-C ,  9-C ) :   1.6667 B(  8-N , 13-H ) :   0.9319
B(  8-N , 14-H ) :   0.8669 B(  9-C , 10-H ) :   1.0162 B(  9-C , 11-H ) :   1.0209
B( 17-C , 20-C ) :   0.9703 B( 17-C , 21-H ) :   0.9734 B( 17-C , 22-H ) :   0.9778
B( 20-C , 23-C ) :   0.9270 B( 20-C , 24-H ) :   0.9605 B( 20-C , 25-H ) :   0.9719
B( 23-C , 26-H ) :   0.9797 B( 23-C , 27-H ) :   0.9725

Dispersion correction           -0.015940473
FINAL SINGLE POINT ENERGY      -637.785199460330

DIPOLE MOMENT
-------------
                                X             Y             Z
Electronic contribution:     -2.87010       1.35681     -12.72398
Nuclear contribution   :      2.27881      -0.10762      14.43322
                        -----------------------------------------
Total Dipole Moment    :     -0.59129       1.24919       1.70924
                        -----------------------------------------
Magnitude (a.u.)       :      2.19809
Magnitude (Debye)      :      5.58710

Rotational constants in cm-1:     0.033336     0.023673     0.017062
Rotational constants in MHz :   999.388459   709.685364   511.514310

                             ****ORCA TERMINATED NORMALLY****
TOTAL RUN TIME: 0 days 0 hours 1 minutes 35 seconds 360 msec
