                         Program Version 5.0.0 -  RELEASE  -
|  1> !wB97X-D3 RIJCOSX def2-TZVP def2/J TightSCF xyzfile
|  2>
|  3> *xyzfile 0 1 D4.xyz
|  4>
|  5> %MaxCore 64000
|  6>
|  7> %pal nprocs 18
|  8> end
|  9>
| 10> %scf
| 11>   MaxIter 150
| 12> end
| 13>
| 14>
| 15>                          ****END OF INPUT****

CARTESIAN COORDINATES (ANGSTROEM)
---------------------------------
  C      2.234473   -2.989754   -2.397622
  C      2.756799   -2.945553   -3.765029
  C     -1.104325    0.251374   -2.860056
  C     -0.711893    0.842517   -4.218344
  H      0.154626    1.499800   -4.130909
  H     -1.538134    1.459222   -4.582671
  C     -0.397624   -0.205875   -5.288018
  C      1.987208   -2.590451   -4.818975
  N      0.743221   -3.017493   -4.913524
  N      2.499636   -1.848598   -5.803241
  H      3.309780   -1.292818   -5.558947
  H      1.801025   -1.304298   -6.289129
  H      3.716116   -2.628797   -3.829533
  H      0.395828   -3.627747   -4.185024
  H      0.039201   -2.454383   -5.371367
  O      0.617165   -0.005348   -5.998273
  F     -1.133173   -1.221380   -5.341465
  C      2.191199   -1.619503   -1.715492
  H      2.872783   -3.666368   -1.828014
  H      1.246188   -3.447444   -2.407842
  C      1.298729   -0.554314   -2.359773
  H      1.872917   -1.787955   -0.681310
  H      3.216809   -1.238432   -1.654428
  C     -0.196255   -0.863365   -2.325763
  H      1.612531   -0.371346   -3.393065
  H      1.480944    0.388638   -1.834444
  H     -0.404105   -1.761825   -2.909448
  H     -0.490439   -1.087880   -1.294131
  H     -1.143842    1.066711   -2.129680
  H     -2.114401   -0.156834   -2.930323

 Total Charge           Charge          ....    0
 Multiplicity           Mult            ....    1
 Number of Electrons    NEL             ....  102
 Basis Dimension        Dim             ....  505

ORBITAL ENERGIES
----------------

  NO   OCC          E(Eh)            E(eV)
   0   2.0000     -24.892197      -677.3511
   1   2.0000     -19.267937      -524.3072
   2   2.0000     -14.410785      -392.1374
   3   2.0000     -14.392713      -391.6456
   4   2.0000     -10.484989      -285.3111
   5   2.0000     -10.320171      -280.8261
   6   2.0000     -10.311087      -280.5789
   7   2.0000     -10.298922      -280.2479
   8   2.0000     -10.279931      -279.7311
   9   2.0000     -10.268623      -279.4234
  10   2.0000     -10.256629      -279.0971
  11   2.0000     -10.246222      -278.8139
  12   2.0000     -10.183600      -277.1098
  13   2.0000      -1.475945       -40.1625
  14   2.0000      -1.185139       -32.2493
  15   2.0000      -1.073213       -29.2036
  16   2.0000      -0.977650       -26.6032
  17   2.0000      -0.953359       -25.9422
  18   2.0000      -0.907824       -24.7031
  19   2.0000      -0.868842       -23.6424
  20   2.0000      -0.820127       -22.3168
  21   2.0000      -0.801242       -21.8029
  22   2.0000      -0.768292       -20.9063
  23   2.0000      -0.725853       -19.7515
  24   2.0000      -0.705586       -19.2000
  25   2.0000      -0.688948       -18.7472
  26   2.0000      -0.679357       -18.4862
  27   2.0000      -0.667668       -18.1682
  28   2.0000      -0.632472       -17.2104
  29   2.0000      -0.620145       -16.8750
  30   2.0000      -0.590847       -16.0778
  31   2.0000      -0.587237       -15.9795
  32   2.0000      -0.577704       -15.7201
  33   2.0000      -0.549857       -14.9624
  34   2.0000      -0.541602       -14.7377
  35   2.0000      -0.537574       -14.6281
  36   2.0000      -0.529541       -14.4096
  37   2.0000      -0.502509       -13.6740
  38   2.0000      -0.496568       -13.5123
  39   2.0000      -0.490720       -13.3532
  40   2.0000      -0.481024       -13.0893
  41   2.0000      -0.459997       -12.5172
  42   2.0000      -0.456706       -12.4276
  43   2.0000      -0.440079       -11.9752
  44   2.0000      -0.432204       -11.7609
  45   2.0000      -0.419194       -11.4069
  46   2.0000      -0.410717       -11.1762
  47   2.0000      -0.399766       -10.8782
  48   2.0000      -0.397530       -10.8173
  49   2.0000      -0.350808        -9.5460
  50   2.0000      -0.233064        -6.3420
  51   0.0000       0.028776         0.7830
  52   0.0000       0.096912         2.6371
  53   0.0000       0.121619         3.3094
  54   0.0000       0.128490         3.4964
  55   0.0000       0.133971         3.6455

MULLIKEN ATOMIC CHARGES
-----------------------
   0 C :   -0.183113
   1 C :   -0.323830
   2 C :   -0.212001
   3 C :   -0.215239
   4 H :    0.158139
   5 H :    0.148876
   6 C :    0.388078
   7 C :    0.150889
   8 N :   -0.436029
   9 N :   -0.408052
  10 H :    0.238256
  11 H :    0.233892
  12 H :    0.067595
  13 H :    0.241090
  14 H :    0.219528
  15 O :   -0.380931
  16 F :   -0.118510
  17 C :   -0.154662
  18 H :    0.103223
  19 H :    0.061253
  20 C :   -0.173347
  21 H :    0.088033
  22 H :    0.095433
  23 C :   -0.239081
  24 H :    0.114175
  25 H :    0.101104
  26 H :    0.077757
  27 H :    0.113720
  28 H :    0.122293
  29 H :    0.121463
Sum of atomic charges:   -0.0000000

LOEWDIN ATOMIC CHARGES
----------------------
   0 C :   -0.294297
   1 C :   -0.288704
   2 C :   -0.264458
   3 C :   -0.228112
   4 H :    0.158696
   5 H :    0.156587
   6 C :   -0.485741
   7 C :   -0.476797
   8 N :    0.008484
   9 N :   -0.012969
  10 H :    0.172068
  11 H :    0.151908
  12 H :    0.115354
  13 H :    0.172956
  14 H :    0.147140
  15 O :    0.069896
  16 F :    0.337598
  17 C :   -0.259744
  18 H :    0.137970
  19 H :    0.124110
  20 C :   -0.265665
  21 H :    0.131372
  22 H :    0.136222
  23 C :   -0.270384
  24 H :    0.139989
  25 H :    0.135890
  26 H :    0.127777
  27 H :    0.140261
  28 H :    0.143057
  29 H :    0.139536

  Mayer bond orders larger than 0.100000
B(  0-C ,  1-C ) :   0.9764 B(  0-C , 17-C ) :   0.9439 B(  0-C , 18-H ) :   0.9878
B(  0-C , 19-H ) :   0.9934 B(  1-C ,  7-C ) :   1.6858 B(  1-C , 12-H ) :   1.0359
B(  2-C ,  3-C ) :   0.9432 B(  2-C , 23-C ) :   0.9599 B(  2-C , 28-H ) :   0.9678
B(  2-C , 29-H ) :   0.9842 B(  3-C ,  4-H ) :   0.9647 B(  3-C ,  5-H ) :   0.9442
B(  3-C ,  6-C ) :   0.9987 B(  6-C , 15-O ) :   1.9517 B(  6-C , 16-F ) :   1.1095
B(  7-C ,  8-N ) :   1.1803 B(  7-C ,  9-N ) :   1.1863 B(  8-N , 13-H ) :   0.9219
B(  8-N , 14-H ) :   0.9066 B(  9-N , 10-H ) :   0.9253 B(  9-N , 11-H ) :   0.9004
B( 17-C , 20-C ) :   0.9921 B( 17-C , 21-H ) :   0.9752 B( 17-C , 22-H ) :   0.9765
B( 20-C , 23-C ) :   0.9218 B( 20-C , 24-H ) :   0.9552 B( 20-C , 25-H ) :   0.9731
B( 23-C , 26-H ) :   0.9905 B( 23-C , 27-H ) :   0.9745

Dispersion correction           -0.015911782
FINAL SINGLE POINT ENERGY      -637.799147989287

DIPOLE MOMENT
-------------
                                X             Y             Z
Electronic contribution:     -6.05307       0.25592     -13.44260
Nuclear contribution   :      4.38568       1.15960      13.97148
                        -----------------------------------------
Total Dipole Moment    :     -1.66739       1.41552       0.52888
                        -----------------------------------------
Magnitude (a.u.)       :      2.25024
Magnitude (Debye)      :      5.71966

Rotational constants in cm-1:     0.032892     0.023844     0.017123
Rotational constants in MHz :   986.091711   714.821905   513.334630

                             ****ORCA TERMINATED NORMALLY****
TOTAL RUN TIME: 0 days 0 hours 1 minutes 31 seconds 522 msec
