                         Program Version 5.0.0 -  RELEASE  -
|  1> !wB97X-D3 RIJCOSX def2-TZVP def2/J TightSCF xyzfile
|  2>
|  3> *xyzfile 0 1 D6.xyz
|  4>
|  5> %MaxCore 64000
|  6>
|  7> %pal nprocs 18
|  8> end
|  9>
| 10> %scf
| 11>   MaxIter 150
| 12> end
| 13>
| 14>
| 15>                          ****END OF INPUT****

CARTESIAN COORDINATES (ANGSTROEM)
---------------------------------
  C      2.234473   -2.989754   -2.397622
  N      2.756799   -2.945553   -3.765029
  C     -1.104325    0.251374   -2.860056
  C     -0.711893    0.842517   -4.218344
  H      0.154626    1.499800   -4.130909
  H     -1.538134    1.459222   -4.582671
  C     -0.397624   -0.205875   -5.288018
  C      1.987208   -2.590451   -4.818975
  N      0.743221   -3.017493   -4.913524
  C      2.499636   -1.848598   -5.803241
  H      3.309780   -1.292818   -5.558947
  H      1.801025   -1.304298   -6.289129
  H      3.716116   -2.628797   -3.829533
  H      0.395828   -3.627747   -4.185024
  H      0.039201   -2.454383   -5.371367
  O      0.617165   -0.005348   -5.998273
  F     -1.133173   -1.221380   -5.341465
  C      2.191199   -1.619503   -1.715492
  H      2.872783   -3.666368   -1.828014
  H      1.246188   -3.447444   -2.407842
  C      1.298729   -0.554314   -2.359773
  H      1.872917   -1.787955   -0.681310
  H      3.216809   -1.238432   -1.654428
  C     -0.196255   -0.863365   -2.325763
  H      1.612531   -0.371346   -3.393065
  H      1.480944    0.388638   -1.834444
  H     -0.404105   -1.761825   -2.909448
  H     -0.490439   -1.087880   -1.294131
  H     -1.143842    1.066711   -2.129680
  H     -2.114401   -0.156834   -2.930323

 Total Charge           Charge          ....    0
 Multiplicity           Mult            ....    1
 Number of Electrons    NEL             ....  102
 Basis Dimension        Dim             ....  505

ORBITAL ENERGIES
----------------

  NO   OCC          E(Eh)            E(eV)
   0   2.0000     -24.878029      -676.9656
   1   2.0000     -19.247127      -523.7409
   2   2.0000     -14.411596      -392.1595
   3   2.0000     -14.407616      -392.0512
   4   2.0000     -10.465324      -284.7759
   5   2.0000     -10.312124      -280.6072
   6   2.0000     -10.309749      -280.5425
   7   2.0000     -10.308243      -280.5015
   8   2.0000     -10.297294      -280.2036
   9   2.0000     -10.284475      -279.8548
  10   2.0000     -10.278591      -279.6947
  11   2.0000     -10.277315      -279.6600
  12   2.0000     -10.159522      -276.4546
  13   2.0000      -1.462155       -39.7873
  14   2.0000      -1.163762       -31.6676
  15   2.0000      -1.076894       -29.3038
  16   2.0000      -0.995532       -27.0898
  17   2.0000      -0.950853       -25.8740
  18   2.0000      -0.907366       -24.6907
  19   2.0000      -0.858143       -23.3513
  20   2.0000      -0.823575       -22.4106
  21   2.0000      -0.795025       -21.6337
  22   2.0000      -0.774454       -21.0740
  23   2.0000      -0.728509       -19.8237
  24   2.0000      -0.711675       -19.3657
  25   2.0000      -0.690707       -18.7951
  26   2.0000      -0.671496       -18.2723
  27   2.0000      -0.665653       -18.1133
  28   2.0000      -0.632140       -17.2014
  29   2.0000      -0.614189       -16.7129
  30   2.0000      -0.595740       -16.2109
  31   2.0000      -0.583757       -15.8848
  32   2.0000      -0.571153       -15.5419
  33   2.0000      -0.561286       -15.2734
  34   2.0000      -0.546106       -14.8603
  35   2.0000      -0.537258       -14.6195
  36   2.0000      -0.513405       -13.9705
  37   2.0000      -0.507990       -13.8231
  38   2.0000      -0.486410       -13.2359
  39   2.0000      -0.480485       -13.0747
  40   2.0000      -0.477444       -12.9919
  41   2.0000      -0.467664       -12.7258
  42   2.0000      -0.462367       -12.5817
  43   2.0000      -0.455455       -12.3936
  44   2.0000      -0.432679       -11.7738
  45   2.0000      -0.427097       -11.6219
  46   2.0000      -0.425163       -11.5693
  47   2.0000      -0.417916       -11.3721
  48   2.0000      -0.381122       -10.3709
  49   2.0000      -0.336995        -9.1701
  50   2.0000      -0.240913        -6.5556
  51   0.0000       0.045052         1.2259
  52   0.0000       0.097445         2.6516
  53   0.0000       0.115248         3.1361
  54   0.0000       0.117649         3.2014
  55   0.0000       0.135328         3.6825

MULLIKEN ATOMIC CHARGES
-----------------------
   0 C :   -0.168072
   1 N :   -0.299940
   2 C :   -0.213116
   3 C :   -0.219961
   4 H :    0.156437
   5 H :    0.144613
   6 C :    0.376968
   7 C :    0.186496
   8 N :   -0.455622
   9 C :   -0.380167
  10 H :    0.055321
  11 H :    0.092298
  12 H :    0.222870
  13 H :    0.219283
  14 H :    0.240588
  15 O :   -0.333336
  16 F :   -0.132134
  17 C :   -0.197888
  18 H :    0.132543
  19 H :    0.102113
  20 C :   -0.193735
  21 H :    0.094551
  22 H :    0.111502
  23 C :   -0.223407
  24 H :    0.149486
  25 H :    0.107153
  26 H :    0.074746
  27 H :    0.109769
  28 H :    0.120357
  29 H :    0.120284
Sum of atomic charges:   -0.0000000

LOEWDIN ATOMIC CHARGES
----------------------
   0 C :   -0.292257
   1 N :    0.100043
   2 C :   -0.264916
   3 C :   -0.230375
   4 H :    0.158189
   5 H :    0.154906
   6 C :   -0.495831
   7 C :   -0.482601
   8 N :    0.008630
   9 C :   -0.339820
  10 H :    0.091899
  11 H :    0.098716
  12 H :    0.190486
  13 H :    0.158054
  14 H :    0.159639
  15 O :    0.099252
  16 F :    0.329730
  17 C :   -0.270581
  18 H :    0.132599
  19 H :    0.124226
  20 C :   -0.265152
  21 H :    0.136998
  22 H :    0.137373
  23 C :   -0.272365
  24 H :    0.147989
  25 H :    0.138233
  26 H :    0.126905
  27 H :    0.138380
  28 H :    0.141941
  29 H :    0.139713

  Mayer bond orders larger than 0.100000
B(  0-C ,  1-N ) :   0.9427 B(  0-C , 17-C ) :   0.9627 B(  0-C , 18-H ) :   0.9852
B(  0-C , 19-H ) :   0.9968 B(  1-N ,  7-C ) :   1.1841 B(  1-N , 12-H ) :   0.9222
B(  2-C ,  3-C ) :   0.9416 B(  2-C , 23-C ) :   0.9671 B(  2-C , 28-H ) :   0.9693
B(  2-C , 29-H ) :   0.9833 B(  3-C ,  4-H ) :   0.9657 B(  3-C ,  5-H ) :   0.9473
B(  3-C ,  6-C ) :   1.0004 B(  6-C , 15-O ) :   2.0067 B(  6-C , 16-F ) :   1.0867
B(  7-C ,  8-N ) :   1.1201 B(  7-C ,  9-C ) :   1.6935 B(  8-N , 13-H ) :   0.9303
B(  8-N , 14-H ) :   0.9014 B(  9-C , 10-H ) :   1.0064 B(  9-C , 11-H ) :   1.0106
B( 17-C , 20-C ) :   0.9675 B( 17-C , 21-H ) :   0.9740 B( 17-C , 22-H ) :   0.9771
B( 20-C , 23-C ) :   0.9199 B( 20-C , 24-H ) :   0.9568 B( 20-C , 25-H ) :   0.9715
B( 23-C , 26-H ) :   0.9888 B( 23-C , 27-H ) :   0.9717

Dispersion correction           -0.015903772
FINAL SINGLE POINT ENERGY      -637.774675680588

DIPOLE MOMENT
-------------
                                X             Y             Z
Electronic contribution:     -5.73300      -0.69340     -11.68588
Nuclear contribution   :      4.34606       1.32859      13.65749
                        -----------------------------------------
Total Dipole Moment    :     -1.38694       0.63519       1.97161
                        -----------------------------------------
Magnitude (a.u.)       :      2.49285
Magnitude (Debye)      :      6.33632

Rotational constants in cm-1:     0.033551     0.023540     0.017085
Rotational constants in MHz :  1005.818710   705.725032   512.192443

                             ****ORCA TERMINATED NORMALLY****
TOTAL RUN TIME: 0 days 0 hours 1 minutes 28 seconds 601 msec
