                         Program Version 5.0.0 -  RELEASE  -
|  1> !LC-PBE RIJCOSX def2-TZVPD def2/J TightSCF
|  2> *xyz -1 1
|  3> C          4.08422        1.74208       -2.11472
|  4> C          4.26524        2.50052       -0.79589
|  5> H          4.86853        3.39267       -0.98113
|  6> H          3.30764        2.82457       -0.38781
|  7> C          4.98224        1.65026        0.24742
|  8> O          4.36806        1.38927        1.31371
|  9> O          6.12892        1.23351       -0.04562
| 10> H          3.57911        2.36849       -2.81997
| 11> H          3.50424        0.85965       -1.94198
| 12> H          5.04288        1.46841       -2.50327
| 13> *
| 14> %MaxCore 64000
| 15> %pal nprocs 8
| 16> end
| 17> %scf
| 18>   MaxIter 150
| 19> end
| 20>
| 21>
| 22>                          ****END OF INPUT****

CARTESIAN COORDINATES (ANGSTROEM)
---------------------------------
  C      4.084220    1.742080   -2.114720
  C      4.265240    2.500520   -0.795890
  H      4.868530    3.392670   -0.981130
  H      3.307640    2.824570   -0.387810
  C      4.982240    1.650260    0.247420
  O      4.368060    1.389270    1.313710
  O      6.128920    1.233510   -0.045620
  H      3.579110    2.368490   -2.819970
  H      3.504240    0.859650   -1.941980
  H      5.042880    1.468410   -2.503270

 Total Charge           Charge          ....   -1
 Multiplicity           Mult            ....    1
 Number of Electrons    NEL             ....   40
 Basis Dimension        Dim             ....  236

ORBITAL ENERGIES
----------------

  NO   OCC          E(Eh)            E(eV)
   0   2.0000     -18.708221      -509.0766
   1   2.0000     -18.708185      -509.0756
   2   2.0000     -10.001305      -272.1494
   3   2.0000      -9.950854      -270.7765
   4   2.0000      -9.941352      -270.5179
   5   2.0000      -0.987929       -26.8829
   6   2.0000      -0.884816       -24.0771
   7   2.0000      -0.784255       -21.3407
   8   2.0000      -0.639946       -17.4138
   9   2.0000      -0.472500       -12.8574
  10   2.0000      -0.438930       -11.9439
  11   2.0000      -0.404445       -11.0055
  12   2.0000      -0.375033       -10.2052
  13   2.0000      -0.353627        -9.6227
  14   2.0000      -0.347526        -9.4567
  15   2.0000      -0.312747        -8.5103
  16   2.0000      -0.299382        -8.1466
  17   2.0000      -0.176516        -4.8032
  18   2.0000      -0.172129        -4.6839
  19   2.0000      -0.161828        -4.4036
  20   0.0000       0.188377         5.1260
  21   0.0000       0.209298         5.6953
  22   0.0000       0.215250         5.8572
  23   0.0000       0.229253         6.2383
  24   0.0000       0.257893         7.0176

MULLIKEN ATOMIC CHARGES
-----------------------
   0 C :   -1.125233
   1 C :   -0.367871
   2 H :    0.273687
   3 H :    0.277422
   4 C :    0.366518
   5 O :   -0.707578
   6 O :   -0.693831
   7 H :    0.326040
   8 H :    0.334885
   9 H :    0.315962
Sum of atomic charges:   -1.0000000

LOEWDIN ATOMIC CHARGES
----------------------
   0 C :   -0.150040
   1 C :   -0.229944
   2 H :    0.104648
   3 H :    0.097961
   4 C :   -0.797049
   5 O :   -0.110683
   6 O :   -0.103375
   7 H :    0.052253
   8 H :    0.071394
   9 H :    0.064834

  Mayer bond orders larger than 0.100000
B(  0-C ,  1-C ) :   0.5476 B(  0-C ,  7-H ) :   0.9157 B(  0-C ,  8-H ) :   0.9376
B(  0-C ,  9-H ) :   0.9865 B(  1-C ,  2-H ) :   0.9461 B(  1-C ,  3-H ) :   0.9725
B(  1-C ,  4-C ) :   0.9440 B(  4-C ,  5-O ) :   1.4647 B(  4-C ,  6-O ) :   1.4788

FINAL SINGLE POINT ENERGY      -267.157740191361

DIPOLE MOMENT
-------------
                                X             Y             Z
Electronic contribution:      2.39273      -1.42052       5.03723
Nuclear contribution   :     -3.31311       2.28398      -6.76358
                        -----------------------------------------
Total Dipole Moment    :     -0.92038       0.86346      -1.72635
                        -----------------------------------------
Magnitude (a.u.)       :      2.13845
Magnitude (Debye)      :      5.43550

Rotational constants in cm-1:     0.309287     0.135287     0.107346
Rotational constants in MHz :  9272.201029  4055.789113  3218.155789

                             ****ORCA TERMINATED NORMALLY****
TOTAL RUN TIME: 0 days 0 hours 0 minutes 14 seconds 181 msec
