                         Program Version 5.0.0 -  RELEASE  -
|  1> !LC-PBE RIJCOSX def2-TZVPD def2/J TightSCF
|  2> *xyz 1 1
|  3> C          3.91385       -1.65829        3.01513
|  4> N          5.03927       -0.90115        2.49282
|  5> C          6.21038       -1.41726        2.17824
|  6> N          6.53591       -2.67712        2.55608
|  7> N          7.07675       -0.70082        1.47891
|  8> H          7.95464       -1.12155        1.20755
|  9> H          6.75616        0.10664        0.96028
| 10> H          4.84217        0.01761        2.11519
| 11> H          5.99388       -3.12692        3.28278
| 12> C          3.13916       -2.37657        1.91061
| 13> H          3.26723       -0.93940        3.52069
| 14> H          4.24720       -2.35509        3.79006
| 15> H          7.49844       -2.97548        2.46878
| 16> H          2.82969       -1.66654        1.17238
| 17> H          2.27790       -2.85264        2.33072
| 18> H          3.76754       -3.11338        1.45548
| 19> *
| 20> %MaxCore 64000
| 21> %pal nprocs 8
| 22> end
| 23> %scf
| 24>   MaxIter 150
| 25> end
| 26>
| 27>
| 28>                          ****END OF INPUT****

CARTESIAN COORDINATES (ANGSTROEM)
---------------------------------
  C      3.913850   -1.658290    3.015130
  N      5.039270   -0.901150    2.492820
  C      6.210380   -1.417260    2.178240
  N      6.535910   -2.677120    2.556080
  N      7.076750   -0.700820    1.478910
  H      7.954640   -1.121550    1.207550
  H      6.756160    0.106640    0.960280
  H      4.842170    0.017610    2.115190
  H      5.993880   -3.126920    3.282780
  C      3.139160   -2.376570    1.910610
  H      3.267230   -0.939400    3.520690
  H      4.247200   -2.355090    3.790060
  H      7.498440   -2.975480    2.468780
  H      2.829690   -1.666540    1.172380
  H      2.277900   -2.852640    2.330720
  H      3.767540   -3.113380    1.455480

 Total Charge           Charge          ....    1
 Multiplicity           Mult            ....    1
 Number of Electrons    NEL             ....   48
 Basis Dimension        Dim             ....  312

ORBITAL ENERGIES
----------------

  NO   OCC          E(Eh)            E(eV)
   0   2.0000     -14.442759      -393.0074
   1   2.0000     -14.438870      -392.9016
   2   2.0000     -14.436380      -392.8339
   3   2.0000     -10.460809      -284.6531
   4   2.0000     -10.324300      -280.9385
   5   2.0000     -10.247368      -278.8451
   6   2.0000      -1.398435       -38.0534
   7   2.0000      -1.280884       -34.8546
   8   2.0000      -1.261522       -34.3278
   9   2.0000      -1.105520       -30.0827
  10   2.0000      -1.002713       -27.2852
  11   2.0000      -0.961676       -26.1685
  12   2.0000      -0.939740       -25.5716
  13   2.0000      -0.894553       -24.3420
  14   2.0000      -0.835396       -22.7323
  15   2.0000      -0.826305       -22.4849
  16   2.0000      -0.803851       -21.8739
  17   2.0000      -0.776841       -21.1389
  18   2.0000      -0.743784       -20.2394
  19   2.0000      -0.702315       -19.1110
  20   2.0000      -0.665592       -18.1117
  21   2.0000      -0.642736       -17.4897
  22   2.0000      -0.612764       -16.6742
  23   2.0000      -0.578789       -15.7496
  24   0.0000      -0.089669        -2.4400
  25   0.0000      -0.081674        -2.2225
  26   0.0000      -0.058620        -1.5951
  27   0.0000      -0.052194        -1.4203
  28   0.0000      -0.025289        -0.6881

MULLIKEN ATOMIC CHARGES
-----------------------
   0 C :   -0.697210
   1 N :   -0.225844
   2 C :    0.797992
   3 N :   -0.408657
   4 N :   -0.425249
   5 H :    0.237915
   6 H :    0.252463
   7 H :    0.211582
   8 H :    0.228272
   9 C :   -1.133606
  10 H :    0.369698
  11 H :    0.406521
  12 H :    0.238615
  13 H :    0.373136
  14 H :    0.420360
  15 H :    0.354011
Sum of atomic charges:    1.0000000

LOEWDIN ATOMIC CHARGES
----------------------
   0 C :   -0.223084
   1 N :    0.079204
   2 C :   -0.435710
   3 N :    0.202974
   4 N :    0.198677
   5 H :    0.144744
   6 H :    0.147510
   7 H :    0.176862
   8 H :    0.127139
   9 C :   -0.080364
  10 H :    0.139343
  11 H :    0.125661
  12 H :    0.141262
  13 H :    0.086089
  14 H :    0.090316
  15 H :    0.079376

  Mayer bond orders larger than 0.100000
B(  0-C ,  1-N ) :   0.8104 B(  0-C ,  2-C ) :  -0.1565 B(  0-C ,  9-C ) :   0.6569
B(  0-C , 10-H ) :   0.9010 B(  0-C , 11-H ) :   0.8570 B(  1-N ,  2-C ) :   1.1847
B(  1-N ,  7-H ) :   1.0434 B(  2-C ,  3-N ) :   1.0778 B(  2-C ,  4-N ) :   1.0453
B(  3-N ,  8-H ) :   0.9433 B(  3-N , 12-H ) :   0.9919 B(  4-N ,  5-H ) :   0.9873
B(  4-N ,  6-H ) :   0.9622 B(  9-C , 13-H ) :   0.9359 B(  9-C , 14-H ) :   0.9059
B(  9-C , 15-H ) :   0.9095

FINAL SINGLE POINT ENERGY      -283.602911300088

DIPOLE MOMENT
-------------
                                X             Y             Z
Electronic contribution:      4.70635       1.91101       0.07404
Nuclear contribution   :     -3.67981      -1.62355      -0.28562
                        -----------------------------------------
Total Dipole Moment    :      1.02654       0.28746      -0.21157
                        -----------------------------------------
Magnitude (a.u.)       :      1.08683
Magnitude (Debye)      :      2.76249

Rotational constants in cm-1:     0.222027     0.074735     0.065694
Rotational constants in MHz :  6656.200457  2240.503315  1969.451902

                             ****ORCA TERMINATED NORMALLY****
TOTAL RUN TIME: 0 days 0 hours 0 minutes 30 seconds 410 msec
