                         Program Version 5.0.0 -  RELEASE  -
|  1> !LC-PBE RIJCOSX def2-TZVPD def2/J TightSCF xyzfile
|  2>
|  3> *xyzfile 0 1 B.xyz
|  4>
|  5> %MaxCore 64000
|  6>
|  7> %pal nprocs 4
|  8> end
|  9>
| 10> %scf
| 11>   MaxIter 150
| 12> end
| 13>
| 14>
| 15>                          ****END OF INPUT****

CARTESIAN COORDINATES (ANGSTROEM)
---------------------------------
  C      3.913853   -1.658291    3.015134
  N      5.039266   -0.901154    2.492821
  C      4.084215    1.742081   -2.114724
  C      4.265245    2.500518   -0.795890
  H      4.868534    3.392674   -0.981134
  H      3.307640    2.824571   -0.387809
  C      4.982240    1.650257    0.247422
  C      6.210384   -1.417261    2.178244
  N      6.535913   -2.677122    2.556078
  N      7.076754   -0.700820    1.478906
  H      7.954643   -1.121554    1.207554
  H      6.756161    0.106637    0.960278
  H      4.842168    0.017609    2.115191
  H      5.993876   -3.126918    3.282784
  H      7.498441   -2.975482    2.468776
  O      4.368065    1.389270    1.313706
  O      6.128919    1.233512   -0.045620
  C      3.139159   -2.376572    1.910609
  H      3.267235   -0.939401    3.520693
  H      4.247195   -2.355095    3.790065
  C      1.997274    0.430918   -1.399218
  C      3.412746    0.376886   -1.965497
  H      4.047407   -0.246590   -1.326706
  H      3.390774   -0.118719   -2.942839
  H      5.068475    1.598504   -2.565728
  H      3.503356    2.363939   -2.804565
  C      2.399946   -1.389579    1.009490
  H      2.440750   -3.087118    2.362976
  H      3.844475   -2.970462    1.318677
  C      2.070177   -1.936705   -0.372401
  H      1.481611   -1.061542    1.509912
  H      3.008628   -0.490001    0.897451
  C      1.322238   -0.935775   -1.256413
  H      1.472747   -2.850902   -0.283997
  H      3.003539   -2.234041   -0.862535
  H      1.376444    1.058920   -2.047420
  H      2.015341    0.929780   -0.426535
  H      0.316648   -0.787213   -0.848278
  H      1.185611   -1.379252   -2.248613

 Total Charge           Charge          ....    0
 Multiplicity           Mult            ....    1
 Number of Electrons    NEL             ....  126
 Basis Dimension        Dim             ....  805

ORBITAL ENERGIES
----------------

  NO   OCC          E(Eh)            E(eV)
   0   2.0000     -18.895935      -514.1845
   1   2.0000     -18.894569      -514.1474
   2   2.0000     -14.281713      -388.6252
   3   2.0000     -14.248650      -387.7255
   4   2.0000     -14.240341      -387.4994
   5   2.0000     -10.284138      -279.8456
   6   2.0000     -10.180818      -277.0341
   7   2.0000     -10.173353      -276.8310
   8   2.0000     -10.122690      -275.4524
   9   2.0000     -10.100189      -274.8401
  10   2.0000     -10.099537      -274.8224
  11   2.0000     -10.096143      -274.7300
  12   2.0000     -10.086890      -274.4782
  13   2.0000     -10.085526      -274.4411
  14   2.0000     -10.085324      -274.4356
  15   2.0000     -10.076788      -274.2033
  16   2.0000      -1.223193       -33.2848
  17   2.0000      -1.178537       -32.0696
  18   2.0000      -1.107721       -30.1426
  19   2.0000      -1.090296       -29.6685
  20   2.0000      -1.073459       -29.2103
  21   2.0000      -0.993481       -27.0340
  22   2.0000      -0.966757       -26.3068
  23   2.0000      -0.935624       -25.4596
  24   2.0000      -0.890581       -24.2340
  25   2.0000      -0.848951       -23.1011
  26   2.0000      -0.824770       -22.4431
  27   2.0000      -0.794961       -21.6320
  28   2.0000      -0.773020       -21.0349
  29   2.0000      -0.761624       -20.7248
  30   2.0000      -0.733733       -19.9659
  31   2.0000      -0.721736       -19.6394
  32   2.0000      -0.695044       -18.9131
  33   2.0000      -0.668489       -18.1905
  34   2.0000      -0.665694       -18.1145
  35   2.0000      -0.647514       -17.6198
  36   2.0000      -0.618320       -16.8253
  37   2.0000      -0.615819       -16.7573
  38   2.0000      -0.607632       -16.5345
  39   2.0000      -0.600390       -16.3375
  40   2.0000      -0.586200       -15.9513
  41   2.0000      -0.569663       -15.5013
  42   2.0000      -0.564020       -15.3478
  43   2.0000      -0.557962       -15.1829
  44   2.0000      -0.547829       -14.9072
  45   2.0000      -0.542002       -14.7486
  46   2.0000      -0.524116       -14.2619
  47   2.0000      -0.510581       -13.8936
  48   2.0000      -0.500169       -13.6103
  49   2.0000      -0.489067       -13.3082
  50   2.0000      -0.479703       -13.0534
  51   2.0000      -0.471333       -12.8256
  52   2.0000      -0.456448       -12.4206
  53   2.0000      -0.449123       -12.2213
  54   2.0000      -0.443825       -12.0771
  55   2.0000      -0.437543       -11.9061
  56   2.0000      -0.424227       -11.5438
  57   2.0000      -0.419198       -11.4070
  58   2.0000      -0.411673       -11.2022
  59   2.0000      -0.402295       -10.9470
  60   2.0000      -0.363742        -9.8979
  61   2.0000      -0.353818        -9.6279
  62   2.0000      -0.350962        -9.5501
  63   0.0000       0.036941         1.0052
  64   0.0000       0.061716         1.6794
  65   0.0000       0.070052         1.9062
  66   0.0000       0.077491         2.1086
  67   0.0000       0.085899         2.3374

MULLIKEN ATOMIC CHARGES
-----------------------
   0 C :   -1.150524
   1 N :   -0.132248
   2 C :   -0.839774
   3 C :   -0.607162
   4 H :    0.391045
   5 H :    0.334284
   6 C :    0.626417
   7 C :    0.682930
   8 N :   -0.423311
   9 N :   -0.327973
  10 H :    0.211298
  11 H :    0.259818
  12 H :    0.222370
  13 H :    0.221241
  14 H :    0.216879
  15 O :   -0.869598
  16 O :   -0.881665
  17 C :   -0.589921
  18 H :    0.392275
  19 H :    0.455069
  20 C :   -0.702391
  21 C :   -0.576233
  22 H :    0.312478
  23 H :    0.334883
  24 H :    0.340860
  25 H :    0.381544
  26 C :    0.020492
  27 H :    0.468597
  28 H :    0.383521
  29 C :   -0.890021
  30 H :    0.356763
  31 H :   -0.048906
  32 C :   -0.867991
  33 H :    0.353926
  34 H :    0.462258
  35 H :    0.351994
  36 H :    0.369683
  37 H :    0.375154
  38 H :    0.381941
Sum of atomic charges:   -0.0000000

LOEWDIN ATOMIC CHARGES
----------------------
   0 C :   -0.184827
   1 N :    0.097338
   2 C :   -0.221152
   3 C :   -0.140954
   4 H :    0.125222
   5 H :    0.115588
   6 C :   -0.665691
   7 C :   -0.440768
   8 N :    0.167098
   9 N :    0.199821
  10 H :    0.131498
  11 H :    0.041647
  12 H :    0.074486
  13 H :    0.110121
  14 H :    0.123408
  15 O :   -0.050622
  16 O :   -0.038362
  17 C :   -0.201350
  18 H :    0.141757
  19 H :    0.115265
  20 C :   -0.233307
  21 C :   -0.228304
  22 H :    0.114480
  23 H :    0.125379
  24 H :    0.117511
  25 H :    0.118222
  26 C :   -0.229323
  27 H :    0.124000
  28 H :    0.121135
  29 C :   -0.237914
  30 H :    0.137703
  31 H :    0.091429
  32 C :   -0.231036
  33 H :    0.120787
  34 H :    0.118095
  35 H :    0.124553
  36 H :    0.111876
  37 H :    0.117814
  38 H :    0.117374

  Mayer bond orders larger than 0.100000
B(  0-C ,  1-N ) :   0.8929 B(  0-C ,  7-C ) :  -0.1871 B(  0-C ,  8-N ) :   0.1077
B(  0-C , 12-H ) :  -0.1050 B(  0-C , 17-C ) :   0.6819 B(  0-C , 18-H ) :   0.7853
B(  0-C , 19-H ) :   0.8681 B(  0-C , 27-H ) :  -0.1394 B(  1-N ,  7-C ) :   1.2562
B(  1-N , 12-H ) :   0.7604 B(  1-N , 15-O ) :  -0.1821 B(  2-C ,  3-C ) :   0.7274
B(  2-C , 21-C ) :   0.8368 B(  2-C , 24-H ) :   0.9453 B(  2-C , 25-H ) :   0.8771
B(  3-C ,  4-H ) :   0.8569 B(  3-C ,  5-H ) :   1.0086 B(  3-C ,  6-C ) :   0.8560
B(  3-C , 21-C ) :  -0.1249 B(  6-C , 15-O ) :   1.3067 B(  6-C , 16-O ) :   1.1263
B(  7-C ,  8-N ) :   0.9779 B(  7-C ,  9-N ) :   1.0753 B(  7-C , 12-H ) :  -0.1297
B(  8-N , 13-H ) :   0.9546 B(  8-N , 14-H ) :   1.0044 B(  9-N , 10-H ) :   1.0175
B(  9-N , 11-H ) :   0.8497 B(  9-N , 16-O ) :  -0.1432 B( 12-H , 15-O ) :   0.1501
B( 12-H , 16-O ) :   0.1123 B( 15-O , 16-O ) :   0.1357 B( 17-C , 19-H ) :  -0.1005
B( 17-C , 26-C ) :   0.6869 B( 17-C , 27-H ) :   0.8826 B( 17-C , 28-H ) :   0.7705
B( 17-C , 29-C ) :   0.2340 B( 20-C , 21-C ) :   0.3826 B( 20-C , 32-C ) :   0.7859
B( 20-C , 35-H ) :   0.9180 B( 20-C , 36-H ) :   0.9592 B( 21-C , 22-H ) :   0.9858
B( 21-C , 23-H ) :   0.9452 B( 21-C , 29-C ) :   0.1063 B( 26-C , 29-C ) :   0.4621
B( 26-C , 30-H ) :   0.8610 B( 26-C , 31-H ) :   1.0257 B( 29-C , 32-C ) :   0.8546
B( 29-C , 33-H ) :   0.8953 B( 29-C , 34-H ) :   0.8781 B( 30-H , 31-H ) :   0.2094
B( 32-C , 37-H ) :   0.9348 B( 32-C , 38-H ) :   0.9299

FINAL SINGLE POINT ENERGY      -745.704521068760

DIPOLE MOMENT
-------------
                                X             Y             Z
Electronic contribution:     12.27040       3.27372       7.66770
Nuclear contribution   :    -11.44764      -6.21818      -6.18483
                        -----------------------------------------
Total Dipole Moment    :      0.82276      -2.94445       1.48287
                        -----------------------------------------
Magnitude (a.u.)       :      3.39789
Magnitude (Debye)      :      8.63674

Rotational constants in cm-1:     0.020281     0.013510     0.009451
Rotational constants in MHz :   608.005987   405.034308   283.324538

                             ****ORCA TERMINATED NORMALLY****
TOTAL RUN TIME: 0 days 0 hours 10 minutes 36 seconds 631 msec
