                         Program Version 5.0.0 -  RELEASE  -
|  1> !LC-PBE RIJCOSX def2-TZVPD def2/J TightSCF
|  2> *xyz 0 1
|  3> C          4.08422        1.74208       -2.11472
|  4> C          4.26524        2.50052       -0.79589
|  5> H          4.86853        3.39267       -0.98113
|  6> H          3.30764        2.82457       -0.38781
|  7> C          4.98224        1.65026        0.24742
|  8> F          4.36806        1.38927        1.31371
|  9> O          6.12892        1.23351       -0.04562
| 10> H          3.57911        2.36849       -2.81997
| 11> H          3.50424        0.85965       -1.94198
| 12> H          5.04288        1.46841       -2.50327
| 13> *
| 14> %MaxCore 64000
| 15> %pal nprocs 8
| 16> end
| 17> %scf
| 18>   MaxIter 150
| 19> end
| 20>
| 21>
| 22>                          ****END OF INPUT****

CARTESIAN COORDINATES (ANGSTROEM)
---------------------------------
  C      4.084220    1.742080   -2.114720
  C      4.265240    2.500520   -0.795890
  H      4.868530    3.392670   -0.981130
  H      3.307640    2.824570   -0.387810
  C      4.982240    1.650260    0.247420
  F      4.368060    1.389270    1.313710
  O      6.128920    1.233510   -0.045620
  H      3.579110    2.368490   -2.819970
  H      3.504240    0.859650   -1.941980
  H      5.042880    1.468410   -2.503270

 Total Charge           Charge          ....    0
 Multiplicity           Mult            ....    1
 Number of Electrons    NEL             ....   40
 Basis Dimension        Dim             ....  236

ORBITAL ENERGIES
----------------

  NO   OCC          E(Eh)            E(eV)
   0   2.0000     -24.562179      -668.3709
   1   2.0000     -18.984971      -516.6073
   2   2.0000     -10.302482      -280.3448
   3   2.0000     -10.149954      -276.1943
   4   2.0000     -10.119335      -275.3611
   5   2.0000      -1.477733       -40.2112
   6   2.0000      -1.201114       -32.6840
   7   2.0000      -0.981960       -26.7205
   8   2.0000      -0.855836       -23.2885
   9   2.0000      -0.798528       -21.7291
  10   2.0000      -0.706910       -19.2360
  11   2.0000      -0.690352       -18.7854
  12   2.0000      -0.661151       -17.9908
  13   2.0000      -0.612073       -16.6553
  14   2.0000      -0.578812       -15.7503
  15   2.0000      -0.538945       -14.6654
  16   2.0000      -0.515782       -14.0351
  17   2.0000      -0.508316       -13.8320
  18   2.0000      -0.482188       -13.1210
  19   2.0000      -0.431843       -11.7510
  20   0.0000       0.055368         1.5066
  21   0.0000       0.068115         1.8535
  22   0.0000       0.084265         2.2930
  23   0.0000       0.090459         2.4615
  24   0.0000       0.099511         2.7078

MULLIKEN ATOMIC CHARGES
-----------------------
   0 C :   -1.192695
   1 C :   -0.425258
   2 H :    0.311329
   3 H :    0.336745
   4 C :    0.519841
   5 F :   -0.163579
   6 O :   -0.466150
   7 H :    0.347269
   8 H :    0.373461
   9 H :    0.359038
Sum of atomic charges:   -0.0000000

LOEWDIN ATOMIC CHARGES
----------------------
   0 C :   -0.109258
   1 C :   -0.175325
   2 H :    0.130722
   3 H :    0.117779
   4 C :   -0.503833
   5 F :    0.216187
   6 O :    0.081472
   7 H :    0.077513
   8 H :    0.083458
   9 H :    0.081286

  Mayer bond orders larger than 0.100000
B(  0-C ,  1-C ) :   0.6173 B(  0-C ,  7-H ) :   0.9233 B(  0-C ,  8-H ) :   0.8930
B(  0-C ,  9-H ) :   0.9556 B(  1-C ,  2-H ) :   0.9356 B(  1-C ,  3-H ) :   0.9096
B(  1-C ,  4-C ) :   0.9148 B(  4-C ,  5-F ) :   1.0440 B(  4-C ,  6-O ) :   1.7445

FINAL SINGLE POINT ENERGY      -291.697384281644

DIPOLE MOMENT
-------------
                                X             Y             Z
Electronic contribution:      1.88162      -2.01294       8.11874
Nuclear contribution   :     -2.87511       2.61564      -8.50037
                        -----------------------------------------
Total Dipole Moment    :     -0.99348       0.60270      -0.38163
                        -----------------------------------------
Magnitude (a.u.)       :      1.22307
Magnitude (Debye)      :      3.10879

Rotational constants in cm-1:     0.297822     0.128965     0.102219
Rotational constants in MHz :  8928.481997  3866.271686  3064.463504

                             ****ORCA TERMINATED NORMALLY****
TOTAL RUN TIME: 0 days 0 hours 0 minutes 16 seconds 501 msec
