                         Program Version 5.0.0 -  RELEASE  -
|  1> !LC-PBE RIJCOSX def2-TZVPD def2/J TightSCF
|  2> *xyz 0 1
|  3> C          3.91385       -1.65829        3.01513
|  4> C          5.03927       -0.90115        2.49282
|  5> C          6.21038       -1.41726        2.17824
|  6> N          6.53591       -2.67712        2.55608
|  7> N          7.07675       -0.70082        1.47891
|  8> H          7.95464       -1.12155        1.20755
|  9> H          6.75616        0.10664        0.96028
| 10> H          4.84217        0.01761        2.11519
| 11> H          5.99388       -3.12692        3.28278
| 12> C          3.13916       -2.37657        1.91061
| 13> H          3.26723       -0.93940        3.52069
| 14> H          4.24720       -2.35509        3.79006
| 15> H          7.49844       -2.97548        2.46878
| 16> H          2.82969       -1.66654        1.17238
| 17> H          2.27790       -2.85264        2.33072
| 18> H          3.76754       -3.11338        1.45548
| 19> *
| 20> %MaxCore 64000
| 21> %pal nprocs 8
| 22> end
| 23> %scf
| 24>   MaxIter 150
| 25> end
| 26>
| 27>
| 28>                          ****END OF INPUT****

CARTESIAN COORDINATES (ANGSTROEM)
---------------------------------
  C      3.913850   -1.658290    3.015130
  C      5.039270   -0.901150    2.492820
  C      6.210380   -1.417260    2.178240
  N      6.535910   -2.677120    2.556080
  N      7.076750   -0.700820    1.478910
  H      7.954640   -1.121550    1.207550
  H      6.756160    0.106640    0.960280
  H      4.842170    0.017610    2.115190
  H      5.993880   -3.126920    3.282780
  C      3.139160   -2.376570    1.910610
  H      3.267230   -0.939400    3.520690
  H      4.247200   -2.355090    3.790060
  H      7.498440   -2.975480    2.468780
  H      2.829690   -1.666540    1.172380
  H      2.277900   -2.852640    2.330720
  H      3.767540   -3.113380    1.455480

 Total Charge           Charge          ....    0
 Multiplicity           Mult            ....    1
 Number of Electrons    NEL             ....   48
 Basis Dimension        Dim             ....  312

ORBITAL ENERGIES
----------------

  NO   OCC          E(Eh)            E(eV)
   0   2.0000     -14.213687      -386.7741
   1   2.0000     -14.211672      -386.7192
   2   2.0000     -10.161604      -276.5113
   3   2.0000     -10.089496      -274.5491
   4   2.0000     -10.075472      -274.1675
   5   2.0000     -10.035608      -273.0828
   6   2.0000      -1.137516       -30.9534
   7   2.0000      -1.038053       -28.2469
   8   2.0000      -0.952859       -25.9286
   9   2.0000      -0.862597       -23.4725
  10   2.0000      -0.777244       -21.1499
  11   2.0000      -0.730223       -19.8704
  12   2.0000      -0.688833       -18.7441
  13   2.0000      -0.657683       -17.8965
  14   2.0000      -0.610840       -16.6218
  15   2.0000      -0.579851       -15.7786
  16   2.0000      -0.564613       -15.3639
  17   2.0000      -0.532866       -14.5000
  18   2.0000      -0.518692       -14.1143
  19   2.0000      -0.489822       -13.3287
  20   2.0000      -0.457508       -12.4494
  21   2.0000      -0.446072       -12.1382
  22   2.0000      -0.401575       -10.9274
  23   2.0000      -0.277834        -7.5603
  24   0.0000       0.062664         1.7052
  25   0.0000       0.086951         2.3660
  26   0.0000       0.089195         2.4271
  27   0.0000       0.099373         2.7041
  28   0.0000       0.115479         3.1423

MULLIKEN ATOMIC CHARGES
-----------------------
   0 C :   -0.802657
   1 C :   -0.612575
   2 C :    0.596445
   3 N :   -0.475748
   4 N :   -0.500823
   5 H :    0.194029
   6 H :    0.219858
   7 H :    0.309813
   8 H :    0.196141
   9 C :   -1.111847
  10 H :    0.310821
  11 H :    0.435139
  12 H :    0.188345
  13 H :    0.362842
  14 H :    0.360367
  15 H :    0.329851
Sum of atomic charges:   -0.0000000

LOEWDIN ATOMIC CHARGES
----------------------
   0 C :   -0.302341
   1 C :   -0.167292
   2 C :   -0.551436
   3 N :    0.114130
   4 N :    0.096629
   5 H :    0.105645
   6 H :    0.118217
   7 H :    0.079182
   8 H :    0.101029
   9 C :   -0.124839
  10 H :    0.111884
  11 H :    0.103179
  12 H :    0.103203
  13 H :    0.075181
  14 H :    0.066130
  15 H :    0.071501

  Mayer bond orders larger than 0.100000
B(  0-C ,  1-C ) :   0.6068 B(  0-C ,  9-C ) :   0.5677 B(  0-C , 10-H ) :   1.0769
B(  0-C , 11-H ) :   0.8557 B(  1-C ,  2-C ) :   1.2690 B(  1-C ,  7-H ) :   1.0986
B(  2-C ,  3-N ) :   0.8879 B(  2-C ,  4-N ) :   0.9265 B(  2-C ,  7-H ) :  -0.2381
B(  3-N ,  8-H ) :   0.9642 B(  3-N , 12-H ) :   1.0431 B(  4-N ,  5-H ) :   1.0298
B(  4-N ,  6-H ) :   0.9803 B(  9-C , 13-H ) :   0.9603 B(  9-C , 14-H ) :   0.9387
B(  9-C , 15-H ) :   0.9474 B( 10-H , 11-H ) :   0.1100

FINAL SINGLE POINT ENERGY      -267.138740684665

DIPOLE MOMENT
-------------
                                X             Y             Z
Electronic contribution:      4.58457       1.22763      -0.02928
Nuclear contribution   :     -3.74303      -1.46908      -0.23637
                        -----------------------------------------
Total Dipole Moment    :      0.84154      -0.24145      -0.26565
                        -----------------------------------------
Magnitude (a.u.)       :      0.91491
Magnitude (Debye)      :      2.32551

Rotational constants in cm-1:     0.225937     0.074877     0.065953
Rotational constants in MHz :  6773.424301  2244.750632  1977.214101

                             ****ORCA TERMINATED NORMALLY****
TOTAL RUN TIME: 0 days 0 hours 0 minutes 35 seconds 267 msec
