                         Program Version 5.0.0 -  RELEASE  -
|  1> !LC-PBE RIJCOSX def2-TZVPD def2/J TightSCF
|  2> *xyz 0 1
|  3> C          4.08422        1.74208       -2.11472
|  4> C          4.26524        2.50052       -0.79589
|  5> H          4.86853        3.39267       -0.98113
|  6> H          3.30764        2.82457       -0.38781
|  7> C          4.98224        1.65026        0.24742
|  8> O          4.36806        1.38927        1.31371
|  9> F          6.12892        1.23351       -0.04562
| 10> H          3.57911        2.36849       -2.81997
| 11> H          3.50424        0.85965       -1.94198
| 12> H          5.04288        1.46841       -2.50327
| 13> *
| 14> %MaxCore 64000
| 15> %pal nprocs 8
| 16> end
| 17> %scf
| 18>   MaxIter 150
| 19> end
| 20>
| 21>
| 22>                          ****END OF INPUT****

CARTESIAN COORDINATES (ANGSTROEM)
---------------------------------
  C      4.084220    1.742080   -2.114720
  C      4.265240    2.500520   -0.795890
  H      4.868530    3.392670   -0.981130
  H      3.307640    2.824570   -0.387810
  C      4.982240    1.650260    0.247420
  O      4.368060    1.389270    1.313710
  F      6.128920    1.233510   -0.045620
  H      3.579110    2.368490   -2.819970
  H      3.504240    0.859650   -1.941980
  H      5.042880    1.468410   -2.503270

 Total Charge           Charge          ....    0
 Multiplicity           Mult            ....    1
 Number of Electrons    NEL             ....   40
 Basis Dimension        Dim             ....  236

ORBITAL ENERGIES
----------------

  NO   OCC          E(Eh)            E(eV)
   0   2.0000     -24.563284      -668.4009
   1   2.0000     -18.984449      -516.5931
   2   2.0000     -10.302084      -280.3340
   3   2.0000     -10.149690      -276.1871
   4   2.0000     -10.124198      -275.4934
   5   2.0000      -1.480196       -40.2782
   6   2.0000      -1.198111       -32.6023
   7   2.0000      -0.986326       -26.8393
   8   2.0000      -0.853055       -23.2128
   9   2.0000      -0.804399       -21.8888
  10   2.0000      -0.710017       -19.3205
  11   2.0000      -0.696594       -18.9553
  12   2.0000      -0.653403       -17.7800
  13   2.0000      -0.612324       -16.6622
  14   2.0000      -0.579005       -15.7555
  15   2.0000      -0.543249       -14.7826
  16   2.0000      -0.521490       -14.1905
  17   2.0000      -0.510382       -13.8882
  18   2.0000      -0.486473       -13.2376
  19   2.0000      -0.426495       -11.6055
  20   0.0000       0.055572         1.5122
  21   0.0000       0.070406         1.9158
  22   0.0000       0.082841         2.2542
  23   0.0000       0.090086         2.4514
  24   0.0000       0.099647         2.7115

MULLIKEN ATOMIC CHARGES
-----------------------
   0 C :   -1.204883
   1 C :   -0.408841
   2 H :    0.337587
   3 H :    0.298340
   4 C :    0.531432
   5 O :   -0.482179
   6 F :   -0.159695
   7 H :    0.341498
   8 H :    0.380474
   9 H :    0.366268
Sum of atomic charges:   -0.0000000

LOEWDIN ATOMIC CHARGES
----------------------
   0 C :   -0.111746
   1 C :   -0.171763
   2 H :    0.127275
   3 H :    0.126345
   4 C :   -0.509604
   5 O :    0.077228
   6 F :    0.221168
   7 H :    0.078078
   8 H :    0.085054
   9 H :    0.077965

  Mayer bond orders larger than 0.100000
B(  0-C ,  1-C ) :   0.5658 B(  0-C ,  7-H ) :   0.9382 B(  0-C ,  8-H ) :   0.9158
B(  0-C ,  9-H ) :   0.9192 B(  1-C ,  2-H ) :   0.9141 B(  1-C ,  3-H ) :   0.9531
B(  1-C ,  4-C ) :   0.9189 B(  4-C ,  5-O ) :   1.7305 B(  4-C ,  6-F ) :   1.0287

FINAL SINGLE POINT ENERGY      -291.696670598209

DIPOLE MOMENT
-------------
                                X             Y             Z
Electronic contribution:      4.83750      -2.26540       5.80507
Nuclear contribution   :     -4.79499       2.78546      -7.01827
                        -----------------------------------------
Total Dipole Moment    :      0.04250       0.52007      -1.21321
                        -----------------------------------------
Magnitude (a.u.)       :      1.32066
Magnitude (Debye)      :      3.35685

Rotational constants in cm-1:     0.286098     0.133492     0.103343
Rotational constants in MHz :  8577.003657  4001.981591  3098.148068

                             ****ORCA TERMINATED NORMALLY****
TOTAL RUN TIME: 0 days 0 hours 0 minutes 19 seconds 161 msec
