                         Program Version 5.0.0 -  RELEASE  -
|  1> !LC-PBE RIJCOSX def2-TZVPD def2/J TightSCF
|  2> *xyz 0 1
|  3> C          3.91385       -1.65829        3.01513
|  4> N          5.03927       -0.90115        2.49282
|  5> C          6.21038       -1.41726        2.17824
|  6> C          6.53591       -2.67712        2.55608
|  7> N          7.07675       -0.70082        1.47891
|  8> H          7.95464       -1.12155        1.20755
|  9> H          6.75616        0.10664        0.96028
| 10> H          4.84217        0.01761        2.11519
| 11> H          5.99388       -3.12692        3.28278
| 12> C          3.13916       -2.37657        1.91061
| 13> H          3.26723       -0.93940        3.52069
| 14> H          4.24720       -2.35509        3.79006
| 15> H          7.49844       -2.97548        2.46878
| 16> H          2.82969       -1.66654        1.17238
| 17> H          2.27790       -2.85264        2.33072
| 18> H          3.76754       -3.11338        1.45548
| 19> *
| 20> %MaxCore 64000
| 21> %pal nprocs 8
| 22> end
| 23> %scf
| 24>   MaxIter 150
| 25> end
| 26>
| 27>
| 28>                          ****END OF INPUT****

CARTESIAN COORDINATES (ANGSTROEM)
---------------------------------
  C      3.913850   -1.658290    3.015130
  N      5.039270   -0.901150    2.492820
  C      6.210380   -1.417260    2.178240
  C      6.535910   -2.677120    2.556080
  N      7.076750   -0.700820    1.478910
  H      7.954640   -1.121550    1.207550
  H      6.756160    0.106640    0.960280
  H      4.842170    0.017610    2.115190
  H      5.993880   -3.126920    3.282780
  C      3.139160   -2.376570    1.910610
  H      3.267230   -0.939400    3.520690
  H      4.247200   -2.355090    3.790060
  H      7.498440   -2.975480    2.468780
  H      2.829690   -1.666540    1.172380
  H      2.277900   -2.852640    2.330720
  H      3.767540   -3.113380    1.455480

 Total Charge           Charge          ....    0
 Multiplicity           Mult            ....    1
 Number of Electrons    NEL             ....   48
 Basis Dimension        Dim             ....  312

ORBITAL ENERGIES
----------------

  NO   OCC          E(Eh)            E(eV)
   0   2.0000     -14.220282      -386.9536
   1   2.0000     -14.215963      -386.8360
   2   2.0000     -10.169799      -276.7343
   3   2.0000     -10.148284      -276.1489
   4   2.0000     -10.093081      -274.6467
   5   2.0000     -10.023173      -272.7444
   6   2.0000      -1.152581       -31.3633
   7   2.0000      -1.061995       -28.8984
   8   2.0000      -0.927491       -25.2383
   9   2.0000      -0.876143       -23.8411
  10   2.0000      -0.804971       -21.9044
  11   2.0000      -0.717392       -19.5212
  12   2.0000      -0.701567       -19.0906
  13   2.0000      -0.667677       -18.1684
  14   2.0000      -0.611063       -16.6279
  15   2.0000      -0.582253       -15.8439
  16   2.0000      -0.564049       -15.3485
  17   2.0000      -0.535881       -14.5821
  18   2.0000      -0.513131       -13.9630
  19   2.0000      -0.503299       -13.6955
  20   2.0000      -0.498219       -13.5572
  21   2.0000      -0.473434       -12.8828
  22   2.0000      -0.382998       -10.4219
  23   2.0000      -0.282559        -7.6888
  24   0.0000       0.062309         1.6955
  25   0.0000       0.081922         2.2292
  26   0.0000       0.089780         2.4430
  27   0.0000       0.092389         2.5140
  28   0.0000       0.118924         3.2361

MULLIKEN ATOMIC CHARGES
-----------------------
   0 C :   -0.619314
   1 N :   -0.319964
   2 C :    0.903173
   3 C :   -1.403119
   4 N :   -0.495386
   5 H :    0.207158
   6 H :    0.212117
   7 H :    0.192311
   8 H :    0.297517
   9 C :   -1.133712
  10 H :    0.355310
  11 H :    0.364477
  12 H :    0.345420
  13 H :    0.340303
  14 H :    0.407905
  15 H :    0.345804
Sum of atomic charges:    0.0000000

LOEWDIN ATOMIC CHARGES
----------------------
   0 C :   -0.256600
   1 N :    0.002261
   2 C :   -0.572282
   3 C :   -0.018820
   4 N :    0.104183
   5 H :    0.117683
   6 H :    0.109772
   7 H :    0.147228
   8 H :    0.005677
   9 C :   -0.105658
  10 H :    0.119918
  11 H :    0.115791
  12 H :    0.013143
  13 H :    0.072715
  14 H :    0.072272
  15 H :    0.072716

  Mayer bond orders larger than 0.100000
B(  0-C ,  1-N ) :   0.7526 B(  0-C ,  3-C ) :   0.1632 B(  0-C ,  9-C ) :   0.6259
B(  0-C , 10-H ) :   0.8850 B(  0-C , 11-H ) :   0.9058 B(  1-N ,  2-C ) :   0.9643
B(  1-N ,  7-H ) :   1.0650 B(  2-C ,  3-C ) :   1.0305 B(  2-C ,  4-N ) :   0.8517
B(  2-C ,  8-H ) :  -0.1133 B(  2-C , 12-H ) :  -0.1298 B(  3-C ,  4-N ) :   0.1000
B(  3-C ,  8-H ) :   1.0335 B(  3-C , 12-H ) :   1.0204 B(  4-N ,  5-H ) :   0.9916
B(  4-N ,  6-H ) :   1.0125 B(  9-C , 13-H ) :   0.9516 B(  9-C , 14-H ) :   0.8984
B(  9-C , 15-H ) :   0.9612

FINAL SINGLE POINT ENERGY      -267.127555960379

DIPOLE MOMENT
-------------
                                X             Y             Z
Electronic contribution:      3.04699       2.81683      -0.21540
Nuclear contribution   :     -3.42552      -1.84584      -0.22295
                        -----------------------------------------
Total Dipole Moment    :     -0.37853       0.97098      -0.43835
                        -----------------------------------------
Magnitude (a.u.)       :      1.13060
Magnitude (Debye)      :      2.87375

Rotational constants in cm-1:     0.233526     0.075277     0.067092
Rotational constants in MHz :  7000.931279  2256.752901  2011.361214

                             ****ORCA TERMINATED NORMALLY****
TOTAL RUN TIME: 0 days 0 hours 0 minutes 34 seconds 873 msec
