                         Program Version 5.0.0 -  RELEASE  -
|  1> !LC-PBE RIJCOSX def2-TZVPD def2/J TightSCF
|  2> *xyz 0 1
|  3> C          3.91385       -1.65829        3.01513
|  4> N          5.03927       -0.90115        2.49282
|  5> C          6.21038       -1.41726        2.17824
|  6> N          6.53591       -2.67712        2.55608
|  7> C          7.07675       -0.70082        1.47891
|  8> H          7.95464       -1.12155        1.20755
|  9> H          6.75616        0.10664        0.96028
| 10> H          4.84217        0.01761        2.11519
| 11> H          5.99388       -3.12692        3.28278
| 12> C          3.13916       -2.37657        1.91061
| 13> H          3.26723       -0.93940        3.52069
| 14> H          4.24720       -2.35509        3.79006
| 15> H          7.49844       -2.97548        2.46878
| 16> H          2.82969       -1.66654        1.17238
| 17> H          2.27790       -2.85264        2.33072
| 18> H          3.76754       -3.11338        1.45548
| 19> *
| 20> %MaxCore 64000
| 21> %pal nprocs 8
| 22> end
| 23> %scf
| 24>   MaxIter 150
| 25> end
| 26>
| 27>
| 28>                          ****END OF INPUT****

CARTESIAN COORDINATES (ANGSTROEM)
---------------------------------
  C      3.913850   -1.658290    3.015130
  N      5.039270   -0.901150    2.492820
  C      6.210380   -1.417260    2.178240
  N      6.535910   -2.677120    2.556080
  C      7.076750   -0.700820    1.478910
  H      7.954640   -1.121550    1.207550
  H      6.756160    0.106640    0.960280
  H      4.842170    0.017610    2.115190
  H      5.993880   -3.126920    3.282780
  C      3.139160   -2.376570    1.910610
  H      3.267230   -0.939400    3.520690
  H      4.247200   -2.355090    3.790060
  H      7.498440   -2.975480    2.468780
  H      2.829690   -1.666540    1.172380
  H      2.277900   -2.852640    2.330720
  H      3.767540   -3.113380    1.455480

 Total Charge           Charge          ....    0
 Multiplicity           Mult            ....    1
 Number of Electrons    NEL             ....   48
 Basis Dimension        Dim             ....  312

ORBITAL ENERGIES
----------------

  NO   OCC          E(Eh)            E(eV)
   0   2.0000     -14.216112      -386.8401
   1   2.0000     -14.213438      -386.7673
   2   2.0000     -10.166306      -276.6393
   3   2.0000     -10.156853      -276.3820
   4   2.0000     -10.100933      -274.8604
   5   2.0000     -10.021472      -272.6981
   6   2.0000      -1.147721       -31.2311
   7   2.0000      -1.053548       -28.6685
   8   2.0000      -0.946854       -25.7652
   9   2.0000      -0.871674       -23.7194
  10   2.0000      -0.792125       -21.5548
  11   2.0000      -0.754346       -20.5268
  12   2.0000      -0.685280       -18.6474
  13   2.0000      -0.645323       -17.5601
  14   2.0000      -0.617765       -16.8102
  15   2.0000      -0.581799       -15.8315
  16   2.0000      -0.577359       -15.7107
  17   2.0000      -0.544248       -14.8097
  18   2.0000      -0.516163       -14.0455
  19   2.0000      -0.505084       -13.7440
  20   2.0000      -0.496556       -13.5120
  21   2.0000      -0.486210       -13.2304
  22   2.0000      -0.387401       -10.5417
  23   2.0000      -0.281761        -7.6671
  24   0.0000       0.061818         1.6822
  25   0.0000       0.084101         2.2885
  26   0.0000       0.087600         2.3837
  27   0.0000       0.091139         2.4800
  28   0.0000       0.117331         3.1928

MULLIKEN ATOMIC CHARGES
-----------------------
   0 C :   -0.664020
   1 N :   -0.286875
   2 C :    0.870428
   3 N :   -0.489975
   4 C :   -1.302600
   5 H :    0.306415
   6 H :    0.311341
   7 H :    0.171847
   8 H :    0.190847
   9 C :   -1.112577
  10 H :    0.353607
  11 H :    0.376151
  12 H :    0.199413
  13 H :    0.331206
  14 H :    0.406440
  15 H :    0.338353
Sum of atomic charges:    0.0000000

LOEWDIN ATOMIC CHARGES
----------------------
   0 C :   -0.260121
   1 N :    0.005758
   2 C :   -0.569725
   3 N :    0.110575
   4 C :   -0.028067
   5 H :    0.015821
   6 H :    0.018879
   7 H :    0.154315
   8 H :    0.092337
   9 C :   -0.106756
  10 H :    0.120711
  11 H :    0.111452
  12 H :    0.114169
  13 H :    0.075940
  14 H :    0.071296
  15 H :    0.073416

  Mayer bond orders larger than 0.100000
B(  0-C ,  1-N ) :   0.8020 B(  0-C ,  2-C ) :  -0.1664 B(  0-C ,  9-C ) :   0.6418
B(  0-C , 10-H ) :   0.9197 B(  0-C , 11-H ) :   0.8915 B(  1-N ,  2-C ) :   0.9569
B(  1-N ,  4-C ) :   0.1296 B(  1-N ,  7-H ) :   1.0380 B(  2-C ,  3-N ) :   0.8491
B(  2-C ,  4-C ) :   1.0022 B(  2-C ,  5-H ) :  -0.1605 B(  3-N ,  8-H ) :   1.0055
B(  3-N , 12-H ) :   0.9959 B(  4-C ,  5-H ) :   1.1114 B(  4-C ,  6-H ) :   0.9653
B(  9-C , 13-H ) :   0.9644 B(  9-C , 14-H ) :   0.9188 B(  9-C , 15-H ) :   0.9383

FINAL SINGLE POINT ENERGY      -267.127498329242

DIPOLE MOMENT
-------------
                                X             Y             Z
Electronic contribution:      2.49871       0.91173       0.96616
Nuclear contribution   :     -3.31079      -1.42658      -0.45147
                        -----------------------------------------
Total Dipole Moment    :     -0.81208      -0.51486       0.51469
                        -----------------------------------------
Magnitude (a.u.)       :      1.09062
Magnitude (Debye)      :      2.77214

Rotational constants in cm-1:     0.225507     0.077571     0.068070
Rotational constants in MHz :  6760.542142  2325.533779  2040.680522

                             ****ORCA TERMINATED NORMALLY****
TOTAL RUN TIME: 0 days 0 hours 0 minutes 34 seconds 910 msec
