                         Program Version 5.0.0 -  RELEASE  -
|  1> !LC-PBE RIJCOSX def2-TZVPD def2/J TightSCF xyzfile
|  2>
|  3> *xyzfile 0 1 D1.xyz
|  4>
|  5> %MaxCore 64000
|  6>
|  7> %pal nprocs 4
|  8> end
|  9>
| 10> %scf
| 11>   MaxIter 150
| 12> end
| 13>
| 14>
| 15>                          ****END OF INPUT****

CARTESIAN COORDINATES (ANGSTROEM)
---------------------------------
  C      3.913853   -1.658291    3.015134
  C      5.039266   -0.901154    2.492821
  C      4.084215    1.742081   -2.114724
  C      4.265245    2.500518   -0.795890
  H      4.868534    3.392674   -0.981134
  H      3.307640    2.824571   -0.387809
  C      4.982240    1.650257    0.247422
  C      6.210384   -1.417261    2.178244
  N      6.535913   -2.677122    2.556078
  N      7.076754   -0.700820    1.478906
  H      7.954643   -1.121554    1.207554
  H      6.756161    0.106637    0.960278
  H      4.842168    0.017609    2.115191
  H      5.993876   -3.126918    3.282784
  H      7.498441   -2.975482    2.468776
  F      4.368065    1.389270    1.313706
  O      6.128919    1.233512   -0.045620
  C      3.139159   -2.376572    1.910609
  H      3.267235   -0.939401    3.520693
  H      4.247195   -2.355095    3.790065
  C      1.997274    0.430918   -1.399218
  C      3.412746    0.376886   -1.965497
  H      4.047407   -0.246590   -1.326706
  H      3.390774   -0.118719   -2.942839
  H      5.068475    1.598504   -2.565728
  H      3.503356    2.363939   -2.804565
  C      2.399946   -1.389579    1.009490
  H      2.440750   -3.087118    2.362976
  H      3.844475   -2.970462    1.318677
  C      2.070177   -1.936705   -0.372401
  H      1.481611   -1.061542    1.509912
  H      3.008628   -0.490001    0.897451
  C      1.322238   -0.935775   -1.256413
  H      1.472747   -2.850902   -0.283997
  H      3.003539   -2.234041   -0.862535
  H      1.376444    1.058920   -2.047420
  H      2.015341    0.929780   -0.426535
  H      0.316648   -0.787213   -0.848278
  H      1.185611   -1.379252   -2.248613

 Total Charge           Charge          ....    0
 Multiplicity           Mult            ....    1
 Number of Electrons    NEL             ....  126
 Basis Dimension        Dim             ....  805

ORBITAL ENERGIES
----------------

  NO   OCC          E(Eh)            E(eV)
   0   2.0000     -24.576029      -668.7478
   1   2.0000     -19.007250      -517.2136
   2   2.0000     -14.197483      -386.3331
   3   2.0000     -14.171066      -385.6143
   4   2.0000     -10.323839      -280.9259
   5   2.0000     -10.155293      -276.3396
   6   2.0000     -10.142386      -275.9884
   7   2.0000     -10.134591      -275.7762
   8   2.0000     -10.117974      -275.3241
   9   2.0000     -10.112909      -275.1863
  10   2.0000     -10.106768      -275.0191
  11   2.0000     -10.098687      -274.7993
  12   2.0000     -10.092292      -274.6252
  13   2.0000     -10.083873      -274.3961
  14   2.0000     -10.078492      -274.2497
  15   2.0000     -10.010577      -272.4016
  16   2.0000      -1.496472       -40.7211
  17   2.0000      -1.228832       -33.4382
  18   2.0000      -1.114313       -30.3220
  19   2.0000      -1.017939       -27.6995
  20   2.0000      -1.012702       -27.5570
  21   2.0000      -0.985804       -26.8251
  22   2.0000      -0.954477       -25.9726
  23   2.0000      -0.921057       -25.0632
  24   2.0000      -0.879945       -23.9445
  25   2.0000      -0.853755       -23.2319
  26   2.0000      -0.825082       -22.4516
  27   2.0000      -0.800428       -21.7808
  28   2.0000      -0.765893       -20.8410
  29   2.0000      -0.747134       -20.3305
  30   2.0000      -0.726874       -19.7792
  31   2.0000      -0.717241       -19.5171
  32   2.0000      -0.712753       -19.3950
  33   2.0000      -0.707610       -19.2550
  34   2.0000      -0.676817       -18.4171
  35   2.0000      -0.662417       -18.0253
  36   2.0000      -0.637000       -17.3337
  37   2.0000      -0.629193       -17.1212
  38   2.0000      -0.625237       -17.0136
  39   2.0000      -0.605663       -16.4809
  40   2.0000      -0.589968       -16.0539
  41   2.0000      -0.578169       -15.7328
  42   2.0000      -0.569523       -15.4975
  43   2.0000      -0.559230       -15.2174
  44   2.0000      -0.554740       -15.0953
  45   2.0000      -0.549036       -14.9400
  46   2.0000      -0.531294       -14.4572
  47   2.0000      -0.527245       -14.3471
  48   2.0000      -0.509725       -13.8703
  49   2.0000      -0.500454       -13.6180
  50   2.0000      -0.498684       -13.5699
  51   2.0000      -0.493928       -13.4405
  52   2.0000      -0.479897       -13.0587
  53   2.0000      -0.467495       -12.7212
  54   2.0000      -0.463867       -12.6225
  55   2.0000      -0.452917       -12.3245
  56   2.0000      -0.438669       -11.9368
  57   2.0000      -0.434719       -11.8293
  58   2.0000      -0.429356       -11.6834
  59   2.0000      -0.423657       -11.5283
  60   2.0000      -0.417287       -11.3550
  61   2.0000      -0.376955       -10.2575
  62   2.0000      -0.258957        -7.0466
  63   0.0000       0.043495         1.1835
  64   0.0000       0.061587         1.6759
  65   0.0000       0.068357         1.8601
  66   0.0000       0.073130         1.9900
  67   0.0000       0.076259         2.0751

MULLIKEN ATOMIC CHARGES
-----------------------
   0 C :   -1.177420
   1 C :   -1.126675
   2 C :   -0.814019
   3 C :   -0.672827
   4 H :    0.389955
   5 H :    0.393350
   6 C :    0.717668
   7 C :    0.324443
   8 N :   -0.471114
   9 N :   -0.429367
  10 H :    0.181960
  11 H :    0.264356
  12 H :    0.841864
  13 H :    0.207039
  14 H :    0.170152
  15 F :   -0.185563
  16 O :   -0.651768
  17 C :   -0.631795
  18 H :    0.293575
  19 H :    0.559730
  20 C :   -0.690099
  21 C :   -0.649326
  22 H :    0.377109
  23 H :    0.342526
  24 H :    0.376166
  25 H :    0.390621
  26 C :    0.127256
  27 H :    0.421929
  28 H :    0.435895
  29 C :   -0.879281
  30 H :    0.346405
  31 H :   -0.179965
  32 C :   -0.874674
  33 H :    0.356240
  34 H :    0.438599
  35 H :    0.339111
  36 H :    0.381473
  37 H :    0.374479
  38 H :    0.381992
Sum of atomic charges:    0.0000000

LOEWDIN ATOMIC CHARGES
----------------------
   0 C :   -0.243896
   1 C :   -0.152821
   2 C :   -0.208922
   3 C :   -0.110383
   4 H :    0.137906
   5 H :    0.124221
   6 C :   -0.443065
   7 C :   -0.528354
   8 N :    0.115054
   9 N :    0.111882
  10 H :    0.107866
  11 H :    0.031462
  12 H :    0.037142
  13 H :    0.098364
  14 H :    0.101658
  15 F :    0.201029
  16 O :    0.093442
  17 C :   -0.218930
  18 H :    0.120765
  19 H :    0.106135
  20 C :   -0.235920
  21 C :   -0.223958
  22 H :    0.118690
  23 H :    0.131994
  24 H :    0.124218
  25 H :    0.126893
  26 C :   -0.233940
  27 H :    0.117065
  28 H :    0.122783
  29 C :   -0.235736
  30 H :    0.134743
  31 H :    0.088612
  32 C :   -0.230009
  33 H :    0.123668
  34 H :    0.119375
  35 H :    0.125371
  36 H :    0.107834
  37 H :    0.119345
  38 H :    0.118417

  Mayer bond orders larger than 0.100000
B(  0-C ,  1-C ) :   0.4661 B(  0-C , 12-H ) :  -0.1490 B(  0-C , 17-C ) :   0.6237
B(  0-C , 18-H ) :   1.0666 B(  0-C , 19-H ) :   0.8630 B(  0-C , 26-C ) :   0.1564
B(  1-C ,  7-C ) :   1.5338 B(  1-C , 17-C ) :  -0.2671 B(  1-C , 19-H ) :  -0.2653
B(  1-C , 26-C ) :   0.1423 B(  1-C , 31-H ) :  -0.1242 B(  2-C ,  3-C ) :   0.7475
B(  2-C , 21-C ) :   0.8253 B(  2-C , 24-H ) :   0.9248 B(  2-C , 25-H ) :   0.8851
B(  3-C ,  4-H ) :   0.8516 B(  3-C ,  5-H ) :   0.9726 B(  3-C ,  6-C ) :   0.8165
B(  3-C , 20-C ) :   0.1003 B(  3-C , 21-C ) :  -0.1255 B(  6-C , 15-F ) :   0.9931
B(  6-C , 16-O ) :   1.4637 B(  7-C ,  8-N ) :   0.9085 B(  7-C ,  9-N ) :   0.9335
B(  7-C , 12-H ) :   0.2478 B(  8-N , 13-H ) :   0.9561 B(  8-N , 14-H ) :   1.0659
B(  9-N , 10-H ) :   1.0455 B(  9-N , 11-H ) :   0.8735 B( 12-H , 15-F ) :  -0.3211
B( 12-H , 16-O ) :   0.1399 B( 12-H , 17-C ) :   0.1241 B( 12-H , 26-C ) :  -0.1342
B( 17-C , 26-C ) :   0.6599 B( 17-C , 27-H ) :   0.9001 B( 17-C , 28-H ) :   0.7601
B( 17-C , 29-C ) :   0.2492 B( 20-C , 21-C ) :   0.3368 B( 20-C , 26-C ) :   0.1030
B( 20-C , 32-C ) :   0.8361 B( 20-C , 35-H ) :   0.9291 B( 20-C , 36-H ) :   0.9804
B( 21-C , 22-H ) :   0.9662 B( 21-C , 23-H ) :   0.9339 B( 21-C , 36-H ) :  -0.1164
B( 26-C , 29-C ) :   0.4652 B( 26-C , 30-H ) :   0.8611 B( 26-C , 31-H ) :   0.9477
B( 29-C , 32-C ) :   0.8206 B( 29-C , 33-H ) :   0.9002 B( 29-C , 34-H ) :   0.8927
B( 30-H , 31-H ) :   0.1679 B( 32-C , 37-H ) :   0.9466 B( 32-C , 38-H ) :   0.9313

FINAL SINGLE POINT ENERGY      -753.569429763958

DIPOLE MOMENT
-------------
                                X             Y             Z
Electronic contribution:     11.23824       8.97713       5.88968
Nuclear contribution   :    -11.48003      -8.36271      -6.78621
                        -----------------------------------------
Total Dipole Moment    :     -0.24179       0.61442      -0.89654
                        -----------------------------------------
Magnitude (a.u.)       :      1.11344
Magnitude (Debye)      :      2.83014

Rotational constants in cm-1:     0.020055     0.013548     0.009477
Rotational constants in MHz :   601.234832   406.162779   284.104317

                             ****ORCA TERMINATED NORMALLY****
TOTAL RUN TIME: 0 days 0 hours 13 minutes 28 seconds 691 msec
