                         Program Version 5.0.0 -  RELEASE  -
|  1> !LC-PBE RIJCOSX def2-TZVPD def2/J TightSCF xyzfile
|  2>
|  3> *xyzfile 0 1 D2.xyz
|  4>
|  5> %MaxCore 64000
|  6>
|  7> %pal nprocs 4
|  8> end
|  9>
| 10> %scf
| 11>   MaxIter 150
| 12> end
| 13>
| 14>
| 15>                          ****END OF INPUT****

CARTESIAN COORDINATES (ANGSTROEM)
---------------------------------
  C      3.913853   -1.658291    3.015134
  N      5.039266   -0.901154    2.492821
  C      4.084215    1.742081   -2.114724
  C      4.265245    2.500518   -0.795890
  H      4.868534    3.392674   -0.981134
  H      3.307640    2.824571   -0.387809
  C      4.982240    1.650257    0.247422
  C      6.210384   -1.417261    2.178244
  C      6.535913   -2.677122    2.556078
  N      7.076754   -0.700820    1.478906
  H      7.954643   -1.121554    1.207554
  H      6.756161    0.106637    0.960278
  H      4.842168    0.017609    2.115191
  H      5.993876   -3.126918    3.282784
  H      7.498441   -2.975482    2.468776
  F      4.368065    1.389270    1.313706
  O      6.128919    1.233512   -0.045620
  C      3.139159   -2.376572    1.910609
  H      3.267235   -0.939401    3.520693
  H      4.247195   -2.355095    3.790065
  C      1.997274    0.430918   -1.399218
  C      3.412746    0.376886   -1.965497
  H      4.047407   -0.246590   -1.326706
  H      3.390774   -0.118719   -2.942839
  H      5.068475    1.598504   -2.565728
  H      3.503356    2.363939   -2.804565
  C      2.399946   -1.389579    1.009490
  H      2.440750   -3.087118    2.362976
  H      3.844475   -2.970462    1.318677
  C      2.070177   -1.936705   -0.372401
  H      1.481611   -1.061542    1.509912
  H      3.008628   -0.490001    0.897451
  C      1.322238   -0.935775   -1.256413
  H      1.472747   -2.850902   -0.283997
  H      3.003539   -2.234041   -0.862535
  H      1.376444    1.058920   -2.047420
  H      2.015341    0.929780   -0.426535
  H      0.316648   -0.787213   -0.848278
  H      1.185611   -1.379252   -2.248613

 Total Charge           Charge          ....    0
 Multiplicity           Mult            ....    1
 Number of Electrons    NEL             ....  126
 Basis Dimension        Dim             ....  805

ORBITAL ENERGIES
----------------

  NO   OCC          E(Eh)            E(eV)
   0   2.0000     -24.604676      -669.5273
   1   2.0000     -19.023264      -517.6493
   2   2.0000     -14.196696      -386.3117
   3   2.0000     -14.172436      -385.6516
   4   2.0000     -10.340324      -281.3745
   5   2.0000     -10.167679      -276.6766
   6   2.0000     -10.146481      -276.0998
   7   2.0000     -10.144384      -276.0427
   8   2.0000     -10.135282      -275.7950
   9   2.0000     -10.127671      -275.5879
  10   2.0000     -10.122761      -275.4543
  11   2.0000     -10.116155      -275.2746
  12   2.0000     -10.109602      -275.0963
  13   2.0000     -10.108297      -275.0607
  14   2.0000     -10.099329      -274.8167
  15   2.0000     -10.001861      -272.1645
  16   2.0000      -1.523416       -41.4543
  17   2.0000      -1.244842       -33.8739
  18   2.0000      -1.129257       -30.7286
  19   2.0000      -1.037875       -28.2420
  20   2.0000      -1.026931       -27.9442
  21   2.0000      -0.993823       -27.0433
  22   2.0000      -0.954736       -25.9797
  23   2.0000      -0.917400       -24.9637
  24   2.0000      -0.883507       -24.0414
  25   2.0000      -0.861319       -23.4377
  26   2.0000      -0.845513       -23.0076
  27   2.0000      -0.821671       -22.3588
  28   2.0000      -0.782975       -21.3058
  29   2.0000      -0.760687       -20.6993
  30   2.0000      -0.749116       -20.3845
  31   2.0000      -0.736757       -20.0482
  32   2.0000      -0.726220       -19.7614
  33   2.0000      -0.705863       -19.2075
  34   2.0000      -0.685965       -18.6661
  35   2.0000      -0.662344       -18.0233
  36   2.0000      -0.646729       -17.5984
  37   2.0000      -0.638572       -17.3764
  38   2.0000      -0.635682       -17.2978
  39   2.0000      -0.615250       -16.7418
  40   2.0000      -0.599080       -16.3018
  41   2.0000      -0.592061       -16.1108
  42   2.0000      -0.576211       -15.6795
  43   2.0000      -0.572665       -15.5830
  44   2.0000      -0.559041       -15.2123
  45   2.0000      -0.549793       -14.9606
  46   2.0000      -0.541862       -14.7448
  47   2.0000      -0.528162       -14.3720
  48   2.0000      -0.519314       -14.1312
  49   2.0000      -0.512474       -13.9451
  50   2.0000      -0.506624       -13.7859
  51   2.0000      -0.496081       -13.4991
  52   2.0000      -0.491852       -13.3840
  53   2.0000      -0.483504       -13.1568
  54   2.0000      -0.476086       -12.9550
  55   2.0000      -0.467529       -12.7221
  56   2.0000      -0.456479       -12.4214
  57   2.0000      -0.446796       -12.1579
  58   2.0000      -0.444074       -12.0839
  59   2.0000      -0.441574       -12.0158
  60   2.0000      -0.437354       -11.9010
  61   2.0000      -0.356903        -9.7118
  62   2.0000      -0.261212        -7.1080
  63   0.0000       0.029048         0.7904
  64   0.0000       0.051771         1.4087
  65   0.0000       0.064712         1.7609
  66   0.0000       0.066638         1.8133
  67   0.0000       0.073970         2.0128

MULLIKEN ATOMIC CHARGES
-----------------------
   0 C :   -1.163919
   1 N :   -0.329502
   2 C :   -0.829029
   3 C :   -0.677258
   4 H :    0.390535
   5 H :    0.400699
   6 C :    0.665870
   7 C :    0.862035
   8 C :   -1.435587
   9 N :   -0.456636
  10 H :    0.184078
  11 H :    0.292143
  12 H :    0.361027
  13 H :    0.305599
  14 H :    0.371199
  15 F :   -0.325493
  16 O :   -0.645264
  17 C :   -0.612005
  18 H :    0.360742
  19 H :    0.439828
  20 C :   -0.675286
  21 C :   -0.646814
  22 H :    0.367687
  23 H :    0.353986
  24 H :    0.378058
  25 H :    0.392681
  26 C :    0.087747
  27 H :    0.462128
  28 H :    0.441159
  29 C :   -0.888329
  30 H :    0.367071
  31 H :   -0.205435
  32 C :   -0.886090
  33 H :    0.371020
  34 H :    0.429967
  35 H :    0.349962
  36 H :    0.371785
  37 H :    0.384410
  38 H :    0.385232
Sum of atomic charges:   -0.0000000

LOEWDIN ATOMIC CHARGES
----------------------
   0 C :   -0.202565
   1 N :    0.025837
   2 C :   -0.206797
   3 C :   -0.109520
   4 H :    0.139560
   5 H :    0.124679
   6 C :   -0.443260
   7 C :   -0.556874
   8 C :   -0.024857
   9 N :    0.119543
  10 H :    0.119572
  11 H :    0.026806
  12 H :    0.090236
  13 H :    0.000251
  14 H :    0.009627
  15 F :    0.207070
  16 O :    0.098616
  17 C :   -0.199745
  18 H :    0.128567
  19 H :    0.118582
  20 C :   -0.235905
  21 C :   -0.223233
  22 H :    0.118277
  23 H :    0.133450
  24 H :    0.125575
  25 H :    0.128298
  26 C :   -0.236832
  27 H :    0.123624
  28 H :    0.123772
  29 C :   -0.233598
  30 H :    0.134179
  31 H :    0.085082
  32 C :   -0.228321
  33 H :    0.125628
  34 H :    0.121476
  35 H :    0.126393
  36 H :    0.106772
  37 H :    0.120090
  38 H :    0.119944

  Mayer bond orders larger than 0.100000
B(  0-C ,  1-N ) :   0.9115 B(  0-C ,  8-C ) :   0.1433 B(  0-C , 12-H ) :  -0.1066
B(  0-C , 17-C ) :   0.6959 B(  0-C , 18-H ) :   0.8391 B(  0-C , 19-H ) :   0.8659
B(  1-N ,  7-C ) :   0.9654 B(  1-N , 12-H ) :   0.7293 B(  2-C ,  3-C ) :   0.7514
B(  2-C , 21-C ) :   0.8367 B(  2-C , 24-H ) :   0.9218 B(  2-C , 25-H ) :   0.8835
B(  3-C ,  4-H ) :   0.8593 B(  3-C ,  5-H ) :   0.9597 B(  3-C ,  6-C ) :   0.8270
B(  3-C , 21-C ) :  -0.1258 B(  6-C , 15-F ) :   0.9176 B(  6-C , 16-O ) :   1.4953
B(  7-C ,  8-C ) :   0.8701 B(  7-C ,  9-N ) :   0.8079 B(  7-C , 11-H ) :  -0.1318
B(  7-C , 12-H ) :  -0.1407 B(  7-C , 13-H ) :  -0.1240 B(  7-C , 14-H ) :  -0.1170
B(  8-C ,  9-N ) :   0.1084 B(  8-C , 13-H ) :   1.0829 B(  8-C , 14-H ) :   1.0091
B(  9-N , 10-H ) :   1.0177 B(  9-N , 11-H ) :   0.8551 B( 17-C , 26-C ) :   0.6529
B( 17-C , 27-H ) :   0.8856 B( 17-C , 28-H ) :   0.7433 B( 17-C , 29-C ) :   0.2475
B( 20-C , 21-C ) :   0.3140 B( 20-C , 22-H ) :  -0.1084 B( 20-C , 32-C ) :   0.8546
B( 20-C , 35-H ) :   0.9234 B( 20-C , 36-H ) :   0.9847 B( 21-C , 22-H ) :   0.9798
B( 21-C , 23-H ) :   0.9256 B( 21-C , 36-H ) :  -0.1247 B( 26-C , 29-C ) :   0.4639
B( 26-C , 30-H ) :   0.8469 B( 26-C , 31-H ) :   1.0265 B( 29-C , 32-C ) :   0.8385
B( 29-C , 33-H ) :   0.8810 B( 29-C , 34-H ) :   0.9078 B( 30-H , 31-H ) :   0.1808
B( 32-C , 37-H ) :   0.9332 B( 32-C , 38-H ) :   0.9283

FINAL SINGLE POINT ENERGY      -753.563696521865

DIPOLE MOMENT
-------------
                                X             Y             Z
Electronic contribution:      9.68809      10.58661       5.49135
Nuclear contribution   :    -11.22009      -8.67117      -6.77523
                        -----------------------------------------
Total Dipole Moment    :     -1.53200       1.91545      -1.28388
                        -----------------------------------------
Magnitude (a.u.)       :      2.76845
Magnitude (Debye)      :      7.03683

Rotational constants in cm-1:     0.020086     0.013778     0.009581
Rotational constants in MHz :   602.172053   413.051122   287.243919

                             ****ORCA TERMINATED NORMALLY****
TOTAL RUN TIME: 0 days 0 hours 11 minutes 32 seconds 790 msec
