                         Program Version 5.0.0 -  RELEASE  -
|  1> !LC-PBE RIJCOSX def2-TZVPD def2/J TightSCF xyzfile
|  2>
|  3> *xyzfile 0 1 D3.xyz
|  4>
|  5> %MaxCore 64000
|  6>
|  7> %pal nprocs 4
|  8> end
|  9>
| 10> %scf
| 11>   MaxIter 150
| 12> end
| 13>
| 14>
| 15>                          ****END OF INPUT****

CARTESIAN COORDINATES (ANGSTROEM)
---------------------------------
  C      3.913853   -1.658291    3.015134
  N      5.039266   -0.901154    2.492821
  C      4.084215    1.742081   -2.114724
  C      4.265245    2.500518   -0.795890
  H      4.868534    3.392674   -0.981134
  H      3.307640    2.824571   -0.387809
  C      4.982240    1.650257    0.247422
  C      6.210384   -1.417261    2.178244
  N      6.535913   -2.677122    2.556078
  C      7.076754   -0.700820    1.478906
  H      7.954643   -1.121554    1.207554
  H      6.756161    0.106637    0.960278
  H      4.842168    0.017609    2.115191
  H      5.993876   -3.126918    3.282784
  H      7.498441   -2.975482    2.468776
  F      4.368065    1.389270    1.313706
  O      6.128919    1.233512   -0.045620
  C      3.139159   -2.376572    1.910609
  H      3.267235   -0.939401    3.520693
  H      4.247195   -2.355095    3.790065
  C      1.997274    0.430918   -1.399218
  C      3.412746    0.376886   -1.965497
  H      4.047407   -0.246590   -1.326706
  H      3.390774   -0.118719   -2.942839
  H      5.068475    1.598504   -2.565728
  H      3.503356    2.363939   -2.804565
  C      2.399946   -1.389579    1.009490
  H      2.440750   -3.087118    2.362976
  H      3.844475   -2.970462    1.318677
  C      2.070177   -1.936705   -0.372401
  H      1.481611   -1.061542    1.509912
  H      3.008628   -0.490001    0.897451
  C      1.322238   -0.935775   -1.256413
  H      1.472747   -2.850902   -0.283997
  H      3.003539   -2.234041   -0.862535
  H      1.376444    1.058920   -2.047420
  H      2.015341    0.929780   -0.426535
  H      0.316648   -0.787213   -0.848278
  H      1.185611   -1.379252   -2.248613

 Total Charge           Charge          ....    0
 Multiplicity           Mult            ....    1
 Number of Electrons    NEL             ....  126
 Basis Dimension        Dim             ....  805

ORBITAL ENERGIES
----------------

  NO   OCC          E(Eh)            E(eV)
   0   2.0000     -24.586155      -669.0233
   1   2.0000     -18.993393      -516.8365
   2   2.0000     -14.193922      -386.2362
   3   2.0000     -14.191980      -386.1834
   4   2.0000     -10.315662      -280.7034
   5   2.0000     -10.153161      -276.2816
   6   2.0000     -10.143051      -276.0064
   7   2.0000     -10.141118      -275.9538
   8   2.0000     -10.133265      -275.7402
   9   2.0000     -10.119398      -275.3628
  10   2.0000     -10.117348      -275.3070
  11   2.0000     -10.113718      -275.2083
  12   2.0000     -10.109768      -275.1008
  13   2.0000     -10.109410      -275.0910
  14   2.0000     -10.105820      -274.9933
  15   2.0000      -9.984551      -271.6934
  16   2.0000      -1.504868       -40.9495
  17   2.0000      -1.216720       -33.1086
  18   2.0000      -1.128303       -30.7027
  19   2.0000      -1.037245       -28.2249
  20   2.0000      -1.017934       -27.6994
  21   2.0000      -0.989073       -26.9141
  22   2.0000      -0.956353       -26.0237
  23   2.0000      -0.914779       -24.8924
  24   2.0000      -0.886347       -24.1187
  25   2.0000      -0.856100       -23.2957
  26   2.0000      -0.831911       -22.6374
  27   2.0000      -0.809557       -22.0292
  28   2.0000      -0.771417       -20.9913
  29   2.0000      -0.760369       -20.6907
  30   2.0000      -0.739746       -20.1295
  31   2.0000      -0.729475       -19.8500
  32   2.0000      -0.719879       -19.5889
  33   2.0000      -0.700442       -19.0600
  34   2.0000      -0.683278       -18.5929
  35   2.0000      -0.657790       -17.8994
  36   2.0000      -0.640829       -17.4379
  37   2.0000      -0.631608       -17.1869
  38   2.0000      -0.619651       -16.8616
  39   2.0000      -0.607527       -16.5317
  40   2.0000      -0.599349       -16.3091
  41   2.0000      -0.584708       -15.9107
  42   2.0000      -0.575806       -15.6685
  43   2.0000      -0.571011       -15.5380
  44   2.0000      -0.558285       -15.1917
  45   2.0000      -0.540323       -14.7029
  46   2.0000      -0.536158       -14.5896
  47   2.0000      -0.524065       -14.2605
  48   2.0000      -0.514442       -13.9987
  49   2.0000      -0.506423       -13.7805
  50   2.0000      -0.501466       -13.6456
  51   2.0000      -0.497837       -13.5468
  52   2.0000      -0.489478       -13.3194
  53   2.0000      -0.480680       -13.0800
  54   2.0000      -0.473353       -12.8806
  55   2.0000      -0.463513       -12.6128
  56   2.0000      -0.456095       -12.4110
  57   2.0000      -0.443431       -12.0664
  58   2.0000      -0.441067       -12.0020
  59   2.0000      -0.437645       -11.9089
  60   2.0000      -0.401196       -10.9171
  61   2.0000      -0.369305       -10.0493
  62   2.0000      -0.256745        -6.9864
  63   0.0000       0.047799         1.3007
  64   0.0000       0.059958         1.6316
  65   0.0000       0.069550         1.8925
  66   0.0000       0.070694         1.9237
  67   0.0000       0.072971         1.9856

MULLIKEN ATOMIC CHARGES
-----------------------
   0 C :   -1.197590
   1 N :   -0.230408
   2 C :   -0.822499
   3 C :   -0.700349
   4 H :    0.389815
   5 H :    0.394345
   6 C :    0.643846
   7 C :    0.933492
   8 N :   -0.497095
   9 C :   -1.560152
  10 H :    0.238520
  11 H :    0.476668
  12 H :    0.337027
  13 H :    0.185555
  14 H :    0.211412
  15 F :   -0.316289
  16 O :   -0.549977
  17 C :   -0.561905
  18 H :    0.352725
  19 H :    0.447725
  20 C :   -0.672470
  21 C :   -0.699190
  22 H :    0.421058
  23 H :    0.348689
  24 H :    0.375620
  25 H :    0.391581
  26 C :    0.128297
  27 H :    0.472360
  28 H :    0.427052
  29 C :   -0.907669
  30 H :    0.381949
  31 H :   -0.262055
  32 C :   -0.871991
  33 H :    0.362356
  34 H :    0.449092
  35 H :    0.344055
  36 H :    0.370304
  37 H :    0.383003
  38 H :    0.383095
Sum of atomic charges:    0.0000000

LOEWDIN ATOMIC CHARGES
----------------------
   0 C :   -0.206996
   1 N :    0.024593
   2 C :   -0.208002
   3 C :   -0.113101
   4 H :    0.137736
   5 H :    0.122029
   6 C :   -0.449961
   7 C :   -0.550001
   8 N :    0.105376
   9 C :   -0.007467
  10 H :    0.024504
  11 H :   -0.041035
  12 H :    0.094700
  13 H :    0.088416
  14 H :    0.111285
  15 F :    0.202183
  16 O :    0.092745
  17 C :   -0.204659
  18 H :    0.129191
  19 H :    0.114313
  20 C :   -0.236054
  21 C :   -0.223343
  22 H :    0.119292
  23 H :    0.132399
  24 H :    0.125576
  25 H :    0.126632
  26 C :   -0.234769
  27 H :    0.121488
  28 H :    0.124683
  29 C :   -0.234278
  30 H :    0.134943
  31 H :    0.087740
  32 C :   -0.228659
  33 H :    0.124627
  34 H :    0.121464
  35 H :    0.126097
  36 H :    0.106948
  37 H :    0.119584
  38 H :    0.119780

  Mayer bond orders larger than 0.100000
B(  0-C ,  1-N ) :   0.9189 B(  0-C ,  7-C ) :  -0.2219 B(  0-C ,  8-N ) :   0.1329
B(  0-C , 17-C ) :   0.6264 B(  0-C , 18-H ) :   0.8729 B(  0-C , 19-H ) :   0.8677
B(  0-C , 27-H ) :  -0.1157 B(  0-C , 28-H ) :   0.1027 B(  1-N ,  7-C ) :   1.0337
B(  1-N , 12-H ) :   0.7566 B(  2-C ,  3-C ) :   0.7657 B(  2-C , 21-C ) :   0.8655
B(  2-C , 24-H ) :   0.9177 B(  2-C , 25-H ) :   0.8795 B(  3-C ,  4-H ) :   0.8567
B(  3-C ,  5-H ) :   0.9661 B(  3-C ,  6-C ) :   0.8180 B(  3-C , 21-C ) :  -0.1202
B(  6-C , 15-F ) :   0.9021 B(  6-C , 16-O ) :   1.5771 B(  7-C ,  8-N ) :   0.7982
B(  7-C ,  9-C ) :   0.7763 B(  7-C , 10-H ) :  -0.2715 B(  7-C , 11-H ) :  -0.1272
B(  7-C , 12-H ) :  -0.1266 B(  8-N , 13-H ) :   1.0288 B(  8-N , 14-H ) :   0.9938
B(  9-C , 10-H ) :   1.2961 B(  9-C , 11-H ) :   0.9873 B(  9-C , 16-O ) :   0.1386
B( 11-H , 16-O ) :  -0.3540 B( 12-H , 15-F ) :  -0.1022 B( 17-C , 26-C ) :   0.6954
B( 17-C , 27-H ) :   0.8971 B( 17-C , 28-H ) :   0.7312 B( 17-C , 29-C ) :   0.2476
B( 20-C , 21-C ) :   0.3003 B( 20-C , 22-H ) :  -0.1060 B( 20-C , 32-C ) :   0.8387
B( 20-C , 35-H ) :   0.9294 B( 20-C , 36-H ) :   0.9873 B( 21-C , 22-H ) :   0.9414
B( 21-C , 23-H ) :   0.9337 B( 21-C , 36-H ) :  -0.1200 B( 26-C , 29-C ) :   0.4575
B( 26-C , 30-H ) :   0.8518 B( 26-C , 31-H ) :   1.0027 B( 29-C , 32-C ) :   0.8320
B( 29-C , 33-H ) :   0.8932 B( 29-C , 34-H ) :   0.8903 B( 30-H , 31-H ) :   0.1700
B( 32-C , 37-H ) :   0.9338 B( 32-C , 38-H ) :   0.9303

FINAL SINGLE POINT ENERGY      -753.543217891308

DIPOLE MOMENT
-------------
                                X             Y             Z
Electronic contribution:      9.40093       8.70175       6.66699
Nuclear contribution   :    -11.12616      -8.32792      -6.96231
                        -----------------------------------------
Total Dipole Moment    :     -1.72523       0.37383      -0.29533
                        -----------------------------------------
Magnitude (a.u.)       :      1.78980
Magnitude (Debye)      :      4.54930

Rotational constants in cm-1:     0.020226     0.013574     0.009520
Rotational constants in MHz :   606.360011   406.923773   285.390769

                             ****ORCA TERMINATED NORMALLY****
TOTAL RUN TIME: 0 days 0 hours 11 minutes 46 seconds 505 msec
