                         Program Version 5.0.0 -  RELEASE  -
|  1> !LC-PBE RIJCOSX def2-TZVPD def2/J TightSCF xyzfile
|  2>
|  3> *xyzfile 0 1 D4.xyz
|  4>
|  5> %MaxCore 64000
|  6>
|  7> %pal nprocs 4
|  8> end
|  9>
| 10> %scf
| 11>   MaxIter 150
| 12> end
| 13>
| 14>
| 15>                          ****END OF INPUT****

CARTESIAN COORDINATES (ANGSTROEM)
---------------------------------
  C      3.913853   -1.658291    3.015134
  C      5.039266   -0.901154    2.492821
  C      4.084215    1.742081   -2.114724
  C      4.265245    2.500518   -0.795890
  H      4.868534    3.392674   -0.981134
  H      3.307640    2.824571   -0.387809
  C      4.982240    1.650257    0.247422
  C      6.210384   -1.417261    2.178244
  N      6.535913   -2.677122    2.556078
  N      7.076754   -0.700820    1.478906
  H      7.954643   -1.121554    1.207554
  H      6.756161    0.106637    0.960278
  H      4.842168    0.017609    2.115191
  H      5.993876   -3.126918    3.282784
  H      7.498441   -2.975482    2.468776
  O      4.368065    1.389270    1.313706
  F      6.128919    1.233512   -0.045620
  C      3.139159   -2.376572    1.910609
  H      3.267235   -0.939401    3.520693
  H      4.247195   -2.355095    3.790065
  C      1.997274    0.430918   -1.399218
  C      3.412746    0.376886   -1.965497
  H      4.047407   -0.246590   -1.326706
  H      3.390774   -0.118719   -2.942839
  H      5.068475    1.598504   -2.565728
  H      3.503356    2.363939   -2.804565
  C      2.399946   -1.389579    1.009490
  H      2.440750   -3.087118    2.362976
  H      3.844475   -2.970462    1.318677
  C      2.070177   -1.936705   -0.372401
  H      1.481611   -1.061542    1.509912
  H      3.008628   -0.490001    0.897451
  C      1.322238   -0.935775   -1.256413
  H      1.472747   -2.850902   -0.283997
  H      3.003539   -2.234041   -0.862535
  H      1.376444    1.058920   -2.047420
  H      2.015341    0.929780   -0.426535
  H      0.316648   -0.787213   -0.848278
  H      1.185611   -1.379252   -2.248613

 Total Charge           Charge          ....    0
 Multiplicity           Mult            ....    1
 Number of Electrons    NEL             ....  126
 Basis Dimension        Dim             ....  805

ORBITAL ENERGIES
----------------

  NO   OCC          E(Eh)            E(eV)
   0   2.0000     -24.589954      -669.1267
   1   2.0000     -18.997701      -516.9537
   2   2.0000     -14.196232      -386.2991
   3   2.0000     -14.187424      -386.0594
   4   2.0000     -10.318635      -280.7843
   5   2.0000     -10.153976      -276.3037
   6   2.0000     -10.139128      -275.8997
   7   2.0000     -10.137436      -275.8537
   8   2.0000     -10.119488      -275.3653
   9   2.0000     -10.108860      -275.0761
  10   2.0000     -10.102975      -274.9159
  11   2.0000     -10.093879      -274.6684
  12   2.0000     -10.082722      -274.3648
  13   2.0000     -10.078412      -274.2475
  14   2.0000     -10.071612      -274.0625
  15   2.0000     -10.000890      -272.1380
  16   2.0000      -1.509816       -41.0842
  17   2.0000      -1.218447       -33.1556
  18   2.0000      -1.118142       -30.4262
  19   2.0000      -1.021826       -27.8053
  20   2.0000      -1.016222       -27.6528
  21   2.0000      -0.982043       -26.7228
  22   2.0000      -0.950099       -25.8535
  23   2.0000      -0.917067       -24.9547
  24   2.0000      -0.879280       -23.9264
  25   2.0000      -0.849742       -23.1226
  26   2.0000      -0.834974       -22.7208
  27   2.0000      -0.796877       -21.6841
  28   2.0000      -0.766677       -20.8624
  29   2.0000      -0.748510       -20.3680
  30   2.0000      -0.734559       -19.9884
  31   2.0000      -0.729031       -19.8379
  32   2.0000      -0.706773       -19.2323
  33   2.0000      -0.695535       -18.9265
  34   2.0000      -0.682775       -18.5792
  35   2.0000      -0.658452       -17.9174
  36   2.0000      -0.632731       -17.2175
  37   2.0000      -0.630205       -17.1487
  38   2.0000      -0.625801       -17.0289
  39   2.0000      -0.603122       -16.4118
  40   2.0000      -0.591269       -16.0892
  41   2.0000      -0.578955       -15.7542
  42   2.0000      -0.568818       -15.4783
  43   2.0000      -0.553479       -15.0609
  44   2.0000      -0.547943       -14.9103
  45   2.0000      -0.540184       -14.6992
  46   2.0000      -0.531975       -14.4758
  47   2.0000      -0.524777       -14.2799
  48   2.0000      -0.517464       -14.0809
  49   2.0000      -0.510086       -13.8801
  50   2.0000      -0.498817       -13.5735
  51   2.0000      -0.493213       -13.4210
  52   2.0000      -0.472272       -12.8512
  53   2.0000      -0.462490       -12.5850
  54   2.0000      -0.460364       -12.5271
  55   2.0000      -0.456743       -12.4286
  56   2.0000      -0.433301       -11.7907
  57   2.0000      -0.428115       -11.6496
  58   2.0000      -0.422139       -11.4870
  59   2.0000      -0.417406       -11.3582
  60   2.0000      -0.390303       -10.6207
  61   2.0000      -0.383202       -10.4275
  62   2.0000      -0.255964        -6.9651
  63   0.0000       0.046688         1.2704
  64   0.0000       0.059945         1.6312
  65   0.0000       0.068814         1.8725
  66   0.0000       0.073369         1.9965
  67   0.0000       0.076129         2.0716

MULLIKEN ATOMIC CHARGES
-----------------------
   0 C :   -1.218521
   1 C :   -1.115475
   2 C :   -0.850253
   3 C :   -0.619176
   4 H :    0.413540
   5 H :    0.358164
   6 C :    0.649980
   7 C :    0.296429
   8 N :   -0.477643
   9 N :   -0.452815
  10 H :    0.185262
  11 H :    0.301041
  12 H :    0.931259
  13 H :    0.209738
  14 H :    0.163510
  15 O :   -0.523264
  16 F :   -0.341095
  17 C :   -0.666447
  18 H :    0.285686
  19 H :    0.565723
  20 C :   -0.737421
  21 C :   -0.536539
  22 H :    0.323433
  23 H :    0.335083
  24 H :    0.381426
  25 H :    0.397225
  26 C :    0.160503
  27 H :    0.416203
  28 H :    0.426140
  29 C :   -0.859569
  30 H :    0.335239
  31 H :   -0.144759
  32 C :   -0.870841
  33 H :    0.350510
  34 H :    0.430454
  35 H :    0.345672
  36 H :    0.399318
  37 H :    0.373172
  38 H :    0.379107
Sum of atomic charges:    0.0000000

LOEWDIN ATOMIC CHARGES
----------------------
   0 C :   -0.238484
   1 C :   -0.149539
   2 C :   -0.214291
   3 C :   -0.108571
   4 H :    0.134120
   5 H :    0.131372
   6 C :   -0.450647
   7 C :   -0.532051
   8 N :    0.111733
   9 N :    0.111488
  10 H :    0.107684
  11 H :    0.060892
  12 H :    0.015365
  13 H :    0.098467
  14 H :    0.099322
  15 O :    0.083009
  16 F :    0.214876
  17 C :   -0.218464
  18 H :    0.122976
  19 H :    0.105105
  20 C :   -0.232611
  21 C :   -0.224882
  22 H :    0.117940
  23 H :    0.131049
  24 H :    0.120603
  25 H :    0.126739
  26 C :   -0.231520
  27 H :    0.116268
  28 H :    0.121401
  29 C :   -0.237102
  30 H :    0.135461
  31 H :    0.088372
  32 C :   -0.230135
  33 H :    0.122729
  34 H :    0.117690
  35 H :    0.125215
  36 H :    0.111508
  37 H :    0.119552
  38 H :    0.117360

  Mayer bond orders larger than 0.100000
B(  0-C ,  1-C ) :   0.6146 B(  0-C ,  7-C ) :  -0.1019 B(  0-C , 12-H ) :  -0.1434
B(  0-C , 17-C ) :   0.6451 B(  0-C , 18-H ) :   1.0521 B(  0-C , 19-H ) :   0.8587
B(  0-C , 26-C ) :   0.1358 B(  1-C ,  7-C ) :   1.5838 B(  1-C , 15-O ) :   0.1452
B(  1-C , 17-C ) :  -0.2210 B(  1-C , 19-H ) :  -0.2851 B(  2-C ,  3-C ) :   0.6931
B(  2-C , 21-C ) :   0.7513 B(  2-C , 24-H ) :   0.9386 B(  2-C , 25-H ) :   0.8675
B(  3-C ,  4-H ) :   0.8647 B(  3-C ,  5-H ) :   0.9922 B(  3-C ,  6-C ) :   0.7907
B(  3-C , 21-C ) :  -0.1793 B(  6-C , 15-O ) :   1.7663 B(  6-C , 16-F ) :   0.7161
B(  7-C ,  8-N ) :   0.8859 B(  7-C ,  9-N ) :   0.9686 B(  7-C , 12-H ) :   0.1883
B(  8-N , 13-H ) :   0.9545 B(  8-N , 14-H ) :   1.0749 B(  9-N , 10-H ) :   1.0497
B(  9-N , 11-H ) :   0.8468 B( 12-H , 15-O ) :  -0.5107 B( 12-H , 16-F ) :   0.1150
B( 12-H , 26-C ) :  -0.1033 B( 15-O , 16-F ) :   0.1329 B( 17-C , 26-C ) :   0.6710
B( 17-C , 27-H ) :   0.9021 B( 17-C , 28-H ) :   0.7628 B( 17-C , 29-C ) :   0.2481
B( 20-C , 21-C ) :   0.4107 B( 20-C , 32-C ) :   0.8296 B( 20-C , 35-H ) :   0.9221
B( 20-C , 36-H ) :   0.9486 B( 21-C , 22-H ) :   0.9475 B( 21-C , 23-H ) :   0.9613
B( 26-C , 29-C ) :   0.4549 B( 26-C , 30-H ) :   0.8710 B( 26-C , 31-H ) :   0.9319
B( 29-C , 32-C ) :   0.8196 B( 29-C , 33-H ) :   0.9029 B( 29-C , 34-H ) :   0.9011
B( 30-H , 31-H ) :   0.1880 B( 32-C , 37-H ) :   0.9429 B( 32-C , 38-H ) :   0.9344

FINAL SINGLE POINT ENERGY      -753.556758942711

DIPOLE MOMENT
-------------
                                X             Y             Z
Electronic contribution:     14.24281       8.79229       3.64227
Nuclear contribution   :    -13.61164      -8.17416      -5.14068
                        -----------------------------------------
Total Dipole Moment    :      0.63117       0.61813      -1.49840
                        -----------------------------------------
Magnitude (a.u.)       :      1.73945
Magnitude (Debye)      :      4.42132

Rotational constants in cm-1:     0.019858     0.013613     0.009401
Rotational constants in MHz :   595.331791   408.100423   281.843625

                             ****ORCA TERMINATED NORMALLY****
TOTAL RUN TIME: 0 days 0 hours 17 minutes 58 seconds 781 msec
