                         Program Version 5.0.0 -  RELEASE  -
|  1> !LC-PBE RIJCOSX def2-TZVPD def2/J TightSCF xyzfile
|  2>
|  3> *xyzfile 0 1 D5.xyz
|  4>
|  5> %MaxCore 64000
|  6>
|  7> %pal nprocs 4
|  8> end
|  9>
| 10> %scf
| 11>   MaxIter 150
| 12> end
| 13>
| 14>
| 15>                          ****END OF INPUT****

CARTESIAN COORDINATES (ANGSTROEM)
---------------------------------
  C      3.913853   -1.658291    3.015134
  N      5.039266   -0.901154    2.492821
  C      4.084215    1.742081   -2.114724
  C      4.265245    2.500518   -0.795890
  H      4.868534    3.392674   -0.981134
  H      3.307640    2.824571   -0.387809
  C      4.982240    1.650257    0.247422
  C      6.210384   -1.417261    2.178244
  C      6.535913   -2.677122    2.556078
  N      7.076754   -0.700820    1.478906
  H      7.954643   -1.121554    1.207554
  H      6.756161    0.106637    0.960278
  H      4.842168    0.017609    2.115191
  H      5.993876   -3.126918    3.282784
  H      7.498441   -2.975482    2.468776
  O      4.368065    1.389270    1.313706
  F      6.128919    1.233512   -0.045620
  C      3.139159   -2.376572    1.910609
  H      3.267235   -0.939401    3.520693
  H      4.247195   -2.355095    3.790065
  C      1.997274    0.430918   -1.399218
  C      3.412746    0.376886   -1.965497
  H      4.047407   -0.246590   -1.326706
  H      3.390774   -0.118719   -2.942839
  H      5.068475    1.598504   -2.565728
  H      3.503356    2.363939   -2.804565
  C      2.399946   -1.389579    1.009490
  H      2.440750   -3.087118    2.362976
  H      3.844475   -2.970462    1.318677
  C      2.070177   -1.936705   -0.372401
  H      1.481611   -1.061542    1.509912
  H      3.008628   -0.490001    0.897451
  C      1.322238   -0.935775   -1.256413
  H      1.472747   -2.850902   -0.283997
  H      3.003539   -2.234041   -0.862535
  H      1.376444    1.058920   -2.047420
  H      2.015341    0.929780   -0.426535
  H      0.316648   -0.787213   -0.848278
  H      1.185611   -1.379252   -2.248613

 Total Charge           Charge          ....    0
 Multiplicity           Mult            ....    1
 Number of Electrons    NEL             ....  126
 Basis Dimension        Dim             ....  805

ORBITAL ENERGIES
----------------

  NO   OCC          E(Eh)            E(eV)
   0   2.0000     -24.606886      -669.5874
   1   2.0000     -19.024809      -517.6914
   2   2.0000     -14.190427      -386.1411
   3   2.0000     -14.181433      -385.8964
   4   2.0000     -10.341514      -281.4069
   5   2.0000     -10.168185      -276.6904
   6   2.0000     -10.148608      -276.1577
   7   2.0000     -10.147159      -276.1182
   8   2.0000     -10.129714      -275.6435
   9   2.0000     -10.125828      -275.5378
  10   2.0000     -10.118841      -275.3477
  11   2.0000     -10.112071      -275.1634
  12   2.0000     -10.104043      -274.9450
  13   2.0000     -10.097192      -274.7586
  14   2.0000     -10.091943      -274.6157
  15   2.0000     -10.002455      -272.1806
  16   2.0000      -1.526910       -41.5493
  17   2.0000      -1.244081       -33.8532
  18   2.0000      -1.127268       -30.6745
  19   2.0000      -1.040234       -28.3062
  20   2.0000      -1.029478       -28.0135
  21   2.0000      -0.990847       -26.9623
  22   2.0000      -0.949936       -25.8491
  23   2.0000      -0.916255       -24.9326
  24   2.0000      -0.874758       -23.8034
  25   2.0000      -0.863491       -23.4968
  26   2.0000      -0.847928       -23.0733
  27   2.0000      -0.816767       -22.2254
  28   2.0000      -0.782292       -21.2872
  29   2.0000      -0.754685       -20.5360
  30   2.0000      -0.751837       -20.4585
  31   2.0000      -0.748860       -20.3775
  32   2.0000      -0.713364       -19.4116
  33   2.0000      -0.706972       -19.2377
  34   2.0000      -0.685589       -18.6558
  35   2.0000      -0.656342       -17.8600
  36   2.0000      -0.649343       -17.6695
  37   2.0000      -0.639966       -17.4144
  38   2.0000      -0.636358       -17.3162
  39   2.0000      -0.614012       -16.7081
  40   2.0000      -0.595425       -16.2023
  41   2.0000      -0.589245       -16.0342
  42   2.0000      -0.574140       -15.6231
  43   2.0000      -0.565053       -15.3759
  44   2.0000      -0.554691       -15.0939
  45   2.0000      -0.553869       -15.0715
  46   2.0000      -0.540448       -14.7063
  47   2.0000      -0.528100       -14.3703
  48   2.0000      -0.526037       -14.3142
  49   2.0000      -0.512836       -13.9550
  50   2.0000      -0.505895       -13.7661
  51   2.0000      -0.492916       -13.4129
  52   2.0000      -0.488676       -13.2976
  53   2.0000      -0.480407       -13.0725
  54   2.0000      -0.472785       -12.8651
  55   2.0000      -0.470475       -12.8023
  56   2.0000      -0.451113       -12.2754
  57   2.0000      -0.444338       -12.0910
  58   2.0000      -0.437245       -11.8980
  59   2.0000      -0.433615       -11.7993
  60   2.0000      -0.429717       -11.6932
  61   2.0000      -0.357006        -9.7146
  62   2.0000      -0.261294        -7.1102
  63   0.0000       0.030137         0.8201
  64   0.0000       0.050887         1.3847
  65   0.0000       0.063204         1.7199
  66   0.0000       0.067944         1.8489
  67   0.0000       0.074733         2.0336

MULLIKEN ATOMIC CHARGES
-----------------------
   0 C :   -1.134196
   1 N :   -0.300005
   2 C :   -0.867871
   3 C :   -0.606212
   4 H :    0.418172
   5 H :    0.355489
   6 C :    0.609804
   7 C :    0.862814
   8 C :   -1.435896
   9 N :   -0.477004
  10 H :    0.188650
  11 H :    0.337561
  12 H :    0.274841
  13 H :    0.303957
  14 H :    0.371763
  15 O :   -0.650607
  16 F :   -0.354024
  17 C :   -0.637438
  18 H :    0.373712
  19 H :    0.432473
  20 C :   -0.716081
  21 C :   -0.544005
  22 H :    0.313734
  23 H :    0.347107
  24 H :    0.381346
  25 H :    0.399934
  26 C :    0.110511
  27 H :    0.458485
  28 H :    0.429829
  29 C :   -0.866902
  30 H :    0.351110
  31 H :   -0.143342
  32 C :   -0.881123
  33 H :    0.365302
  34 H :    0.419991
  35 H :    0.353947
  36 H :    0.390019
  37 H :    0.382135
  38 H :    0.382023
Sum of atomic charges:   -0.0000000

LOEWDIN ATOMIC CHARGES
----------------------
   0 C :   -0.201102
   1 N :    0.023912
   2 C :   -0.211403
   3 C :   -0.105699
   4 H :    0.136492
   5 H :    0.132527
   6 C :   -0.444624
   7 C :   -0.557141
   8 C :   -0.024211
   9 N :    0.121639
  10 H :    0.119966
  11 H :    0.055988
  12 H :    0.063007
  13 H :    0.001664
  14 H :    0.008077
  15 O :    0.086378
  16 F :    0.218640
  17 C :   -0.200443
  18 H :    0.130144
  19 H :    0.116849
  20 C :   -0.232568
  21 C :   -0.223986
  22 H :    0.117656
  23 H :    0.132656
  24 H :    0.122130
  25 H :    0.128500
  26 C :   -0.234935
  27 H :    0.122337
  28 H :    0.122082
  29 C :   -0.235260
  30 H :    0.134712
  31 H :    0.084440
  32 C :   -0.228516
  33 H :    0.124567
  34 H :    0.119634
  35 H :    0.126185
  36 H :    0.110584
  37 H :    0.120313
  38 H :    0.118809

  Mayer bond orders larger than 0.100000
B(  0-C ,  1-N ) :   0.8915 B(  0-C ,  8-C ) :   0.1395 B(  0-C , 12-H ) :  -0.1437
B(  0-C , 17-C ) :   0.7039 B(  0-C , 18-H ) :   0.8165 B(  0-C , 19-H ) :   0.8740
B(  0-C , 28-H ) :   0.1060 B(  1-N ,  7-C ) :   0.9279 B(  1-N , 12-H ) :   0.7960
B(  1-N , 15-O ) :  -0.1118 B(  2-C ,  3-C ) :   0.6942 B(  2-C , 21-C ) :   0.7644
B(  2-C , 24-H ) :   0.9386 B(  2-C , 25-H ) :   0.8670 B(  3-C ,  4-H ) :   0.8644
B(  3-C ,  5-H ) :   0.9886 B(  3-C ,  6-C ) :   0.8112 B(  3-C , 21-C ) :  -0.1778
B(  6-C , 15-O ) :   1.6882 B(  6-C , 16-F ) :   0.7376 B(  7-C ,  8-C ) :   0.8657
B(  7-C ,  9-N ) :   0.8282 B(  7-C , 11-H ) :  -0.1064 B(  7-C , 12-H ) :  -0.1875
B(  7-C , 13-H ) :  -0.1159 B(  7-C , 14-H ) :  -0.1252 B(  8-C ,  9-N ) :   0.1064
B(  8-C , 13-H ) :   1.0828 B(  8-C , 14-H ) :   1.0171 B(  9-N , 10-H ) :   1.0144
B(  9-N , 11-H ) :   0.8164 B( 15-O , 16-F ) :   0.1359 B( 17-C , 26-C ) :   0.6516
B( 17-C , 27-H ) :   0.8866 B( 17-C , 28-H ) :   0.7485 B( 17-C , 29-C ) :   0.2431
B( 20-C , 21-C ) :   0.3866 B( 20-C , 32-C ) :   0.8489 B( 20-C , 35-H ) :   0.9185
B( 20-C , 36-H ) :   0.9542 B( 21-C , 22-H ) :   0.9583 B( 21-C , 23-H ) :   0.9518
B( 21-C , 36-H ) :  -0.1052 B( 26-C , 29-C ) :   0.4504 B( 26-C , 30-H ) :   0.8462
B( 26-C , 31-H ) :   1.0253 B( 29-C , 32-C ) :   0.8336 B( 29-C , 33-H ) :   0.8845
B( 29-C , 34-H ) :   0.9174 B( 30-H , 31-H ) :   0.2094 B( 32-C , 37-H ) :   0.9310
B( 32-C , 38-H ) :   0.9309

FINAL SINGLE POINT ENERGY      -753.563551076556

DIPOLE MOMENT
-------------
                                X             Y             Z
Electronic contribution:     12.74119      10.42065       3.18918
Nuclear contribution   :    -13.35170      -8.48261      -5.12969
                        -----------------------------------------
Total Dipole Moment    :     -0.61051       1.93804      -1.94051
                        -----------------------------------------
Magnitude (a.u.)       :      2.80968
Magnitude (Debye)      :      7.14163

Rotational constants in cm-1:     0.019886     0.013843     0.009504
Rotational constants in MHz :   596.157485   415.004628   284.931121

                             ****ORCA TERMINATED NORMALLY****
TOTAL RUN TIME: 0 days 0 hours 12 minutes 27 seconds 921 msec
