                         Program Version 5.0.0 -  RELEASE  -
|  1> !LC-PBE RIJCOSX def2-TZVPD def2/J TightSCF xyzfile
|  2>
|  3> *xyzfile 0 1 D6.xyz
|  4>
|  5> %MaxCore 64000
|  6>
|  7> %pal nprocs 4
|  8> end
|  9>
| 10> %scf
| 11>   MaxIter 150
| 12> end
| 13>
| 14>
| 15>                          ****END OF INPUT****

CARTESIAN COORDINATES (ANGSTROEM)
---------------------------------
  C      3.913853   -1.658291    3.015134
  N      5.039266   -0.901154    2.492821
  C      4.084215    1.742081   -2.114724
  C      4.265245    2.500518   -0.795890
  H      4.868534    3.392674   -0.981134
  H      3.307640    2.824571   -0.387809
  C      4.982240    1.650257    0.247422
  C      6.210384   -1.417261    2.178244
  N      6.535913   -2.677122    2.556078
  C      7.076754   -0.700820    1.478906
  H      7.954643   -1.121554    1.207554
  H      6.756161    0.106637    0.960278
  H      4.842168    0.017609    2.115191
  H      5.993876   -3.126918    3.282784
  H      7.498441   -2.975482    2.468776
  O      4.368065    1.389270    1.313706
  F      6.128919    1.233512   -0.045620
  C      3.139159   -2.376572    1.910609
  H      3.267235   -0.939401    3.520693
  H      4.247195   -2.355095    3.790065
  C      1.997274    0.430918   -1.399218
  C      3.412746    0.376886   -1.965497
  H      4.047407   -0.246590   -1.326706
  H      3.390774   -0.118719   -2.942839
  H      5.068475    1.598504   -2.565728
  H      3.503356    2.363939   -2.804565
  C      2.399946   -1.389579    1.009490
  H      2.440750   -3.087118    2.362976
  H      3.844475   -2.970462    1.318677
  C      2.070177   -1.936705   -0.372401
  H      1.481611   -1.061542    1.509912
  H      3.008628   -0.490001    0.897451
  C      1.322238   -0.935775   -1.256413
  H      1.472747   -2.850902   -0.283997
  H      3.003539   -2.234041   -0.862535
  H      1.376444    1.058920   -2.047420
  H      2.015341    0.929780   -0.426535
  H      0.316648   -0.787213   -0.848278
  H      1.185611   -1.379252   -2.248613

 Total Charge           Charge          ....    0
 Multiplicity           Mult            ....    1
 Number of Electrons    NEL             ....  126
 Basis Dimension        Dim             ....  805

ORBITAL ENERGIES
----------------

  NO   OCC          E(Eh)            E(eV)
   0   2.0000     -24.574938      -668.7180
   1   2.0000     -19.007081      -517.2090
   2   2.0000     -14.195765      -386.2864
   3   2.0000     -14.178410      -385.8141
   4   2.0000     -10.323712      -280.9225
   5   2.0000     -10.155522      -276.3458
   6   2.0000     -10.145468      -276.0722
   7   2.0000     -10.138912      -275.8938
   8   2.0000     -10.134384      -275.7706
   9   2.0000     -10.122188      -275.4387
  10   2.0000     -10.114041      -275.2171
  11   2.0000     -10.110117      -275.1103
  12   2.0000     -10.104304      -274.9521
  13   2.0000     -10.099149      -274.8118
  14   2.0000     -10.098951      -274.8064
  15   2.0000      -9.996007      -272.0052
  16   2.0000      -1.496833       -40.7309
  17   2.0000      -1.226585       -33.3771
  18   2.0000      -1.123698       -30.5774
  19   2.0000      -1.033630       -28.1265
  20   2.0000      -1.020414       -27.7669
  21   2.0000      -0.986754       -26.8509
  22   2.0000      -0.952563       -25.9205
  23   2.0000      -0.912505       -24.8305
  24   2.0000      -0.884964       -24.0811
  25   2.0000      -0.844678       -22.9849
  26   2.0000      -0.836371       -22.7588
  27   2.0000      -0.803560       -21.8660
  28   2.0000      -0.772578       -21.0229
  29   2.0000      -0.755055       -20.5461
  30   2.0000      -0.731613       -19.9082
  31   2.0000      -0.725439       -19.7402
  32   2.0000      -0.721726       -19.6392
  33   2.0000      -0.707089       -19.2409
  34   2.0000      -0.673840       -18.3361
  35   2.0000      -0.657360       -17.8877
  36   2.0000      -0.637492       -17.3470
  37   2.0000      -0.632986       -17.2244
  38   2.0000      -0.620645       -16.8886
  39   2.0000      -0.607659       -16.5352
  40   2.0000      -0.598175       -16.2772
  41   2.0000      -0.576695       -15.6927
  42   2.0000      -0.574706       -15.6385
  43   2.0000      -0.566715       -15.4211
  44   2.0000      -0.557450       -15.1690
  45   2.0000      -0.550449       -14.9785
  46   2.0000      -0.532154       -14.4806
  47   2.0000      -0.521974       -14.2036
  48   2.0000      -0.518925       -14.1207
  49   2.0000      -0.510922       -13.9029
  50   2.0000      -0.504767       -13.7354
  51   2.0000      -0.487186       -13.2570
  52   2.0000      -0.484347       -13.1798
  53   2.0000      -0.474232       -12.9045
  54   2.0000      -0.471041       -12.8177
  55   2.0000      -0.465234       -12.6597
  56   2.0000      -0.451579       -12.2881
  57   2.0000      -0.439013       -11.9461
  58   2.0000      -0.436910       -11.8889
  59   2.0000      -0.432733       -11.7753
  60   2.0000      -0.429135       -11.6773
  61   2.0000      -0.364344        -9.9143
  62   2.0000      -0.260803        -7.0968
  63   0.0000       0.045103         1.2273
  64   0.0000       0.062763         1.7079
  65   0.0000       0.069452         1.8899
  66   0.0000       0.072350         1.9687
  67   0.0000       0.073123         1.9898

MULLIKEN ATOMIC CHARGES
-----------------------
   0 C :   -1.175764
   1 N :   -0.207957
   2 C :   -0.856267
   3 C :   -0.622864
   4 H :    0.414714
   5 H :    0.351117
   6 C :    0.599080
   7 C :    0.955573
   8 N :   -0.495038
   9 C :   -1.450300
  10 H :    0.254568
  11 H :    0.362086
  12 H :    0.262266
  13 H :    0.188628
  14 H :    0.209798
  15 O :   -0.654238
  16 F :   -0.270396
  17 C :   -0.584097
  18 H :    0.363549
  19 H :    0.442563
  20 C :   -0.707619
  21 C :   -0.601965
  22 H :    0.371121
  23 H :    0.343482
  24 H :    0.374617
  25 H :    0.403706
  26 C :    0.130086
  27 H :    0.468553
  28 H :    0.416242
  29 C :   -0.888113
  30 H :    0.367650
  31 H :   -0.188071
  32 C :   -0.870399
  33 H :    0.357863
  34 H :    0.439481
  35 H :    0.350002
  36 H :    0.385818
  37 H :    0.380654
  38 H :    0.379873
Sum of atomic charges:   -0.0000000

LOEWDIN ATOMIC CHARGES
----------------------
   0 C :   -0.205075
   1 N :    0.025458
   2 C :   -0.211525
   3 C :   -0.106890
   4 H :    0.135681
   5 H :    0.130530
   6 C :   -0.445005
   7 C :   -0.548105
   8 N :    0.109715
   9 C :   -0.013018
  10 H :    0.020535
  11 H :   -0.019907
  12 H :    0.067138
  13 H :    0.090465
  14 H :    0.110983
  15 O :    0.079996
  16 F :    0.209995
  17 C :   -0.205208
  18 H :    0.130938
  19 H :    0.112589
  20 C :   -0.232763
  21 C :   -0.223795
  22 H :    0.118946
  23 H :    0.131808
  24 H :    0.122658
  25 H :    0.127161
  26 C :   -0.232861
  27 H :    0.120302
  28 H :    0.122961
  29 C :   -0.235801
  30 H :    0.135528
  31 H :    0.086798
  32 C :   -0.228721
  33 H :    0.123616
  34 H :    0.119727
  35 H :    0.125894
  36 H :    0.110680
  37 H :    0.119863
  38 H :    0.118709

  Mayer bond orders larger than 0.100000
B(  0-C ,  1-N ) :   0.9182 B(  0-C ,  7-C ) :  -0.2155 B(  0-C ,  8-N ) :   0.1282
B(  0-C , 17-C ) :   0.6341 B(  0-C , 18-H ) :   0.8539 B(  0-C , 19-H ) :   0.8742
B(  0-C , 27-H ) :  -0.1190 B(  0-C , 28-H ) :   0.1100 B(  1-N ,  7-C ) :   0.9957
B(  1-N , 12-H ) :   0.8026 B(  1-N , 15-O ) :  -0.1483 B(  2-C ,  3-C ) :   0.7042
B(  2-C , 21-C ) :   0.7898 B(  2-C , 24-H ) :   0.9386 B(  2-C , 25-H ) :   0.8585
B(  3-C ,  4-H ) :   0.8668 B(  3-C ,  5-H ) :   0.9919 B(  3-C ,  6-C ) :   0.8061
B(  3-C , 21-C ) :  -0.1693 B(  6-C , 15-O ) :   1.6686 B(  6-C , 16-F ) :   0.8124
B(  7-C ,  8-N ) :   0.8021 B(  7-C ,  9-C ) :   0.8416 B(  7-C , 10-H ) :  -0.2441
B(  7-C , 12-H ) :  -0.1509 B(  8-N , 13-H ) :   1.0240 B(  8-N , 14-H ) :   0.9956
B(  9-C , 10-H ) :   1.2498 B(  9-C , 11-H ) :   0.9333 B(  9-C , 16-F ) :   0.1206
B( 11-H , 16-F ) :  -0.1842 B( 15-O , 16-F ) :   0.1389 B( 17-C , 26-C ) :   0.6928
B( 17-C , 27-H ) :   0.8993 B( 17-C , 28-H ) :   0.7363 B( 17-C , 29-C ) :   0.2464
B( 20-C , 21-C ) :   0.3713 B( 20-C , 32-C ) :   0.8331 B( 20-C , 35-H ) :   0.9229
B( 20-C , 36-H ) :   0.9580 B( 21-C , 22-H ) :   0.9128 B( 21-C , 23-H ) :   0.9589
B( 21-C , 36-H ) :  -0.1018 B( 26-C , 29-C ) :   0.4449 B( 26-C , 30-H ) :   0.8528
B( 26-C , 31-H ) :   1.0152 B( 29-C , 32-C ) :   0.8275 B( 29-C , 33-H ) :   0.8949
B( 29-C , 34-H ) :   0.9002 B( 30-H , 31-H ) :   0.1981 B( 32-C , 37-H ) :   0.9331
B( 32-C , 38-H ) :   0.9329

FINAL SINGLE POINT ENERGY      -753.557091258433

DIPOLE MOMENT
-------------
                                X             Y             Z
Electronic contribution:     12.36759       8.53907       4.35583
Nuclear contribution   :    -13.25777      -8.13937      -5.31678
                        -----------------------------------------
Total Dipole Moment    :     -0.89018       0.39970      -0.96095
                        -----------------------------------------
Magnitude (a.u.)       :      1.36953
Magnitude (Debye)      :      3.48106

Rotational constants in cm-1:     0.020021     0.013636     0.009443
Rotational constants in MHz :   600.208195   408.782966   283.102361

                             ****ORCA TERMINATED NORMALLY****
TOTAL RUN TIME: 0 days 0 hours 11 minutes 35 seconds 440 msec
