                         Program Version 5.0.0 -  RELEASE  -
|  1> !LC-BLYP RIJCOSX def2-TZVPD def2/J TightSCF
|  2> *xyz -1 1
|  3> C         -0.72184       -0.99951       -3.43931
|  4> C          0.28725       -1.71177       -2.52740
|  5> H          1.13178       -2.06738       -3.15940
|  6> H         -0.20414       -2.63733       -2.17048
|  7> O          0.71050       -0.92751       -1.48177
|  8> H         -1.01315       -1.65739       -4.23129
|  9> H         -0.27123       -0.12142       -3.85259
| 10> H         -1.58442       -0.72333       -2.86958
| 11> *
| 12> %MaxCore 64000
| 13>
| 14> %pal nprocs 4
| 15> end
| 16>
| 17> %scf
| 18>   MaxIter 150
| 19> end
| 20>
| 21>
| 22>                          ****END OF INPUT****

CARTESIAN COORDINATES (ANGSTROEM)
---------------------------------
  C     -0.721840   -0.999510   -3.439310
  C      0.287250   -1.711770   -2.527400
  H      1.131780   -2.067380   -3.159400
  H     -0.204140   -2.637330   -2.170480
  O      0.710500   -0.927510   -1.481770
  H     -1.013150   -1.657390   -4.231290
  H     -0.271230   -0.121420   -3.852590
  H     -1.584420   -0.723330   -2.869580

 Total Charge           Charge          ....   -1
 Multiplicity           Mult            ....    1
 Number of Electrons    NEL             ....   26
 Basis Dimension        Dim             ....  159

ORBITAL ENERGIES
----------------

  NO   OCC          E(Eh)            E(eV)
   0   2.0000     -18.605547      -506.2827
   1   2.0000      -9.883742      -268.9503
   2   2.0000      -9.859873      -268.3008
   3   2.0000      -0.775792       -21.1104
   4   2.0000      -0.635608       -17.2958
   5   2.0000      -0.481223       -13.0947
   6   2.0000      -0.358808        -9.7637
   7   2.0000      -0.333622        -9.0783
   8   2.0000      -0.277364        -7.5475
   9   2.0000      -0.257547        -7.0082
  10   2.0000      -0.211868        -5.7652
  11   2.0000      -0.067359        -1.8329
  12   2.0000      -0.064942        -1.7672
  13   0.0000       0.197995         5.3877
  14   0.0000       0.219171         5.9640
  15   0.0000       0.249537         6.7902
  16   0.0000       0.249848         6.7987
  17   0.0000       0.273235         7.4351

MULLIKEN ATOMIC CHARGES
-----------------------
   0 C :   -1.176512
   1 C :   -0.517554
   2 H :    0.294698
   3 H :    0.289779
   4 O :   -0.910324
   5 H :    0.393745
   6 H :    0.315272
   7 H :    0.310897
Sum of atomic charges:   -1.0000000

LOEWDIN ATOMIC CHARGES
----------------------
   0 C :   -0.184854
   1 C :   -0.644201
   2 H :    0.064638
   3 H :    0.061468
   4 O :   -0.419670
   5 H :    0.033878
   6 H :    0.044137
   7 H :    0.044604

  Mayer bond orders larger than 0.100000
B(  0-C ,  1-C ) :   0.6451 B(  0-C ,  4-O ) :   0.2622 B(  0-C ,  5-H ) :   0.9123
B(  0-C ,  6-H ) :   0.9589 B(  0-C ,  7-H ) :   0.9644 B(  1-C ,  2-H ) :   0.9973
B(  1-C ,  3-H ) :   1.0084 B(  1-C ,  4-O ) :   0.9437 B(  2-H ,  3-H ) :   0.1008

FINAL SINGLE POINT ENERGY      -154.111349659722

DIPOLE MOMENT
-------------
                                X             Y             Z
Electronic contribution:      1.41158       0.63927       2.25641
Nuclear contribution   :     -2.24828      -1.06600      -3.62481
                        -----------------------------------------
Total Dipole Moment    :     -0.83670      -0.42673      -1.36840
                        -----------------------------------------
Magnitude (a.u.)       :      1.65972
Magnitude (Debye)      :      4.21868

Rotational constants in cm-1:     1.278116     0.325414     0.286672
Rotational constants in MHz : 38316.964654  9755.653004  8594.216906

                             ****ORCA TERMINATED NORMALLY****
TOTAL RUN TIME: 0 days 0 hours 0 minutes 17 seconds 867 msec
