                         Program Version 5.0.0 -  RELEASE  -
|  1> !LC-BLYP RIJCOSX def2-TZVPD def2/J TightSCF
|  2> *xyz 1 1
|  3> C          3.48828        1.60092       -1.52204
|  4> C          4.34297        1.31342       -2.75683
|  5> N          2.81029        0.42878       -1.01420
|  6> H          2.71455        2.33145       -1.76030
|  7> H          4.09099        2.06315       -0.73338
|  8> C          3.29098       -0.41802       -0.12908
|  9> N          2.51754       -1.43202        0.23936
| 10> N          4.53549       -0.28441        0.39580
| 11> H          5.04363        0.57189        0.22290
| 12> H          4.72335       -0.73327        1.28180
| 13> H          1.93479        0.10230       -1.40379
| 14> H          1.67464       -1.50562       -0.31610
| 15> H          2.92850       -2.21850        0.72549
| 16> H          3.73575        0.86277       -3.51385
| 17> H          5.13754        0.64699       -2.49333
| 18> H          4.75374        2.22930       -3.12740
| 19> *
| 20> %MaxCore 64000
| 21>
| 22> %pal nprocs 4
| 23> end
| 24>
| 25> %scf
| 26>   MaxIter 150
| 27> end
| 28>
| 29>
| 30>                          ****END OF INPUT****

CARTESIAN COORDINATES (ANGSTROEM)
---------------------------------
  C      3.488280    1.600920   -1.522040
  C      4.342970    1.313420   -2.756830
  N      2.810290    0.428780   -1.014200
  H      2.714550    2.331450   -1.760300
  H      4.090990    2.063150   -0.733380
  C      3.290980   -0.418020   -0.129080
  N      2.517540   -1.432020    0.239360
  N      4.535490   -0.284410    0.395800
  H      5.043630    0.571890    0.222900
  H      4.723350   -0.733270    1.281800
  H      1.934790    0.102300   -1.403790
  H      1.674640   -1.505620   -0.316100
  H      2.928500   -2.218500    0.725490
  H      3.735750    0.862770   -3.513850
  H      5.137540    0.646990   -2.493330
  H      4.753740    2.229300   -3.127400

 Total Charge           Charge          ....    1
 Multiplicity           Mult            ....    1
 Number of Electrons    NEL             ....   48
 Basis Dimension        Dim             ....  312

ORBITAL ENERGIES
----------------

  NO   OCC          E(Eh)            E(eV)
   0   2.0000     -14.399597      -391.8329
   1   2.0000     -14.393822      -391.6758
   2   2.0000     -14.391932      -391.6244
   3   2.0000     -10.406626      -283.1787
   4   2.0000     -10.278874      -279.7024
   5   2.0000     -10.203365      -277.6477
   6   2.0000      -1.322417       -35.9848
   7   2.0000      -1.210044       -32.9270
   8   2.0000      -1.196118       -32.5480
   9   2.0000      -1.043424       -28.3930
  10   2.0000      -0.945502       -25.7284
  11   2.0000      -0.916230       -24.9319
  12   2.0000      -0.887827       -24.1590
  13   2.0000      -0.853061       -23.2130
  14   2.0000      -0.795078       -21.6352
  15   2.0000      -0.783945       -21.3322
  16   2.0000      -0.759879       -20.6774
  17   2.0000      -0.749653       -20.3991
  18   2.0000      -0.707503       -19.2521
  19   2.0000      -0.665876       -18.1194
  20   2.0000      -0.633611       -17.2414
  21   2.0000      -0.612563       -16.6687
  22   2.0000      -0.579520       -15.7695
  23   2.0000      -0.550156       -14.9705
  24   0.0000      -0.109911        -2.9908
  25   0.0000      -0.095059        -2.5867
  26   0.0000      -0.078001        -2.1225
  27   0.0000      -0.067566        -1.8386
  28   0.0000      -0.040823        -1.1109

MULLIKEN ATOMIC CHARGES
-----------------------
   0 C :   -0.779445
   1 C :   -1.164090
   2 N :   -0.133229
   3 H :    0.402055
   4 H :    0.453494
   5 C :    0.654649
   6 N :   -0.325729
   7 N :   -0.367575
   8 H :    0.220602
   9 H :    0.239292
  10 H :    0.139625
  11 H :    0.211479
  12 H :    0.236554
  13 H :    0.395337
  14 H :    0.384290
  15 H :    0.432692
Sum of atomic charges:    1.0000000

LOEWDIN ATOMIC CHARGES
----------------------
   0 C :   -0.220114
   1 C :   -0.067664
   2 N :    0.088107
   3 H :    0.137267
   4 H :    0.126658
   5 C :   -0.444704
   6 N :    0.210003
   7 N :    0.219684
   8 H :    0.116574
   9 H :    0.136454
  10 H :    0.170154
  11 H :    0.136738
  12 H :    0.144422
  13 H :    0.083104
  14 H :    0.075633
  15 H :    0.087685

  Mayer bond orders larger than 0.100000
B(  0-C ,  1-C ) :   0.5112 B(  0-C ,  2-N ) :   0.7394 B(  0-C ,  3-H ) :   0.9041
B(  0-C ,  4-H ) :   0.8178 B(  0-C ,  5-C ) :  -0.1236 B(  1-C , 13-H ) :   0.9188
B(  1-C , 14-H ) :   0.9005 B(  1-C , 15-H ) :   0.9049 B(  2-N ,  5-C ) :   1.2372
B(  2-N , 10-H ) :   1.0783 B(  5-C ,  6-N ) :   1.1040 B(  5-C ,  7-N ) :   1.1220
B(  6-N , 11-H ) :   0.9603 B(  6-N , 12-H ) :   0.9622 B(  7-N ,  8-H ) :   0.9301
B(  7-N ,  9-H ) :   0.9716

FINAL SINGLE POINT ENERGY      -283.777912016827

DIPOLE MOMENT
-------------
                                X             Y             Z
Electronic contribution:     -1.92618      -2.99485       3.73098
Nuclear contribution   :      1.59382       2.33278      -3.02574
                        -----------------------------------------
Total Dipole Moment    :     -0.33237      -0.66207       0.70524
                        -----------------------------------------
Magnitude (a.u.)       :      1.02283
Magnitude (Debye)      :      2.59982

Rotational constants in cm-1:     0.232230     0.073139     0.063030
Rotational constants in MHz :  6962.079716  2192.649203  1889.578947

                             ****ORCA TERMINATED NORMALLY****
TOTAL RUN TIME: 0 days 0 hours 1 minutes 7 seconds 415 msec
