                         Program Version 5.0.0 -  RELEASE  -
|  1> !LC-BLYP RIJCOSX def2-TZVPD def2/J TightSCF xyzfile
|  2>
|  3> *xyzfile 0 1 B.xyz
|  4>
|  5> %MaxCore 64000
|  6>
|  7> %pal nprocs 4
|  8> end
|  9>
| 10> %scf
| 11>   MaxIter 150
| 12> end
| 13>
| 14>
| 15>                          ****END OF INPUT****

CARTESIAN COORDINATES (ANGSTROEM)
---------------------------------
  C      3.488276    1.600919   -1.522040
  C      4.342970    1.313419   -2.756826
  N      2.810285    0.428783   -1.014196
  H      5.132033    0.604994   -2.484466
  C      3.535896    0.749253   -3.924604
  H      4.841247    2.242136   -3.054083
  H      2.991617   -0.132199   -3.574137
  H      4.225505    0.392784   -4.695962
  C      2.564776    1.750890   -4.544523
  H      1.918749    2.171679   -3.769419
  C      1.686235    1.161657   -5.650111
  H      3.132494    2.594775   -4.951604
  C      0.839616   -0.037582   -5.220473
  H      2.323886    0.866395   -6.490796
  H      1.029518    1.951850   -6.029329
  C     -0.151019    0.254955   -4.094256
  H      1.499442   -0.857141   -4.922958
  H      0.290097   -0.410143   -6.091131
  H      0.328265    0.833022   -3.299125
  C     -0.721843   -0.999513   -3.439309
  H     -0.957367    0.884951   -4.485450
  H     -1.083403   -1.697555   -4.205656
  H     -1.581056   -0.723848   -2.820490
  C      0.287250   -1.711771   -2.527405
  H      1.131780   -2.067380   -3.159396
  H     -0.204137   -2.637326   -2.170480
  O      0.710505   -0.927506   -1.481767
  H      2.714548    2.331455   -1.760302
  H      4.090991    2.063151   -0.733382
  C      3.290978   -0.418021   -0.129083
  N      2.517536   -1.432017    0.239360
  N      4.535490   -0.284410    0.395800
  H      5.043627    0.571888    0.222899
  H      4.723346   -0.733273    1.281800
  H      1.934787    0.102305   -1.403788
  H      1.674638   -1.505616   -0.316095
  H      2.928503   -2.218502    0.725494

 Total Charge           Charge          ....    0
 Multiplicity           Mult            ....    1
 Number of Electrons    NEL             ....  112
 Basis Dimension        Dim             ....  728

ORBITAL ENERGIES
----------------

  NO   OCC          E(Eh)            E(eV)
   0   2.0000     -18.806434      -511.7491
   1   2.0000     -14.229473      -387.2037
   2   2.0000     -14.191361      -386.1666
   3   2.0000     -14.183337      -385.9482
   4   2.0000     -10.219921      -278.0982
   5   2.0000     -10.122087      -275.4360
   6   2.0000     -10.077627      -274.2262
   7   2.0000     -10.060247      -273.7533
   8   2.0000     -10.054660      -273.6012
   9   2.0000     -10.048119      -273.4232
  10   2.0000     -10.046906      -273.3902
  11   2.0000     -10.036151      -273.0976
  12   2.0000     -10.025590      -272.8102
  13   2.0000     -10.014208      -272.5005
  14   2.0000      -1.135457       -30.8974
  15   2.0000      -1.030922       -28.0528
  16   2.0000      -1.011810       -27.5328
  17   2.0000      -0.978615       -26.6295
  18   2.0000      -0.922348       -25.0984
  19   2.0000      -0.887801       -24.1583
  20   2.0000      -0.849138       -23.1062
  21   2.0000      -0.811352       -22.0780
  22   2.0000      -0.770081       -20.9550
  23   2.0000      -0.756583       -20.5877
  24   2.0000      -0.719753       -19.5855
  25   2.0000      -0.708118       -19.2689
  26   2.0000      -0.703378       -19.1399
  27   2.0000      -0.671626       -18.2759
  28   2.0000      -0.651909       -17.7394
  29   2.0000      -0.626151       -17.0384
  30   2.0000      -0.616752       -16.7827
  31   2.0000      -0.598809       -16.2944
  32   2.0000      -0.589894       -16.0518
  33   2.0000      -0.577219       -15.7069
  34   2.0000      -0.568919       -15.4811
  35   2.0000      -0.562638       -15.3101
  36   2.0000      -0.540016       -14.6946
  37   2.0000      -0.526614       -14.3299
  38   2.0000      -0.518747       -14.1158
  39   2.0000      -0.497194       -13.5293
  40   2.0000      -0.491537       -13.3754
  41   2.0000      -0.480811       -13.0835
  42   2.0000      -0.459723       -12.5097
  43   2.0000      -0.452964       -12.3258
  44   2.0000      -0.446069       -12.1382
  45   2.0000      -0.433013       -11.7829
  46   2.0000      -0.419446       -11.4137
  47   2.0000      -0.410572       -11.1722
  48   2.0000      -0.409302       -11.1377
  49   2.0000      -0.404080       -10.9956
  50   2.0000      -0.385966       -10.5027
  51   2.0000      -0.382887       -10.4189
  52   2.0000      -0.376335       -10.2406
  53   2.0000      -0.362406        -9.8616
  54   2.0000      -0.276326        -7.5192
  55   2.0000      -0.269521        -7.3340
  56   0.0000       0.025515         0.6943
  57   0.0000       0.050700         1.3796
  58   0.0000       0.059155         1.6097
  59   0.0000       0.065766         1.7896
  60   0.0000       0.075064         2.0426

MULLIKEN ATOMIC CHARGES
-----------------------
   0 C :   -1.303073
   1 C :   -0.670167
   2 N :   -0.098952
   3 H :    0.412441
   4 C :   -0.560294
   5 H :    0.436379
   6 H :    0.266643
   7 H :    0.367100
   8 C :   -0.721657
   9 H :    0.410715
  10 C :   -1.042597
  11 H :    0.372042
  12 C :   -0.701430
  13 H :    0.409314
  14 H :    0.418617
  15 C :   -0.531757
  16 H :    0.324061
  17 H :    0.416152
  18 H :    0.257797
  19 C :   -0.993660
  20 H :    0.389697
  21 H :    0.374820
  22 H :    0.441449
  23 C :   -0.669198
  24 H :    0.321233
  25 H :    0.465865
  26 O :   -1.117395
  27 H :    0.444061
  28 H :    0.540642
  29 C :    0.542544
  30 N :   -0.318092
  31 N :   -0.373965
  32 H :    0.214416
  33 H :    0.215752
  34 H :    0.548487
  35 H :    0.347066
  36 H :    0.164946
Sum of atomic charges:    0.0000000

LOEWDIN ATOMIC CHARGES
----------------------
   0 C :   -0.185566
   1 C :   -0.197802
   2 N :    0.098418
   3 H :    0.113308
   4 C :   -0.216574
   5 H :    0.120268
   6 H :    0.106226
   7 H :    0.125610
   8 C :   -0.229062
   9 H :    0.099903
  10 C :   -0.223731
  11 H :    0.119653
  12 C :   -0.232204
  13 H :    0.113952
  14 H :    0.115637
  15 C :   -0.230500
  16 H :    0.097190
  17 H :    0.118273
  18 H :    0.096570
  19 C :   -0.218500
  20 H :    0.117625
  21 H :    0.113311
  22 H :    0.111644
  23 C :   -0.423340
  24 H :    0.099901
  25 H :    0.104556
  26 O :   -0.307886
  27 H :    0.125401
  28 H :    0.116411
  29 C :   -0.456346
  30 N :    0.190379
  31 N :    0.178654
  32 H :    0.096074
  33 H :    0.114558
  34 H :    0.065292
  35 H :    0.040580
  36 H :    0.122113

  Mayer bond orders larger than 0.100000
B(  0-C ,  1-C ) :   0.5478 B(  0-C ,  2-N ) :   0.8374 B(  0-C , 27-H ) :   0.8542
B(  0-C , 28-H ) :   0.7325 B(  0-C , 29-C ) :  -0.1543 B(  0-C , 34-H ) :  -0.2826
B(  1-C ,  3-H ) :   0.8730 B(  1-C ,  4-C ) :   0.7063 B(  1-C ,  5-H ) :   0.9295
B(  2-N , 29-C ) :   1.2832 B(  2-N , 34-H ) :   0.8544 B(  4-C ,  6-H ) :   1.0753
B(  4-C ,  7-H ) :   0.9401 B(  4-C ,  8-C ) :   0.2795 B(  4-C ,  9-H ) :  -0.1066
B(  8-C ,  9-H ) :   0.9518 B(  8-C , 10-C ) :   0.6621 B(  8-C , 11-H ) :   0.9703
B( 10-C , 12-C ) :   0.6216 B( 10-C , 13-H ) :   0.9574 B( 10-C , 14-H ) :   0.9303
B( 12-C , 15-C ) :   0.3093 B( 12-C , 16-H ) :   1.0281 B( 12-C , 17-H ) :   0.9031
B( 15-C , 16-H ) :  -0.1059 B( 15-C , 18-H ) :   1.0423 B( 15-C , 19-C ) :   0.7648
B( 15-C , 20-H ) :   0.9132 B( 19-C , 21-H ) :   0.9835 B( 19-C , 22-H ) :   0.8618
B( 19-C , 23-C ) :   0.6975 B( 19-C , 26-O ) :   0.1435 B( 23-C , 24-H ) :   1.0146
B( 23-C , 25-H ) :   0.8423 B( 23-C , 26-O ) :   0.8351 B( 26-O , 34-H ) :  -0.1442
B( 26-O , 35-H ) :   0.2729 B( 29-C , 30-N ) :   1.2451 B( 29-C , 31-N ) :   1.0392
B( 30-N , 35-H ) :   0.6486 B( 30-N , 36-H ) :   1.0290 B( 31-N , 32-H ) :   0.9411
B( 31-N , 33-H ) :   0.9863

FINAL SINGLE POINT ENERGY      -632.973057475712

DIPOLE MOMENT
-------------
                                X             Y             Z
Electronic contribution:      3.61058      -2.05779      11.31283
Nuclear contribution   :     -0.74583       2.62534      -9.91488
                        -----------------------------------------
Total Dipole Moment    :      2.86475       0.56755       1.39795
                        -----------------------------------------
Magnitude (a.u.)       :      3.23777
Magnitude (Debye)      :      8.22976

Rotational constants in cm-1:     0.027028     0.016098     0.010898
Rotational constants in MHz :   810.278072   482.590922   326.703462

                             ****ORCA TERMINATED NORMALLY****
TOTAL RUN TIME: 0 days 0 hours 8 minutes 37 seconds 97 msec
