                         Program Version 5.0.0 -  RELEASE  -
|  1> !LC-BLYP RIJCOSX def2-TZVPD def2/J TightSCF
|  2> *xyz 0 1
|  3> C         -0.72184       -0.99951       -3.43931
|  4> C          0.28725       -1.71177       -2.52740
|  5> H          1.13178       -2.06738       -3.15940
|  6> H         -0.20414       -2.63733       -2.17048
|  7> F          0.71050       -0.92751       -1.48177
|  8> H         -1.01315       -1.65739       -4.23129
|  9> H         -0.27123       -0.12142       -3.85259
| 10> H         -1.58442       -0.72333       -2.86958
| 11> *
| 12> %MaxCore 64000
| 13>
| 14> %pal nprocs 4
| 15> end
| 16>
| 17> %scf
| 18>   MaxIter 150
| 19> end
| 20>
| 21>
| 22>                          ****END OF INPUT****

CARTESIAN COORDINATES (ANGSTROEM)
---------------------------------
  C     -0.721840   -0.999510   -3.439310
  C      0.287250   -1.711770   -2.527400
  H      1.131780   -2.067380   -3.159400
  H     -0.204140   -2.637330   -2.170480
  F      0.710500   -0.927510   -1.481770
  H     -1.013150   -1.657390   -4.231290
  H     -0.271230   -0.121420   -3.852590
  H     -1.584420   -0.723330   -2.869580

 Total Charge           Charge          ....    0
 Multiplicity           Mult            ....    1
 Number of Electrons    NEL             ....   26
 Basis Dimension        Dim             ....  159

ORBITAL ENERGIES
----------------

  NO   OCC          E(Eh)            E(eV)
   0   2.0000     -24.441881      -665.0974
   1   2.0000     -10.148246      -276.1478
   2   2.0000     -10.063711      -273.8475
   3   2.0000      -1.277810       -34.7710
   4   2.0000      -0.875678       -23.8284
   5   2.0000      -0.740080       -20.1386
   6   2.0000      -0.613321       -16.6893
   7   2.0000      -0.603181       -16.4134
   8   2.0000      -0.561882       -15.2896
   9   2.0000      -0.507014       -13.7965
  10   2.0000      -0.502634       -13.6774
  11   2.0000      -0.436773       -11.8852
  12   2.0000      -0.428947       -11.6722
  13   0.0000       0.055377         1.5069
  14   0.0000       0.078887         2.1466
  15   0.0000       0.100388         2.7317
  16   0.0000       0.103434         2.8146
  17   0.0000       0.131995         3.5918

MULLIKEN ATOMIC CHARGES
-----------------------
   0 C :   -1.159535
   1 C :   -0.298255
   2 H :    0.315302
   3 H :    0.311750
   4 F :   -0.277590
   5 H :    0.391464
   6 H :    0.358474
   7 H :    0.358391
Sum of atomic charges:   -0.0000000

LOEWDIN ATOMIC CHARGES
----------------------
   0 C :   -0.098755
   1 C :   -0.314626
   2 H :    0.119540
   3 H :    0.115732
   4 F :   -0.034329
   5 H :    0.072286
   6 H :    0.069897
   7 H :    0.070255

  Mayer bond orders larger than 0.100000
B(  0-C ,  1-C ) :   0.6372 B(  0-C ,  5-H ) :   0.9002 B(  0-C ,  6-H ) :   0.9117
B(  0-C ,  7-H ) :   0.9152 B(  1-C ,  2-H ) :   0.9397 B(  1-C ,  3-H ) :   0.9476
B(  1-C ,  4-F ) :   0.8288

FINAL SINGLE POINT ENERGY      -178.742025927965

DIPOLE MOMENT
-------------
                                X             Y             Z
Electronic contribution:      2.69115       1.03045       4.19909
Nuclear contribution   :     -2.97459      -1.40206      -4.79987
                        -----------------------------------------
Total Dipole Moment    :     -0.28344      -0.37161      -0.60078
                        -----------------------------------------
Magnitude (a.u.)       :      0.76116
Magnitude (Debye)      :      1.93472

Rotational constants in cm-1:     1.257024     0.302702     0.267953
Rotational constants in MHz : 37684.643733  9074.792567  8033.038070

                             ****ORCA TERMINATED NORMALLY****
TOTAL RUN TIME: 0 days 0 hours 0 minutes 13 seconds 744 msec
