                         Program Version 5.0.0 -  RELEASE  -
|  1> !LC-BLYP RIJCOSX def2-TZVPD def2/J TightSCF
|  2> *xyz 0 1
|  3> C          3.48828        1.60092       -1.52204
|  4> C          4.34297        1.31342       -2.75683
|  5> C          2.81029        0.42878       -1.01420
|  6> H          2.71455        2.33145       -1.76030
|  7> H          4.09099        2.06315       -0.73338
|  8> C          3.29098       -0.41802       -0.12908
|  9> N          2.51754       -1.43202        0.23936
| 10> N          4.53549       -0.28441        0.39580
| 11> H          5.04363        0.57189        0.22290
| 12> H          4.72335       -0.73327        1.28180
| 13> H          1.93479        0.10230       -1.40379
| 14> H          1.67464       -1.50562       -0.31610
| 15> H          2.92850       -2.21850        0.72549
| 16> H          3.73575        0.86277       -3.51385
| 17> H          5.13754        0.64699       -2.49333
| 18> H          4.75374        2.22930       -3.12740
| 19> *
| 20> %MaxCore 64000
| 21>
| 22> %pal nprocs 4
| 23> end
| 24>
| 25> %scf
| 26>   MaxIter 150
| 27> end
| 28>
| 29>
| 30>                          ****END OF INPUT****

CARTESIAN COORDINATES (ANGSTROEM)
---------------------------------
  C      3.488280    1.600920   -1.522040
  C      4.342970    1.313420   -2.756830
  C      2.810290    0.428780   -1.014200
  H      2.714550    2.331450   -1.760300
  H      4.090990    2.063150   -0.733380
  C      3.290980   -0.418020   -0.129080
  N      2.517540   -1.432020    0.239360
  N      4.535490   -0.284410    0.395800
  H      5.043630    0.571890    0.222900
  H      4.723350   -0.733270    1.281800
  H      1.934790    0.102300   -1.403790
  H      1.674640   -1.505620   -0.316100
  H      2.928500   -2.218500    0.725490
  H      3.735750    0.862770   -3.513850
  H      5.137540    0.646990   -2.493330
  H      4.753740    2.229300   -3.127400

 Total Charge           Charge          ....    0
 Multiplicity           Mult            ....    1
 Number of Electrons    NEL             ....   48
 Basis Dimension        Dim             ....  312

ORBITAL ENERGIES
----------------

  NO   OCC          E(Eh)            E(eV)
   0   2.0000     -14.171219      -385.6185
   1   2.0000     -14.166289      -385.4843
   2   2.0000     -10.111311      -275.1428
   3   2.0000     -10.045678      -273.3568
   4   2.0000     -10.032892      -273.0089
   5   2.0000      -9.993745      -271.9436
   6   2.0000      -1.061811       -28.8933
   7   2.0000      -0.972742       -26.4697
   8   2.0000      -0.885572       -24.0976
   9   2.0000      -0.804124       -21.8813
  10   2.0000      -0.722614       -19.6633
  11   2.0000      -0.687139       -18.6980
  12   2.0000      -0.643720       -17.5165
  13   2.0000      -0.615724       -16.7547
  14   2.0000      -0.566983       -15.4284
  15   2.0000      -0.543773       -14.7968
  16   2.0000      -0.524503       -14.2725
  17   2.0000      -0.506108       -13.7719
  18   2.0000      -0.484299       -13.1784
  19   2.0000      -0.455850       -12.4043
  20   2.0000      -0.431938       -11.7536
  21   2.0000      -0.418609       -11.3909
  22   2.0000      -0.367063        -9.9883
  23   2.0000      -0.257660        -7.0113
  24   0.0000       0.048530         1.3206
  25   0.0000       0.072578         1.9750
  26   0.0000       0.076124         2.0714
  27   0.0000       0.086320         2.3489
  28   0.0000       0.101890         2.7726

MULLIKEN ATOMIC CHARGES
-----------------------
   0 C :   -1.014256
   1 C :   -1.159914
   2 C :   -0.288415
   3 H :    0.340381
   4 H :    0.426589
   5 C :    0.440268
   6 N :   -0.406821
   7 N :   -0.427922
   8 H :    0.177822
   9 H :    0.182206
  10 H :    0.251768
  11 H :    0.180585
  12 H :    0.177713
  13 H :    0.377206
  14 H :    0.364616
  15 H :    0.378175
Sum of atomic charges:   -0.0000000

LOEWDIN ATOMIC CHARGES
----------------------
   0 C :   -0.295173
   1 C :   -0.114409
   2 C :   -0.157280
   3 H :    0.109532
   4 H :    0.103775
   5 C :   -0.554217
   6 N :    0.107387
   7 N :    0.133943
   8 H :    0.089008
   9 H :    0.095396
  10 H :    0.073910
  11 H :    0.106114
  12 H :    0.101104
  13 H :    0.071154
  14 H :    0.066922
  15 H :    0.062835

  Mayer bond orders larger than 0.100000
B(  0-C ,  1-C ) :   0.4799 B(  0-C ,  2-C ) :   0.4874 B(  0-C ,  3-H ) :   1.0983
B(  0-C ,  4-H ) :   0.8462 B(  0-C ,  5-C ) :   0.2688 B(  1-C ,  2-C ) :  -0.1273
B(  1-C , 13-H ) :   0.9511 B(  1-C , 14-H ) :   0.9330 B(  1-C , 15-H ) :   0.9246
B(  2-C ,  3-H ) :  -0.1422 B(  2-C ,  5-C ) :   1.0819 B(  2-C , 10-H ) :   1.2050
B(  3-H ,  4-H ) :   0.1166 B(  5-C ,  6-N ) :   1.0115 B(  5-C ,  7-N ) :   0.8728
B(  5-C , 10-H ) :  -0.3202 B(  6-N , 11-H ) :   0.9745 B(  6-N , 12-H ) :   1.0295
B(  7-N ,  8-H ) :   0.9575 B(  7-N ,  9-H ) :   1.0184

FINAL SINGLE POINT ENERGY      -267.303106834960

DIPOLE MOMENT
-------------
                                X             Y             Z
Electronic contribution:     -1.27285      -2.89182       3.62445
Nuclear contribution   :      1.44676       2.38443      -3.07370
                        -----------------------------------------
Total Dipole Moment    :      0.17391      -0.50739       0.55075
                        -----------------------------------------
Magnitude (a.u.)       :      0.76878
Magnitude (Debye)      :      1.95408

Rotational constants in cm-1:     0.235977     0.073199     0.063283
Rotational constants in MHz :  7074.404583  2194.453291  1897.179599

                             ****ORCA TERMINATED NORMALLY****
TOTAL RUN TIME: 0 days 0 hours 1 minutes 8 seconds 698 msec
