                         Program Version 5.0.0 -  RELEASE  -
|  1> !LC-BLYP RIJCOSX def2-TZVPD def2/J TightSCF
|  2> *xyz 0 1
|  3> C          3.48828        1.60092       -1.52204
|  4> C          4.34297        1.31342       -2.75683
|  5> N          2.81029        0.42878       -1.01420
|  6> H          2.71455        2.33145       -1.76030
|  7> H          4.09099        2.06315       -0.73338
|  8> C          3.29098       -0.41802       -0.12908
|  9> C          2.51754       -1.43202        0.23936
| 10> N          4.53549       -0.28441        0.39580
| 11> H          5.04363        0.57189        0.22290
| 12> H          4.72335       -0.73327        1.28180
| 13> H          1.93479        0.10230       -1.40379
| 14> H          1.67464       -1.50562       -0.31610
| 15> H          2.92850       -2.21850        0.72549
| 16> H          3.73575        0.86277       -3.51385
| 17> H          5.13754        0.64699       -2.49333
| 18> H          4.75374        2.22930       -3.12740
| 19> *
| 20> %MaxCore 64000
| 21>
| 22> %pal nprocs 4
| 23> end
| 24>
| 25> %scf
| 26>   MaxIter 150
| 27> end
| 28>
| 29>
| 30>                          ****END OF INPUT****

CARTESIAN COORDINATES (ANGSTROEM)
---------------------------------
  C      3.488280    1.600920   -1.522040
  C      4.342970    1.313420   -2.756830
  N      2.810290    0.428780   -1.014200
  H      2.714550    2.331450   -1.760300
  H      4.090990    2.063150   -0.733380
  C      3.290980   -0.418020   -0.129080
  C      2.517540   -1.432020    0.239360
  N      4.535490   -0.284410    0.395800
  H      5.043630    0.571890    0.222900
  H      4.723350   -0.733270    1.281800
  H      1.934790    0.102300   -1.403790
  H      1.674640   -1.505620   -0.316100
  H      2.928500   -2.218500    0.725490
  H      3.735750    0.862770   -3.513850
  H      5.137540    0.646990   -2.493330
  H      4.753740    2.229300   -3.127400

 Total Charge           Charge          ....    0
 Multiplicity           Mult            ....    1
 Number of Electrons    NEL             ....   48
 Basis Dimension        Dim             ....  312

ORBITAL ENERGIES
----------------

  NO   OCC          E(Eh)            E(eV)
   0   2.0000     -14.171756      -385.6331
   1   2.0000     -14.171082      -385.6148
   2   2.0000     -10.116219      -275.2763
   3   2.0000     -10.111771      -275.1553
   4   2.0000     -10.058416      -273.7034
   5   2.0000      -9.977941      -271.5136
   6   2.0000      -1.073072       -29.1998
   7   2.0000      -0.986472       -26.8433
   8   2.0000      -0.886146       -24.1132
   9   2.0000      -0.810757       -22.0618
  10   2.0000      -0.738425       -20.0936
  11   2.0000      -0.705584       -19.1999
  12   2.0000      -0.643200       -17.5024
  13   2.0000      -0.606181       -16.4950
  14   2.0000      -0.581198       -15.8152
  15   2.0000      -0.544439       -14.8149
  16   2.0000      -0.537829       -14.6351
  17   2.0000      -0.508137       -13.8271
  18   2.0000      -0.479263       -13.0414
  19   2.0000      -0.472738       -12.8638
  20   2.0000      -0.468074       -12.7369
  21   2.0000      -0.456443       -12.4205
  22   2.0000      -0.358315        -9.7502
  23   2.0000      -0.257336        -7.0025
  24   0.0000       0.046391         1.2624
  25   0.0000       0.070902         1.9293
  26   0.0000       0.075601         2.0572
  27   0.0000       0.076308         2.0764
  28   0.0000       0.105552         2.8722

MULLIKEN ATOMIC CHARGES
-----------------------
   0 C :   -0.768234
   1 C :   -1.154852
   2 N :   -0.192206
   3 H :    0.391265
   4 H :    0.429385
   5 C :    0.557666
   6 C :   -1.079110
   7 N :   -0.427204
   8 H :    0.180049
   9 H :    0.202133
  10 H :    0.087720
  11 H :    0.313583
  12 H :    0.319227
  13 H :    0.349849
  14 H :    0.368050
  15 H :    0.422678
Sum of atomic charges:    0.0000000

LOEWDIN ATOMIC CHARGES
----------------------
   0 C :   -0.258566
   1 C :   -0.096061
   2 N :    0.016081
   3 H :    0.117760
   4 H :    0.111911
   5 C :   -0.571129
   6 C :   -0.015842
   7 N :    0.129656
   8 H :    0.080573
   9 H :    0.107142
  10 H :    0.145853
  11 H :    0.010903
  12 H :    0.013446
  13 H :    0.071713
  14 H :    0.068345
  15 H :    0.068214

  Mayer bond orders larger than 0.100000
B(  0-C ,  1-C ) :   0.4997 B(  0-C ,  2-N ) :   0.7278 B(  0-C ,  3-H ) :   0.9249
B(  0-C ,  4-H ) :   0.8612 B(  0-C ,  5-C ) :  -0.1392 B(  1-C , 13-H ) :   0.9550
B(  1-C , 14-H ) :   0.9367 B(  1-C , 15-H ) :   0.9057 B(  2-N ,  5-C ) :   1.0274
B(  2-N ,  6-C ) :   0.1209 B(  2-N , 10-H ) :   1.0739 B(  5-C ,  6-C ) :   0.9985
B(  5-C ,  7-N ) :   0.9467 B(  5-C , 11-H ) :  -0.1060 B(  5-C , 12-H ) :  -0.1091
B(  6-C , 11-H ) :   0.9978 B(  6-C , 12-H ) :   1.0542 B(  7-N ,  8-H ) :   0.9821
B(  7-N ,  9-H ) :   0.9782

FINAL SINGLE POINT ENERGY      -267.290426477318

DIPOLE MOMENT
-------------
                                X             Y             Z
Electronic contribution:     -0.86941      -1.03714       2.40604
Nuclear contribution   :      1.38466       1.98967      -2.80776
                        -----------------------------------------
Total Dipole Moment    :      0.51525       0.95252      -0.40172
                        -----------------------------------------
Magnitude (a.u.)       :      1.15506
Magnitude (Debye)      :      2.93593

Rotational constants in cm-1:     0.235618     0.075969     0.065309
Rotational constants in MHz :  7063.646698  2277.495424  1957.925383

                             ****ORCA TERMINATED NORMALLY****
TOTAL RUN TIME: 0 days 0 hours 1 minutes 4 seconds 941 msec
