                         Program Version 5.0.0 -  RELEASE  -
|  1> !LC-BLYP RIJCOSX def2-TZVPD def2/J TightSCF
|  2> *xyz 0 1
|  3> C          3.48828        1.60092       -1.52204
|  4> C          4.34297        1.31342       -2.75683
|  5> N          2.81029        0.42878       -1.01420
|  6> H          2.71455        2.33145       -1.76030
|  7> H          4.09099        2.06315       -0.73338
|  8> C          3.29098       -0.41802       -0.12908
|  9> N          2.51754       -1.43202        0.23936
| 10> C          4.53549       -0.28441        0.39580
| 11> H          5.04363        0.57189        0.22290
| 12> H          4.72335       -0.73327        1.28180
| 13> H          1.93479        0.10230       -1.40379
| 14> H          1.67464       -1.50562       -0.31610
| 15> H          2.92850       -2.21850        0.72549
| 16> H          3.73575        0.86277       -3.51385
| 17> H          5.13754        0.64699       -2.49333
| 18> H          4.75374        2.22930       -3.12740
| 19> *
| 20> %MaxCore 64000
| 21>
| 22> %pal nprocs 4
| 23> end
| 24>
| 25> %scf
| 26>   MaxIter 150
| 27> end
| 28>
| 29>
| 30>                          ****END OF INPUT****

CARTESIAN COORDINATES (ANGSTROEM)
---------------------------------
  C      3.488280    1.600920   -1.522040
  C      4.342970    1.313420   -2.756830
  N      2.810290    0.428780   -1.014200
  H      2.714550    2.331450   -1.760300
  H      4.090990    2.063150   -0.733380
  C      3.290980   -0.418020   -0.129080
  N      2.517540   -1.432020    0.239360
  C      4.535490   -0.284410    0.395800
  H      5.043630    0.571890    0.222900
  H      4.723350   -0.733270    1.281800
  H      1.934790    0.102300   -1.403790
  H      1.674640   -1.505620   -0.316100
  H      2.928500   -2.218500    0.725490
  H      3.735750    0.862770   -3.513850
  H      5.137540    0.646990   -2.493330
  H      4.753740    2.229300   -3.127400

 Total Charge           Charge          ....    0
 Multiplicity           Mult            ....    1
 Number of Electrons    NEL             ....   48
 Basis Dimension        Dim             ....  312

ORBITAL ENERGIES
----------------

  NO   OCC          E(Eh)            E(eV)
   0   2.0000     -14.178382      -385.8134
   1   2.0000     -14.173209      -385.6726
   2   2.0000     -10.119423      -275.3635
   3   2.0000     -10.104120      -274.9471
   4   2.0000     -10.050626      -273.4914
   5   2.0000      -9.979994      -271.5695
   6   2.0000      -1.082012       -29.4430
   7   2.0000      -0.992367       -27.0037
   8   2.0000      -0.865790       -23.5593
   9   2.0000      -0.815749       -22.1977
  10   2.0000      -0.753616       -20.5069
  11   2.0000      -0.669778       -18.2256
  12   2.0000      -0.650089       -17.6898
  13   2.0000      -0.634695       -17.2709
  14   2.0000      -0.572010       -15.5652
  15   2.0000      -0.545927       -14.8554
  16   2.0000      -0.535616       -14.5748
  17   2.0000      -0.497205       -13.5296
  18   2.0000      -0.480609       -13.0780
  19   2.0000      -0.471939       -12.8421
  20   2.0000      -0.462566       -12.5871
  21   2.0000      -0.445868       -12.1327
  22   2.0000      -0.351945        -9.5769
  23   2.0000      -0.261307        -7.1105
  24   0.0000       0.045966         1.2508
  25   0.0000       0.067881         1.8471
  26   0.0000       0.077154         2.0995
  27   0.0000       0.079756         2.1703
  28   0.0000       0.105979         2.8838

MULLIKEN ATOMIC CHARGES
-----------------------
   0 C :   -0.699529
   1 C :   -1.195620
   2 N :   -0.200977
   3 H :    0.389412
   4 H :    0.413505
   5 C :    0.622493
   6 N :   -0.380129
   7 C :   -1.188280
   8 H :    0.294891
   9 H :    0.329885
  10 H :    0.103046
  11 H :    0.159258
  12 H :    0.203527
  13 H :    0.367208
  14 H :    0.371279
  15 H :    0.410031
Sum of atomic charges:    0.0000000

LOEWDIN ATOMIC CHARGES
----------------------
   0 C :   -0.253881
   1 C :   -0.093320
   2 N :    0.015190
   3 H :    0.117037
   4 H :    0.116702
   5 C :   -0.578441
   6 N :    0.120475
   7 C :   -0.003435
   8 H :   -0.007294
   9 H :    0.006969
  10 H :    0.139475
  11 H :    0.097848
  12 H :    0.115084
  13 H :    0.068971
  14 H :    0.069462
  15 H :    0.069159

  Mayer bond orders larger than 0.100000
B(  0-C ,  1-C ) :   0.4871 B(  0-C ,  2-N ) :   0.7037 B(  0-C ,  3-H ) :   0.8798
B(  0-C ,  4-H ) :   0.8933 B(  0-C ,  7-C ) :   0.1405 B(  1-C , 13-H ) :   0.9269
B(  1-C , 14-H ) :   0.9451 B(  1-C , 15-H ) :   0.9094 B(  2-N ,  5-C ) :   1.0071
B(  2-N , 10-H ) :   1.1167 B(  5-C ,  6-N ) :   0.9308 B(  5-C ,  7-C ) :   1.0822
B(  5-C ,  9-H ) :  -0.1281 B(  6-N , 11-H ) :   1.0218 B(  6-N , 12-H ) :   0.9839
B(  7-C ,  8-H ) :   1.0146 B(  7-C ,  9-H ) :   1.0672

FINAL SINGLE POINT ENERGY      -267.290971242855

DIPOLE MOMENT
-------------
                                X             Y             Z
Electronic contribution:     -2.80419      -2.27399       2.18340
Nuclear contribution   :      1.81275       2.23313      -2.77458
                        -----------------------------------------
Total Dipole Moment    :     -0.99144      -0.04087      -0.59118
                        -----------------------------------------
Magnitude (a.u.)       :      1.15504
Magnitude (Debye)      :      2.93587

Rotational constants in cm-1:     0.245202     0.073668     0.064348
Rotational constants in MHz :  7350.977980  2208.513334  1929.108541

                             ****ORCA TERMINATED NORMALLY****
TOTAL RUN TIME: 0 days 0 hours 1 minutes 7 seconds 664 msec
