                         Program Version 5.0.0 -  RELEASE  -
|  1> !LC-BLYP RIJCOSX def2-TZVPD def2/J TightSCF xyzfile
|  2>
|  3> *xyzfile 0 1 D1.xyz
|  4>
|  5> %MaxCore 64000
|  6>
|  7> %pal nprocs 4
|  8> end
|  9>
| 10> %scf
| 11>   MaxIter 150
| 12> end
| 13>
| 14>
| 15>                          ****END OF INPUT****

CARTESIAN COORDINATES (ANGSTROEM)
---------------------------------
  C      3.488276    1.600919   -1.522040
  C      4.342970    1.313419   -2.756826
  C      2.810285    0.428783   -1.014196
  H      5.132033    0.604994   -2.484466
  C      3.535896    0.749253   -3.924604
  H      4.841247    2.242136   -3.054083
  H      2.991617   -0.132199   -3.574137
  H      4.225505    0.392784   -4.695962
  C      2.564776    1.750890   -4.544523
  H      1.918749    2.171679   -3.769419
  C      1.686235    1.161657   -5.650111
  H      3.132494    2.594775   -4.951604
  C      0.839616   -0.037582   -5.220473
  H      2.323886    0.866395   -6.490796
  H      1.029518    1.951850   -6.029329
  C     -0.151019    0.254955   -4.094256
  H      1.499442   -0.857141   -4.922958
  H      0.290097   -0.410143   -6.091131
  H      0.328265    0.833022   -3.299125
  C     -0.721843   -0.999513   -3.439309
  H     -0.957367    0.884951   -4.485450
  H     -1.083403   -1.697555   -4.205656
  H     -1.581056   -0.723848   -2.820490
  C      0.287250   -1.711771   -2.527405
  H      1.131780   -2.067380   -3.159396
  H     -0.204137   -2.637326   -2.170480
  F      0.710505   -0.927506   -1.481767
  H      2.714548    2.331455   -1.760302
  H      4.090991    2.063151   -0.733382
  C      3.290978   -0.418021   -0.129083
  N      2.517536   -1.432017    0.239360
  N      4.535490   -0.284410    0.395800
  H      5.043627    0.571888    0.222899
  H      4.723346   -0.733273    1.281800
  H      1.934787    0.102305   -1.403788
  H      1.674638   -1.505616   -0.316095
  H      2.928503   -2.218502    0.725494

 Total Charge           Charge          ....    0
 Multiplicity           Mult            ....    1
 Number of Electrons    NEL             ....  112
 Basis Dimension        Dim             ....  728

ORBITAL ENERGIES
----------------

  NO   OCC          E(Eh)            E(eV)
   0   2.0000     -24.470603      -665.8790
   1   2.0000     -14.156580      -385.2201
   2   2.0000     -14.139878      -384.7656
   3   2.0000     -10.158980      -276.4399
   4   2.0000     -10.093484      -274.6577
   5   2.0000     -10.080704      -274.3099
   6   2.0000     -10.065149      -273.8866
   7   2.0000     -10.061082      -273.7760
   8   2.0000     -10.056642      -273.6551
   9   2.0000     -10.048825      -273.4424
  10   2.0000     -10.043468      -273.2966
  11   2.0000     -10.038662      -273.1659
  12   2.0000     -10.032056      -272.9861
  13   2.0000      -9.966409      -271.1998
  14   2.0000      -1.316491       -35.8235
  15   2.0000      -1.043734       -28.4015
  16   2.0000      -0.955834       -26.0096
  17   2.0000      -0.930799       -25.3283
  18   2.0000      -0.905780       -24.6475
  19   2.0000      -0.875810       -23.8320
  20   2.0000      -0.840962       -22.8837
  21   2.0000      -0.801880       -21.8203
  22   2.0000      -0.776489       -21.1293
  23   2.0000      -0.742779       -20.2120
  24   2.0000      -0.712850       -19.3976
  25   2.0000      -0.697992       -18.9933
  26   2.0000      -0.673708       -18.3325
  27   2.0000      -0.656261       -17.8578
  28   2.0000      -0.643015       -17.4973
  29   2.0000      -0.627274       -17.0690
  30   2.0000      -0.618507       -16.8304
  31   2.0000      -0.602231       -16.3875
  32   2.0000      -0.592972       -16.1356
  33   2.0000      -0.571526       -15.5520
  34   2.0000      -0.561521       -15.2798
  35   2.0000      -0.548516       -14.9259
  36   2.0000      -0.540738       -14.7142
  37   2.0000      -0.527985       -14.3672
  38   2.0000      -0.517561       -14.0835
  39   2.0000      -0.505208       -13.7474
  40   2.0000      -0.498469       -13.5640
  41   2.0000      -0.483115       -13.1462
  42   2.0000      -0.474003       -12.8983
  43   2.0000      -0.467055       -12.7092
  44   2.0000      -0.461202       -12.5499
  45   2.0000      -0.458340       -12.4721
  46   2.0000      -0.436544       -11.8790
  47   2.0000      -0.428895       -11.6708
  48   2.0000      -0.419122       -11.4049
  49   2.0000      -0.415725       -11.3124
  50   2.0000      -0.412455       -11.2235
  51   2.0000      -0.396948       -10.8015
  52   2.0000      -0.390483       -10.6256
  53   2.0000      -0.384501       -10.4628
  54   2.0000      -0.349621        -9.5137
  55   2.0000      -0.240116        -6.5339
  56   0.0000       0.048460         1.3187
  57   0.0000       0.057770         1.5720
  58   0.0000       0.060159         1.6370
  59   0.0000       0.065322         1.7775
  60   0.0000       0.077829         2.1178

MULLIKEN ATOMIC CHARGES
-----------------------
   0 C :   -1.223258
   1 C :   -0.764838
   2 C :   -0.979559
   3 H :    0.409356
   4 C :   -0.516966
   5 H :    0.388838
   6 H :    0.266539
   7 H :    0.352224
   8 C :   -0.694856
   9 H :    0.368873
  10 C :   -1.043105
  11 H :    0.372621
  12 C :   -0.692971
  13 H :    0.414188
  14 H :    0.415961
  15 C :   -0.532855
  16 H :    0.355188
  17 H :    0.410116
  18 H :    0.287504
  19 C :   -0.989179
  20 H :    0.385151
  21 H :    0.397146
  22 H :    0.451859
  23 C :   -0.515862
  24 H :    0.399277
  25 H :    0.442682
  26 F :   -0.565872
  27 H :    0.368688
  28 H :    0.504760
  29 C :   -0.061407
  30 N :   -0.420503
  31 N :   -0.429859
  32 H :    0.196587
  33 H :    0.170559
  34 H :    1.611546
  35 H :    0.332044
  36 H :    0.129382
Sum of atomic charges:   -0.0000000

LOEWDIN ATOMIC CHARGES
----------------------
   0 C :   -0.234726
   1 C :   -0.214036
   2 C :   -0.138481
   3 H :    0.114934
   4 C :   -0.222237
   5 H :    0.112590
   6 H :    0.098690
   7 H :    0.121996
   8 C :   -0.226735
   9 H :    0.100696
  10 C :   -0.221961
  11 H :    0.121462
  12 C :   -0.230210
  13 H :    0.115949
  14 H :    0.115913
  15 C :   -0.219635
  16 H :    0.098334
  17 H :    0.119571
  18 H :    0.107479
  19 C :   -0.190019
  20 H :    0.124952
  21 H :    0.127459
  22 H :    0.119357
  23 C :   -0.214647
  24 H :    0.130648
  25 H :    0.130456
  26 F :   -0.064232
  27 H :    0.107041
  28 H :    0.107830
  29 C :   -0.532701
  30 N :    0.119383
  31 N :    0.133028
  32 H :    0.086208
  33 H :    0.092503
  34 H :    0.040367
  35 H :    0.061878
  36 H :    0.100897

  Mayer bond orders larger than 0.100000
B(  0-C ,  1-C ) :   0.5057 B(  0-C ,  2-C ) :   0.1642 B(  0-C , 27-H ) :   1.0666
B(  0-C , 28-H ) :   0.8556 B(  0-C , 29-C ) :   0.2965 B(  0-C , 34-H ) :  -0.1352
B(  1-C ,  2-C ) :  -0.2410 B(  1-C ,  3-H ) :   0.9135 B(  1-C ,  4-C ) :   0.7132
B(  1-C ,  5-H ) :   0.9181 B(  2-C ,  6-H ) :  -0.1022 B(  2-C , 26-F ) :   0.6330
B(  2-C , 27-H ) :  -0.1210 B(  2-C , 28-H ) :  -0.1046 B(  2-C , 29-C ) :   1.9061
B(  2-C , 34-H ) :  -0.3576 B(  4-C ,  6-H ) :   1.1636 B(  4-C ,  7-H ) :   0.9328
B(  4-C ,  8-C ) :   0.2620 B(  4-C ,  9-H ) :  -0.1103 B(  6-H ,  7-H ) :   0.1107
B(  6-H ,  8-C ) :  -0.1360 B(  8-C ,  9-H ) :   0.9909 B(  8-C , 10-C ) :   0.6337
B(  8-C , 11-H ) :   0.9575 B( 10-C , 12-C ) :   0.6857 B( 10-C , 13-H ) :   0.9513
B( 10-C , 14-H ) :   0.9302 B( 12-C , 15-C ) :   0.2952 B( 12-C , 16-H ) :   0.9890
B( 12-C , 17-H ) :   0.9232 B( 15-C , 16-H ) :  -0.1129 B( 15-C , 18-H ) :   1.0183
B( 15-C , 19-C ) :   0.7213 B( 15-C , 20-H ) :   0.9292 B( 19-C , 21-H ) :   0.9309
B( 19-C , 22-H ) :   0.8739 B( 19-C , 23-C ) :   0.6758 B( 19-C , 26-F ) :   0.1581
B( 23-C , 24-H ) :   0.9219 B( 23-C , 25-H ) :   0.8464 B( 23-C , 26-F ) :   0.6325
B( 26-F , 29-C ) :   0.1331 B( 26-F , 34-H ) :  -1.0012 B( 26-F , 35-H ) :   0.1204
B( 29-C , 30-N ) :   1.0263 B( 29-C , 31-N ) :   0.9071 B( 29-C , 34-H ) :  -0.2473
B( 30-N , 35-H ) :   0.7614 B( 30-N , 36-H ) :   1.0895 B( 31-N , 32-H ) :   0.9552
B( 31-N , 33-H ) :   1.0331

FINAL SINGLE POINT ENERGY      -640.892893496785

DIPOLE MOMENT
-------------
                                X             Y             Z
Electronic contribution:     -1.59605      -4.82886      10.65482
Nuclear contribution   :      1.15699       3.94991     -10.89335
                        -----------------------------------------
Total Dipole Moment    :     -0.43906      -0.87894      -0.23853
                        -----------------------------------------
Magnitude (a.u.)       :      1.01105
Magnitude (Debye)      :      2.56988

Rotational constants in cm-1:     0.026548     0.016177     0.010851
Rotational constants in MHz :   795.884848   484.988695   325.313537

                             ****ORCA TERMINATED NORMALLY****
TOTAL RUN TIME: 0 days 0 hours 9 minutes 34 seconds 123 msec
