                         Program Version 5.0.0 -  RELEASE  -
|  1> !LC-BLYP RIJCOSX def2-TZVPD def2/J TightSCF xyzfile
|  2>
|  3> *xyzfile 0 1 D2.xyz
|  4>
|  5> %MaxCore 64000
|  6>
|  7> %pal nprocs 4
|  8> end
|  9>
| 10> %scf
| 11>   MaxIter 150
| 12> end
| 13>
| 14>
| 15>                          ****END OF INPUT****

CARTESIAN COORDINATES (ANGSTROEM)
---------------------------------
  C      3.488276    1.600919   -1.522040
  C      4.342970    1.313419   -2.756826
  N      2.810285    0.428783   -1.014196
  H      5.132033    0.604994   -2.484466
  C      3.535896    0.749253   -3.924604
  H      4.841247    2.242136   -3.054083
  H      2.991617   -0.132199   -3.574137
  H      4.225505    0.392784   -4.695962
  C      2.564776    1.750890   -4.544523
  H      1.918749    2.171679   -3.769419
  C      1.686235    1.161657   -5.650111
  H      3.132494    2.594775   -4.951604
  C      0.839616   -0.037582   -5.220473
  H      2.323886    0.866395   -6.490796
  H      1.029518    1.951850   -6.029329
  C     -0.151019    0.254955   -4.094256
  H      1.499442   -0.857141   -4.922958
  H      0.290097   -0.410143   -6.091131
  H      0.328265    0.833022   -3.299125
  C     -0.721843   -0.999513   -3.439309
  H     -0.957367    0.884951   -4.485450
  H     -1.083403   -1.697555   -4.205656
  H     -1.581056   -0.723848   -2.820490
  C      0.287250   -1.711771   -2.527405
  H      1.131780   -2.067380   -3.159396
  H     -0.204137   -2.637326   -2.170480
  F      0.710505   -0.927506   -1.481767
  H      2.714548    2.331455   -1.760302
  H      4.090991    2.063151   -0.733382
  C      3.290978   -0.418021   -0.129083
  C      2.517536   -1.432017    0.239360
  N      4.535490   -0.284410    0.395800
  H      5.043627    0.571888    0.222899
  H      4.723346   -0.733273    1.281800
  H      1.934787    0.102305   -1.403788
  H      1.674638   -1.505616   -0.316095
  H      2.928503   -2.218502    0.725494

 Total Charge           Charge          ....    0
 Multiplicity           Mult            ....    1
 Number of Electrons    NEL             ....  112
 Basis Dimension        Dim             ....  728

ORBITAL ENERGIES
----------------

  NO   OCC          E(Eh)            E(eV)
   0   2.0000     -24.468193      -665.8134
   1   2.0000     -14.155036      -385.1781
   2   2.0000     -14.144510      -384.8917
   3   2.0000     -10.157740      -276.4062
   4   2.0000     -10.096819      -274.7484
   5   2.0000     -10.095429      -274.7106
   6   2.0000     -10.082438      -274.3571
   7   2.0000     -10.071958      -274.0719
   8   2.0000     -10.068349      -273.9737
   9   2.0000     -10.066418      -273.9212
  10   2.0000     -10.063156      -273.8324
  11   2.0000     -10.061115      -273.7769
  12   2.0000     -10.060556      -273.7616
  13   2.0000      -9.950524      -270.7675
  14   2.0000      -1.314083       -35.7580
  15   2.0000      -1.054149       -28.6849
  16   2.0000      -0.970686       -26.4137
  17   2.0000      -0.938429       -25.5360
  18   2.0000      -0.910062       -24.7640
  19   2.0000      -0.883418       -24.0390
  20   2.0000      -0.836971       -22.7752
  21   2.0000      -0.813788       -22.1443
  22   2.0000      -0.778680       -21.1890
  23   2.0000      -0.752914       -20.4878
  24   2.0000      -0.720216       -19.5981
  25   2.0000      -0.706400       -19.2221
  26   2.0000      -0.684747       -18.6329
  27   2.0000      -0.667815       -18.1722
  28   2.0000      -0.643417       -17.5083
  29   2.0000      -0.629082       -17.1182
  30   2.0000      -0.617112       -16.7925
  31   2.0000      -0.603486       -16.4217
  32   2.0000      -0.591711       -16.1013
  33   2.0000      -0.580109       -15.7856
  34   2.0000      -0.572162       -15.5693
  35   2.0000      -0.557885       -15.1808
  36   2.0000      -0.542346       -14.7580
  37   2.0000      -0.535596       -14.5743
  38   2.0000      -0.531445       -14.4614
  39   2.0000      -0.516473       -14.0540
  40   2.0000      -0.499368       -13.5885
  41   2.0000      -0.482844       -13.1389
  42   2.0000      -0.476086       -12.9550
  43   2.0000      -0.471413       -12.8278
  44   2.0000      -0.468396       -12.7457
  45   2.0000      -0.459833       -12.5127
  46   2.0000      -0.445353       -12.1187
  47   2.0000      -0.440942       -11.9986
  48   2.0000      -0.436514       -11.8782
  49   2.0000      -0.425678       -11.5833
  50   2.0000      -0.417306       -11.3555
  51   2.0000      -0.413648       -11.2559
  52   2.0000      -0.409701       -11.1485
  53   2.0000      -0.406133       -11.0515
  54   2.0000      -0.340393        -9.2626
  55   2.0000      -0.237721        -6.4687
  56   0.0000       0.049585         1.3493
  57   0.0000       0.053479         1.4552
  58   0.0000       0.058427         1.5899
  59   0.0000       0.061940         1.6855
  60   0.0000       0.075654         2.0586

MULLIKEN ATOMIC CHARGES
-----------------------
   0 C :   -1.310657
   1 C :   -0.728819
   2 N :   -0.177964
   3 H :    0.441603
   4 C :   -0.555736
   5 H :    0.457322
   6 H :    0.254081
   7 H :    0.357817
   8 C :   -0.687749
   9 H :    0.387414
  10 C :   -1.057868
  11 H :    0.375238
  12 C :   -0.696628
  13 H :    0.415077
  14 H :    0.419207
  15 C :   -0.556975
  16 H :    0.355322
  17 H :    0.407734
  18 H :    0.300701
  19 C :   -0.964613
  20 H :    0.395588
  21 H :    0.393371
  22 H :    0.448920
  23 C :   -0.517640
  24 H :    0.386264
  25 H :    0.455053
  26 F :   -0.634317
  27 H :    0.438677
  28 H :    0.541516
  29 C :    0.618225
  30 C :   -1.071277
  31 N :   -0.411066
  32 H :    0.186417
  33 H :    0.218172
  34 H :    0.402345
  35 H :    0.401509
  36 H :    0.313737
Sum of atomic charges:    0.0000000

LOEWDIN ATOMIC CHARGES
----------------------
   0 C :   -0.203731
   1 C :   -0.200389
   2 N :    0.038919
   3 H :    0.115644
   4 C :   -0.220376
   5 H :    0.117161
   6 H :    0.100628
   7 H :    0.124637
   8 C :   -0.228915
   9 H :    0.098672
  10 C :   -0.220483
  11 H :    0.122244
  12 C :   -0.229577
  13 H :    0.117178
  14 H :    0.117119
  15 C :   -0.221478
  16 H :    0.098733
  17 H :    0.121056
  18 H :    0.104330
  19 C :   -0.190259
  20 H :    0.125313
  21 H :    0.127814
  22 H :    0.119878
  23 C :   -0.212527
  24 H :    0.130519
  25 H :    0.134539
  26 F :   -0.066203
  27 H :    0.115440
  28 H :    0.115875
  29 C :   -0.550460
  30 C :   -0.001589
  31 N :    0.127419
  32 H :    0.077609
  33 H :    0.104194
  34 H :    0.092852
  35 H :   -0.017266
  36 H :    0.015478

  Mayer bond orders larger than 0.100000
B(  0-C ,  1-C ) :   0.5455 B(  0-C ,  2-N ) :   0.8830 B(  0-C , 27-H ) :   0.8467
B(  0-C , 28-H ) :   0.7647 B(  0-C , 29-C ) :  -0.2027 B(  0-C , 31-N ) :   0.1281
B(  0-C , 34-H ) :  -0.2727 B(  1-C ,  3-H ) :   0.8569 B(  1-C ,  4-C ) :   0.7516
B(  1-C ,  5-H ) :   0.9294 B(  2-N , 29-C ) :   0.8390 B(  2-N , 34-H ) :   1.0040
B(  4-C ,  6-H ) :   1.1207 B(  4-C ,  7-H ) :   0.9463 B(  4-C ,  8-C ) :   0.2585
B(  4-C ,  9-H ) :  -0.1113 B(  6-H ,  8-C ) :  -0.1226 B(  8-C ,  9-H ) :   0.9768
B(  8-C , 10-C ) :   0.6580 B(  8-C , 11-H ) :   0.9553 B(  8-C , 12-C ) :  -0.1002
B( 10-C , 12-C ) :   0.6749 B( 10-C , 13-H ) :   0.9516 B( 10-C , 14-H ) :   0.9300
B( 12-C , 15-C ) :   0.3020 B( 12-C , 16-H ) :   0.9957 B( 12-C , 17-H ) :   0.9248
B( 15-C , 16-H ) :  -0.1111 B( 15-C , 18-H ) :   1.0033 B( 15-C , 19-C ) :   0.7441
B( 15-C , 20-H ) :   0.9199 B( 19-C , 21-H ) :   0.9397 B( 19-C , 22-H ) :   0.8713
B( 19-C , 23-C ) :   0.6598 B( 19-C , 26-F ) :   0.1397 B( 23-C , 24-H ) :   0.9351
B( 23-C , 25-H ) :   0.8415 B( 23-C , 26-F ) :   0.6496 B( 26-F , 30-C ) :   0.2492
B( 26-F , 35-H ) :  -0.1008 B( 29-C , 30-C ) :   0.9491 B( 29-C , 31-N ) :   0.8641
B( 29-C , 34-H ) :  -0.1839 B( 29-C , 36-H ) :  -0.1533 B( 30-C , 35-H ) :   0.9305
B( 30-C , 36-H ) :   1.1769 B( 31-N , 32-H ) :   0.9951 B( 31-N , 33-H ) :   0.9721

FINAL SINGLE POINT ENERGY      -640.880373830584

DIPOLE MOMENT
-------------
                                X             Y             Z
Electronic contribution:     -1.28102      -3.13161       9.40498
Nuclear contribution   :      1.09892       3.58083     -10.64472
                        -----------------------------------------
Total Dipole Moment    :     -0.18210       0.44922      -1.23974
                        -----------------------------------------
Magnitude (a.u.)       :      1.33113
Magnitude (Debye)      :      3.38346

Rotational constants in cm-1:     0.026768     0.016312     0.010954
Rotational constants in MHz :   802.489946   489.033275   328.388904

                             ****ORCA TERMINATED NORMALLY****
TOTAL RUN TIME: 0 days 0 hours 9 minutes 40 seconds 213 msec
