                         Program Version 5.0.0 -  RELEASE  -
|  1> !LC-BLYP RIJCOSX def2-TZVPD def2/J TightSCF xyzfile
|  2>
|  3> *xyzfile 0 1 D3.xyz
|  4>
|  5> %MaxCore 64000
|  6>
|  7> %pal nprocs 4
|  8> end
|  9>
| 10> %scf
| 11>   MaxIter 150
| 12> end
| 13>
| 14>
| 15>                          ****END OF INPUT****

CARTESIAN COORDINATES (ANGSTROEM)
---------------------------------
  C      3.488276    1.600919   -1.522040
  C      4.342970    1.313419   -2.756826
  N      2.810285    0.428783   -1.014196
  H      5.132033    0.604994   -2.484466
  C      3.535896    0.749253   -3.924604
  H      4.841247    2.242136   -3.054083
  H      2.991617   -0.132199   -3.574137
  H      4.225505    0.392784   -4.695962
  C      2.564776    1.750890   -4.544523
  H      1.918749    2.171679   -3.769419
  C      1.686235    1.161657   -5.650111
  H      3.132494    2.594775   -4.951604
  C      0.839616   -0.037582   -5.220473
  H      2.323886    0.866395   -6.490796
  H      1.029518    1.951850   -6.029329
  C     -0.151019    0.254955   -4.094256
  H      1.499442   -0.857141   -4.922958
  H      0.290097   -0.410143   -6.091131
  H      0.328265    0.833022   -3.299125
  C     -0.721843   -0.999513   -3.439309
  H     -0.957367    0.884951   -4.485450
  H     -1.083403   -1.697555   -4.205656
  H     -1.581056   -0.723848   -2.820490
  C      0.287250   -1.711771   -2.527405
  H      1.131780   -2.067380   -3.159396
  H     -0.204137   -2.637326   -2.170480
  F      0.710505   -0.927506   -1.481767
  H      2.714548    2.331455   -1.760302
  H      4.090991    2.063151   -0.733382
  C      3.290978   -0.418021   -0.129083
  N      2.517536   -1.432017    0.239360
  C      4.535490   -0.284410    0.395800
  H      5.043627    0.571888    0.222899
  H      4.723346   -0.733273    1.281800
  H      1.934787    0.102305   -1.403788
  H      1.674638   -1.505616   -0.316095
  H      2.928503   -2.218502    0.725494

 Total Charge           Charge          ....    0
 Multiplicity           Mult            ....    1
 Number of Electrons    NEL             ....  112
 Basis Dimension        Dim             ....  728

ORBITAL ENERGIES
----------------

  NO   OCC          E(Eh)            E(eV)
   0   2.0000     -24.497978      -666.6239
   1   2.0000     -14.149033      -385.0148
   2   2.0000     -14.143150      -384.8547
   3   2.0000     -10.175934      -276.9012
   4   2.0000     -10.099769      -274.8287
   5   2.0000     -10.094548      -274.6866
   6   2.0000     -10.087346      -274.4906
   7   2.0000     -10.079509      -274.2774
   8   2.0000     -10.073405      -274.1113
   9   2.0000     -10.068422      -273.9757
  10   2.0000     -10.062689      -273.8197
  11   2.0000     -10.058904      -273.7167
  12   2.0000     -10.053325      -273.5649
  13   2.0000      -9.961562      -271.0679
  14   2.0000      -1.342433       -36.5295
  15   2.0000      -1.059720       -28.8364
  16   2.0000      -0.972009       -26.4497
  17   2.0000      -0.944473       -25.7004
  18   2.0000      -0.913824       -24.8664
  19   2.0000      -0.879419       -23.9302
  20   2.0000      -0.836864       -22.7722
  21   2.0000      -0.805214       -21.9110
  22   2.0000      -0.796568       -21.6757
  23   2.0000      -0.764449       -20.8017
  24   2.0000      -0.730388       -19.8749
  25   2.0000      -0.704175       -19.1616
  26   2.0000      -0.682632       -18.5753
  27   2.0000      -0.669042       -18.2056
  28   2.0000      -0.664015       -18.0688
  29   2.0000      -0.633663       -17.2429
  30   2.0000      -0.627432       -17.0733
  31   2.0000      -0.615702       -16.7541
  32   2.0000      -0.598960       -16.2985
  33   2.0000      -0.585910       -15.9434
  34   2.0000      -0.569349       -15.4928
  35   2.0000      -0.559206       -15.2168
  36   2.0000      -0.546169       -14.8620
  37   2.0000      -0.541161       -14.7257
  38   2.0000      -0.533393       -14.5144
  39   2.0000      -0.512532       -13.9467
  40   2.0000      -0.506199       -13.7744
  41   2.0000      -0.486271       -13.2321
  42   2.0000      -0.480871       -13.0852
  43   2.0000      -0.473451       -12.8832
  44   2.0000      -0.472997       -12.8709
  45   2.0000      -0.460645       -12.5348
  46   2.0000      -0.451272       -12.2797
  47   2.0000      -0.448313       -12.1992
  48   2.0000      -0.439014       -11.9462
  49   2.0000      -0.434677       -11.8282
  50   2.0000      -0.428249       -11.6532
  51   2.0000      -0.413793       -11.2599
  52   2.0000      -0.411452       -11.1962
  53   2.0000      -0.404630       -11.0105
  54   2.0000      -0.329306        -8.9609
  55   2.0000      -0.242538        -6.5998
  56   0.0000       0.041753         1.1362
  57   0.0000       0.050530         1.3750
  58   0.0000       0.057557         1.5662
  59   0.0000       0.061439         1.6718
  60   0.0000       0.075221         2.0469

MULLIKEN ATOMIC CHARGES
-----------------------
   0 C :   -1.256565
   1 C :   -0.771662
   2 N :   -0.249509
   3 H :    0.453709
   4 C :   -0.523573
   5 H :    0.440588
   6 H :    0.228820
   7 H :    0.360563
   8 C :   -0.675076
   9 H :    0.365146
  10 C :   -1.074676
  11 H :    0.380038
  12 C :   -0.687120
  13 H :    0.417949
  14 H :    0.419663
  15 C :   -0.556466
  16 H :    0.355939
  17 H :    0.411089
  18 H :    0.301392
  19 C :   -0.993986
  20 H :    0.391986
  21 H :    0.393841
  22 H :    0.451866
  23 C :   -0.491157
  24 H :    0.392874
  25 H :    0.455513
  26 F :   -0.604192
  27 H :    0.439276
  28 H :    0.539187
  29 C :    0.636818
  30 N :   -0.423799
  31 C :   -1.284579
  32 H :    0.325252
  33 H :    0.348108
  34 H :    0.498047
  35 H :    0.424244
  36 H :    0.160453
Sum of atomic charges:    0.0000000

LOEWDIN ATOMIC CHARGES
----------------------
   0 C :   -0.198996
   1 C :   -0.194332
   2 N :    0.038075
   3 H :    0.117244
   4 C :   -0.221881
   5 H :    0.118893
   6 H :    0.097932
   7 H :    0.124494
   8 C :   -0.229005
   9 H :    0.098264
  10 C :   -0.220223
  11 H :    0.122919
  12 C :   -0.229451
  13 H :    0.117638
  14 H :    0.117216
  15 C :   -0.220257
  16 H :    0.098427
  17 H :    0.121268
  18 H :    0.104852
  19 C :   -0.188259
  20 H :    0.126587
  21 H :    0.129748
  22 H :    0.120698
  23 C :   -0.209574
  24 H :    0.132178
  25 H :    0.134169
  26 F :   -0.054494
  27 H :    0.114942
  28 H :    0.120222
  29 C :   -0.561370
  30 N :    0.129138
  31 C :   -0.008249
  32 H :   -0.011718
  33 H :    0.002530
  34 H :    0.089145
  35 H :    0.056524
  36 H :    0.114709

  Mayer bond orders larger than 0.100000
B(  0-C ,  1-C ) :   0.5913 B(  0-C ,  2-N ) :   0.8298 B(  0-C , 27-H ) :   0.8311
B(  0-C , 28-H ) :   0.7692 B(  0-C , 29-C ) :  -0.1162 B(  0-C , 31-C ) :   0.1888
B(  0-C , 34-H ) :  -0.3325 B(  1-C ,  3-H ) :   0.8636 B(  1-C ,  4-C ) :   0.7166
B(  1-C ,  5-H ) :   0.9074 B(  2-N , 29-C ) :   0.9003 B(  2-N , 34-H ) :   0.9223
B(  4-C ,  6-H ) :   1.1372 B(  4-C ,  7-H ) :   0.9460 B(  4-C ,  8-C ) :   0.2686
B(  4-C ,  9-H ) :  -0.1175 B(  6-H ,  8-C ) :  -0.1258 B(  8-C ,  9-H ) :   0.9941
B(  8-C , 10-C ) :   0.6500 B(  8-C , 11-H ) :   0.9511 B( 10-C , 12-C ) :   0.6801
B( 10-C , 13-H ) :   0.9505 B( 10-C , 14-H ) :   0.9307 B( 12-C , 15-C ) :   0.2941
B( 12-C , 16-H ) :   0.9940 B( 12-C , 17-H ) :   0.9227 B( 15-C , 16-H ) :  -0.1159
B( 15-C , 18-H ) :   1.0016 B( 15-C , 19-C ) :   0.7287 B( 15-C , 20-H ) :   0.9297
B( 19-C , 21-H ) :   0.9300 B( 19-C , 22-H ) :   0.8805 B( 19-C , 23-C ) :   0.6846
B( 19-C , 26-F ) :   0.1618 B( 23-C , 24-H ) :   0.9313 B( 23-C , 25-H ) :   0.8319
B( 23-C , 26-F ) :   0.6163 B( 26-F , 34-H ) :  -0.1347 B( 29-C , 30-N ) :   1.0218
B( 29-C , 31-C ) :   0.8869 B( 29-C , 32-H ) :  -0.1072 B( 29-C , 33-H ) :  -0.1330
B( 30-N , 35-H ) :   0.7158 B( 30-N , 36-H ) :   1.0353 B( 31-C , 32-H ) :   1.0505
B( 31-C , 33-H ) :   1.0942 B( 32-H , 33-H ) :   0.1017

FINAL SINGLE POINT ENERGY      -640.892661168991

DIPOLE MOMENT
-------------
                                X             Y             Z
Electronic contribution:     -3.24358      -4.29683       9.04497
Nuclear contribution   :      1.49917       3.80845     -10.61369
                        -----------------------------------------
Total Dipole Moment    :     -1.74441      -0.48838      -1.56872
                        -----------------------------------------
Magnitude (a.u.)       :      2.39632
Magnitude (Debye)      :      6.09097

Rotational constants in cm-1:     0.026547     0.016542     0.011018
Rotational constants in MHz :   795.873737   495.912559   330.323979

                             ****ORCA TERMINATED NORMALLY****
TOTAL RUN TIME: 0 days 0 hours 8 minutes 15 seconds 147 msec
