                         Program Version 5.0.0 -  RELEASE  -
|  1> !BLYP D3BJ RIJCOSX def2-SVPD def2/J TightSCF
|  2> *xyz -1 1
|  3> C         -0.05915        1.50352        3.41058
|  4> C          1.08303        0.74964        4.08571
|  5> O          2.22817        1.26348        4.01983
|  6> O          0.81003       -0.34541        4.63627
|  7> H          0.31461        2.41205        2.98658
|  8> H         -0.81316        1.73160        4.13470
|  9> H         -0.47977        0.89552        2.63708
| 10> *
| 11>
| 12> %MaxCore 64000
| 13>
| 14> %pal nprocs 4
| 15> end
| 16>
| 17> %scf
| 18>   MaxIter 150
| 19> end
| 20>
| 21>
| 22>                          ****END OF INPUT****

CARTESIAN COORDINATES (ANGSTROEM)
---------------------------------
  C     -0.059150    1.503520    3.410580
  C      1.083030    0.749640    4.085710
  O      2.228170    1.263480    4.019830
  O      0.810030   -0.345410    4.636270
  H      0.314610    2.412050    2.986580
  H     -0.813160    1.731600    4.134700
  H     -0.479770    0.895520    2.637080

 Total Charge           Charge          ....   -1
 Multiplicity           Mult            ....    1
 Number of Electrons    NEL             ....   32
 Basis Dimension        Dim             ....  110

ORBITAL ENERGIES
----------------

  NO   OCC          E(Eh)            E(eV)
   0   2.0000     -18.528603      -504.1889
   1   2.0000     -18.528138      -504.1763
   2   2.0000      -9.801716      -266.7182
   3   2.0000      -9.735225      -264.9089
   4   2.0000      -0.714463       -19.4415
   5   2.0000      -0.626760       -17.0550
   6   2.0000      -0.462887       -12.5958
   7   2.0000      -0.241119        -6.5612
   8   2.0000      -0.208974        -5.6865
   9   2.0000      -0.193104        -5.2546
  10   2.0000      -0.165763        -4.5106
  11   2.0000      -0.130678        -3.5559
  12   2.0000      -0.117400        -3.1946
  13   2.0000      -0.007247        -0.1972
  14   2.0000       0.004839         0.1317
  15   2.0000       0.023769         0.6468
  16   0.0000       0.155440         4.2297
  17   0.0000       0.198656         5.4057
  18   0.0000       0.200350         5.4518
  19   0.0000       0.223823         6.0905
  20   0.0000       0.243107         6.6153

MULLIKEN ATOMIC CHARGES
-----------------------
   0 C :    0.859154
   1 C :   -0.152414
   2 O :   -0.550080
   3 O :   -0.571577
   4 H :   -0.215062
   5 H :   -0.184602
   6 H :   -0.185418
Sum of atomic charges:   -1.0000000

LOEWDIN ATOMIC CHARGES
----------------------
   0 C :    0.155439
   1 C :   -0.362041
   2 O :   -0.321988
   3 O :   -0.323314
   4 H :   -0.054074
   5 H :   -0.047489
   6 H :   -0.046532

  Mayer bond orders larger than 0.100000
B(  0-C ,  1-C ) :   1.2193 B(  0-C ,  4-H ) :   0.7926 B(  0-C ,  5-H ) :   0.7376
B(  0-C ,  6-H ) :   0.7419 B(  1-C ,  2-O ) :   1.5515 B(  1-C ,  3-O ) :   1.5831
B(  1-C ,  4-H ) :   0.3198 B(  1-C ,  5-H ) :   0.2256 B(  1-C ,  6-H ) :   0.2215

Dispersion correction           -0.007719695
FINAL SINGLE POINT ENERGY      -228.325804261843

DIPOLE MOMENT
-------------
                                X             Y             Z
Electronic contribution:      2.74906      -1.80920       1.61188
Nuclear contribution   :     -3.75920       2.48542      -2.19871
                        -----------------------------------------
Total Dipole Moment    :     -1.01014       0.67622      -0.58684
                        -----------------------------------------
Magnitude (a.u.)       :      1.34982
Magnitude (Debye)      :      3.43098

Rotational constants in cm-1:     0.392838     0.334689     0.186890
Rotational constants in MHz : 11776.984954 10033.729666  5602.815156

                             ****ORCA TERMINATED NORMALLY****
TOTAL RUN TIME: 0 days 0 hours 0 minutes 3 seconds 490 msec
