                         Program Version 5.0.0 -  RELEASE  -
|  1> !BLYP D3BJ RIJCOSX def2-SVPD def2/J TightSCF
|  2> *xyz 1 1
|  3> C          4.60295       -2.44010        2.63478
|  4> C          3.86085       -1.59157        3.62289
|  5> N          2.75650       -2.04616        4.16633
|  6> N          4.25433       -0.36291        3.86046
|  7> H          3.56526        0.31099        4.16898
|  8> H          5.05429       -0.01606        3.33784
|  9> H          2.43970       -2.97389        3.89740
| 10> H          2.06687       -1.41253        4.54981
| 11> H          5.47239       -1.91604        2.29664
| 12> H          3.96816       -2.65362        1.80030
| 13> H          4.89801       -3.35632        3.10209
| 14> *
| 15>
| 16> %MaxCore 64000
| 17>
| 18> %pal nprocs 4
| 19> end
| 20>
| 21> %scf
| 22>   MaxIter 150
| 23> end
| 24>
| 25>
| 26>                          ****END OF INPUT****

CARTESIAN COORDINATES (ANGSTROEM)
---------------------------------
  C      4.602950   -2.440100    2.634780
  C      3.860850   -1.591570    3.622890
  N      2.756500   -2.046160    4.166330
  N      4.254330   -0.362910    3.860460
  H      3.565260    0.310990    4.168980
  H      5.054290   -0.016060    3.337840
  H      2.439700   -2.973890    3.897400
  H      2.066870   -1.412530    4.549810
  H      5.472390   -1.916040    2.296640
  H      3.968160   -2.653620    1.800300
  H      4.898010   -3.356320    3.102090

 Total Charge           Charge          ....    1
 Multiplicity           Mult            ....    1
 Number of Electrons    NEL             ....   32
 Basis Dimension        Dim             ....  136

ORBITAL ENERGIES
----------------

  NO   OCC          E(Eh)            E(eV)
   0   2.0000     -14.277136      -388.5006
   1   2.0000     -14.276339      -388.4789
   2   2.0000     -10.248035      -278.8632
   3   2.0000     -10.125073      -275.5172
   4   2.0000      -1.117685       -30.4137
   5   2.0000      -1.026875       -27.9427
   6   2.0000      -0.876614       -23.8539
   7   2.0000      -0.780179       -21.2297
   8   2.0000      -0.724400       -19.7119
   9   2.0000      -0.716253       -19.4902
  10   2.0000      -0.654180       -17.8011
  11   2.0000      -0.613668       -16.6987
  12   2.0000      -0.574579       -15.6351
  13   2.0000      -0.557133       -15.1604
  14   2.0000      -0.530336       -14.4312
  15   2.0000      -0.461938       -12.5700
  16   0.0000      -0.256969        -6.9925
  17   0.0000      -0.189586        -5.1589
  18   0.0000      -0.146198        -3.9782
  19   0.0000      -0.142463        -3.8766
  20   0.0000      -0.120345        -3.2748

MULLIKEN ATOMIC CHARGES
-----------------------
   0 C :    0.991676
   1 C :    0.011296
   2 N :    0.367399
   3 N :    0.281353
   4 H :   -0.118374
   5 H :    0.005575
   6 H :   -0.013533
   7 H :   -0.202031
   8 H :   -0.120711
   9 H :   -0.125493
  10 H :   -0.077157
Sum of atomic charges:    1.0000000

LOEWDIN ATOMIC CHARGES
----------------------
   0 C :    0.250351
   1 C :   -0.089058
   2 N :    0.298157
   3 N :    0.301664
   4 H :    0.046680
   5 H :    0.049851
   6 H :    0.055704
   7 H :    0.046304
   8 H :    0.001849
   9 H :    0.021012
  10 H :    0.017486

  Mayer bond orders larger than 0.100000
B(  0-C ,  1-C ) :   1.3205 B(  0-C ,  8-H ) :   0.7090 B(  0-C ,  9-H ) :   0.7453
B(  0-C , 10-H ) :   0.5891 B(  1-C ,  2-N ) :   1.2587 B(  1-C ,  3-N ) :   1.1930
B(  1-C ,  4-H ) :  -0.1365 B(  1-C ,  7-H ) :  -0.1542 B(  1-C ,  8-H ) :   0.3234
B(  1-C ,  9-H ) :   0.1777 B(  1-C , 10-H ) :   0.3046 B(  2-N ,  3-N ) :   0.1875
B(  2-N ,  6-H ) :   1.0599 B(  2-N ,  7-H ) :   1.2363 B(  3-N ,  4-H ) :   1.2210
B(  3-N ,  5-H ) :   1.0234 B(  4-H ,  5-H ) :  -0.1448 B(  6-H ,  7-H ) :  -0.1587
B(  8-H , 10-H ) :   0.1116 B(  9-H , 10-H ) :   0.1064

Dispersion correction           -0.014176116
FINAL SINGLE POINT ENERGY      -189.515553854469

DIPOLE MOMENT
-------------
                                X             Y             Z
Electronic contribution:     -0.95613       1.15255       1.62992
Nuclear contribution   :      0.47466      -0.79212      -1.71537
                        -----------------------------------------
Total Dipole Moment    :     -0.48147       0.36043      -0.08545
                        -----------------------------------------
Magnitude (a.u.)       :      0.60747
Magnitude (Debye)      :      1.54407

Rotational constants in cm-1:     0.335502     0.299428     0.163704
Rotational constants in MHz : 10058.111638  8976.630214  4907.722182

                             ****ORCA TERMINATED NORMALLY****
TOTAL RUN TIME: 0 days 0 hours 0 minutes 4 seconds 662 msec
