                         Program Version 5.0.0 -  RELEASE  -
|  1> !BLYP D3BJ RIJCOSX def2-SVPD def2/J TightSCF xyzfile
|  2>
|  3> *xyzfile 0 1 B.xyz
|  4>
|  5> %MaxCore 64000
|  6>
|  7> %pal nprocs 4
|  8> end
|  9>
| 10> %scf
| 11>   MaxIter 150
| 12> end
| 13>
| 14>
| 15>                          ****END OF INPUT****

CARTESIAN COORDINATES (ANGSTROEM)
---------------------------------
  C      4.602954   -2.440100    2.634780
  C     -0.914947    0.615112    2.505538
  C     -0.059146    1.503524    3.410578
  H      0.365364    2.344315    2.861161
  H     -0.692261    1.920207    4.198985
  C      1.083027    0.749640    4.085705
  C      3.860851   -1.591565    3.622893
  N      2.756502   -2.046159    4.166333
  N      4.254325   -0.362905    3.860455
  H      3.565256    0.310994    4.168983
  H      5.054292   -0.016059    3.337838
  H      2.439696   -2.973894    3.897395
  H      2.066869   -1.412532    4.549813
  O      2.228167    1.263475    4.019826
  O      0.810034   -0.345411    4.636269
  C      3.744685   -2.580557    1.361882
  C      0.772139    0.636882    0.562129
  C     -0.130740   -0.193985    1.470763
  H     -0.840563   -0.760165    0.856377
  H      0.466691   -0.938942    2.006959
  H     -1.647961    1.245963    1.991076
  H     -1.478180   -0.081046    3.130424
  C      3.203721   -1.256004    0.826211
  H      2.898939   -3.239289    1.583074
  H      4.334962   -3.095523    0.600188
  C      2.107815   -1.442385   -0.216865
  H      2.786775   -0.672760    1.650711
  H      4.021008   -0.652993    0.414046
  C      1.390662   -0.145912   -0.602422
  H      1.372179   -2.152184    0.176151
  H      2.523302   -1.906787   -1.117115
  H      1.561361    1.100094    1.161831
  H      0.195516    1.468325    0.142758
  H      0.602893   -0.398214   -1.319716
  H      2.087247    0.508272   -1.137335
  H      5.561557   -1.971347    2.407084
  H      4.810498   -3.422552    3.063099

 Total Charge           Charge          ....    0
 Multiplicity           Mult            ....    1
 Number of Electrons    NEL             ....  118
 Basis Dimension        Dim             ....  482

ORBITAL ENERGIES
----------------

  NO   OCC          E(Eh)            E(eV)
   0   2.0000     -18.719033      -509.3708
   1   2.0000     -18.717438      -509.3274
   2   2.0000     -14.065166      -382.7326
   3   2.0000     -14.064983      -382.7276
   4   2.0000     -10.050111      -273.4774
   5   2.0000      -9.982496      -271.6375
   6   2.0000      -9.970837      -271.3203
   7   2.0000      -9.953140      -270.8387
   8   2.0000      -9.930392      -270.2197
   9   2.0000      -9.921667      -269.9823
  10   2.0000      -9.913864      -269.7699
  11   2.0000      -9.903713      -269.4937
  12   2.0000      -9.900540      -269.4074
  13   2.0000      -9.896330      -269.2928
  14   2.0000      -9.887701      -269.0580
  15   2.0000      -0.921712       -25.0811
  16   2.0000      -0.905922       -24.6514
  17   2.0000      -0.831600       -22.6290
  18   2.0000      -0.815890       -22.2015
  19   2.0000      -0.750517       -20.4226
  20   2.0000      -0.717533       -19.5251
  21   2.0000      -0.689344       -18.7580
  22   2.0000      -0.652807       -17.7638
  23   2.0000      -0.618170       -16.8213
  24   2.0000      -0.588243       -16.0069
  25   2.0000      -0.571660       -15.5557
  26   2.0000      -0.552007       -15.0209
  27   2.0000      -0.523483       -14.2447
  28   2.0000      -0.515395       -14.0246
  29   2.0000      -0.509190       -13.8558
  30   2.0000      -0.481119       -13.0919
  31   2.0000      -0.460016       -12.5177
  32   2.0000      -0.454260       -12.3610
  33   2.0000      -0.431426       -11.7397
  34   2.0000      -0.416406       -11.3310
  35   2.0000      -0.408932       -11.1276
  36   2.0000      -0.400972       -10.9110
  37   2.0000      -0.392033       -10.6678
  38   2.0000      -0.380166       -10.3449
  39   2.0000      -0.369529       -10.0554
  40   2.0000      -0.360458        -9.8086
  41   2.0000      -0.357201        -9.7199
  42   2.0000      -0.349725        -9.5165
  43   2.0000      -0.344669        -9.3789
  44   2.0000      -0.328680        -8.9438
  45   2.0000      -0.326347        -8.8803
  46   2.0000      -0.321606        -8.7513
  47   2.0000      -0.315314        -8.5801
  48   2.0000      -0.306385        -8.3372
  49   2.0000      -0.291296        -7.9266
  50   2.0000      -0.288069        -7.8388
  51   2.0000      -0.280626        -7.6362
  52   2.0000      -0.267127        -7.2689
  53   2.0000      -0.262834        -7.1521
  54   2.0000      -0.261229        -7.1084
  55   2.0000      -0.254088        -6.9141
  56   2.0000      -0.197417        -5.3720
  57   2.0000      -0.183090        -4.9821
  58   2.0000      -0.172498        -4.6939
  59   0.0000      -0.065632        -1.7859
  60   0.0000      -0.025779        -0.7015
  61   0.0000      -0.006247        -0.1700
  62   0.0000       0.006417         0.1746
  63   0.0000       0.013944         0.3794

MULLIKEN ATOMIC CHARGES
-----------------------
   0 C :    0.918147
   1 C :    0.837647
   2 C :    0.504492
   3 H :    0.017870
   4 H :   -0.358774
   5 C :    0.252355
   6 C :   -0.009497
   7 N :    0.710168
   8 N :    0.700323
   9 H :   -0.545131
  10 H :    0.041421
  11 H :    0.029106
  12 H :   -0.645317
  13 O :   -0.567689
  14 O :   -0.638727
  15 C :    0.477817
  16 C :    0.090910
  17 C :    0.126397
  18 H :   -0.326697
  19 H :   -0.222350
  20 H :   -0.253394
  21 H :   -0.084579
  22 C :    0.510212
  23 H :   -0.093084
  24 H :   -0.451900
  25 C :    0.264532
  26 H :   -0.597847
  27 H :   -0.116954
  28 C :    1.139401
  29 H :    0.073987
  30 H :   -0.553657
  31 H :    0.049433
  32 H :   -0.706279
  33 H :   -0.061619
  34 H :   -0.168166
  35 H :   -0.138377
  36 H :   -0.204178
Sum of atomic charges:    0.0000000

LOEWDIN ATOMIC CHARGES
----------------------
   0 C :    0.047532
   1 C :   -0.016875
   2 C :    0.040629
   3 H :    0.009614
   4 H :    0.025121
   5 C :   -0.214930
   6 C :   -0.092049
   7 N :    0.323742
   8 N :    0.313679
   9 H :   -0.099975
  10 H :    0.031265
  11 H :    0.032839
  12 H :   -0.101050
  13 O :   -0.217691
  14 O :   -0.213749
  15 C :   -0.005668
  16 C :   -0.022914
  17 C :   -0.025614
  18 H :    0.020345
  19 H :    0.000928
  20 H :    0.013720
  21 H :    0.016856
  22 C :   -0.019277
  23 H :    0.014041
  24 H :    0.025284
  25 C :   -0.027276
  26 H :   -0.012173
  27 H :    0.033488
  28 C :   -0.019613
  29 H :    0.012485
  30 H :    0.018776
  31 H :    0.007589
  32 H :    0.020199
  33 H :    0.016560
  34 H :    0.016215
  35 H :    0.020388
  36 H :    0.027560

  Mayer bond orders larger than 0.100000
B(  0-C ,  6-C ) :   1.1273 B(  0-C ,  7-N ) :   0.1102 B(  0-C ,  8-N ) :   0.1295
B(  0-C , 15-C ) :   1.0951 B(  0-C , 35-H ) :   0.5802 B(  0-C , 36-H ) :   0.4619
B(  1-C ,  2-C ) :   1.1398 B(  1-C ,  3-H ) :   0.1315 B(  1-C ,  4-H ) :   0.2043
B(  1-C ,  5-C ) :   0.1173 B(  1-C , 17-C ) :   1.1740 B(  1-C , 19-H ) :   0.1399
B(  1-C , 20-H ) :   0.5848 B(  1-C , 21-H ) :   0.4590 B(  1-C , 28-C ) :   0.1264
B(  2-C ,  3-H ) :   0.7676 B(  2-C ,  4-H ) :   0.5237 B(  2-C ,  5-C ) :   1.0914
B(  2-C , 14-O ) :   0.1043 B(  2-C , 17-C ) :   0.2193 B(  2-C , 20-H ) :   0.2181
B(  2-C , 21-H ) :   0.1513 B(  3-H ,  4-H ) :  -0.1342 B(  3-H ,  5-C ) :   0.2702
B(  4-H ,  5-C ) :   0.2606 B(  5-C , 13-O ) :   1.4744 B(  5-C , 14-O ) :   1.4071
B(  6-C ,  7-N ) :   1.1135 B(  6-C ,  8-N ) :   1.1193 B(  6-C , 15-C ) :   0.1261
B(  6-C , 35-H ) :   0.3163 B(  6-C , 36-H ) :   0.2740 B(  7-N ,  8-N ) :   0.2383
B(  7-N , 11-H ) :   0.9822 B(  7-N , 12-H ) :   1.0420 B(  8-N ,  9-H ) :   1.0281
B(  8-N , 10-H ) :   0.9724 B(  9-H , 10-H ) :  -0.2649 B(  9-H , 13-O ) :   0.1741
B( 11-H , 12-H ) :  -0.2886 B( 12-H , 14-O ) :   0.2434 B( 13-O , 14-O ) :   0.1644
B( 15-C , 22-C ) :   1.1266 B( 15-C , 23-H ) :   0.7614 B( 15-C , 24-H ) :   0.7087
B( 15-C , 25-C ) :   0.1561 B( 15-C , 26-H ) :   0.2015 B( 15-C , 27-H ) :   0.1313
B( 15-C , 35-H ) :   0.1576 B( 15-C , 36-H ) :   0.2350 B( 16-C , 17-C ) :   1.2689
B( 16-C , 18-H ) :   0.2154 B( 16-C , 19-H ) :   0.1806 B( 16-C , 25-C ) :   0.2730
B( 16-C , 28-C ) :   0.9922 B( 16-C , 31-H ) :   0.7671 B( 16-C , 32-H ) :   0.9020
B( 16-C , 33-H ) :   0.1980 B( 16-C , 34-H ) :   0.3948 B( 17-C , 18-H ) :   0.7097
B( 17-C , 19-H ) :   0.7994 B( 17-C , 20-H ) :   0.2527 B( 17-C , 21-H ) :   0.3590
B( 17-C , 31-H ) :   0.1353 B( 17-C , 32-H ) :   0.1360 B( 20-H , 21-H ) :  -0.1889
B( 22-C , 23-H ) :   0.1855 B( 22-C , 24-H ) :   0.2782 B( 22-C , 25-C ) :   1.1506
B( 22-C , 26-H ) :   0.6420 B( 22-C , 27-H ) :   0.5808 B( 22-C , 29-H ) :   0.1875
B( 22-C , 30-H ) :   0.2612 B( 22-C , 31-H ) :  -0.1166 B( 25-C , 26-H ) :   0.1485
B( 25-C , 27-H ) :   0.1401 B( 25-C , 28-C ) :   1.0951 B( 25-C , 29-H ) :   0.7412
B( 25-C , 30-H ) :   0.7529 B( 25-C , 33-H ) :   0.3135 B( 25-C , 34-H ) :   0.1944
B( 26-H , 27-H ) :   0.1844 B( 26-H , 31-H ) :   0.2510 B( 26-H , 32-H ) :  -0.1824
B( 28-C , 29-H ) :   0.1323 B( 28-C , 33-H ) :   0.4820 B( 28-C , 34-H ) :   0.4142
B( 29-H , 30-H ) :  -0.1071 B( 33-H , 34-H ) :  -0.1779

Dispersion correction           -0.085459203
FINAL SINGLE POINT ENERGY      -691.723060546235

DIPOLE MOMENT
-------------
                                X             Y             Z
Electronic contribution:      3.39406       1.66310      13.05679
Nuclear contribution   :     -1.50655      -3.48027     -14.35034
                        -----------------------------------------
Total Dipole Moment    :      1.88750      -1.81718      -1.29355
                        -----------------------------------------
Magnitude (a.u.)       :      2.92200
Magnitude (Debye)      :      7.42713

Rotational constants in cm-1:     0.021781     0.017296     0.011403
Rotational constants in MHz :   652.971749   518.510612   341.853154

                             ****ORCA TERMINATED NORMALLY****
TOTAL RUN TIME: 0 days 0 hours 0 minutes 58 seconds 812 msec
