                         Program Version 5.0.0 -  RELEASE  -
|  1> !BLYP D3BJ RIJCOSX def2-SVPD def2/J TightSCF
|  2> *xyz 0 1
|  3> C         -0.05915        1.50352        3.41058
|  4> C          1.08303        0.74964        4.08571
|  5> F          2.22817        1.26348        4.01983
|  6> O          0.81003       -0.34541        4.63627
|  7> H          0.31461        2.41205        2.98658
|  8> H         -0.81316        1.73160        4.13470
|  9> H         -0.47977        0.89552        2.63708
| 10> *
| 11>
| 12> %MaxCore 64000
| 13>
| 14> %pal nprocs 4
| 15> end
| 16>
| 17> %scf
| 18>   MaxIter 150
| 19> end
| 20>
| 21>
| 22>                          ****END OF INPUT****

CARTESIAN COORDINATES (ANGSTROEM)
---------------------------------
  C     -0.059150    1.503520    3.410580
  C      1.083030    0.749640    4.085710
  F      2.228170    1.263480    4.019830
  O      0.810030   -0.345410    4.636270
  H      0.314610    2.412050    2.986580
  H     -0.813160    1.731600    4.134700
  H     -0.479770    0.895520    2.637080

 Total Charge           Charge          ....    0
 Multiplicity           Mult            ....    1
 Number of Electrons    NEL             ....   32
 Basis Dimension        Dim             ....  110

ORBITAL ENERGIES
----------------

  NO   OCC          E(Eh)            E(eV)
   0   2.0000     -24.377645      -663.3494
   1   2.0000     -18.801186      -511.6063
   2   2.0000     -10.102472      -274.9023
   3   2.0000      -9.951345      -270.7899
   4   2.0000      -1.199440       -32.6384
   5   2.0000      -0.934118       -25.4187
   6   2.0000      -0.692321       -18.8390
   7   2.0000      -0.590863       -16.0782
   8   2.0000      -0.489404       -13.3174
   9   2.0000      -0.482972       -13.1423
  10   2.0000      -0.442744       -12.0477
  11   2.0000      -0.397517       -10.8170
  12   2.0000      -0.384628       -10.4663
  13   2.0000      -0.350976        -9.5505
  14   2.0000      -0.313103        -8.5200
  15   2.0000      -0.247173        -6.7259
  16   0.0000      -0.070462        -1.9174
  17   0.0000      -0.007626        -0.2075
  18   0.0000       0.040780         1.1097
  19   0.0000       0.064570         1.7570
  20   0.0000       0.068515         1.8644

MULLIKEN ATOMIC CHARGES
-----------------------
   0 C :    0.813987
   1 C :    0.238071
   2 F :   -0.279108
   3 O :   -0.374570
   4 H :   -0.181482
   5 H :   -0.109242
   6 H :   -0.107656
Sum of atomic charges:    0.0000000

LOEWDIN ATOMIC CHARGES
----------------------
   0 C :    0.228244
   1 C :   -0.068200
   2 F :   -0.018685
   3 O :   -0.117757
   4 H :   -0.020640
   5 H :   -0.001733
   6 H :   -0.001229

  Mayer bond orders larger than 0.100000
B(  0-C ,  1-C ) :   1.2443 B(  0-C ,  4-H ) :   0.8097 B(  0-C ,  5-H ) :   0.7274
B(  0-C ,  6-H ) :   0.7328 B(  1-C ,  2-F ) :   0.8843 B(  1-C ,  3-O ) :   1.8866
B(  1-C ,  4-H ) :   0.2116 B(  1-C ,  5-H ) :   0.1986 B(  1-C ,  6-H ) :   0.1927
B(  2-F ,  3-O ) :   0.1068

Dispersion correction           -0.007107822
FINAL SINGLE POINT ENERGY      -252.862817928990

DIPOLE MOMENT
-------------
                                X             Y             Z
Electronic contribution:      4.69259      -1.06151       1.58921
Nuclear contribution   :     -5.01294       1.99942      -2.18092
                        -----------------------------------------
Total Dipole Moment    :     -0.32035       0.93791      -0.59172
                        -----------------------------------------
Magnitude (a.u.)       :      1.15431
Magnitude (Debye)      :      2.93402

Rotational constants in cm-1:     0.368501     0.321908     0.177384
Rotational constants in MHz : 11047.396090  9650.552559  5317.833075

                             ****ORCA TERMINATED NORMALLY****
TOTAL RUN TIME: 0 days 0 hours 0 minutes 3 seconds 376 msec
