                         Program Version 5.0.0 -  RELEASE  -
|  1> !BLYP D3BJ RIJCOSX def2-SVPD def2/J TightSCF
|  2> *xyz 0 1
|  3> C          4.60295       -2.44010        2.63478
|  4> C          3.86085       -1.59157        3.62289
|  5> C          2.75650       -2.04616        4.16633
|  6> N          4.25433       -0.36291        3.86046
|  7> H          3.56526        0.31099        4.16898
|  8> H          5.05429       -0.01606        3.33784
|  9> H          2.43970       -2.97389        3.89740
| 10> H          2.06687       -1.41253        4.54981
| 11> H          5.47239       -1.91604        2.29664
| 12> H          3.96816       -2.65362        1.80030
| 13> H          4.89801       -3.35632        3.10209
| 14> *
| 15>
| 16> %MaxCore 64000
| 17>
| 18> %pal nprocs 4
| 19> end
| 20>
| 21> %scf
| 22>   MaxIter 150
| 23> end
| 24>
| 25>
| 26>                          ****END OF INPUT****

CARTESIAN COORDINATES (ANGSTROEM)
---------------------------------
  C      4.602950   -2.440100    2.634780
  C      3.860850   -1.591570    3.622890
  C      2.756500   -2.046160    4.166330
  N      4.254330   -0.362910    3.860460
  H      3.565260    0.310990    4.168980
  H      5.054290   -0.016060    3.337840
  H      2.439700   -2.973890    3.897400
  H      2.066870   -1.412530    4.549810
  H      5.472390   -1.916040    2.296640
  H      3.968160   -2.653620    1.800300
  H      4.898010   -3.356320    3.102090

 Total Charge           Charge          ....    0
 Multiplicity           Mult            ....    1
 Number of Electrons    NEL             ....   32
 Basis Dimension        Dim             ....  136

ORBITAL ENERGIES
----------------

  NO   OCC          E(Eh)            E(eV)
   0   2.0000     -14.027445      -381.7062
   1   2.0000      -9.938668      -270.4449
   2   2.0000      -9.915769      -269.8218
   3   2.0000      -9.852856      -268.1098
   4   2.0000      -0.839036       -22.8313
   5   2.0000      -0.674688       -18.3592
   6   2.0000      -0.612027       -16.6541
   7   2.0000      -0.509029       -13.8514
   8   2.0000      -0.471186       -12.8216
   9   2.0000      -0.417817       -11.3694
  10   2.0000      -0.381564       -10.3829
  11   2.0000      -0.351856        -9.5745
  12   2.0000      -0.339433        -9.2364
  13   2.0000      -0.315272        -8.5790
  14   2.0000      -0.284164        -7.7325
  15   2.0000      -0.155179        -4.2226
  16   0.0000      -0.005067        -0.1379
  17   0.0000       0.013011         0.3540
  18   0.0000       0.035549         0.9673
  19   0.0000       0.043228         1.1763
  20   0.0000       0.067975         1.8497

MULLIKEN ATOMIC CHARGES
-----------------------
   0 C :    1.191620
   1 C :   -0.528252
   2 C :    0.563236
   3 N :    0.399722
   4 H :   -0.146476
   5 H :   -0.154300
   6 H :   -0.251118
   7 H :   -0.556357
   8 H :   -0.261737
   9 H :   -0.169075
  10 H :   -0.087264
Sum of atomic charges:   -0.0000000

LOEWDIN ATOMIC CHARGES
----------------------
   0 C :    0.181914
   1 C :   -0.296601
   2 C :    0.169749
   3 N :    0.185826
   4 H :    0.002259
   5 H :   -0.009744
   6 H :   -0.083295
   7 H :   -0.092873
   8 H :   -0.034308
   9 H :   -0.010773
  10 H :   -0.012153

  Mayer bond orders larger than 0.100000
B(  0-C ,  1-C ) :   1.1806 B(  0-C ,  3-N ) :   0.1151 B(  0-C ,  8-H ) :   0.5722
B(  0-C ,  9-H ) :   0.7127 B(  0-C , 10-H ) :   0.5836 B(  1-C ,  2-C ) :   1.7297
B(  1-C ,  3-N ) :   1.1632 B(  1-C ,  6-H ) :   0.1633 B(  1-C ,  7-H ) :   0.1793
B(  1-C ,  8-H ) :   0.3836 B(  1-C ,  9-H ) :   0.1898 B(  1-C , 10-H ) :   0.3160
B(  2-C ,  3-N ) :   0.2934 B(  2-C ,  6-H ) :   0.6813 B(  2-C ,  7-H ) :   0.7129
B(  3-N ,  4-H ) :   1.1280 B(  3-N ,  5-H ) :   1.0259 B(  4-H ,  5-H ) :  -0.1278
B(  6-H ,  7-H ) :   0.1011

Dispersion correction           -0.014952375
FINAL SINGLE POINT ENERGY      -173.048783969132

DIPOLE MOMENT
-------------
                                X             Y             Z
Electronic contribution:      0.12672       1.46132       1.09000
Nuclear contribution   :      0.22927      -0.89318      -1.58153
                        -----------------------------------------
Total Dipole Moment    :      0.35599       0.56814      -0.49152
                        -----------------------------------------
Magnitude (a.u.)       :      0.83133
Magnitude (Debye)      :      2.11307

Rotational constants in cm-1:     0.356805     0.302813     0.169682
Rotational constants in MHz : 10696.748191  9078.116910  5086.926242

                             ****ORCA TERMINATED NORMALLY****
TOTAL RUN TIME: 0 days 0 hours 0 minutes 4 seconds 717 msec
