                         Program Version 5.0.0 -  RELEASE  -
|  1> !BLYP D3BJ RIJCOSX def2-SVPD def2/J TightSCF
|  2> *xyz 0 1
|  3> C         -0.05915        1.50352        3.41058
|  4> C          1.08303        0.74964        4.08571
|  5> O          2.22817        1.26348        4.01983
|  6> F          0.81003       -0.34541        4.63627
|  7> H          0.31461        2.41205        2.98658
|  8> H         -0.81316        1.73160        4.13470
|  9> H         -0.47977        0.89552        2.63708
| 10> *
| 11>
| 12> %MaxCore 64000
| 13>
| 14> %pal nprocs 4
| 15> end
| 16>
| 17> %scf
| 18>   MaxIter 150
| 19> end
| 20>
| 21>
| 22>                          ****END OF INPUT****

CARTESIAN COORDINATES (ANGSTROEM)
---------------------------------
  C     -0.059150    1.503520    3.410580
  C      1.083030    0.749640    4.085710
  O      2.228170    1.263480    4.019830
  F      0.810030   -0.345410    4.636270
  H      0.314610    2.412050    2.986580
  H     -0.813160    1.731600    4.134700
  H     -0.479770    0.895520    2.637080

 Total Charge           Charge          ....    0
 Multiplicity           Mult            ....    1
 Number of Electrons    NEL             ....   32
 Basis Dimension        Dim             ....  110

ORBITAL ENERGIES
----------------

  NO   OCC          E(Eh)            E(eV)
   0   2.0000     -24.378378      -663.3694
   1   2.0000     -18.800829      -511.5966
   2   2.0000     -10.102346      -274.8988
   3   2.0000      -9.951109      -270.7835
   4   2.0000      -1.200299       -32.6618
   5   2.0000      -0.933484       -25.4014
   6   2.0000      -0.692239       -18.8368
   7   2.0000      -0.591157       -16.0862
   8   2.0000      -0.490387       -13.3441
   9   2.0000      -0.483003       -13.1432
  10   2.0000      -0.442065       -12.0292
  11   2.0000      -0.396690       -10.7945
  12   2.0000      -0.385231       -10.4827
  13   2.0000      -0.350785        -9.5453
  14   2.0000      -0.315590        -8.5876
  15   2.0000      -0.244845        -6.6626
  16   0.0000      -0.067923        -1.8483
  17   0.0000      -0.007508        -0.2043
  18   0.0000       0.040643         1.1060
  19   0.0000       0.063743         1.7345
  20   0.0000       0.071293         1.9400

MULLIKEN ATOMIC CHARGES
-----------------------
   0 C :    0.828515
   1 C :    0.255287
   2 O :   -0.355971
   3 F :   -0.303445
   4 H :   -0.195664
   5 H :   -0.115071
   6 H :   -0.113652
Sum of atomic charges:   -0.0000000

LOEWDIN ATOMIC CHARGES
----------------------
   0 C :    0.227620
   1 C :   -0.069752
   2 O :   -0.118288
   3 F :   -0.016364
   4 H :   -0.006797
   5 H :   -0.008745
   6 H :   -0.007675

  Mayer bond orders larger than 0.100000
B(  0-C ,  1-C ) :   1.2270 B(  0-C ,  4-H ) :   0.8007 B(  0-C ,  5-H ) :   0.7328
B(  0-C ,  6-H ) :   0.7360 B(  1-C ,  2-O ) :   1.9026 B(  1-C ,  3-F ) :   0.8431
B(  1-C ,  4-H ) :   0.2806 B(  1-C ,  5-H ) :   0.1777 B(  1-C ,  6-H ) :   0.1748
B(  2-O ,  3-F ) :   0.1147

Dispersion correction           -0.007106615
FINAL SINGLE POINT ENERGY      -252.862764605094

DIPOLE MOMENT
-------------
                                X             Y             Z
Electronic contribution:      2.40546      -3.65447       2.58203
Nuclear contribution   :     -3.54758       3.66189      -2.81789
                        -----------------------------------------
Total Dipole Moment    :     -1.14212       0.00742      -0.23586
                        -----------------------------------------
Magnitude (a.u.)       :      1.16624
Magnitude (Debye)      :      2.96435

Rotational constants in cm-1:     0.369278     0.321254     0.177365
Rotational constants in MHz : 11070.686557  9630.951649  5317.254673

                             ****ORCA TERMINATED NORMALLY****
TOTAL RUN TIME: 0 days 0 hours 0 minutes 3 seconds 391 msec
