                         Program Version 5.0.0 -  RELEASE  -
|  1> !BLYP D3BJ RIJCOSX def2-SVPD def2/J TightSCF
|  2> *xyz 0 1
|  3> C          4.60295       -2.44010        2.63478
|  4> C          3.86085       -1.59157        3.62289
|  5> N          2.75650       -2.04616        4.16633
|  6> C          4.25433       -0.36291        3.86046
|  7> H          3.56526        0.31099        4.16898
|  8> H          5.05429       -0.01606        3.33784
|  9> H          2.43970       -2.97389        3.89740
| 10> H          2.06687       -1.41253        4.54981
| 11> H          5.47239       -1.91604        2.29664
| 12> H          3.96816       -2.65362        1.80030
| 13> H          4.89801       -3.35632        3.10209
| 14> *
| 15>
| 16> %MaxCore 64000
| 17>
| 18> %pal nprocs 4
| 19> end
| 20>
| 21> %scf
| 22>   MaxIter 150
| 23> end
| 24>
| 25>
| 26>                          ****END OF INPUT****

CARTESIAN COORDINATES (ANGSTROEM)
---------------------------------
  C      4.602950   -2.440100    2.634780
  C      3.860850   -1.591570    3.622890
  N      2.756500   -2.046160    4.166330
  C      4.254330   -0.362910    3.860460
  H      3.565260    0.310990    4.168980
  H      5.054290   -0.016060    3.337840
  H      2.439700   -2.973890    3.897400
  H      2.066870   -1.412530    4.549810
  H      5.472390   -1.916040    2.296640
  H      3.968160   -2.653620    1.800300
  H      4.898010   -3.356320    3.102090

 Total Charge           Charge          ....    0
 Multiplicity           Mult            ....    1
 Number of Electrons    NEL             ....   32
 Basis Dimension        Dim             ....  136

ORBITAL ENERGIES
----------------

  NO   OCC          E(Eh)            E(eV)
   0   2.0000     -14.027567      -381.7095
   1   2.0000      -9.940172      -270.4858
   2   2.0000      -9.915335      -269.8100
   3   2.0000      -9.855170      -268.1728
   4   2.0000      -0.838330       -22.8121
   5   2.0000      -0.675383       -18.3781
   6   2.0000      -0.613179       -16.6854
   7   2.0000      -0.512124       -13.9356
   8   2.0000      -0.470061       -12.7910
   9   2.0000      -0.416957       -11.3460
  10   2.0000      -0.383019       -10.4225
  11   2.0000      -0.350970        -9.5504
  12   2.0000      -0.341230        -9.2854
  13   2.0000      -0.313922        -8.5423
  14   2.0000      -0.282479        -7.6866
  15   2.0000      -0.158466        -4.3121
  16   0.0000      -0.004214        -0.1147
  17   0.0000       0.014705         0.4002
  18   0.0000       0.034699         0.9442
  19   0.0000       0.045138         1.2283
  20   0.0000       0.068483         1.8635

MULLIKEN ATOMIC CHARGES
-----------------------
   0 C :    1.168544
   1 C :   -0.585426
   2 N :    0.492197
   3 C :    0.584845
   4 H :   -0.562852
   5 H :   -0.209384
   6 H :   -0.200879
   7 H :   -0.235263
   8 H :   -0.124046
   9 H :   -0.177187
  10 H :   -0.150550
Sum of atomic charges:   -0.0000000

LOEWDIN ATOMIC CHARGES
----------------------
   0 C :    0.180233
   1 C :   -0.300563
   2 N :    0.184842
   3 C :    0.175915
   4 H :   -0.091212
   5 H :   -0.090082
   6 H :   -0.003861
   7 H :    0.001702
   8 H :   -0.020225
   9 H :   -0.014684
  10 H :   -0.022064

  Mayer bond orders larger than 0.100000
B(  0-C ,  1-C ) :   1.3261 B(  0-C ,  3-C ) :   0.1008 B(  0-C ,  8-H ) :   0.7229
B(  0-C ,  9-H ) :   0.5935 B(  0-C , 10-H ) :   0.5278 B(  1-C ,  2-N ) :   1.2465
B(  1-C ,  3-C ) :   1.7262 B(  1-C ,  4-H ) :   0.2274 B(  1-C ,  8-H ) :   0.3175
B(  1-C ,  9-H ) :   0.3378 B(  1-C , 10-H ) :   0.3632 B(  2-N ,  3-C ) :   0.3032
B(  2-N ,  6-H ) :   1.0757 B(  2-N ,  7-H ) :   1.1532 B(  3-C ,  4-H ) :   0.6510
B(  3-C ,  5-H ) :   0.8021 B(  4-H ,  5-H ) :   0.1176 B(  6-H ,  7-H ) :  -0.1322
B(  8-H ,  9-H ) :   0.1030 B(  8-H , 10-H ) :   0.1004

Dispersion correction           -0.014950918
FINAL SINGLE POINT ENERGY      -173.049766820312

DIPOLE MOMENT
-------------
                                X             Y             Z
Electronic contribution:     -1.19195      -0.00148       1.39118
Nuclear contribution   :      0.56519      -0.51568      -1.65012
                        -----------------------------------------
Total Dipole Moment    :     -0.62677      -0.51716      -0.25894
                        -----------------------------------------
Magnitude (a.u.)       :      0.85284
Magnitude (Debye)      :      2.16776

Rotational constants in cm-1:     0.356673     0.303029     0.169717
Rotational constants in MHz : 10692.789749  9084.577259  5087.998414

                             ****ORCA TERMINATED NORMALLY****
TOTAL RUN TIME: 0 days 0 hours 0 minutes 4 seconds 967 msec
