                         Program Version 5.0.0 -  RELEASE  -
|  1> !BLYP D3BJ RIJCOSX def2-SVPD def2/J TightSCF xyzfile
|  2>
|  3> *xyzfile 0 1 D2.xyz
|  4>
|  5> %MaxCore 64000
|  6>
|  7> %pal nprocs 4
|  8> end
|  9>
| 10> %scf
| 11>   MaxIter 150
| 12> end
| 13>
| 14>
| 15>                          ****END OF INPUT****

CARTESIAN COORDINATES (ANGSTROEM)
---------------------------------
  C      4.602954   -2.440100    2.634780
  C     -0.914947    0.615112    2.505538
  C     -0.059146    1.503524    3.410578
  H      0.365364    2.344315    2.861161
  H     -0.692261    1.920207    4.198985
  C      1.083027    0.749640    4.085705
  C      3.860851   -1.591565    3.622893
  N      2.756502   -2.046159    4.166333
  C      4.254325   -0.362905    3.860455
  H      3.565256    0.310994    4.168983
  H      5.054292   -0.016059    3.337838
  H      2.439696   -2.973894    3.897395
  H      2.066869   -1.412532    4.549813
  F      2.228167    1.263475    4.019826
  O      0.810034   -0.345411    4.636269
  C      3.744685   -2.580557    1.361882
  C      0.772139    0.636882    0.562129
  C     -0.130740   -0.193985    1.470763
  H     -0.840563   -0.760165    0.856377
  H      0.466691   -0.938942    2.006959
  H     -1.647961    1.245963    1.991076
  H     -1.478180   -0.081046    3.130424
  C      3.203721   -1.256004    0.826211
  H      2.898939   -3.239289    1.583074
  H      4.334962   -3.095523    0.600188
  C      2.107815   -1.442385   -0.216865
  H      2.786775   -0.672760    1.650711
  H      4.021008   -0.652993    0.414046
  C      1.390662   -0.145912   -0.602422
  H      1.372179   -2.152184    0.176151
  H      2.523302   -1.906787   -1.117115
  H      1.561361    1.100094    1.161831
  H      0.195516    1.468325    0.142758
  H      0.602893   -0.398214   -1.319716
  H      2.087247    0.508272   -1.137335
  H      5.561557   -1.971347    2.407084
  H      4.810498   -3.422552    3.063099

 Total Charge           Charge          ....    0
 Multiplicity           Mult            ....    1
 Number of Electrons    NEL             ....  118
 Basis Dimension        Dim             ....  482

ORBITAL ENERGIES
----------------

  NO   OCC          E(Eh)            E(eV)
   0   2.0000     -24.390191      -663.6908
   1   2.0000     -18.822105      -512.1755
   2   2.0000     -13.992775      -380.7628
   3   2.0000     -10.116554      -275.2854
   4   2.0000      -9.961319      -271.0613
   5   2.0000      -9.940934      -270.5066
   6   2.0000      -9.926127      -270.1036
   7   2.0000      -9.923287      -270.0264
   8   2.0000      -9.917790      -269.8768
   9   2.0000      -9.917686      -269.8740
  10   2.0000      -9.912328      -269.7282
  11   2.0000      -9.911626      -269.7091
  12   2.0000      -9.907450      -269.5954
  13   2.0000      -9.905711      -269.5481
  14   2.0000      -9.830584      -267.5038
  15   2.0000      -1.215989       -33.0888
  16   2.0000      -0.960588       -26.1389
  17   2.0000      -0.814695       -22.1690
  18   2.0000      -0.746600       -20.3160
  19   2.0000      -0.720426       -19.6038
  20   2.0000      -0.695853       -18.9351
  21   2.0000      -0.664444       -18.0804
  22   2.0000      -0.635659       -17.2972
  23   2.0000      -0.625390       -17.0177
  24   2.0000      -0.596918       -16.2430
  25   2.0000      -0.575613       -15.6632
  26   2.0000      -0.543544       -14.7906
  27   2.0000      -0.518545       -14.1103
  28   2.0000      -0.507049       -13.7975
  29   2.0000      -0.498174       -13.5560
  30   2.0000      -0.492400       -13.3989
  31   2.0000      -0.483048       -13.1444
  32   2.0000      -0.466607       -12.6970
  33   2.0000      -0.443567       -12.0701
  34   2.0000      -0.431062       -11.7298
  35   2.0000      -0.425839       -11.5877
  36   2.0000      -0.409449       -11.1417
  37   2.0000      -0.400514       -10.8985
  38   2.0000      -0.390783       -10.6337
  39   2.0000      -0.384097       -10.4518
  40   2.0000      -0.374170       -10.1817
  41   2.0000      -0.362744        -9.8708
  42   2.0000      -0.356490        -9.7006
  43   2.0000      -0.348388        -9.4801
  44   2.0000      -0.335063        -9.1175
  45   2.0000      -0.329563        -8.9679
  46   2.0000      -0.325060        -8.8453
  47   2.0000      -0.321092        -8.7373
  48   2.0000      -0.308508        -8.3949
  49   2.0000      -0.305015        -8.2999
  50   2.0000      -0.299156        -8.1404
  51   2.0000      -0.283891        -7.7251
  52   2.0000      -0.281714        -7.6658
  53   2.0000      -0.278449        -7.5770
  54   2.0000      -0.272366        -7.4115
  55   2.0000      -0.269209        -7.3255
  56   2.0000      -0.261021        -7.1028
  57   2.0000      -0.250337        -6.8120
  58   2.0000      -0.137822        -3.7503
  59   0.0000      -0.089198        -2.4272
  60   0.0000      -0.008390        -0.2283
  61   0.0000       0.004577         0.1246
  62   0.0000       0.010901         0.2966
  63   0.0000       0.014188         0.3861

MULLIKEN ATOMIC CHARGES
-----------------------
   0 C :    0.966999
   1 C :    0.845213
   2 C :    0.442895
   3 H :    0.055201
   4 H :   -0.326713
   5 C :    0.531662
   6 C :   -0.571227
   7 N :    0.786460
   8 C :    1.264659
   9 H :   -1.007075
  10 H :   -0.208773
  11 H :   -0.035254
  12 H :   -0.679086
  13 F :   -0.405620
  14 O :   -0.459091
  15 C :    0.467042
  16 C :    0.094046
  17 C :    0.135646
  18 H :   -0.330204
  19 H :   -0.217780
  20 H :   -0.234292
  21 H :   -0.077180
  22 C :    0.552287
  23 H :   -0.037260
  24 H :   -0.509637
  25 C :    0.308220
  26 H :   -0.688278
  27 H :   -0.139427
  28 C :    1.122400
  29 H :    0.050083
  30 H :   -0.557102
  31 H :    0.012131
  32 H :   -0.689494
  33 H :   -0.057140
  34 H :   -0.164169
  35 H :    0.007990
  36 H :   -0.248131
Sum of atomic charges:   -0.0000000

LOEWDIN ATOMIC CHARGES
----------------------
   0 C :    0.025251
   1 C :   -0.005310
   2 C :    0.064115
   3 H :    0.020079
   4 H :    0.039793
   5 C :    0.026004
   6 C :   -0.262186
   7 N :    0.230389
   8 C :    0.194843
   9 H :   -0.148028
  10 H :   -0.081340
  11 H :   -0.000342
  12 H :   -0.113028
  13 F :   -0.012237
  14 O :   -0.086349
  15 C :   -0.012064
  16 C :   -0.027327
  17 C :   -0.020339
  18 H :    0.028039
  19 H :    0.006773
  20 H :    0.024390
  21 H :    0.024355
  22 C :   -0.020001
  23 H :    0.006411
  24 H :    0.016626
  25 C :   -0.030690
  26 H :   -0.020695
  27 H :    0.033818
  28 C :   -0.018661
  29 H :    0.010325
  30 H :    0.018704
  31 H :    0.004354
  32 H :    0.018853
  33 H :    0.016238
  34 H :    0.018201
  35 H :    0.017580
  36 H :    0.013459

  Mayer bond orders larger than 0.100000
B(  0-C ,  6-C ) :   1.2974 B(  0-C ,  8-C ) :   0.1686 B(  0-C , 15-C ) :   1.0523
B(  0-C , 22-C ) :   0.1030 B(  0-C , 23-H ) :   0.1400 B(  0-C , 24-H ) :   0.1782
B(  0-C , 35-H ) :   0.6260 B(  0-C , 36-H ) :   0.2868 B(  1-C ,  2-C ) :   1.1281
B(  1-C ,  3-H ) :   0.1290 B(  1-C ,  4-H ) :   0.2109 B(  1-C ,  5-C ) :   0.1268
B(  1-C , 17-C ) :   1.1791 B(  1-C , 19-H ) :   0.1365 B(  1-C , 20-H ) :   0.5922
B(  1-C , 21-H ) :   0.4753 B(  1-C , 28-C ) :   0.1193 B(  2-C ,  3-H ) :   0.7936
B(  2-C ,  4-H ) :   0.4924 B(  2-C ,  5-C ) :   1.1989 B(  2-C , 14-O ) :   0.1143
B(  2-C , 17-C ) :   0.2196 B(  2-C , 20-H ) :   0.2123 B(  2-C , 21-H ) :   0.1473
B(  3-H ,  4-H ) :  -0.1131 B(  3-H ,  5-C ) :   0.2040 B(  4-H ,  5-C ) :   0.3112
B(  5-C , 13-F ) :   0.7675 B(  5-C , 14-O ) :   1.7242 B(  6-C ,  7-N ) :   1.0506
B(  6-C ,  8-C ) :   1.8327 B(  6-C ,  9-H ) :   0.4333 B(  6-C , 10-H ) :   0.3532
B(  6-C , 15-C ) :   0.1543 B(  6-C , 24-H ) :  -0.1486 B(  6-C , 35-H ) :   0.2488
B(  6-C , 36-H ) :   0.3965 B(  7-N ,  8-C ) :   0.4749 B(  7-N , 11-H ) :   0.9463
B(  7-N , 12-H ) :   0.9250 B(  8-C ,  9-H ) :  -0.4107 B(  8-C , 10-H ) :   0.5489
B(  8-C , 35-H ) :  -0.1022 B(  9-H , 13-F ) :   0.2435 B(  9-H , 24-H ) :  -0.1334
B( 10-H , 23-H ) :  -0.1159 B( 11-H , 12-H ) :  -0.2681 B( 12-H , 14-O ) :   0.1989
B( 13-F , 14-O ) :   0.1423 B( 15-C , 22-C ) :   1.1067 B( 15-C , 23-H ) :   0.7345
B( 15-C , 24-H ) :   0.7001 B( 15-C , 25-C ) :   0.1669 B( 15-C , 26-H ) :   0.2163
B( 15-C , 27-H ) :   0.1141 B( 15-C , 35-H ) :   0.1751 B( 15-C , 36-H ) :   0.2642
B( 16-C , 17-C ) :   1.2545 B( 16-C , 18-H ) :   0.2154 B( 16-C , 19-H ) :   0.1758
B( 16-C , 25-C ) :   0.2636 B( 16-C , 28-C ) :   1.0024 B( 16-C , 31-H ) :   0.7547
B( 16-C , 32-H ) :   0.8960 B( 16-C , 33-H ) :   0.1947 B( 16-C , 34-H ) :   0.3976
B( 17-C , 18-H ) :   0.7085 B( 17-C , 19-H ) :   0.8057 B( 17-C , 20-H ) :   0.2519
B( 17-C , 21-H ) :   0.3470 B( 17-C , 31-H ) :   0.1357 B( 17-C , 32-H ) :   0.1444
B( 20-H , 21-H ) :  -0.1905 B( 22-C , 23-H ) :   0.1770 B( 22-C , 24-H ) :   0.2394
B( 22-C , 25-C ) :   1.1202 B( 22-C , 26-H ) :   0.6981 B( 22-C , 27-H ) :   0.5777
B( 22-C , 29-H ) :   0.1789 B( 22-C , 30-H ) :   0.2886 B( 23-H , 24-H ) :  -0.1050
B( 25-C , 26-H ) :   0.1364 B( 25-C , 27-H ) :   0.1478 B( 25-C , 28-C ) :   1.0924
B( 25-C , 29-H ) :   0.7473 B( 25-C , 30-H ) :   0.7380 B( 25-C , 33-H ) :   0.3052
B( 25-C , 34-H ) :   0.1918 B( 26-H , 27-H ) :   0.2120 B( 26-H , 31-H ) :   0.2191
B( 26-H , 32-H ) :  -0.1570 B( 28-C , 29-H ) :   0.1283 B( 28-C , 33-H ) :   0.4994
B( 28-C , 34-H ) :   0.4157 B( 29-H , 30-H ) :  -0.1198 B( 33-H , 34-H ) :  -0.1739

Dispersion correction           -0.085327865
FINAL SINGLE POINT ENERGY      -699.574958939771

DIPOLE MOMENT
-------------
                                X             Y             Z
Electronic contribution:      0.08353       6.23380      15.17733
Nuclear contribution   :     -1.39991      -5.60370     -16.00470
                        -----------------------------------------
Total Dipole Moment    :     -1.31637       0.63009      -0.82737
                        -----------------------------------------
Magnitude (a.u.)       :      1.67762
Magnitude (Debye)      :      4.26417

Rotational constants in cm-1:     0.021622     0.017313     0.011402
Rotational constants in MHz :   648.226014   519.043632   341.814105

                             ****ORCA TERMINATED NORMALLY****
TOTAL RUN TIME: 0 days 0 hours 1 minutes 8 seconds 198 msec
