                         Program Version 5.0.0 -  RELEASE  -
|  1> !LC-BLYP RIJCOSX def2-SVP def2/J TightSCF
|  2>
|  3> *xyz -1 1
|  4> C          2.95263        1.86308       -3.57485
|  5> C          4.12921        0.89839       -3.41895
|  6> H          3.73369       -0.10060       -3.23763
|  7> H          4.71910        0.86256       -4.33901
|  8> C          5.01734        1.31521       -2.22130
|  9> O          4.73706        0.85411       -1.12283
| 10> O          5.92815        2.16811       -2.49136
| 11> H          2.35067        1.56005       -4.40594
| 12> H          3.32277        2.85258       -3.74453
| 13> H          2.36134        1.85149       -2.68315
| 14> *
| 15> %MaxCore 64000
| 16>
| 17> %pal nprocs 4
| 18> end
| 19>
| 20> %scf
| 21>   MaxIter 150
| 22> end
| 23>
| 24>
| 25>                          ****END OF INPUT****

CARTESIAN COORDINATES (ANGSTROEM)
---------------------------------
  C      2.952630    1.863080   -3.574850
  C      4.129210    0.898390   -3.418950
  H      3.733690   -0.100600   -3.237630
  H      4.719100    0.862560   -4.339010
  C      5.017340    1.315210   -2.221300
  O      4.737060    0.854110   -1.122830
  O      5.928150    2.168110   -2.491360
  H      2.350670    1.560050   -4.405940
  H      3.322770    2.852580   -3.744530
  H      2.361340    1.851490   -2.683150

 Total Charge           Charge          ....   -1
 Multiplicity           Mult            ....    1
 Number of Electrons    NEL             ....   40
 Basis Dimension        Dim             ....   95

ORBITAL ENERGIES
----------------

  NO   OCC          E(Eh)            E(eV)
   0   2.0000     -18.651690      -507.5383
   1   2.0000     -18.638884      -507.1898
   2   2.0000      -9.934480      -270.3310
   3   2.0000      -9.914481      -269.7868
   4   2.0000      -9.888773      -269.0872
   5   2.0000      -0.868407       -23.6306
   6   2.0000      -0.768286       -20.9061
   7   2.0000      -0.693773       -18.8785
   8   2.0000      -0.555707       -15.1216
   9   2.0000      -0.404606       -11.0099
  10   2.0000      -0.382474       -10.4076
  11   2.0000      -0.335337        -9.1250
  12   2.0000      -0.311740        -8.4829
  13   2.0000      -0.286261        -7.7896
  14   2.0000      -0.284658        -7.7459
  15   2.0000      -0.246573        -6.7096
  16   2.0000      -0.242934        -6.6106
  17   2.0000      -0.105402        -2.8681
  18   2.0000      -0.100560        -2.7364
  19   2.0000      -0.086292        -2.3481
  20   0.0000       0.288798         7.8586
  21   0.0000       0.340906         9.2765
  22   0.0000       0.355271         9.6674
  23   0.0000       0.358205         9.7473
  24   0.0000       0.388186        10.5631

MULLIKEN ATOMIC CHARGES
-----------------------
   0 C :    0.020300
   1 C :    0.045655
   2 H :   -0.069639
   3 H :   -0.060946
   4 C :   -0.113223
   5 O :   -0.330493
   6 O :   -0.410026
   7 H :   -0.050212
   8 H :   -0.014815
   9 H :   -0.016601
Sum of atomic charges:   -1.0000000

LOEWDIN ATOMIC CHARGES
----------------------
   0 C :   -0.071578
   1 C :   -0.099538
   2 H :   -0.005305
   3 H :   -0.001752
   4 C :   -0.092309
   5 O :   -0.342198
   6 O :   -0.411282
   7 H :   -0.003137
   8 H :    0.013562
   9 H :    0.013538

  Mayer bond orders larger than 0.100000
B(  0-C ,  1-C ) :   1.1160 B(  0-C ,  7-H ) :   0.9672 B(  0-C ,  8-H ) :   0.9639
B(  0-C ,  9-H ) :   0.9656 B(  1-C ,  2-H ) :   0.9268 B(  1-C ,  3-H ) :   0.9320
B(  1-C ,  4-C ) :   0.9121 B(  4-C ,  5-O ) :   1.9561 B(  4-C ,  6-O ) :   1.8713
B(  5-O ,  6-O ) :   0.1254

FINAL SINGLE POINT ENERGY      -267.004297736759

DIPOLE MOMENT
-------------
                                X             Y             Z
Electronic contribution:      4.55314      -0.12226       4.05451
Nuclear contribution   :     -5.85873      -0.10793      -5.24103
                        -----------------------------------------
Total Dipole Moment    :     -1.30559      -0.23020      -1.18652
                        -----------------------------------------
Magnitude (a.u.)       :      1.77915
Magnitude (Debye)      :      4.52224

Rotational constants in cm-1:     0.292505     0.135951     0.110253
Rotational constants in MHz :  8769.065873  4075.717001  3305.311891

                             ****ORCA TERMINATED NORMALLY****
TOTAL RUN TIME: 0 days 0 hours 0 minutes 11 seconds 973 msec
