                         Program Version 5.0.0 -  RELEASE  -
|  1> !LC-BLYP RIJCOSX def2-SVP def2/J TightSCF
|  2>
|  3> *xyz 1 1
|  4> C          3.34350        3.35457       -3.59200
|  5> C          2.95263        1.86308       -3.57485
|  6> C          4.25587        3.70385       -4.72605
|  7> N          3.73403        4.29378       -5.80077
|  8> N          5.51504        3.40725       -4.63718
|  9> H          6.14919        3.60120       -5.39905
| 10> H          5.81358        2.89950       -3.80879
| 11> H          2.74138        4.51311       -5.82470
| 12> H          4.28755        4.52126       -6.61434
| 13> H          3.86125        3.59725       -2.66298
| 14> H          2.44649        3.97346       -3.65656
| 15> H          2.44395        1.61721       -4.48352
| 16> H          2.30781        1.67290       -2.74242
| 17> H          3.83491        1.26414       -3.48670
| 18> *
| 19> %MaxCore 64000
| 20>
| 21> %pal nprocs 4
| 22> end
| 23>
| 24> %scf
| 25>   MaxIter 150
| 26> end
| 27>
| 28>
| 29>                          ****END OF INPUT****

CARTESIAN COORDINATES (ANGSTROEM)
---------------------------------
  C      3.343500    3.354570   -3.592000
  C      2.952630    1.863080   -3.574850
  C      4.255870    3.703850   -4.726050
  N      3.734030    4.293780   -5.800770
  N      5.515040    3.407250   -4.637180
  H      6.149190    3.601200   -5.399050
  H      5.813580    2.899500   -3.808790
  H      2.741380    4.513110   -5.824700
  H      4.287550    4.521260   -6.614340
  H      3.861250    3.597250   -2.662980
  H      2.446490    3.973460   -3.656560
  H      2.443950    1.617210   -4.483520
  H      2.307810    1.672900   -2.742420
  H      3.834910    1.264140   -3.486700

 Total Charge           Charge          ....    1
 Multiplicity           Mult            ....    1
 Number of Electrons    NEL             ....   40
 Basis Dimension        Dim             ....  115

ORBITAL ENERGIES
----------------

  NO   OCC          E(Eh)            E(eV)
   0   2.0000     -14.435534      -392.8108
   1   2.0000     -14.430030      -392.6611
   2   2.0000     -10.407531      -283.2033
   3   2.0000     -10.281721      -279.7799
   4   2.0000     -10.240482      -278.6577
   5   2.0000      -1.296625       -35.2830
   6   2.0000      -1.199804       -32.6483
   7   2.0000      -1.070526       -29.1305
   8   2.0000      -0.960271       -26.1303
   9   2.0000      -0.918743       -25.0003
  10   2.0000      -0.881345       -23.9826
  11   2.0000      -0.851829       -23.1794
  12   2.0000      -0.801662       -21.8143
  13   2.0000      -0.756856       -20.5951
  14   2.0000      -0.726234       -19.7618
  15   2.0000      -0.715998       -19.4833
  16   2.0000      -0.642662       -17.4877
  17   2.0000      -0.633435       -17.2366
  18   2.0000      -0.624410       -16.9911
  19   2.0000      -0.588965       -16.0266
  20   0.0000      -0.117303        -3.1920
  21   0.0000      -0.073773        -2.0075
  22   0.0000      -0.027567        -0.7501
  23   0.0000      -0.024949        -0.6789
  24   0.0000       0.004786         0.1302

MULLIKEN ATOMIC CHARGES
-----------------------
   0 C :   -0.016806
   1 C :    0.020949
   2 C :   -0.163334
   3 N :    0.042585
   4 N :    0.098512
   5 H :    0.175900
   6 H :    0.185055
   7 H :    0.185303
   8 H :    0.170684
   9 H :    0.078261
  10 H :    0.059795
  11 H :    0.045748
  12 H :    0.081991
  13 H :    0.035355
Sum of atomic charges:    1.0000000

LOEWDIN ATOMIC CHARGES
----------------------
   0 C :   -0.043454
   1 C :   -0.035415
   2 C :    0.141238
   3 N :    0.088671
   4 N :    0.113031
   5 H :    0.117704
   6 H :    0.127387
   7 H :    0.124498
   8 H :    0.112515
   9 H :    0.063055
  10 H :    0.057773
  11 H :    0.040911
  12 H :    0.057546
  13 H :    0.034542

  Mayer bond orders larger than 0.100000
B(  0-C ,  1-C ) :   1.0792 B(  0-C ,  2-C ) :   1.0365 B(  0-C ,  9-H ) :   0.9220
B(  0-C , 10-H ) :   0.9216 B(  1-C , 11-H ) :   0.9678 B(  1-C , 12-H ) :   0.9620
B(  1-C , 13-H ) :   0.9704 B(  2-C ,  3-N ) :   1.5147 B(  2-C ,  4-N ) :   1.5546
B(  3-N ,  7-H ) :   0.9188 B(  3-N ,  8-H ) :   0.9293 B(  4-N ,  5-H ) :   0.9239
B(  4-N ,  6-H ) :   0.9126

FINAL SINGLE POINT ENERGY      -228.246628439836

DIPOLE MOMENT
-------------
                                X             Y             Z
Electronic contribution:      2.41941       2.60622      -2.33496
Nuclear contribution   :     -1.74195      -2.09431       1.58516
                        -----------------------------------------
Total Dipole Moment    :      0.67746       0.51191      -0.74980
                        -----------------------------------------
Magnitude (a.u.)       :      1.13279
Magnitude (Debye)      :      2.87933

Rotational constants in cm-1:     0.258965     0.126500     0.098780
Rotational constants in MHz :  7763.584551  3792.383135  2961.336502

                             ****ORCA TERMINATED NORMALLY****
TOTAL RUN TIME: 0 days 0 hours 0 minutes 14 seconds 959 msec
