                         Program Version 5.0.0 -  RELEASE  -
|  1> !LC-BLYP RIJCOSX def2-TZVP def2/J TightSCF xyzfile
|  2>
|  3> *xyzfile 0 1 B.xyz
|  4>
|  5> %MaxCore 64000
|  6>
|  7> %pal nprocs 18
|  8> end
|  9>
| 10> %scf
| 11>   MaxIter 150
| 12> end
| 13>
| 14>
| 15>                          ****END OF INPUT****

CARTESIAN COORDINATES (ANGSTROEM)
---------------------------------
  C      3.343500    3.354571   -3.591998
  C      2.952633    1.863077   -3.574849
  C      4.129209    0.898394   -3.418950
  H      3.733687   -0.100605   -3.237633
  H      4.719095    0.862556   -4.339005
  C      5.017344    1.315212   -2.221305
  C      4.255868    3.703851   -4.726054
  N      3.734032    4.293783   -5.800770
  N      5.515039    3.407255   -4.637185
  H      6.149187    3.601203   -5.399053
  H      5.813584    2.899504   -3.808785
  H      2.741380    4.513109   -5.824701
  H      4.287548    4.521260   -6.614341
  H      2.278938    1.735250   -2.725496
  H      2.377466    1.625787   -4.475869
  O      4.737055    0.854112   -1.122825
  O      5.928146    2.168108   -2.491365
  H      3.861246    3.597252   -2.662979
  H      2.446493    3.973461   -3.656556

 Total Charge           Charge          ....    0
 Multiplicity           Mult            ....    1
 Number of Electrons    NEL             ....   70
 Basis Dimension        Dim             ....  339

ORBITAL ENERGIES
----------------

  NO   OCC          E(Eh)            E(eV)
   0   2.0000     -18.842831      -512.7395
   1   2.0000     -18.830182      -512.3953
   2   2.0000     -14.267646      -388.2424
   3   2.0000     -14.228059      -387.1652
   4   2.0000     -10.233116      -278.4572
   5   2.0000     -10.115411      -275.2543
   6   2.0000     -10.112333      -275.1706
   7   2.0000     -10.087503      -274.4949
   8   2.0000     -10.046560      -273.3808
   9   2.0000      -1.147241       -31.2180
  10   2.0000      -1.083490       -29.4833
  11   2.0000      -1.050331       -28.5810
  12   2.0000      -0.992788       -27.0151
  13   2.0000      -0.933276       -25.3957
  14   2.0000      -0.846636       -23.0381
  15   2.0000      -0.783335       -21.3156
  16   2.0000      -0.740482       -20.1495
  17   2.0000      -0.724463       -19.7137
  18   2.0000      -0.692797       -18.8520
  19   2.0000      -0.646539       -17.5932
  20   2.0000      -0.611726       -16.6459
  21   2.0000      -0.591356       -16.0916
  22   2.0000      -0.567093       -15.4314
  23   2.0000      -0.549974       -14.9655
  24   2.0000      -0.527669       -14.3586
  25   2.0000      -0.498344       -13.5606
  26   2.0000      -0.481697       -13.1076
  27   2.0000      -0.470800       -12.8111
  28   2.0000      -0.466661       -12.6985
  29   2.0000      -0.438238       -11.9251
  30   2.0000      -0.429573       -11.6893
  31   2.0000      -0.426985       -11.6188
  32   2.0000      -0.315682        -8.5901
  33   2.0000      -0.309682        -8.4269
  34   2.0000      -0.288200        -7.8423
  35   0.0000       0.030366         0.8263
  36   0.0000       0.034400         0.9361
  37   0.0000       0.073009         1.9867
  38   0.0000       0.100920         2.7462
  39   0.0000       0.119461         3.2507

MULLIKEN ATOMIC CHARGES
-----------------------
   0 C :   -0.405339
   1 C :   -0.215931
   2 C :   -0.322922
   3 H :    0.130286
   4 H :    0.120197
   5 C :    0.153210
   6 C :    0.273191
   7 N :   -0.362489
   8 N :   -0.263657
   9 H :    0.227369
  10 H :    0.292624
  11 H :    0.269594
  12 H :    0.251350
  13 H :    0.154306
  14 H :    0.118063
  15 O :   -0.326609
  16 O :   -0.466587
  17 H :    0.235133
  18 H :    0.138211
Sum of atomic charges:    0.0000000

LOEWDIN ATOMIC CHARGES
----------------------
   0 C :   -0.214387
   1 C :   -0.259110
   2 C :   -0.261303
   3 H :    0.147726
   4 H :    0.130367
   5 C :   -0.682965
   6 C :   -0.309572
   7 N :    0.053165
   8 N :    0.134635
   9 H :    0.179154
  10 H :    0.137667
  11 H :    0.194210
  12 H :    0.181286
  13 H :    0.156861
  14 H :    0.135960
  15 O :    0.020938
  16 O :   -0.072864
  17 H :    0.179198
  18 H :    0.149032

  Mayer bond orders larger than 0.100000
B(  0-C ,  1-C ) :   0.8946 B(  0-C ,  6-C ) :   0.9367 B(  0-C , 17-H ) :   0.9468
B(  0-C , 18-H ) :   0.9788 B(  1-C ,  2-C ) :   0.9486 B(  1-C , 13-H ) :   0.9652
B(  1-C , 14-H ) :   0.9719 B(  2-C ,  3-H ) :   0.9700 B(  2-C ,  4-H ) :   0.9610
B(  2-C ,  5-C ) :   0.9159 B(  5-C , 15-O ) :   2.0853 B(  5-C , 16-O ) :   1.5440
B(  6-C ,  7-N ) :   1.3278 B(  6-C ,  8-N ) :   1.6106 B(  7-N , 11-H ) :   0.9045
B(  7-N , 12-H ) :   0.9111 B(  8-N ,  9-H ) :   0.9133 B(  8-N , 10-H ) :   0.6903
B( 10-H , 16-O ) :   0.3155

FINAL SINGLE POINT ENERGY      -455.639773468906

DIPOLE MOMENT
-------------
                                X             Y             Z
Electronic contribution:      3.88563       0.03168       2.58038
Nuclear contribution   :     -5.42217       2.65262      -7.07590
                        -----------------------------------------
Total Dipole Moment    :     -1.53654       2.68430      -4.49552
                        -----------------------------------------
Magnitude (a.u.)       :      5.45675
Magnitude (Debye)      :     13.86996

Rotational constants in cm-1:     0.107541     0.035862     0.030371
Rotational constants in MHz :  3223.996852  1075.120464   910.508313

                             ****ORCA TERMINATED NORMALLY****
TOTAL RUN TIME: 0 days 0 hours 0 minutes 25 seconds 669 msec
