                         Program Version 5.0.0 -  RELEASE  -
|  1> !LC-BLYP RIJCOSX def2-SVP def2/J TightSCF
|  2>
|  3> *xyz 0 1
|  4> C          2.95263        1.86308       -3.57485
|  5> C          4.12921        0.89839       -3.41895
|  6> H          3.73369       -0.10060       -3.23763
|  7> H          4.71910        0.86256       -4.33901
|  8> C          5.01734        1.31521       -2.22130
|  9> F          4.73706        0.85411       -1.12283
| 10> O          5.92815        2.16811       -2.49136
| 11> H          2.35067        1.56005       -4.40594
| 12> H          3.32277        2.85258       -3.74453
| 13> H          2.36134        1.85149       -2.68315
| 14> *
| 15> %MaxCore 64000
| 16>
| 17> %pal nprocs 4
| 18> end
| 19>
| 20> %scf
| 21>   MaxIter 150
| 22> end
| 23>
| 24>
| 25>                          ****END OF INPUT****

CARTESIAN COORDINATES (ANGSTROEM)
---------------------------------
  C      2.952630    1.863080   -3.574850
  C      4.129210    0.898390   -3.418950
  H      3.733690   -0.100600   -3.237630
  H      4.719100    0.862560   -4.339010
  C      5.017340    1.315210   -2.221300
  F      4.737060    0.854110   -1.122830
  O      5.928150    2.168110   -2.491360
  H      2.350670    1.560050   -4.405940
  H      3.322770    2.852580   -3.744530
  H      2.361340    1.851490   -2.683150

 Total Charge           Charge          ....    0
 Multiplicity           Mult            ....    1
 Number of Electrons    NEL             ....   40
 Basis Dimension        Dim             ....   95

ORBITAL ENERGIES
----------------

  NO   OCC          E(Eh)            E(eV)
   0   2.0000     -24.538929      -667.7382
   1   2.0000     -18.943560      -515.4805
   2   2.0000     -10.256057      -279.0815
   3   2.0000     -10.109311      -275.0883
   4   2.0000     -10.090900      -274.5873
   5   2.0000      -1.395857       -37.9832
   6   2.0000      -1.090816       -29.6826
   7   2.0000      -0.899297       -24.4711
   8   2.0000      -0.782856       -21.3026
   9   2.0000      -0.741848       -20.1867
  10   2.0000      -0.660010       -17.9598
  11   2.0000      -0.642246       -17.4764
  12   2.0000      -0.597838       -16.2680
  13   2.0000      -0.563819       -15.3423
  14   2.0000      -0.528351       -14.3772
  15   2.0000      -0.495742       -13.4898
  16   2.0000      -0.470305       -12.7977
  17   2.0000      -0.464343       -12.6354
  18   2.0000      -0.434371       -11.8198
  19   2.0000      -0.372254       -10.1295
  20   0.0000       0.068136         1.8541
  21   0.0000       0.133106         3.6220
  22   0.0000       0.178891         4.8679
  23   0.0000       0.184935         5.0323
  24   0.0000       0.209136         5.6909

MULLIKEN ATOMIC CHARGES
-----------------------
   0 C :   -0.006322
   1 C :   -0.036062
   2 H :    0.016545
   3 H :    0.049185
   4 C :    0.101500
   5 F :    0.014124
   6 O :   -0.223091
   7 H :    0.028852
   8 H :    0.036385
   9 H :    0.018884
Sum of atomic charges:   -0.0000000

LOEWDIN ATOMIC CHARGES
----------------------
   0 C :   -0.054424
   1 C :   -0.077161
   2 H :    0.029781
   3 H :    0.047929
   4 C :    0.056612
   5 F :    0.102527
   6 O :   -0.199569
   7 H :    0.033097
   8 H :    0.033557
   9 H :    0.027651

  Mayer bond orders larger than 0.100000
B(  0-C ,  1-C ) :   1.0957 B(  0-C ,  7-H ) :   0.9696 B(  0-C ,  8-H ) :   0.9710
B(  0-C ,  9-H ) :   0.9730 B(  1-C ,  2-H ) :   0.9340 B(  1-C ,  3-H ) :   0.9444
B(  1-C ,  4-C ) :   0.9938 B(  4-C ,  5-F ) :   1.2947 B(  4-C ,  6-O ) :   2.1079

FINAL SINGLE POINT ENERGY      -291.538758041669

DIPOLE MOMENT
-------------
                                X             Y             Z
Electronic contribution:      5.14033      -1.13406       6.58618
Nuclear contribution   :     -6.06116       0.51860      -6.80802
                        -----------------------------------------
Total Dipole Moment    :     -0.92082      -0.61546      -0.22185
                        -----------------------------------------
Magnitude (a.u.)       :      1.12956
Magnitude (Debye)      :      2.87112

Rotational constants in cm-1:     0.276196     0.132056     0.105465
Rotational constants in MHz :  8280.156449  3958.940601  3161.775929

                             ****ORCA TERMINATED NORMALLY****
TOTAL RUN TIME: 0 days 0 hours 0 minutes 11 seconds 940 msec
