                         Program Version 5.0.0 -  RELEASE  -
|  1> !LC-BLYP RIJCOSX def2-SVP def2/J TightSCF
|  2>
|  3> *xyz 0 1
|  4> C          3.34350        3.35457       -3.59200
|  5> C          2.95263        1.86308       -3.57485
|  6> C          4.25587        3.70385       -4.72605
|  7> C          3.73403        4.29378       -5.80077
|  8> N          5.51504        3.40725       -4.63718
|  9> H          6.14919        3.60120       -5.39905
| 10> H          5.81358        2.89950       -3.80879
| 11> H          2.74138        4.51311       -5.82470
| 12> H          4.28755        4.52126       -6.61434
| 13> H          3.86125        3.59725       -2.66298
| 14> H          2.44649        3.97346       -3.65656
| 15> H          2.44395        1.61721       -4.48352
| 16> H          2.30781        1.67290       -2.74242
| 17> H          3.83491        1.26414       -3.48670
| 18> *
| 19> %MaxCore 64000
| 20>
| 21> %pal nprocs 4
| 22> end
| 23>
| 24> %scf
| 25>   MaxIter 150
| 26> end
| 27>
| 28>
| 29>                          ****END OF INPUT****

CARTESIAN COORDINATES (ANGSTROEM)
---------------------------------
  C      3.343500    3.354570   -3.592000
  C      2.952630    1.863080   -3.574850
  C      4.255870    3.703850   -4.726050
  C      3.734030    4.293780   -5.800770
  N      5.515040    3.407250   -4.637180
  H      6.149190    3.601200   -5.399050
  H      5.813580    2.899500   -3.808790
  H      2.741380    4.513110   -5.824700
  H      4.287550    4.521260   -6.614340
  H      3.861250    3.597250   -2.662980
  H      2.446490    3.973460   -3.656560
  H      2.443950    1.617210   -4.483520
  H      2.307810    1.672900   -2.742420
  H      3.834910    1.264140   -3.486700

 Total Charge           Charge          ....    0
 Multiplicity           Mult            ....    1
 Number of Electrons    NEL             ....   40
 Basis Dimension        Dim             ....  115

ORBITAL ENERGIES
----------------

  NO   OCC          E(Eh)            E(eV)
   0   2.0000     -14.182950      -385.9377
   1   2.0000     -10.099082      -274.8100
   2   2.0000     -10.080493      -274.3042
   3   2.0000     -10.070635      -274.0359
   4   2.0000     -10.010986      -272.4128
   5   2.0000      -1.022191       -27.8152
   6   2.0000      -0.875653       -23.8277
   7   2.0000      -0.807703       -21.9787
   8   2.0000      -0.734088       -19.9756
   9   2.0000      -0.665810       -18.1176
  10   2.0000      -0.628390       -17.0994
  11   2.0000      -0.578212       -15.7339
  12   2.0000      -0.537499       -14.6261
  13   2.0000      -0.520058       -14.1515
  14   2.0000      -0.489111       -13.3094
  15   2.0000      -0.477121       -12.9831
  16   2.0000      -0.448132       -12.1943
  17   2.0000      -0.428332       -11.6555
  18   2.0000      -0.424968       -11.5640
  19   2.0000      -0.272883        -7.4255
  20   0.0000       0.116892         3.1808
  21   0.0000       0.146611         3.9895
  22   0.0000       0.168048         4.5728
  23   0.0000       0.177409         4.8275
  24   0.0000       0.190821         5.1925

MULLIKEN ATOMIC CHARGES
-----------------------
   0 C :    0.035908
   1 C :    0.039939
   2 C :   -0.167454
   3 C :   -0.039839
   4 N :    0.014463
   5 H :    0.112246
   6 H :    0.103334
   7 H :   -0.051398
   8 H :   -0.069639
   9 H :   -0.007687
  10 H :    0.009858
  11 H :    0.013275
  12 H :    0.013066
  13 H :   -0.006075
Sum of atomic charges:    0.0000000

LOEWDIN ATOMIC CHARGES
----------------------
   0 C :   -0.036598
   1 C :   -0.058358
   2 C :    0.000439
   3 C :   -0.192575
   4 N :    0.007543
   5 H :    0.081159
   6 H :    0.074253
   7 H :    0.000353
   8 H :   -0.008752
   9 H :    0.021618
  10 H :    0.037746
  11 H :    0.028732
  12 H :    0.025985
  13 H :    0.018456

  Mayer bond orders larger than 0.100000
B(  0-C ,  1-C ) :   1.0980 B(  0-C ,  2-C ) :   1.0365 B(  0-C ,  9-H ) :   0.9284
B(  0-C , 10-H ) :   0.9321 B(  1-C , 11-H ) :   0.9673 B(  1-C , 12-H ) :   0.9677
B(  1-C , 13-H ) :   0.9680 B(  2-C ,  3-C ) :   1.8731 B(  2-C ,  4-N ) :   1.3018
B(  3-C ,  7-H ) :   0.9319 B(  3-C ,  8-H ) :   0.9429 B(  4-N ,  5-H ) :   0.9451
B(  4-N ,  6-H ) :   0.9451

FINAL SINGLE POINT ENERGY      -211.789982623889

DIPOLE MOMENT
-------------
                                X             Y             Z
Electronic contribution:      2.40578       1.45066      -0.82636
Nuclear contribution   :     -1.79713      -1.86925       1.28073
                        -----------------------------------------
Total Dipole Moment    :      0.60865      -0.41859       0.45437
                        -----------------------------------------
Magnitude (a.u.)       :      0.86725
Magnitude (Debye)      :      2.20438

Rotational constants in cm-1:     0.269040     0.129645     0.102087
Rotational constants in MHz :  8065.609820  3886.645139  3060.489045

                             ****ORCA TERMINATED NORMALLY****
TOTAL RUN TIME: 0 days 0 hours 0 minutes 15 seconds 128 msec
