                         Program Version 5.0.0 -  RELEASE  -
|  1> !LC-BLYP RIJCOSX def2-SVP def2/J TightSCF
|  2>
|  3> *xyz 0 1
|  4> C          2.95263        1.86308       -3.57485
|  5> C          4.12921        0.89839       -3.41895
|  6> H          3.73369       -0.10060       -3.23763
|  7> H          4.71910        0.86256       -4.33901
|  8> C          5.01734        1.31521       -2.22130
|  9> O          4.73706        0.85411       -1.12283
| 10> F          5.92815        2.16811       -2.49136
| 11> H          2.35067        1.56005       -4.40594
| 12> H          3.32277        2.85258       -3.74453
| 13> H          2.36134        1.85149       -2.68315
| 14> *
| 15> %MaxCore 64000
| 16>
| 17> %pal nprocs 4
| 18> end
| 19>
| 20> %scf
| 21>   MaxIter 150
| 22> end
| 23>
| 24>
| 25>                          ****END OF INPUT****

CARTESIAN COORDINATES (ANGSTROEM)
---------------------------------
  C      2.952630    1.863080   -3.574850
  C      4.129210    0.898390   -3.418950
  H      3.733690   -0.100600   -3.237630
  H      4.719100    0.862560   -4.339010
  C      5.017340    1.315210   -2.221300
  O      4.737060    0.854110   -1.122830
  F      5.928150    2.168110   -2.491360
  H      2.350670    1.560050   -4.405940
  H      3.322770    2.852580   -3.744530
  H      2.361340    1.851490   -2.683150

 Total Charge           Charge          ....    0
 Multiplicity           Mult            ....    1
 Number of Electrons    NEL             ....   40
 Basis Dimension        Dim             ....   95

ORBITAL ENERGIES
----------------

  NO   OCC          E(Eh)            E(eV)
   0   2.0000     -24.517402      -667.1524
   1   2.0000     -18.954485      -515.7777
   2   2.0000     -10.252713      -278.9905
   3   2.0000     -10.109009      -275.0801
   4   2.0000     -10.091376      -274.6003
   5   2.0000      -1.355145       -36.8754
   6   2.0000      -1.123942       -30.5840
   7   2.0000      -0.899455       -24.4754
   8   2.0000      -0.774998       -21.0888
   9   2.0000      -0.726413       -19.7667
  10   2.0000      -0.641505       -17.4562
  11   2.0000      -0.623477       -16.9657
  12   2.0000      -0.596378       -16.2283
  13   2.0000      -0.561902       -15.2901
  14   2.0000      -0.531701       -14.4683
  15   2.0000      -0.498588       -13.5673
  16   2.0000      -0.478585       -13.0229
  17   2.0000      -0.464587       -12.6421
  18   2.0000      -0.451840       -12.2952
  19   2.0000      -0.384151       -10.4533
  20   0.0000       0.073164         1.9909
  21   0.0000       0.133423         3.6306
  22   0.0000       0.178174         4.8484
  23   0.0000       0.185423         5.0456
  24   0.0000       0.208949         5.6858

MULLIKEN ATOMIC CHARGES
-----------------------
   0 C :   -0.008643
   1 C :   -0.037432
   2 H :    0.042430
   3 H :    0.024981
   4 C :    0.105503
   5 O :   -0.157259
   6 F :   -0.055197
   7 H :    0.029349
   8 H :    0.021853
   9 H :    0.034415
Sum of atomic charges:   -0.0000000

LOEWDIN ATOMIC CHARGES
----------------------
   0 C :   -0.054694
   1 C :   -0.077728
   2 H :    0.045326
   3 H :    0.033493
   4 C :    0.065097
   5 O :   -0.141398
   6 F :    0.035227
   7 H :    0.033304
   8 H :    0.028127
   9 H :    0.033245

  Mayer bond orders larger than 0.100000
B(  0-C ,  1-C ) :   1.0956 B(  0-C ,  7-H ) :   0.9698 B(  0-C ,  8-H ) :   0.9734
B(  0-C ,  9-H ) :   0.9713 B(  1-C ,  2-H ) :   0.9443 B(  1-C ,  3-H ) :   0.9363
B(  1-C ,  4-C ) :   0.9920 B(  4-C ,  5-O ) :   2.1859 B(  4-C ,  6-F ) :   1.2217

FINAL SINGLE POINT ENERGY      -291.555381302405

DIPOLE MOMENT
-------------
                                X             Y             Z
Electronic contribution:      7.08832       1.02076       4.33014
Nuclear contribution   :     -7.35982      -0.91407      -5.31589
                        -----------------------------------------
Total Dipole Moment    :     -0.27150       0.10668      -0.98576
                        -----------------------------------------
Magnitude (a.u.)       :      1.02801
Magnitude (Debye)      :      2.61300

Rotational constants in cm-1:     0.275433     0.132201     0.105422
Rotational constants in MHz :  8257.268192  3963.279062  3160.465566

                             ****ORCA TERMINATED NORMALLY****
TOTAL RUN TIME: 0 days 0 hours 0 minutes 13 seconds 321 msec
