                         Program Version 5.0.0 -  RELEASE  -
|  1> !LC-BLYP RIJCOSX def2-SVP def2/J TightSCF
|  2>
|  3> *xyz 0 1
|  4> C          3.34350        3.35457       -3.59200
|  5> C          2.95263        1.86308       -3.57485
|  6> C          4.25587        3.70385       -4.72605
|  7> N          3.73403        4.29378       -5.80077
|  8> C          5.51504        3.40725       -4.63718
|  9> H          6.14919        3.60120       -5.39905
| 10> H          5.81358        2.89950       -3.80879
| 11> H          2.74138        4.51311       -5.82470
| 12> H          4.28755        4.52126       -6.61434
| 13> H          3.86125        3.59725       -2.66298
| 14> H          2.44649        3.97346       -3.65656
| 15> H          2.44395        1.61721       -4.48352
| 16> H          2.30781        1.67290       -2.74242
| 17> H          3.83491        1.26414       -3.48670
| 18> *
| 19> %MaxCore 64000
| 20>
| 21> %pal nprocs 4
| 22> end
| 23>
| 24> %scf
| 25>   MaxIter 150
| 26> end
| 27>
| 28>
| 29>                          ****END OF INPUT****

CARTESIAN COORDINATES (ANGSTROEM)
---------------------------------
  C      3.343500    3.354570   -3.592000
  C      2.952630    1.863080   -3.574850
  C      4.255870    3.703850   -4.726050
  N      3.734030    4.293780   -5.800770
  C      5.515040    3.407250   -4.637180
  H      6.149190    3.601200   -5.399050
  H      5.813580    2.899500   -3.808790
  H      2.741380    4.513110   -5.824700
  H      4.287550    4.521260   -6.614340
  H      3.861250    3.597250   -2.662980
  H      2.446490    3.973460   -3.656560
  H      2.443950    1.617210   -4.483520
  H      2.307810    1.672900   -2.742420
  H      3.834910    1.264140   -3.486700

 Total Charge           Charge          ....    0
 Multiplicity           Mult            ....    1
 Number of Electrons    NEL             ....   40
 Basis Dimension        Dim             ....  115

ORBITAL ENERGIES
----------------

  NO   OCC          E(Eh)            E(eV)
   0   2.0000     -14.177764      -385.7966
   1   2.0000     -10.096575      -274.7418
   2   2.0000     -10.080030      -274.2916
   3   2.0000     -10.068193      -273.9695
   4   2.0000     -10.010316      -272.3945
   5   2.0000      -1.007543       -27.4166
   6   2.0000      -0.877364       -23.8743
   7   2.0000      -0.811151       -22.0726
   8   2.0000      -0.735359       -20.0101
   9   2.0000      -0.659079       -17.9345
  10   2.0000      -0.616316       -16.7708
  11   2.0000      -0.581389       -15.8204
  12   2.0000      -0.539780       -14.6882
  13   2.0000      -0.511829       -13.9276
  14   2.0000      -0.488530       -13.2936
  15   2.0000      -0.479200       -13.0397
  16   2.0000      -0.443288       -12.0625
  17   2.0000      -0.430441       -11.7129
  18   2.0000      -0.422998       -11.5104
  19   2.0000      -0.277650        -7.5552
  20   0.0000       0.120938         3.2909
  21   0.0000       0.146661         3.9908
  22   0.0000       0.170131         4.6295
  23   0.0000       0.174112         4.7378
  24   0.0000       0.194764         5.2998

MULLIKEN ATOMIC CHARGES
-----------------------
   0 C :    0.037627
   1 C :    0.038443
   2 C :   -0.129058
   3 N :   -0.041127
   4 C :   -0.020922
   5 H :   -0.068456
   6 H :   -0.051301
   7 H :    0.101952
   8 H :    0.106102
   9 H :    0.018632
  10 H :   -0.018859
  11 H :    0.004232
  12 H :    0.009559
  13 H :    0.013175
Sum of atomic charges:    0.0000000

LOEWDIN ATOMIC CHARGES
----------------------
   0 C :   -0.037510
   1 C :   -0.054877
   2 C :    0.007430
   3 N :   -0.014965
   4 C :   -0.177028
   5 H :   -0.004687
   6 H :    0.003023
   7 H :    0.070654
   8 H :    0.075300
   9 H :    0.038122
  10 H :    0.019682
  11 H :    0.023751
  12 H :    0.024002
  13 H :    0.027103

  Mayer bond orders larger than 0.100000
B(  0-C ,  1-C ) :   1.1051 B(  0-C ,  2-C ) :   1.0186 B(  0-C ,  9-H ) :   0.9355
B(  0-C , 10-H ) :   0.9291 B(  1-C , 11-H ) :   0.9670 B(  1-C , 12-H ) :   0.9673
B(  1-C , 13-H ) :   0.9709 B(  2-C ,  3-N ) :   1.2624 B(  2-C ,  4-C ) :   1.9170
B(  3-N ,  7-H ) :   0.9505 B(  3-N ,  8-H ) :   0.9516 B(  4-C ,  5-H ) :   0.9404
B(  4-C ,  6-H ) :   0.9229

FINAL SINGLE POINT ENERGY      -211.790024177939

DIPOLE MOMENT
-------------
                                X             Y             Z
Electronic contribution:      0.72213       2.30984      -1.91302
Nuclear contribution   :     -1.38463      -2.07457       1.55023
                        -----------------------------------------
Total Dipole Moment    :     -0.66250       0.23526      -0.36279
                        -----------------------------------------
Magnitude (a.u.)       :      0.79111
Magnitude (Debye)      :      2.01085

Rotational constants in cm-1:     0.272312     0.128195     0.101724
Rotational constants in MHz :  8163.717141  3843.180148  3049.598073

                             ****ORCA TERMINATED NORMALLY****
TOTAL RUN TIME: 0 days 0 hours 0 minutes 14 seconds 622 msec
