                         Program Version 5.0.0 -  RELEASE  -
|  1> !wB97X-D3 RIJCOSX def2-SVPD def2/J TightSCF
|  2> *xyz -1 1
|  3> C          4.99986       -1.59613       -5.92488
|  4> C          3.76678       -2.26611       -6.51175
|  5> C          2.49670       -1.84416       -5.73570
|  6> H          1.62642       -2.21743       -6.30895
|  7> H          2.48182       -2.45607       -4.79341
|  8> O          2.45973       -0.50920       -5.50576
|  9> H          3.88619       -3.35708       -6.53360
| 10> H          3.68560       -1.92217       -7.54713
| 11> H          5.86637       -1.89999       -6.47418
| 12> H          5.10830       -1.88372       -4.89997
| 13> H          4.89230       -0.53341       -5.98765
| 14> *
| 15>
| 16> %MaxCore 64000
| 17>
| 18> %pal nprocs 18
| 19> end
| 20>
| 21> %scf
| 22>   MaxIter 150
| 23> end
| 24>
| 25>
| 26>                          ****END OF INPUT****

CARTESIAN COORDINATES (ANGSTROEM)
---------------------------------
  C      4.999860   -1.596130   -5.924880
  C      3.766780   -2.266110   -6.511750
  C      2.496700   -1.844160   -5.735700
  H      1.626420   -2.217430   -6.308950
  H      2.481820   -2.456070   -4.793410
  O      2.459730   -0.509200   -5.505760
  H      3.886190   -3.357080   -6.533600
  H      3.685600   -1.922170   -7.547130
  H      5.866370   -1.899990   -6.474180
  H      5.108300   -1.883720   -4.899970
  H      4.892300   -0.533410   -5.987650

 Total Charge           Charge          ....   -1
 Multiplicity           Mult            ....    1
 Number of Electrons    NEL             ....   34
 Basis Dimension        Dim             ....  139

ORBITAL ENERGIES
----------------

  NO   OCC          E(Eh)            E(eV)
   0   2.0000     -18.912178      -514.6265
   1   2.0000     -10.105941      -274.9966
   2   2.0000     -10.098966      -274.8068
   3   2.0000     -10.095428      -274.7106
   4   2.0000      -0.795427       -21.6447
   5   2.0000      -0.688578       -18.7372
   6   2.0000      -0.568921       -15.4811
   7   2.0000      -0.465389       -12.6639
   8   2.0000      -0.375153       -10.2084
   9   2.0000      -0.364730        -9.9248
  10   2.0000      -0.308634        -8.3984
  11   2.0000      -0.283256        -7.7078
  12   2.0000      -0.252532        -6.8717
  13   2.0000      -0.241972        -6.5844
  14   2.0000      -0.210228        -5.7206
  15   2.0000      -0.065596        -1.7850
  16   2.0000      -0.062642        -1.7046
  17   0.0000       0.235173         6.3994
  18   0.0000       0.258308         7.0289
  19   0.0000       0.275876         7.5070
  20   0.0000       0.304317         8.2809
  21   0.0000       0.325878         8.8676

MULLIKEN ATOMIC CHARGES
-----------------------
   0 C :    0.577859
   1 C :   -0.477076
   2 C :    0.446313
   3 H :   -0.182227
   4 H :   -0.095889
   5 O :   -0.885197
   6 H :   -0.122779
   7 H :   -0.055181
   8 H :   -0.115495
   9 H :   -0.081158
  10 H :   -0.009169
Sum of atomic charges:   -1.0000000

LOEWDIN ATOMIC CHARGES
----------------------
   0 C :    0.073592
   1 C :   -0.116516
   2 C :   -0.219659
   3 H :   -0.033123
   4 H :   -0.023329
   5 O :   -0.557598
   6 H :   -0.009608
   7 H :   -0.001135
   8 H :   -0.048645
   9 H :   -0.028668
  10 H :   -0.035311

  Mayer bond orders larger than 0.100000
B(  0-C ,  1-C ) :   1.2605 B(  0-C ,  8-H ) :   0.8172 B(  0-C ,  9-H ) :   0.8350
B(  0-C , 10-H ) :   0.8269 B(  1-C ,  2-C ) :   1.0235 B(  1-C ,  3-H ) :   0.1321
B(  1-C ,  4-H ) :   0.1251 B(  1-C ,  6-H ) :   1.0152 B(  1-C ,  7-H ) :   0.9513
B(  1-C ,  8-H ) :   0.1862 B(  1-C ,  9-H ) :   0.1815 B(  1-C , 10-H ) :   0.1979
B(  2-C ,  3-H ) :   0.9656 B(  2-C ,  4-H ) :   0.9417 B(  2-C ,  5-O ) :   1.2063

Dispersion correction           -0.001912404
FINAL SINGLE POINT ENERGY      -193.554305187597

DIPOLE MOMENT
-------------
                                X             Y             Z
Electronic contribution:     -1.97307       1.92353       0.52627
Nuclear contribution   :      3.33375      -3.25054      -1.09297
                        -----------------------------------------
Total Dipole Moment    :      1.36068      -1.32701      -0.56670
                        -----------------------------------------
Magnitude (a.u.)       :      1.98332
Magnitude (Debye)      :      5.04120

Rotational constants in cm-1:     0.478390     0.193336     0.154822
Rotational constants in MHz : 14341.777399  5796.063993  4641.443060

                             ****ORCA TERMINATED NORMALLY****
TOTAL RUN TIME: 0 days 0 hours 0 minutes 6 seconds 482 msec
