                         Program Version 5.0.0 -  RELEASE  -
|  1> !wB97X-D3 RIJCOSX def2-SVPD def2/J TightSCF
|  2> *xyz 1 1
|  3> C          4.99986       -1.59613       -5.92488
|  4> N          5.28156       -1.97413       -4.53576
|  5> C          3.76678       -2.26611       -6.51175
|  6> C          2.49670       -1.84416       -5.73570
|  7> C          4.79250       -1.36132       -3.45730
|  8> N          3.93990       -0.37492       -3.55736
|  9> N          5.25986       -1.75422       -2.23913
| 10> H          5.92282       -2.52145       -2.18672
| 11> H          4.65468       -1.64040       -1.44202
| 12> H          5.70914       -2.87560       -4.38702
| 13> H          3.33010       -0.31764       -4.36125
| 14> H          3.69849        0.11447       -2.70833
| 15> H          4.84333       -0.51793       -5.94302
| 16> H          5.90170       -1.82250       -6.49647
| 17> H          3.88619       -3.35708       -6.53360
| 18> H          3.68560       -1.92217       -7.54713
| 19> H          1.64155       -2.32499       -6.16281
| 20> H          2.37707       -0.78268       -5.79763
| 21> H          2.59306       -2.13299       -4.70994
| 22> *
| 23>
| 24> %MaxCore 64000
| 25>
| 26> %pal nprocs 18
| 27> end
| 28>
| 29> %scf
| 30>   MaxIter 150
| 31> end
| 32>
| 33>
| 34>                          ****END OF INPUT****

CARTESIAN COORDINATES (ANGSTROEM)
---------------------------------
  C      4.999860   -1.596130   -5.924880
  N      5.281560   -1.974130   -4.535760
  C      3.766780   -2.266110   -6.511750
  C      2.496700   -1.844160   -5.735700
  C      4.792500   -1.361320   -3.457300
  N      3.939900   -0.374920   -3.557360
  N      5.259860   -1.754220   -2.239130
  H      5.922820   -2.521450   -2.186720
  H      4.654680   -1.640400   -1.442020
  H      5.709140   -2.875600   -4.387020
  H      3.330100   -0.317640   -4.361250
  H      3.698490    0.114470   -2.708330
  H      4.843330   -0.517930   -5.943020
  H      5.901700   -1.822500   -6.496470
  H      3.886190   -3.357080   -6.533600
  H      3.685600   -1.922170   -7.547130
  H      1.641550   -2.324990   -6.162810
  H      2.377070   -0.782680   -5.797630
  H      2.593060   -2.132990   -4.709940

 Total Charge           Charge          ....    1
 Multiplicity           Mult            ....    1
 Number of Electrons    NEL             ....   56
 Basis Dimension        Dim             ....  236

ORBITAL ENERGIES
----------------

  NO   OCC          E(Eh)            E(eV)
   0   2.0000     -14.659196      -398.8970
   1   2.0000     -14.657813      -398.8594
   2   2.0000     -14.653992      -398.7554
   3   2.0000     -10.625999      -289.1481
   4   2.0000     -10.491584      -285.4905
   5   2.0000     -10.440054      -284.0883
   6   2.0000     -10.427293      -283.7411
   7   2.0000      -1.323592       -36.0168
   8   2.0000      -1.211091       -32.9555
   9   2.0000      -1.196351       -32.5544
  10   2.0000      -1.056940       -28.7608
  11   2.0000      -0.976347       -26.5677
  12   2.0000      -0.933260       -25.3953
  13   2.0000      -0.893941       -24.3254
  14   2.0000      -0.868035       -23.6204
  15   2.0000      -0.836211       -22.7544
  16   2.0000      -0.797100       -21.6902
  17   2.0000      -0.789376       -21.4800
  18   2.0000      -0.743741       -20.2382
  19   2.0000      -0.733342       -19.9552
  20   2.0000      -0.707360       -19.2483
  21   2.0000      -0.678714       -18.4687
  22   2.0000      -0.658268       -17.9124
  23   2.0000      -0.617641       -16.8069
  24   2.0000      -0.595409       -16.2019
  25   2.0000      -0.591454       -16.0943
  26   2.0000      -0.568134       -15.4597
  27   2.0000      -0.538857       -14.6630
  28   0.0000      -0.092571        -2.5190
  29   0.0000      -0.068706        -1.8696
  30   0.0000      -0.036053        -0.9811
  31   0.0000      -0.027237        -0.7411
  32   0.0000      -0.012175        -0.3313

MULLIKEN ATOMIC CHARGES
-----------------------
   0 C :    0.671938
   1 N :   -0.467523
   2 C :   -0.124009
   3 C :    0.433810
   4 C :    1.261076
   5 N :    0.155717
   6 N :   -0.146972
   7 H :   -0.007686
   8 H :    0.006485
   9 H :   -0.206030
  10 H :   -0.338628
  11 H :   -0.047311
  12 H :    0.059551
  13 H :   -0.282125
  14 H :   -0.084004
  15 H :    0.062204
  16 H :   -0.275719
  17 H :    0.208351
  18 H :    0.120875
Sum of atomic charges:    1.0000000

LOEWDIN ATOMIC CHARGES
----------------------
   0 C :    0.074158
   1 N :    0.048697
   2 C :   -0.027621
   3 C :    0.134032
   4 C :   -0.026596
   5 N :    0.289360
   6 N :    0.253653
   7 H :    0.034956
   8 H :    0.029754
   9 H :    0.057788
  10 H :   -0.032813
  11 H :    0.051385
  12 H :    0.033427
  13 H :    0.041784
  14 H :    0.034563
  15 H :    0.039741
  16 H :    0.003440
  17 H :   -0.011529
  18 H :   -0.028180

  Mayer bond orders larger than 0.100000
B(  0-C ,  1-N ) :   0.9092 B(  0-C ,  2-C ) :   1.0934 B(  0-C ,  9-H ) :  -0.1799
B(  0-C , 12-H ) :   0.7573 B(  0-C , 13-H ) :   0.9921 B(  0-C , 14-H ) :   0.1229
B(  0-C , 15-H ) :   0.1042 B(  1-N ,  4-C ) :   1.0184 B(  1-N ,  5-N ) :   0.1568
B(  1-N ,  6-N ) :   0.1961 B(  1-N ,  9-H ) :   1.3072 B(  1-N , 12-H ) :   0.1668
B(  1-N , 13-H ) :   0.1202 B(  2-C ,  3-C ) :   1.2598 B(  2-C , 12-H ) :   0.1055
B(  2-C , 14-H ) :   0.9792 B(  2-C , 15-H ) :   0.8884 B(  2-C , 16-H ) :   0.1634
B(  2-C , 17-H ) :   0.1177 B(  2-C , 18-H ) :   0.1346 B(  3-C , 10-H ) :   0.1596
B(  3-C , 16-H ) :   1.0286 B(  3-C , 17-H ) :   0.6984 B(  3-C , 18-H ) :   0.8237
B(  4-C ,  5-N ) :   1.0811 B(  4-C ,  6-N ) :   0.8394 B(  4-C ,  9-H ) :  -0.1972
B(  4-C , 10-H ) :  -0.1017 B(  4-C , 11-H ) :  -0.1059 B(  5-N ,  6-N ) :   0.1551
B(  5-N , 10-H ) :   1.1513 B(  5-N , 11-H ) :   1.2051 B(  6-N ,  7-H ) :   1.0792
B(  6-N ,  8-H ) :   1.1296 B(  7-H ,  8-H ) :  -0.1297 B( 10-H , 11-H ) :  -0.2040
B( 10-H , 17-H ) :   0.1629 B( 12-H , 13-H ) :  -0.1194 B( 16-H , 17-H ) :  -0.1032

Dispersion correction           -0.005549031
FINAL SINGLE POINT ENERGY      -323.413961723473

DIPOLE MOMENT
-------------
                                X             Y             Z
Electronic contribution:      3.86586       0.80440       4.84220
Nuclear contribution   :     -3.69451      -0.93313      -3.60402
                        -----------------------------------------
Total Dipole Moment    :      0.17135      -0.12873       1.23818
                        -----------------------------------------
Magnitude (a.u.)       :      1.25659
Magnitude (Debye)      :      3.19399

Rotational constants in cm-1:     0.152547     0.057272     0.048491
Rotational constants in MHz :  4573.230603  1716.968614  1453.721796

                             ****ORCA TERMINATED NORMALLY****
TOTAL RUN TIME: 0 days 0 hours 0 minutes 17 seconds 123 msec
