                         Program Version 5.0.0 -  RELEASE  -
|  1> !wB97X-D3 RIJCOSX def2-SVPD def2/J TightSCF
|  2> *xyz 0 1
|  3> C          4.99986       -1.59613       -5.92488
|  4> C          3.76678       -2.26611       -6.51175
|  5> C          2.49670       -1.84416       -5.73570
|  6> H          1.62642       -2.21743       -6.30895
|  7> H          2.48182       -2.45607       -4.79341
|  8> F          2.45973       -0.50920       -5.50576
|  9> H          3.88619       -3.35708       -6.53360
| 10> H          3.68560       -1.92217       -7.54713
| 11> H          5.86637       -1.89999       -6.47418
| 12> H          5.10830       -1.88372       -4.89997
| 13> H          4.89230       -0.53341       -5.98765
| 14> *
| 15>
| 16> %MaxCore 64000
| 17>
| 18> %pal nprocs 18
| 19> end
| 20>
| 21> %scf
| 22>   MaxIter 150
| 23> end
| 24>
| 25>
| 26>                          ****END OF INPUT****

CARTESIAN COORDINATES (ANGSTROEM)
---------------------------------
  C      4.999860   -1.596130   -5.924880
  C      3.766780   -2.266110   -6.511750
  C      2.496700   -1.844160   -5.735700
  H      1.626420   -2.217430   -6.308950
  H      2.481820   -2.456070   -4.793410
  F      2.459730   -0.509200   -5.505760
  H      3.886190   -3.357080   -6.533600
  H      3.685600   -1.922170   -7.547130
  H      5.866370   -1.899990   -6.474180
  H      5.108300   -1.883720   -4.899970
  H      4.892300   -0.533410   -5.987650

 Total Charge           Charge          ....    0
 Multiplicity           Mult            ....    1
 Number of Electrons    NEL             ....   34
 Basis Dimension        Dim             ....  139

ORBITAL ENERGIES
----------------

  NO   OCC          E(Eh)            E(eV)
   0   2.0000     -24.794862      -674.7025
   1   2.0000     -10.369910      -282.1796
   2   2.0000     -10.294782      -280.1352
   3   2.0000     -10.273099      -279.5452
   4   2.0000      -1.309161       -35.6241
   5   2.0000      -0.899324       -24.4718
   6   2.0000      -0.796905       -21.6849
   7   2.0000      -0.700913       -19.0728
   8   2.0000      -0.617906       -16.8141
   9   2.0000      -0.602592       -16.3974
  10   2.0000      -0.581273       -15.8172
  11   2.0000      -0.538278       -14.6473
  12   2.0000      -0.496845       -13.5198
  13   2.0000      -0.470848       -12.8124
  14   2.0000      -0.451133       -12.2759
  15   2.0000      -0.420831       -11.4514
  16   2.0000      -0.417229       -11.3534
  17   0.0000       0.093240         2.5372
  18   0.0000       0.117726         3.2035
  19   0.0000       0.128201         3.4885
  20   0.0000       0.147877         4.0239
  21   0.0000       0.169633         4.6159

MULLIKEN ATOMIC CHARGES
-----------------------
   0 C :    0.527179
   1 C :   -0.510750
   2 C :    0.680626
   3 H :   -0.059752
   4 H :    0.018318
   5 F :   -0.448144
   6 H :   -0.069909
   7 H :   -0.023328
   8 H :   -0.068406
   9 H :   -0.050969
  10 H :    0.005135
Sum of atomic charges:    0.0000000

LOEWDIN ATOMIC CHARGES
----------------------
   0 C :    0.108647
   1 C :   -0.067872
   2 C :    0.096787
   3 H :    0.028756
   4 H :    0.040823
   5 F :   -0.209012
   6 H :    0.027788
   7 H :    0.020829
   8 H :   -0.017268
   9 H :   -0.013179
  10 H :   -0.016300

  Mayer bond orders larger than 0.100000
B(  0-C ,  1-C ) :   1.2811 B(  0-C ,  8-H ) :   0.8564 B(  0-C ,  9-H ) :   0.8478
B(  0-C , 10-H ) :   0.8380 B(  1-C ,  2-C ) :   1.1421 B(  1-C ,  6-H ) :   1.0015
B(  1-C ,  7-H ) :   0.9567 B(  1-C ,  8-H ) :   0.1682 B(  1-C ,  9-H ) :   0.1593
B(  1-C , 10-H ) :   0.1614 B(  2-C ,  3-H ) :   0.9459 B(  2-C ,  4-H ) :   0.9098
B(  2-C ,  5-F ) :   0.7271

Dispersion correction           -0.001918220
FINAL SINGLE POINT ENERGY      -218.163639429626

DIPOLE MOMENT
-------------
                                X             Y             Z
Electronic contribution:     -4.39839       3.85301       1.41942
Nuclear contribution   :      4.50596      -4.50325      -1.58424
                        -----------------------------------------
Total Dipole Moment    :      0.10757      -0.65024      -0.16482
                        -----------------------------------------
Magnitude (a.u.)       :      0.67938
Magnitude (Debye)      :      1.72684

Rotational constants in cm-1:     0.464063     0.182606     0.146573
Rotational constants in MHz : 13912.251583  5474.398056  4394.141907

                             ****ORCA TERMINATED NORMALLY****
TOTAL RUN TIME: 0 days 0 hours 0 minutes 6 seconds 241 msec
