                         Program Version 5.0.0 -  RELEASE  -
|  1> !wB97X-D3 RIJCOSX def2-SVPD def2/J TightSCF
|  2> *xyz 0 1
|  3> C          4.99986       -1.59613       -5.92488
|  4> C          5.28156       -1.97413       -4.53576
|  5> C          3.76678       -2.26611       -6.51175
|  6> C          2.49670       -1.84416       -5.73570
|  7> C          4.79250       -1.36132       -3.45730
|  8> N          3.93990       -0.37492       -3.55736
|  9> N          5.25986       -1.75422       -2.23913
| 10> H          5.92282       -2.52145       -2.18672
| 11> H          4.65468       -1.64040       -1.44202
| 12> H          5.70914       -2.87560       -4.38702
| 13> H          3.33010       -0.31764       -4.36125
| 14> H          3.69849        0.11447       -2.70833
| 15> H          4.84333       -0.51793       -5.94302
| 16> H          5.90170       -1.82250       -6.49647
| 17> H          3.88619       -3.35708       -6.53360
| 18> H          3.68560       -1.92217       -7.54713
| 19> H          1.64155       -2.32499       -6.16281
| 20> H          2.37707       -0.78268       -5.79763
| 21> H          2.59306       -2.13299       -4.70994
| 22> *
| 23>
| 24> %MaxCore 64000
| 25>
| 26> %pal nprocs 18
| 27> end
| 28>
| 29> %scf
| 30>   MaxIter 150
| 31> end
| 32>
| 33>
| 34>                          ****END OF INPUT****

CARTESIAN COORDINATES (ANGSTROEM)
---------------------------------
  C      4.999860   -1.596130   -5.924880
  C      5.281560   -1.974130   -4.535760
  C      3.766780   -2.266110   -6.511750
  C      2.496700   -1.844160   -5.735700
  C      4.792500   -1.361320   -3.457300
  N      3.939900   -0.374920   -3.557360
  N      5.259860   -1.754220   -2.239130
  H      5.922820   -2.521450   -2.186720
  H      4.654680   -1.640400   -1.442020
  H      5.709140   -2.875600   -4.387020
  H      3.330100   -0.317640   -4.361250
  H      3.698490    0.114470   -2.708330
  H      4.843330   -0.517930   -5.943020
  H      5.901700   -1.822500   -6.496470
  H      3.886190   -3.357080   -6.533600
  H      3.685600   -1.922170   -7.547130
  H      1.641550   -2.324990   -6.162810
  H      2.377070   -0.782680   -5.797630
  H      2.593060   -2.132990   -4.709940

 Total Charge           Charge          ....    0
 Multiplicity           Mult            ....    1
 Number of Electrons    NEL             ....   56
 Basis Dimension        Dim             ....  236

ORBITAL ENERGIES
----------------

  NO   OCC          E(Eh)            E(eV)
   0   2.0000     -14.437033      -392.8516
   1   2.0000     -14.433679      -392.7604
   2   2.0000     -10.333241      -281.1818
   3   2.0000     -10.273150      -279.5466
   4   2.0000     -10.270919      -279.4859
   5   2.0000     -10.261335      -279.2251
   6   2.0000     -10.212442      -277.8947
   7   2.0000      -1.071672       -29.1617
   8   2.0000      -0.977406       -26.5966
   9   2.0000      -0.899970       -24.4894
  10   2.0000      -0.832436       -22.6517
  11   2.0000      -0.767219       -20.8771
  12   2.0000      -0.710724       -19.3398
  13   2.0000      -0.666009       -18.1230
  14   2.0000      -0.647312       -17.6142
  15   2.0000      -0.609703       -16.5909
  16   2.0000      -0.580677       -15.8010
  17   2.0000      -0.549345       -14.9484
  18   2.0000      -0.537262       -14.6197
  19   2.0000      -0.518356       -14.1052
  20   2.0000      -0.488503       -13.2928
  21   2.0000      -0.470464       -12.8020
  22   2.0000      -0.452218       -12.3055
  23   2.0000      -0.429822       -11.6960
  24   2.0000      -0.413125       -11.2417
  25   2.0000      -0.409162       -11.1339
  26   2.0000      -0.358721        -9.7613
  27   2.0000      -0.249464        -6.7883
  28   0.0000       0.090034         2.4499
  29   0.0000       0.111361         3.0303
  30   0.0000       0.119247         3.2449
  31   0.0000       0.131954         3.5907
  32   0.0000       0.137716         3.7474

MULLIKEN ATOMIC CHARGES
-----------------------
   0 C :    0.141155
   1 C :   -0.208562
   2 C :   -0.107356
   3 C :    0.466361
   4 C :    0.859135
   5 N :    0.249234
   6 N :   -0.149579
   7 H :   -0.021980
   8 H :   -0.072871
   9 H :   -0.318939
  10 H :   -0.388533
  11 H :   -0.184786
  12 H :    0.041466
  13 H :   -0.160269
  14 H :   -0.122557
  15 H :   -0.028506
  16 H :   -0.287364
  17 H :    0.195773
  18 H :    0.098177
Sum of atomic charges:    0.0000000

LOEWDIN ATOMIC CHARGES
----------------------
   0 C :   -0.068261
   1 C :   -0.023315
   2 C :   -0.058161
   3 C :    0.117263
   4 C :   -0.220744
   5 N :    0.207916
   6 N :    0.174431
   7 H :    0.002136
   8 H :   -0.019323
   9 H :   -0.051785
  10 H :   -0.058390
  11 H :    0.004799
  12 H :    0.012031
  13 H :    0.014723
  14 H :    0.022733
  15 H :    0.013872
  16 H :   -0.018746
  17 H :   -0.022046
  18 H :   -0.029132

  Mayer bond orders larger than 0.100000
B(  0-C ,  1-C ) :   1.1724 B(  0-C ,  2-C ) :   1.0988 B(  0-C ,  9-H ) :   0.2213
B(  0-C , 12-H ) :   0.7807 B(  0-C , 13-H ) :   0.9168 B(  0-C , 14-H ) :   0.1578
B(  0-C , 15-H ) :   0.1237 B(  1-C ,  4-C ) :   1.6099 B(  1-C ,  5-N ) :   0.2465
B(  1-C ,  6-N ) :   0.3018 B(  1-C ,  9-H ) :   0.8954 B(  1-C , 12-H ) :   0.2418
B(  1-C , 13-H ) :   0.1607 B(  2-C ,  3-C ) :   1.2700 B(  2-C , 14-H ) :   0.9737
B(  2-C , 15-H ) :   0.8820 B(  2-C , 16-H ) :   0.1843 B(  2-C , 17-H ) :   0.1303
B(  2-C , 18-H ) :   0.1598 B(  3-C , 10-H ) :   0.1470 B(  3-C , 15-H ) :   0.1065
B(  3-C , 16-H ) :   0.9643 B(  3-C , 17-H ) :   0.7051 B(  3-C , 18-H ) :   0.8169
B(  4-C ,  5-N ) :   0.9984 B(  4-C ,  6-N ) :   0.7416 B(  4-C ,  9-H ) :   0.1058
B(  4-C , 11-H ) :  -0.1228 B(  4-C , 12-H ) :  -0.1204 B(  5-N ,  6-N ) :   0.1020
B(  5-N , 10-H ) :   1.1075 B(  5-N , 11-H ) :   1.2474 B(  6-N ,  7-H ) :   1.0970
B(  6-N ,  8-H ) :   1.1188 B(  7-H ,  8-H ) :  -0.1213 B( 10-H , 11-H ) :  -0.1890
B( 10-H , 17-H ) :   0.1597

Dispersion correction           -0.005525180
FINAL SINGLE POINT ENERGY      -306.944105909724

DIPOLE MOMENT
-------------
                                X             Y             Z
Electronic contribution:      2.87483       1.03238       4.30755
Nuclear contribution   :     -3.49027      -1.01686      -3.60427
                        -----------------------------------------
Total Dipole Moment    :     -0.61544       0.01551       0.70328
                        -----------------------------------------
Magnitude (a.u.)       :      0.93467
Magnitude (Debye)      :      2.37574

Rotational constants in cm-1:     0.155200     0.057307     0.048781
Rotational constants in MHz :  4652.781345  1718.017305  1462.410307

                             ****ORCA TERMINATED NORMALLY****
TOTAL RUN TIME: 0 days 0 hours 0 minutes 17 seconds 259 msec
