                         Program Version 5.0.0 -  RELEASE  -
|  1> !wB97X-D3 RIJCOSX def2-SVPD def2/J TightSCF
|  2> *xyz 0 1
|  3> C          4.99986       -1.59613       -5.92488
|  4> N          5.28156       -1.97413       -4.53576
|  5> C          3.76678       -2.26611       -6.51175
|  6> C          2.49670       -1.84416       -5.73570
|  7> C          4.79250       -1.36132       -3.45730
|  8> C          3.93990       -0.37492       -3.55736
|  9> N          5.25986       -1.75422       -2.23913
| 10> H          5.92282       -2.52145       -2.18672
| 11> H          4.65468       -1.64040       -1.44202
| 12> H          5.70914       -2.87560       -4.38702
| 13> H          3.33010       -0.31764       -4.36125
| 14> H          3.69849        0.11447       -2.70833
| 15> H          4.84333       -0.51793       -5.94302
| 16> H          5.90170       -1.82250       -6.49647
| 17> H          3.88619       -3.35708       -6.53360
| 18> H          3.68560       -1.92217       -7.54713
| 19> H          1.64155       -2.32499       -6.16281
| 20> H          2.37707       -0.78268       -5.79763
| 21> H          2.59306       -2.13299       -4.70994
| 22> *
| 23>
| 24> %MaxCore 64000
| 25>
| 26> %pal nprocs 18
| 27> end
| 28>
| 29> %scf
| 30>   MaxIter 150
| 31> end
| 32>
| 33>
| 34>                          ****END OF INPUT****

CARTESIAN COORDINATES (ANGSTROEM)
---------------------------------
  C      4.999860   -1.596130   -5.924880
  N      5.281560   -1.974130   -4.535760
  C      3.766780   -2.266110   -6.511750
  C      2.496700   -1.844160   -5.735700
  C      4.792500   -1.361320   -3.457300
  C      3.939900   -0.374920   -3.557360
  N      5.259860   -1.754220   -2.239130
  H      5.922820   -2.521450   -2.186720
  H      4.654680   -1.640400   -1.442020
  H      5.709140   -2.875600   -4.387020
  H      3.330100   -0.317640   -4.361250
  H      3.698490    0.114470   -2.708330
  H      4.843330   -0.517930   -5.943020
  H      5.901700   -1.822500   -6.496470
  H      3.886190   -3.357080   -6.533600
  H      3.685600   -1.922170   -7.547130
  H      1.641550   -2.324990   -6.162810
  H      2.377070   -0.782680   -5.797630
  H      2.593060   -2.132990   -4.709940

 Total Charge           Charge          ....    0
 Multiplicity           Mult            ....    1
 Number of Electrons    NEL             ....   56
 Basis Dimension        Dim             ....  236

ORBITAL ENERGIES
----------------

  NO   OCC          E(Eh)            E(eV)
   0   2.0000     -14.439098      -392.9078
   1   2.0000     -14.434813      -392.7912
   2   2.0000     -10.335158      -281.2340
   3   2.0000     -10.318644      -280.7846
   4   2.0000     -10.287002      -279.9236
   5   2.0000     -10.266209      -279.3577
   6   2.0000     -10.198663      -277.5197
   7   2.0000      -1.073006       -29.1980
   8   2.0000      -0.987818       -26.8799
   9   2.0000      -0.886619       -24.1261
  10   2.0000      -0.833159       -22.6714
  11   2.0000      -0.788317       -21.4512
  12   2.0000      -0.712445       -19.3866
  13   2.0000      -0.666160       -18.1271
  14   2.0000      -0.641578       -17.4582
  15   2.0000      -0.615096       -16.7376
  16   2.0000      -0.567939       -15.4544
  17   2.0000      -0.560107       -15.2413
  18   2.0000      -0.532582       -14.4923
  19   2.0000      -0.503370       -13.6974
  20   2.0000      -0.491014       -13.3612
  21   2.0000      -0.473891       -12.8952
  22   2.0000      -0.472903       -12.8684
  23   2.0000      -0.439116       -11.9490
  24   2.0000      -0.434844       -11.8327
  25   2.0000      -0.422760       -11.5039
  26   2.0000      -0.343962        -9.3597
  27   2.0000      -0.260252        -7.0818
  28   0.0000       0.088275         2.4021
  29   0.0000       0.109945         2.9918
  30   0.0000       0.113742         3.0951
  31   0.0000       0.124813         3.3963
  32   0.0000       0.141590         3.8529

MULLIKEN ATOMIC CHARGES
-----------------------
   0 C :    0.674882
   1 N :   -0.484105
   2 C :   -0.146595
   3 C :    0.331482
   4 C :    0.719915
   5 C :    0.693305
   6 N :   -0.040617
   7 H :   -0.096205
   8 H :    0.004619
   9 H :   -0.313270
  10 H :   -0.875899
  11 H :   -0.393370
  12 H :    0.118010
  13 H :   -0.330259
  14 H :   -0.117213
  15 H :    0.000116
  16 H :   -0.354328
  17 H :    0.390033
  18 H :    0.219497
Sum of atomic charges:   -0.0000000

LOEWDIN ATOMIC CHARGES
----------------------
   0 C :    0.048834
   1 N :   -0.016806
   2 C :   -0.050876
   3 C :    0.119541
   4 C :   -0.224772
   5 C :    0.157672
   6 N :    0.179396
   7 H :   -0.012441
   8 H :   -0.002898
   9 H :    0.019001
  10 H :   -0.144750
  11 H :   -0.084227
  12 H :    0.024517
  13 H :    0.017961
  14 H :    0.018082
  15 H :    0.018147
  16 H :   -0.020592
  17 H :   -0.017771
  18 H :   -0.028017

  Mayer bond orders larger than 0.100000
B(  0-C ,  1-N ) :   0.9223 B(  0-C ,  2-C ) :   1.0739 B(  0-C ,  9-H ) :  -0.1728
B(  0-C , 12-H ) :   0.7339 B(  0-C , 13-H ) :   0.9930 B(  0-C , 14-H ) :   0.1178
B(  0-C , 15-H ) :   0.1095 B(  1-N ,  4-C ) :   0.9008 B(  1-N ,  5-C ) :   0.2899
B(  1-N ,  6-N ) :   0.1462 B(  1-N ,  9-H ) :   1.3795 B(  1-N , 12-H ) :   0.1486
B(  1-N , 13-H ) :   0.1208 B(  2-C ,  3-C ) :   1.2778 B(  2-C , 12-H ) :   0.1237
B(  2-C , 14-H ) :   0.9782 B(  2-C , 15-H ) :   0.8931 B(  2-C , 16-H ) :   0.1712
B(  2-C , 17-H ) :   0.1042 B(  2-C , 18-H ) :   0.1288 B(  3-C , 10-H ) :   0.3218
B(  3-C , 15-H ) :   0.1042 B(  3-C , 16-H ) :   1.0298 B(  3-C , 17-H ) :   0.6144
B(  3-C , 18-H ) :   0.8130 B(  4-C ,  5-C ) :   1.8203 B(  4-C ,  6-N ) :   0.8313
B(  4-C ,  9-H ) :  -0.2332 B(  4-C , 10-H ) :   0.1100 B(  4-C , 11-H ) :   0.3454
B(  5-C ,  6-N ) :   0.3139 B(  5-C , 10-H ) :   0.4303 B(  5-C , 11-H ) :   0.6250
B(  6-N ,  7-H ) :   1.0383 B(  6-N ,  8-H ) :   1.0667 B(  6-N , 11-H ) :   0.1669
B(  7-H ,  8-H ) :  -0.1274 B( 10-H , 17-H ) :   0.1419 B( 12-H , 13-H ) :  -0.1338
B( 16-H , 17-H ) :  -0.1493

Dispersion correction           -0.005494292
FINAL SINGLE POINT ENERGY      -306.931482259997

DIPOLE MOMENT
-------------
                                X             Y             Z
Electronic contribution:      4.03703      -0.36413       3.35819
Nuclear contribution   :     -3.78417      -0.66655      -3.38995
                        -----------------------------------------
Total Dipole Moment    :      0.25287      -1.03068      -0.03176
                        -----------------------------------------
Magnitude (a.u.)       :      1.06172
Magnitude (Debye)      :      2.69868

Rotational constants in cm-1:     0.157710     0.057795     0.049101
Rotational constants in MHz :  4728.033540  1732.635996  1472.015132

                             ****ORCA TERMINATED NORMALLY****
TOTAL RUN TIME: 0 days 0 hours 0 minutes 18 seconds 66 msec
