                         Program Version 5.0.0 -  RELEASE  -
|  1> !wB97X-D3 RIJCOSX def2-SVPD def2/J TightSCF
|  2> *xyz 0 1
|  3> C          4.99986       -1.59613       -5.92488
|  4> N          5.28156       -1.97413       -4.53576
|  5> C          3.76678       -2.26611       -6.51175
|  6> C          2.49670       -1.84416       -5.73570
|  7> C          4.79250       -1.36132       -3.45730
|  8> N          3.93990       -0.37492       -3.55736
|  9> C          5.25986       -1.75422       -2.23913
| 10> H          5.92282       -2.52145       -2.18672
| 11> H          4.65468       -1.64040       -1.44202
| 12> H          5.70914       -2.87560       -4.38702
| 13> H          3.33010       -0.31764       -4.36125
| 14> H          3.69849        0.11447       -2.70833
| 15> H          4.84333       -0.51793       -5.94302
| 16> H          5.90170       -1.82250       -6.49647
| 17> H          3.88619       -3.35708       -6.53360
| 18> H          3.68560       -1.92217       -7.54713
| 19> H          1.64155       -2.32499       -6.16281
| 20> H          2.37707       -0.78268       -5.79763
| 21> H          2.59306       -2.13299       -4.70994
| 22> *
| 23>
| 24> %MaxCore 64000
| 25>
| 26> %pal nprocs 18
| 27> end
| 28>
| 29> %scf
| 30>   MaxIter 150
| 31> end
| 32>
| 33>
| 34>                          ****END OF INPUT****

CARTESIAN COORDINATES (ANGSTROEM)
---------------------------------
  C      4.999860   -1.596130   -5.924880
  N      5.281560   -1.974130   -4.535760
  C      3.766780   -2.266110   -6.511750
  C      2.496700   -1.844160   -5.735700
  C      4.792500   -1.361320   -3.457300
  N      3.939900   -0.374920   -3.557360
  C      5.259860   -1.754220   -2.239130
  H      5.922820   -2.521450   -2.186720
  H      4.654680   -1.640400   -1.442020
  H      5.709140   -2.875600   -4.387020
  H      3.330100   -0.317640   -4.361250
  H      3.698490    0.114470   -2.708330
  H      4.843330   -0.517930   -5.943020
  H      5.901700   -1.822500   -6.496470
  H      3.886190   -3.357080   -6.533600
  H      3.685600   -1.922170   -7.547130
  H      1.641550   -2.324990   -6.162810
  H      2.377070   -0.782680   -5.797630
  H      2.593060   -2.132990   -4.709940

 Total Charge           Charge          ....    0
 Multiplicity           Mult            ....    1
 Number of Electrons    NEL             ....   56
 Basis Dimension        Dim             ....  236

ORBITAL ENERGIES
----------------

  NO   OCC          E(Eh)            E(eV)
   0   2.0000     -14.438310      -392.8864
   1   2.0000     -14.436666      -392.8417
   2   2.0000     -10.339297      -281.3466
   3   2.0000     -10.327688      -281.0307
   4   2.0000     -10.298949      -280.2486
   5   2.0000     -10.289093      -279.9805
   6   2.0000     -10.195517      -277.4341
   7   2.0000      -1.082424       -29.4542
   8   2.0000      -0.996541       -27.1173
   9   2.0000      -0.907292       -24.6887
  10   2.0000      -0.827151       -22.5079
  11   2.0000      -0.783438       -21.3184
  12   2.0000      -0.710313       -19.3286
  13   2.0000      -0.705267       -19.1913
  14   2.0000      -0.650144       -17.6913
  15   2.0000      -0.604774       -16.4567
  16   2.0000      -0.580939       -15.8082
  17   2.0000      -0.563830       -15.3426
  18   2.0000      -0.554449       -15.0873
  19   2.0000      -0.505205       -13.7473
  20   2.0000      -0.494869       -13.4661
  21   2.0000      -0.483450       -13.1553
  22   2.0000      -0.471381       -12.8269
  23   2.0000      -0.449596       -12.2341
  24   2.0000      -0.445087       -12.1114
  25   2.0000      -0.440006       -11.9732
  26   2.0000      -0.348607        -9.4861
  27   2.0000      -0.245598        -6.6831
  28   0.0000       0.085359         2.3227
  29   0.0000       0.105591         2.8733
  30   0.0000       0.115293         3.1373
  31   0.0000       0.119547         3.2530
  32   0.0000       0.141321         3.8455

MULLIKEN ATOMIC CHARGES
-----------------------
   0 C :    0.687721
   1 N :   -0.288066
   2 C :   -0.113493
   3 C :    0.428667
   4 C :    0.320204
   5 N :    0.318992
   6 C :    0.405010
   7 H :   -0.285735
   8 H :   -0.289697
   9 H :   -0.283900
  10 H :   -0.452672
  11 H :   -0.059077
  12 H :    0.022887
  13 H :   -0.358781
  14 H :   -0.108697
  15 H :    0.018402
  16 H :   -0.317189
  17 H :    0.194821
  18 H :    0.160605
Sum of atomic charges:    0.0000000

LOEWDIN ATOMIC CHARGES
----------------------
   0 C :    0.043780
   1 N :   -0.006487
   2 C :   -0.051837
   3 C :    0.121599
   4 C :   -0.236057
   5 N :    0.207693
   6 C :    0.134586
   7 H :   -0.109093
   8 H :   -0.114342
   9 H :    0.033329
  10 H :   -0.065924
  11 H :    0.020403
  12 H :    0.018845
  13 H :    0.019078
  14 H :    0.022763
  15 H :    0.019754
  16 H :   -0.015116
  17 H :   -0.019832
  18 H :   -0.023143

  Mayer bond orders larger than 0.100000
B(  0-C ,  1-N ) :   0.9415 B(  0-C ,  2-C ) :   1.0745 B(  0-C ,  9-H ) :  -0.1990
B(  0-C , 12-H ) :   0.7698 B(  0-C , 13-H ) :   0.9848 B(  0-C , 14-H ) :   0.1368
B(  0-C , 15-H ) :   0.1141 B(  1-N ,  4-C ) :   1.0717 B(  1-N ,  5-N ) :   0.1121
B(  1-N ,  6-C ) :   0.2031 B(  1-N ,  9-H ) :   1.2156 B(  1-N , 12-H ) :   0.1733
B(  1-N , 13-H ) :   0.1226 B(  2-C ,  3-C ) :   1.2563 B(  2-C , 12-H ) :   0.1050
B(  2-C , 14-H ) :   0.9682 B(  2-C , 15-H ) :   0.8842 B(  2-C , 16-H ) :   0.1685
B(  2-C , 17-H ) :   0.1229 B(  2-C , 18-H ) :   0.1427 B(  3-C , 10-H ) :   0.1472
B(  3-C , 16-H ) :   0.9999 B(  3-C , 17-H ) :   0.7073 B(  3-C , 18-H ) :   0.8171
B(  4-C ,  5-N ) :   1.0968 B(  4-C ,  6-C ) :   1.8291 B(  4-C ,  7-H ) :   0.1791
B(  4-C ,  8-H ) :   0.1949 B(  4-C ,  9-H ) :  -0.1426 B(  5-N ,  6-C ) :   0.1501
B(  5-N , 10-H ) :   1.0647 B(  5-N , 11-H ) :   1.1815 B(  5-N , 12-H ) :   0.1010
B(  6-C ,  7-H ) :   0.7487 B(  6-C ,  8-H ) :   0.8076 B(  7-H ,  8-H ) :   0.1786
B( 10-H , 11-H ) :  -0.1919 B( 10-H , 17-H ) :   0.1514 B( 12-H , 13-H ) :  -0.1300
B( 16-H , 17-H ) :  -0.1085

Dispersion correction           -0.005596481
FINAL SINGLE POINT ENERGY      -306.930053722133

DIPOLE MOMENT
-------------
                                X             Y             Z
Electronic contribution:      2.73229       0.91390       1.91161
Nuclear contribution   :     -3.49502      -0.96869      -3.10119
                        -----------------------------------------
Total Dipole Moment    :     -0.76273      -0.05479      -1.18958
                        -----------------------------------------
Magnitude (a.u.)       :      1.41416
Magnitude (Debye)      :      3.59452

Rotational constants in cm-1:     0.153385     0.059790     0.050215
Rotational constants in MHz :  4598.376479  1792.462869  1505.410199

                             ****ORCA TERMINATED NORMALLY****
TOTAL RUN TIME: 0 days 0 hours 0 minutes 19 seconds 665 msec
