                         Program Version 5.0.0 -  RELEASE  -
|  1> !PBE D3BJ RIJCOSX def2-SVP def2/J TightSCF
|  2> *xyz -1 1
|  3> C         -0.77894        0.17197        1.80496
|  4> C         -0.60249       -0.63071        0.49224
|  5> H          0.31389       -1.24035        0.60350
|  6> H         -0.36383        0.11332       -0.30117
|  7> O         -1.71206       -1.37684        0.20253
|  8> H         -1.65864        0.77733        1.73736
|  9> H          0.07466        0.79896        1.95712
| 10> H         -0.87474       -0.50584        2.62734
| 11> *
| 12> %MaxCore 64000
| 13>
| 14> %pal nprocs 4
| 15> end
| 16>
| 17> %scf
| 18>   MaxIter 150
| 19> end
| 20>
| 21>
| 22>                          ****END OF INPUT****

CARTESIAN COORDINATES (ANGSTROEM)
---------------------------------
  C     -0.778940    0.171970    1.804960
  C     -0.602490   -0.630710    0.492240
  H      0.313890   -1.240350    0.603500
  H     -0.363830    0.113320   -0.301170
  O     -1.712060   -1.376840    0.202530
  H     -1.658640    0.777330    1.737360
  H      0.074660    0.798960    1.957120
  H     -0.874740   -0.505840    2.627340

 Total Charge           Charge          ....   -1
 Multiplicity           Mult            ....    1
 Number of Electrons    NEL             ....   26
 Basis Dimension        Dim             ....   67

ORBITAL ENERGIES
----------------

  NO   OCC          E(Eh)            E(eV)
   0   2.0000     -18.381917      -500.1974
   1   2.0000      -9.682262      -263.4677
   2   2.0000      -9.668834      -263.1024
   3   2.0000      -0.549333       -14.9481
   4   2.0000      -0.425777       -11.5860
   5   2.0000      -0.284428        -7.7397
   6   2.0000      -0.180723        -4.9177
   7   2.0000      -0.158644        -4.3169
   8   2.0000      -0.106278        -2.8920
   9   2.0000      -0.090952        -2.4749
  10   2.0000      -0.027378        -0.7450
  11   2.0000       0.115874         3.1531
  12   2.0000       0.119969         3.2645
  13   0.0000       0.234242         6.3741
  14   0.0000       0.275381         7.4935
  15   0.0000       0.286907         7.8071
  16   0.0000       0.296547         8.0695
  17   0.0000       0.336061         9.1447

MULLIKEN ATOMIC CHARGES
-----------------------
   0 C :    0.068762
   1 C :    0.206010
   2 H :   -0.171312
   3 H :   -0.175129
   4 O :   -0.641260
   5 H :   -0.073376
   6 H :   -0.141155
   7 H :   -0.072541
Sum of atomic charges:   -1.0000000

LOEWDIN ATOMIC CHARGES
----------------------
   0 C :   -0.121069
   1 C :   -0.006391
   2 H :   -0.085153
   3 H :   -0.088228
   4 O :   -0.613871
   5 H :   -0.019520
   6 H :   -0.046540
   7 H :   -0.019228

  Mayer bond orders larger than 0.100000
B(  0-C ,  1-C ) :   0.9976 B(  0-C ,  4-O ) :  -0.1052 B(  0-C ,  5-H ) :   0.9461
B(  0-C ,  6-H ) :   0.8866 B(  0-C ,  7-H ) :   0.9492 B(  1-C ,  2-H ) :   0.8448
B(  1-C ,  3-H ) :   0.8421 B(  1-C ,  4-O ) :   1.5412 B(  4-O ,  6-H ) :   0.1120

Dispersion correction           -0.003762079
FINAL SINGLE POINT ENERGY      -154.086146628643

DIPOLE MOMENT
-------------
                                X             Y             Z
Electronic contribution:     -2.05282      -2.20597      -1.67988
Nuclear contribution   :      2.47835       2.80827       2.30058
                        -----------------------------------------
Total Dipole Moment    :      0.42553       0.60230       0.62070
                        -----------------------------------------
Magnitude (a.u.)       :      0.96390
Magnitude (Debye)      :      2.45005

Rotational constants in cm-1:     1.255775     0.327783     0.287473
Rotational constants in MHz : 37647.186859  9826.677683  8618.224821

                             ****ORCA TERMINATED NORMALLY****
TOTAL RUN TIME: 0 days 0 hours 0 minutes 5 seconds 975 msec
