                         Program Version 5.0.0 -  RELEASE  -
|  1> !PBE D3BJ RIJCOSX def2-SVP def2/J TightSCF
|  2> *xyz 1 1
|  3> C         -2.12050        0.88520        1.78951
|  4> C         -0.77894        0.17197        1.80496
|  5> H         -2.32419        1.47265        2.68608
|  6> H         -2.18770        1.54127        0.91948
|  7> N         -3.17690       -0.15948        1.61070
|  8> H         -4.06474        0.23127        1.28675
|  9> H         -3.34407       -0.67151        2.48493
| 10> H         -2.71686       -0.78189        0.93588
| 11> H         -0.65708       -0.37837        0.89547
| 12> H         -0.74207       -0.50050        2.63642
| 13> H          0.00707        0.89251        1.89389
| 14> *
| 15> %MaxCore 64000
| 16>
| 17> %pal nprocs 4
| 18> end
| 19>
| 20> %scf
| 21>   MaxIter 150
| 22> end
| 23>
| 24>
| 25>                          ****END OF INPUT****

CARTESIAN COORDINATES (ANGSTROEM)
---------------------------------
  C     -2.120500    0.885200    1.789510
  C     -0.778940    0.171970    1.804960
  H     -2.324190    1.472650    2.686080
  H     -2.187700    1.541270    0.919480
  N     -3.176900   -0.159480    1.610700
  H     -4.064740    0.231270    1.286750
  H     -3.344070   -0.671510    2.484930
  H     -2.716860   -0.781890    0.935880
  H     -0.657080   -0.378370    0.895470
  H     -0.742070   -0.500500    2.636420
  H      0.007070    0.892510    1.893890

 Total Charge           Charge          ....    1
 Multiplicity           Mult            ....    1
 Number of Electrons    NEL             ....   26
 Basis Dimension        Dim             ....   82

ORBITAL ENERGIES
----------------

  NO   OCC          E(Eh)            E(eV)
   0   2.0000     -14.333930      -390.0461
   1   2.0000     -10.150199      -276.2010
   2   2.0000     -10.077152      -274.2132
   3   2.0000      -1.131614       -30.7928
   4   2.0000      -0.893640       -24.3172
   5   2.0000      -0.782593       -21.2954
   6   2.0000      -0.753677       -20.5086
   7   2.0000      -0.742650       -20.2085
   8   2.0000      -0.646294       -17.5866
   9   2.0000      -0.596251       -16.2248
  10   2.0000      -0.541817       -14.7436
  11   2.0000      -0.533381       -14.5140
  12   2.0000      -0.512237       -13.9387
  13   0.0000      -0.206643        -5.6230
  14   0.0000      -0.151849        -4.1320
  15   0.0000      -0.148623        -4.0442
  16   0.0000      -0.115852        -3.1525
  17   0.0000      -0.086720        -2.3598

MULLIKEN ATOMIC CHARGES
-----------------------
   0 C :   -0.062729
   1 C :   -0.066585
   2 H :    0.114688
   3 H :    0.107052
   4 N :    0.037532
   5 H :    0.214379
   6 H :    0.210103
   7 H :    0.202221
   8 H :    0.068028
   9 H :    0.070945
  10 H :    0.104366
Sum of atomic charges:    1.0000000

LOEWDIN ATOMIC CHARGES
----------------------
   0 C :    0.046678
   1 C :   -0.049209
   2 H :    0.058205
   3 H :    0.057803
   4 N :    0.304838
   5 H :    0.144027
   6 H :    0.143763
   7 H :    0.139352
   8 H :    0.041988
   9 H :    0.043684
  10 H :    0.068870

  Mayer bond orders larger than 0.100000
B(  0-C ,  1-C ) :   1.1123 B(  0-C ,  2-H ) :   0.9447 B(  0-C ,  3-H ) :   0.9438
B(  0-C ,  4-N ) :   0.9454 B(  1-C ,  8-H ) :   0.9557 B(  1-C ,  9-H ) :   0.9683
B(  1-C , 10-H ) :   0.9489 B(  4-N ,  5-H ) :   0.9285 B(  4-N ,  6-H ) :   0.9348
B(  4-N ,  7-H ) :   0.9336

Dispersion correction           -0.006241059
FINAL SINGLE POINT ENERGY      -135.243973714850

DIPOLE MOMENT
-------------
                                X             Y             Z
Electronic contribution:     -1.86483      -0.18328      -0.06608
Nuclear contribution   :      0.50278      -0.30871      -0.06979
                        -----------------------------------------
Total Dipole Moment    :     -1.36205      -0.49200      -0.13587
                        -----------------------------------------
Magnitude (a.u.)       :      1.45455
Magnitude (Debye)      :      3.69716

Rotational constants in cm-1:     0.963746     0.295157     0.256910
Rotational constants in MHz : 28892.375247  8848.576767  7701.963879

                             ****ORCA TERMINATED NORMALLY****
TOTAL RUN TIME: 0 days 0 hours 0 minutes 6 seconds 370 msec
