                         Program Version 5.0.0 -  RELEASE  -
|  1> !PBE D3BJ RIJCOSX def2-TZVP def2/J TightSCF xyzfile
|  2>
|  3> *xyzfile 0 1 B.xyz
|  4>
|  5> %MaxCore 64000
|  6>
|  7> %pal nprocs 18
|  8> end
|  9>
| 10> %scf
| 11>   MaxIter 150
| 12> end
| 13>
| 14>
| 15>                          ****END OF INPUT****

CARTESIAN COORDINATES (ANGSTROEM)
---------------------------------
  C     -2.120502    0.885196    1.789506
  C     -0.778939    0.171966    1.804965
  H     -2.324193    1.472649    2.686078
  H     -2.187698    1.541272    0.919482
  N     -3.176900   -0.159484    1.610700
  H      0.015695    0.910767    1.939153
  H     -0.743553   -0.506827    2.665420
  C     -0.602493   -0.630712    0.492240
  H      0.313894   -1.240346    0.603498
  H     -0.363829    0.113322   -0.301169
  O     -1.712061   -1.376836    0.202535
  H     -4.064736    0.231272    1.286754
  H     -3.344073   -0.671511    2.484928
  H     -2.716861   -0.781886    0.935880

 Total Charge           Charge          ....    0
 Multiplicity           Mult            ....    1
 Number of Electrons    NEL             ....   42
 Basis Dimension        Dim             ....  209

ORBITAL ENERGIES
----------------

  NO   OCC          E(Eh)            E(eV)
   0   2.0000     -18.622163      -506.7348
   1   2.0000     -14.062637      -382.6638
   2   2.0000      -9.941969      -270.5347
   3   2.0000      -9.875053      -268.7139
   4   2.0000      -9.873942      -268.6836
   5   2.0000      -0.910710       -24.7817
   6   2.0000      -0.810767       -22.0621
   7   2.0000      -0.700000       -19.0480
   8   2.0000      -0.591120       -16.0852
   9   2.0000      -0.535851       -14.5812
  10   2.0000      -0.518226       -14.1016
  11   2.0000      -0.489080       -13.3085
  12   2.0000      -0.437606       -11.9079
  13   2.0000      -0.388759       -10.5787
  14   2.0000      -0.357773        -9.7355
  15   2.0000      -0.355743        -9.6803
  16   2.0000      -0.314007        -8.5446
  17   2.0000      -0.295554        -8.0424
  18   2.0000      -0.272430        -7.4132
  19   2.0000      -0.141460        -3.8493
  20   2.0000      -0.130383        -3.5479
  21   0.0000      -0.028460        -0.7744
  22   0.0000       0.014337         0.3901
  23   0.0000       0.027155         0.7389
  24   0.0000       0.059738         1.6256
  25   0.0000       0.070981         1.9315

MULLIKEN ATOMIC CHARGES
-----------------------
   0 C :   -0.129431
   1 C :   -0.224717
   2 H :    0.126700
   3 H :    0.123415
   4 N :   -0.257066
   5 H :    0.090172
   6 H :    0.074930
   7 C :    0.012369
   8 H :    0.043084
   9 H :    0.013561
  10 O :   -0.609699
  11 H :    0.242033
  12 H :    0.242746
  13 H :    0.251903
Sum of atomic charges:    0.0000000

LOEWDIN ATOMIC CHARGES
----------------------
   0 C :   -0.282018
   1 C :   -0.300506
   2 H :    0.125066
   3 H :    0.141088
   4 N :    0.133222
   5 H :    0.137626
   6 H :    0.130021
   7 C :   -0.482019
   8 H :    0.101311
   9 H :    0.092316
  10 O :   -0.245520
  11 H :    0.175142
  12 H :    0.182160
  13 H :    0.092110

  Mayer bond orders larger than 0.100000
B(  0-C ,  1-C ) :   1.0164 B(  0-C ,  2-H ) :   0.9609 B(  0-C ,  3-H ) :   0.9461
B(  0-C ,  4-N ) :   0.9236 B(  1-C ,  5-H ) :   0.9380 B(  1-C ,  6-H ) :   0.9444
B(  1-C ,  7-C ) :   0.9814 B(  4-N , 11-H ) :   0.8976 B(  4-N , 12-H ) :   0.9038
B(  4-N , 13-H ) :   0.6086 B(  7-C ,  8-H ) :   0.9294 B(  7-C ,  9-H ) :   0.9178
B(  7-C , 10-O ) :   1.2944 B( 10-O , 13-H ) :   0.4522

Dispersion correction           -0.010415622
FINAL SINGLE POINT ENERGY      -249.448968028938

DIPOLE MOMENT
-------------
                                X             Y             Z
Electronic contribution:     -1.54649      -1.58395      -0.87753
Nuclear contribution   :      0.08650       3.01678       2.47433
                        -----------------------------------------
Total Dipole Moment    :     -1.45999       1.43282       1.59680
                        -----------------------------------------
Magnitude (a.u.)       :      2.59506
Magnitude (Debye)      :      6.59612

Rotational constants in cm-1:     0.238796     0.156489     0.106146
Rotational constants in MHz :  7158.916762  4691.413084  3182.185740

                             ****ORCA TERMINATED NORMALLY****
TOTAL RUN TIME: 0 days 0 hours 0 minutes 4 seconds 656 msec
