                         Program Version 5.0.0 -  RELEASE  -
|  1> !PBE D3BJ RIJCOSX def2-SVP def2/J TightSCF
|  2> *xyz 0 1
|  3> C         -0.77894        0.17197        1.80496
|  4> C         -0.60249       -0.63071        0.49224
|  5> H          0.31389       -1.24035        0.60350
|  6> H         -0.36383        0.11332       -0.30117
|  7> F         -1.71206       -1.37684        0.20253
|  8> H         -1.65864        0.77733        1.73736
|  9> H          0.07466        0.79896        1.95712
| 10> H         -0.87474       -0.50584        2.62734
| 11> *
| 12> %MaxCore 64000
| 13>
| 14> %pal nprocs 4
| 15> end
| 16>
| 17> %scf
| 18>   MaxIter 150
| 19> end
| 20>
| 21>
| 22>                          ****END OF INPUT****

CARTESIAN COORDINATES (ANGSTROEM)
---------------------------------
  C     -0.778940    0.171970    1.804960
  C     -0.602490   -0.630710    0.492240
  H      0.313890   -1.240350    0.603500
  H     -0.363830    0.113320   -0.301170
  F     -1.712060   -1.376840    0.202530
  H     -1.658640    0.777330    1.737360
  H      0.074660    0.798960    1.957120
  H     -0.874740   -0.505840    2.627340

 Total Charge           Charge          ....    0
 Multiplicity           Mult            ....    1
 Number of Electrons    NEL             ....   26
 Basis Dimension        Dim             ....   67

ORBITAL ENERGIES
----------------

  NO   OCC          E(Eh)            E(eV)
   0   2.0000     -24.239721      -659.5963
   1   2.0000      -9.965361      -271.1713
   2   2.0000      -9.887877      -269.0628
   3   2.0000      -1.068217       -29.0677
   4   2.0000      -0.679640       -18.4940
   5   2.0000      -0.556339       -15.1388
   6   2.0000      -0.444606       -12.0984
   7   2.0000      -0.431679       -11.7466
   8   2.0000      -0.392570       -10.6824
   9   2.0000      -0.349321        -9.5055
  10   2.0000      -0.344852        -9.3839
  11   2.0000      -0.274768        -7.4768
  12   2.0000      -0.272367        -7.4115
  13   0.0000       0.044298         1.2054
  14   0.0000       0.087396         2.3782
  15   0.0000       0.092930         2.5287
  16   0.0000       0.100725         2.7409
  17   0.0000       0.119380         3.2485

MULLIKEN ATOMIC CHARGES
-----------------------
   0 C :   -0.066829
   1 C :    0.180976
   2 H :    0.013719
   3 H :    0.013584
   4 F :   -0.227754
   5 H :    0.033493
   6 H :    0.020206
   7 H :    0.032605
Sum of atomic charges:   -0.0000000

LOEWDIN ATOMIC CHARGES
----------------------
   0 C :   -0.082224
   1 C :    0.090949
   2 H :    0.009755
   3 H :    0.010236
   4 F :   -0.112393
   5 H :    0.027057
   6 H :    0.030710
   7 H :    0.025911

  Mayer bond orders larger than 0.100000
B(  0-C ,  1-C ) :   1.1035 B(  0-C ,  5-H ) :   0.9676 B(  0-C ,  6-H ) :   0.9550
B(  0-C ,  7-H ) :   0.9692 B(  1-C ,  2-H ) :   0.9481 B(  1-C ,  3-H ) :   0.9486
B(  1-C ,  4-F ) :   1.0387

Dispersion correction           -0.003480356
FINAL SINGLE POINT ENERGY      -178.708423212200

DIPOLE MOMENT
-------------
                                X             Y             Z
Electronic contribution:     -2.81493      -3.35839      -2.86124
Nuclear contribution   :      3.27800       3.70743       3.04146
                        -----------------------------------------
Total Dipole Moment    :      0.46307       0.34904       0.18022
                        -----------------------------------------
Magnitude (a.u.)       :      0.60725
Magnitude (Debye)      :      1.54349

Rotational constants in cm-1:     1.234437     0.305084     0.268865
Rotational constants in MHz : 37007.496448  9146.194083  8060.380630

                             ****ORCA TERMINATED NORMALLY****
TOTAL RUN TIME: 0 days 0 hours 0 minutes 5 seconds 714 msec
