                         Program Version 5.0.0 -  RELEASE  -
|  1> !PBE D3BJ RIJCOSX def2-SVP def2/J TightSCF
|  2> *xyz 0 1
|  3> C         -2.12050        0.88520        1.78951
|  4> C         -0.77894        0.17197        1.80496
|  5> H         -2.32419        1.47265        2.68608
|  6> H         -2.18770        1.54127        0.91948
|  7> C         -3.17690       -0.15948        1.61070
|  8> H         -4.06474        0.23127        1.28675
|  9> H         -3.34407       -0.67151        2.48493
| 10> H         -2.71686       -0.78189        0.93588
| 11> H         -0.65708       -0.37837        0.89547
| 12> H         -0.74207       -0.50050        2.63642
| 13> H          0.00707        0.89251        1.89389
| 14> *
| 15> %MaxCore 64000
| 16>
| 17> %pal nprocs 4
| 18> end
| 19>
| 20> %scf
| 21>   MaxIter 150
| 22> end
| 23>
| 24>
| 25>                          ****END OF INPUT****

CARTESIAN COORDINATES (ANGSTROEM)
---------------------------------
  C     -2.120500    0.885200    1.789510
  C     -0.778940    0.171970    1.804960
  H     -2.324190    1.472650    2.686080
  H     -2.187700    1.541270    0.919480
  C     -3.176900   -0.159480    1.610700
  H     -4.064740    0.231270    1.286750
  H     -3.344070   -0.671510    2.484930
  H     -2.716860   -0.781890    0.935880
  H     -0.657080   -0.378370    0.895470
  H     -0.742070   -0.500500    2.636420
  H      0.007070    0.892510    1.893890

 Total Charge           Charge          ....    0
 Multiplicity           Mult            ....    1
 Number of Electrons    NEL             ....   26
 Basis Dimension        Dim             ....   82

ORBITAL ENERGIES
----------------

  NO   OCC          E(Eh)            E(eV)
   0   2.0000      -9.881294      -268.8837
   1   2.0000      -9.874298      -268.6933
   2   2.0000      -9.856496      -268.2089
   3   2.0000      -0.714394       -19.4397
   4   2.0000      -0.610584       -16.6148
   5   2.0000      -0.517929       -14.0936
   6   2.0000      -0.418678       -11.3928
   7   2.0000      -0.401420       -10.9232
   8   2.0000      -0.351861        -9.5746
   9   2.0000      -0.336471        -9.1558
  10   2.0000      -0.295971        -8.0538
  11   2.0000      -0.288283        -7.8446
  12   2.0000      -0.282885        -7.6977
  13   0.0000       0.044786         1.2187
  14   0.0000       0.088302         2.4028
  15   0.0000       0.090264         2.4562
  16   0.0000       0.099353         2.7035
  17   0.0000       0.122567         3.3352

MULLIKEN ATOMIC CHARGES
-----------------------
   0 C :   -0.095979
   1 C :   -0.018658
   2 H :    0.014960
   3 H :    0.011979
   4 C :    0.062454
   5 H :   -0.005012
   6 H :   -0.004572
   7 H :   -0.012637
   8 H :    0.018145
   9 H :    0.016027
  10 H :    0.013296
Sum of atomic charges:   -0.0000000

LOEWDIN ATOMIC CHARGES
----------------------
   0 C :   -0.043954
   1 C :   -0.059438
   2 H :    0.019312
   3 H :    0.021696
   4 C :   -0.047241
   5 H :    0.013312
   6 H :    0.014806
   7 H :    0.015626
   8 H :    0.022053
   9 H :    0.022259
  10 H :    0.021569

  Mayer bond orders larger than 0.100000
B(  0-C ,  1-C ) :   1.1219 B(  0-C ,  2-H ) :   0.9489 B(  0-C ,  3-H ) :   0.9467
B(  0-C ,  4-C ) :   1.1136 B(  1-C ,  8-H ) :   0.9653 B(  1-C ,  9-H ) :   0.9724
B(  1-C , 10-H ) :   0.9622 B(  4-C ,  5-H ) :   0.9587 B(  4-C ,  6-H ) :   0.9661
B(  4-C ,  7-H ) :   0.9684

Dispersion correction           -0.006236927
FINAL SINGLE POINT ENERGY      -118.849728765297

DIPOLE MOMENT
-------------
                                X             Y             Z
Electronic contribution:     -0.13764       0.45872       0.10971
Nuclear contribution   :      0.13334      -0.45108      -0.10852
                        -----------------------------------------
Total Dipole Moment    :     -0.00430       0.00764       0.00119
                        -----------------------------------------
Magnitude (a.u.)       :      0.00885
Magnitude (Debye)      :      0.02250

Rotational constants in cm-1:     0.972269     0.310387     0.269029
Rotational constants in MHz : 29147.878530  9305.178981  8065.286472

                             ****ORCA TERMINATED NORMALLY****
TOTAL RUN TIME: 0 days 0 hours 0 minutes 6 seconds 162 msec
