                         Program Version 5.0.0 -  RELEASE  -
|  1> !LC-BLYP RIJCOSX def2-SVPD def2/J TightSCF
|  2> *xyz -1 1
|  3> C          4.90646       -3.10282       -5.95484
|  4> C          3.51177       -2.80621       -6.49228
|  5> H          2.73604       -3.37345       -5.97374
|  6> H          3.44490       -3.04083       -7.55528
|  7> S          3.00462       -1.09621       -6.38926
|  8> O          4.12886       -0.32965       -6.95372
|  9> O          1.78128       -1.00078       -7.13640
| 10> C          5.02498       -3.02568       -4.43762
| 11> H          5.20153       -4.10021       -6.29691
| 12> H          5.60592       -2.39782       -6.41337
| 13> O          2.85155       -0.78368       -4.95679
| 14> H          4.73604       -2.05011       -4.10644
| 15> H          6.03776       -3.21492       -4.14890
| 16> H          4.38436       -3.75784       -3.99214
| 17> *
| 18>
| 19> %MaxCore 64000
| 20>
| 21> %pal nprocs 8
| 22> end
| 23>
| 24> %scf
| 25>   MaxIter 150
| 26> end
| 27>
| 28>
| 29>                          ****END OF INPUT****

CARTESIAN COORDINATES (ANGSTROEM)
---------------------------------
  C      4.906460   -3.102820   -5.954840
  C      3.511770   -2.806210   -6.492280
  H      2.736040   -3.373450   -5.973740
  H      3.444900   -3.040830   -7.555280
  S      3.004620   -1.096210   -6.389260
  O      4.128860   -0.329650   -6.953720
  O      1.781280   -1.000780   -7.136400
  C      5.024980   -3.025680   -4.437620
  H      5.201530   -4.100210   -6.296910
  H      5.605920   -2.397820   -6.413370
  O      2.851550   -0.783680   -4.956790
  H      4.736040   -2.050110   -4.106440
  H      6.037760   -3.214920   -4.148900
  H      4.384360   -3.757840   -3.992140

 Total Charge           Charge          ....   -1
 Multiplicity           Mult            ....    1
 Number of Electrons    NEL             ....   66
 Basis Dimension        Dim             ....  212

ORBITAL ENERGIES
----------------

  NO   OCC          E(Eh)            E(eV)
   0   2.0000     -88.312261     -2403.0988
   1   2.0000     -18.745094      -510.0799
   2   2.0000     -18.734030      -509.7789
   3   2.0000     -18.733592      -509.7670
   4   2.0000      -9.956776      -270.9377
   5   2.0000      -9.953419      -270.8463
   6   2.0000      -9.939346      -270.4633
   7   2.0000      -7.861090      -213.9111
   8   2.0000      -5.895442      -160.4231
   9   2.0000      -5.895390      -160.4217
  10   2.0000      -5.894741      -160.4041
  11   2.0000      -1.033663       -28.1274
  12   2.0000      -0.886365       -24.1192
  13   2.0000      -0.866187       -23.5701
  14   2.0000      -0.767623       -20.8881
  15   2.0000      -0.677588       -18.4381
  16   2.0000      -0.579975       -15.7819
  17   2.0000      -0.491686       -13.3794
  18   2.0000      -0.442094       -12.0300
  19   2.0000      -0.432335       -11.7644
  20   2.0000      -0.402700       -10.9580
  21   2.0000      -0.388350       -10.5675
  22   2.0000      -0.369755       -10.0615
  23   2.0000      -0.360123        -9.7995
  24   2.0000      -0.326105        -8.8738
  25   2.0000      -0.317605        -8.6425
  26   2.0000      -0.304914        -8.2971
  27   2.0000      -0.258065        -7.0223
  28   2.0000      -0.257409        -7.0044
  29   2.0000      -0.219089        -5.9617
  30   2.0000      -0.209473        -5.7001
  31   2.0000      -0.204666        -5.5692
  32   2.0000      -0.166612        -4.5337
  33   0.0000       0.185481         5.0472
  34   0.0000       0.206331         5.6146
  35   0.0000       0.209412         5.6984
  36   0.0000       0.219859         5.9827
  37   0.0000       0.236586         6.4378

MULLIKEN ATOMIC CHARGES
-----------------------
   0 C :   -0.035197
   1 C :    0.149043
   2 H :   -0.103937
   3 H :   -0.121928
   4 S :    1.115781
   5 O :   -0.756527
   6 O :   -0.712321
   7 C :    1.070288
   8 H :   -0.230567
   9 H :   -0.097961
  10 O :   -0.765568
  11 H :   -0.270842
  12 H :   -0.152561
  13 H :   -0.087703
Sum of atomic charges:   -1.0000000

LOEWDIN ATOMIC CHARGES
----------------------
   0 C :   -0.101461
   1 C :   -0.111643
   2 H :    0.016479
   3 H :    0.011466
   4 S :    0.807569
   5 O :   -0.567808
   6 O :   -0.551993
   7 C :    0.108940
   8 H :    0.012707
   9 H :    0.019123
  10 O :   -0.565891
  11 H :   -0.033375
  12 H :   -0.026719
  13 H :   -0.017391

  Mayer bond orders larger than 0.100000
B(  0-C ,  1-C ) :   1.2161 B(  0-C ,  2-H ) :   0.1180 B(  0-C ,  3-H ) :   0.1418
B(  0-C ,  7-C ) :   1.2304 B(  0-C ,  8-H ) :   0.8444 B(  0-C ,  9-H ) :   0.8705
B(  0-C , 11-H ) :   0.2809 B(  0-C , 12-H ) :   0.2555 B(  0-C , 13-H ) :   0.2383
B(  1-C ,  2-H ) :   0.9031 B(  1-C ,  3-H ) :   0.9153 B(  1-C ,  4-S ) :   0.9218
B(  1-C ,  8-H ) :   0.1483 B(  1-C ,  9-H ) :   0.1600 B(  4-S ,  5-O ) :   1.3119
B(  4-S ,  6-O ) :   1.4189 B(  4-S , 10-O ) :   1.3056 B(  7-C ,  9-H ) :   0.1037
B(  7-C , 11-H ) :   0.7133 B(  7-C , 12-H ) :   0.6667 B(  7-C , 13-H ) :   0.6790
B( 11-H , 13-H ) :   0.1211

FINAL SINGLE POINT ENERGY      -741.115026289121

DIPOLE MOMENT
-------------
                                X             Y             Z
Electronic contribution:     -6.16007       7.82450      -3.68674
Nuclear contribution   :      7.19636      -9.97366       3.94889
                        -----------------------------------------
Total Dipole Moment    :      1.03630      -2.14915       0.26215
                        -----------------------------------------
Magnitude (a.u.)       :      2.40031
Magnitude (Debye)      :      6.10110

Rotational constants in cm-1:     0.137066     0.054570     0.051980
Rotational constants in MHz :  4109.139955  1635.961703  1558.315282

                             ****ORCA TERMINATED NORMALLY****
TOTAL RUN TIME: 0 days 0 hours 0 minutes 17 seconds 581 msec
