                         Program Version 5.0.0 -  RELEASE  -
|  1> !LC-BLYP RIJCOSX def2-SVPD def2/J TightSCF
|  2> *xyz 1 1
|  3> C          4.49059        1.15590       -2.46929
|  4> N          4.30539        1.22276       -3.90832
|  5> C          4.63192        2.24637       -4.67096
|  6> N          4.54169        2.14399       -5.98714
|  7> N          5.08409        3.39358       -4.11855
|  8> H          4.92067        3.57050       -3.13587
|  9> H          5.25465        4.19739       -4.70696
| 10> H          3.82453        0.44911       -4.35093
| 11> H          4.34337        1.24932       -6.41665
| 12> H          4.67671        2.95662       -6.57411
| 13> C          5.94213        0.93950       -2.03689
| 14> H          3.86431        0.32853       -2.13661
| 15> H          4.07623        2.04999       -1.98901
| 16> C          6.55996       -0.35629       -2.55909
| 17> H          5.96798        0.95257       -0.94244
| 18> H          6.54718        1.78833       -2.36885
| 19> H          6.53022       -0.35990       -3.62867
| 20> H          6.00654       -1.19175       -2.18407
| 21> H          7.57588       -0.42487       -2.23029
| 22> *
| 23>
| 24> %MaxCore 64000
| 25>
| 26> %pal nprocs 8
| 27> end
| 28>
| 29> %scf
| 30>   MaxIter 150
| 31> end
| 32>
| 33>
| 34>                          ****END OF INPUT****

CARTESIAN COORDINATES (ANGSTROEM)
---------------------------------
  C      4.490590    1.155900   -2.469290
  N      4.305390    1.222760   -3.908320
  C      4.631920    2.246370   -4.670960
  N      4.541690    2.143990   -5.987140
  N      5.084090    3.393580   -4.118550
  H      4.920670    3.570500   -3.135870
  H      5.254650    4.197390   -4.706960
  H      3.824530    0.449110   -4.350930
  H      4.343370    1.249320   -6.416650
  H      4.676710    2.956620   -6.574110
  C      5.942130    0.939500   -2.036890
  H      3.864310    0.328530   -2.136610
  H      4.076230    2.049990   -1.989010
  C      6.559960   -0.356290   -2.559090
  H      5.967980    0.952570   -0.942440
  H      6.547180    1.788330   -2.368850
  H      6.530220   -0.359900   -3.628670
  H      6.006540   -1.191750   -2.184070
  H      7.575880   -0.424870   -2.230290

 Total Charge           Charge          ....    1
 Multiplicity           Mult            ....    1
 Number of Electrons    NEL             ....   56
 Basis Dimension        Dim             ....  236

ORBITAL ENERGIES
----------------

  NO   OCC          E(Eh)            E(eV)
   0   2.0000     -14.411389      -392.1538
   1   2.0000     -14.410986      -392.1429
   2   2.0000     -14.408379      -392.0719
   3   2.0000     -10.422431      -283.6088
   4   2.0000     -10.286756      -279.9169
   5   2.0000     -10.225349      -278.2459
   6   2.0000     -10.195516      -277.4341
   7   2.0000      -1.309385       -35.6302
   8   2.0000      -1.199379       -32.6368
   9   2.0000      -1.182928       -32.1891
  10   2.0000      -1.042505       -28.3680
  11   2.0000      -0.967733       -26.3334
  12   2.0000      -0.925649       -25.1882
  13   2.0000      -0.895063       -24.3559
  14   2.0000      -0.870147       -23.6779
  15   2.0000      -0.826506       -22.4904
  16   2.0000      -0.794463       -21.6184
  17   2.0000      -0.789444       -21.4819
  18   2.0000      -0.767342       -20.8804
  19   2.0000      -0.733481       -19.9590
  20   2.0000      -0.703782       -19.1509
  21   2.0000      -0.680903       -18.5283
  22   2.0000      -0.648768       -17.6539
  23   2.0000      -0.602904       -16.4059
  24   2.0000      -0.584807       -15.9134
  25   2.0000      -0.583505       -15.8780
  26   2.0000      -0.567276       -15.4364
  27   2.0000      -0.542762       -14.7693
  28   0.0000      -0.093942        -2.5563
  29   0.0000      -0.090446        -2.4612
  30   0.0000      -0.061986        -1.6867
  31   0.0000      -0.053635        -1.4595
  32   0.0000      -0.027741        -0.7549

MULLIKEN ATOMIC CHARGES
-----------------------
   0 C :    0.796978
   1 N :   -0.384457
   2 C :    1.065307
   3 N :    0.166032
   4 N :    0.208248
   5 H :   -0.051840
   6 H :   -0.210721
   7 H :   -0.156429
   8 H :   -0.092952
   9 H :   -0.085246
  10 C :   -0.143975
  11 H :   -0.379724
  12 H :   -0.106496
  13 C :    0.963255
  14 H :   -0.201764
  15 H :   -0.053197
  16 H :   -0.172148
  17 H :   -0.015773
  18 H :   -0.145096
Sum of atomic charges:    1.0000000

LOEWDIN ATOMIC CHARGES
----------------------
   0 C :    0.050248
   1 N :    0.059092
   2 C :   -0.058193
   3 N :    0.272191
   4 N :    0.292681
   5 H :    0.016572
   6 H :    0.036418
   7 H :    0.065796
   8 H :    0.042665
   9 H :    0.041744
  10 C :   -0.066318
  11 H :    0.048440
  12 H :    0.033720
  13 C :    0.126320
  14 H :    0.043040
  15 H :    0.018440
  16 H :   -0.020820
  17 H :   -0.003298
  18 H :    0.001262

  Mayer bond orders larger than 0.100000
B(  0-C ,  1-N ) :   0.9898 B(  0-C ,  2-C ) :  -0.1289 B(  0-C ,  7-H ) :  -0.1632
B(  0-C , 10-C ) :   1.1312 B(  0-C , 11-H ) :   0.6764 B(  0-C , 12-H ) :   0.8825
B(  0-C , 15-H ) :   0.1303 B(  1-N ,  2-C ) :   1.0497 B(  1-N ,  3-N ) :   0.3158
B(  1-N ,  4-N ) :   0.2775 B(  1-N ,  7-H ) :   1.2568 B(  1-N ,  9-H ) :  -0.1172
B(  1-N , 11-H ) :   0.2649 B(  2-C ,  3-N ) :   0.9182 B(  2-C ,  4-N ) :   1.0133
B(  2-C ,  5-H ) :  -0.1282 B(  2-C ,  6-H ) :  -0.1608 B(  2-C ,  7-H ) :  -0.2534
B(  2-C ,  8-H ) :  -0.2006 B(  2-C ,  9-H ) :  -0.1331 B(  3-N ,  4-N ) :   0.1446
B(  3-N ,  8-H ) :   1.2118 B(  3-N ,  9-H ) :   1.2327 B(  4-N ,  5-H ) :   1.0912
B(  4-N ,  6-H ) :   1.2664 B(  5-H ,  6-H ) :  -0.2188 B(  8-H ,  9-H ) :  -0.1909
B( 10-C , 11-H ) :   0.1292 B( 10-C , 13-C ) :   1.3200 B( 10-C , 14-H ) :   0.9864
B( 10-C , 15-H ) :   0.8542 B( 10-C , 16-H ) :   0.2266 B( 10-C , 17-H ) :   0.2202
B( 10-C , 18-H ) :   0.2634 B( 11-H , 12-H ) :  -0.1438 B( 13-C , 16-H ) :   0.7579
B( 13-C , 17-H ) :   0.7348 B( 13-C , 18-H ) :   0.7254

FINAL SINGLE POINT ENERGY      -322.652586456960

DIPOLE MOMENT
-------------
                                X             Y             Z
Electronic contribution:     -3.26784       3.79466      -4.83148
Nuclear contribution   :      2.46011      -2.82418       3.51638
                        -----------------------------------------
Total Dipole Moment    :     -0.80773       0.97048      -1.31510
                        -----------------------------------------
Magnitude (a.u.)       :      1.82311
Magnitude (Debye)      :      4.63399

Rotational constants in cm-1:     0.152406     0.050160     0.046480
Rotational constants in MHz :  4569.006375  1503.763011  1393.441650

                             ****ORCA TERMINATED NORMALLY****
TOTAL RUN TIME: 0 days 0 hours 0 minutes 19 seconds 921 msec
