                         Program Version 5.0.0 -  RELEASE  -
|  1> !LC-BLYP RIJCOSX def2-SVPD def2/J TightSCF
|  2> *xyz 0 1
|  3> C          4.90646       -3.10282       -5.95484
|  4> C          3.51177       -2.80621       -6.49228
|  5> H          2.73604       -3.37345       -5.97374
|  6> H          3.44490       -3.04083       -7.55528
|  7> S          3.00462       -1.09621       -6.38926
|  8> F          4.12886       -0.32965       -6.95372
|  9> O          1.78128       -1.00078       -7.13640
| 10> C          5.02498       -3.02568       -4.43762
| 11> H          5.20153       -4.10021       -6.29691
| 12> H          5.60592       -2.39782       -6.41337
| 13> O          2.85155       -0.78368       -4.95679
| 14> H          4.73604       -2.05011       -4.10644
| 15> H          6.03776       -3.21492       -4.14890
| 16> H          4.38436       -3.75784       -3.99214
| 17> *
| 18>
| 19> %MaxCore 64000
| 20>
| 21> %pal nprocs 8
| 22> end
| 23>
| 24> %scf
| 25>   MaxIter 150
| 26> end
| 27>
| 28>
| 29>                          ****END OF INPUT****

CARTESIAN COORDINATES (ANGSTROEM)
---------------------------------
  C      4.906460   -3.102820   -5.954840
  C      3.511770   -2.806210   -6.492280
  H      2.736040   -3.373450   -5.973740
  H      3.444900   -3.040830   -7.555280
  S      3.004620   -1.096210   -6.389260
  F      4.128860   -0.329650   -6.953720
  O      1.781280   -1.000780   -7.136400
  C      5.024980   -3.025680   -4.437620
  H      5.201530   -4.100210   -6.296910
  H      5.605920   -2.397820   -6.413370
  O      2.851550   -0.783680   -4.956790
  H      4.736040   -2.050110   -4.106440
  H      6.037760   -3.214920   -4.148900
  H      4.384360   -3.757840   -3.992140

 Total Charge           Charge          ....    0
 Multiplicity           Mult            ....    1
 Number of Electrons    NEL             ....   66
 Basis Dimension        Dim             ....  212

ORBITAL ENERGIES
----------------

  NO   OCC          E(Eh)            E(eV)
   0   2.0000     -88.565684     -2409.9948
   1   2.0000     -24.581771      -668.9040
   2   2.0000     -18.975271      -516.3434
   3   2.0000     -18.963312      -516.0180
   4   2.0000     -10.151165      -276.2272
   5   2.0000     -10.120256      -275.3862
   6   2.0000     -10.082880      -274.3691
   7   2.0000      -8.115321      -220.8291
   8   2.0000      -6.154169      -167.4634
   9   2.0000      -6.147453      -167.2807
  10   2.0000      -6.145832      -167.2366
  11   2.0000      -1.436961       -39.1017
  12   2.0000      -1.211337       -32.9621
  13   2.0000      -1.106969       -30.1221
  14   2.0000      -0.948149       -25.8004
  15   2.0000      -0.861889       -23.4532
  16   2.0000      -0.808319       -21.9955
  17   2.0000      -0.744423       -20.2568
  18   2.0000      -0.695613       -18.9286
  19   2.0000      -0.677646       -18.4397
  20   2.0000      -0.649582       -17.6760
  21   2.0000      -0.601159       -16.3584
  22   2.0000      -0.595877       -16.2146
  23   2.0000      -0.567932       -15.4542
  24   2.0000      -0.549553       -14.9541
  25   2.0000      -0.541969       -14.7477
  26   2.0000      -0.497506       -13.5378
  27   2.0000      -0.486264       -13.2319
  28   2.0000      -0.481040       -13.0898
  29   2.0000      -0.466184       -12.6855
  30   2.0000      -0.438732       -11.9385
  31   2.0000      -0.424136       -11.5413
  32   2.0000      -0.411518       -11.1980
  33   0.0000       0.046174         1.2565
  34   0.0000       0.073610         2.0030
  35   0.0000       0.077782         2.1165
  36   0.0000       0.079660         2.1677
  37   0.0000       0.102690         2.7943

MULLIKEN ATOMIC CHARGES
-----------------------
   0 C :    0.012867
   1 C :    0.134161
   2 H :   -0.061367
   3 H :   -0.084668
   4 S :    1.273101
   5 F :   -0.362640
   6 O :   -0.566709
   7 C :    1.102209
   8 H :   -0.212756
   9 H :   -0.118066
  10 O :   -0.628114
  11 H :   -0.287364
  12 H :   -0.129907
  13 H :   -0.070747
Sum of atomic charges:    0.0000000

LOEWDIN ATOMIC CHARGES
----------------------
   0 C :   -0.086849
   1 C :   -0.066028
   2 H :    0.046853
   3 H :    0.030168
   4 S :    1.067138
   5 F :   -0.248757
   6 O :   -0.439410
   7 C :    0.128377
   8 H :    0.036506
   9 H :    0.027646
  10 O :   -0.455695
  11 H :   -0.031330
  12 H :   -0.006645
  13 H :   -0.001973

  Mayer bond orders larger than 0.100000
B(  0-C ,  1-C ) :   1.2019 B(  0-C ,  2-H ) :   0.1107 B(  0-C ,  3-H ) :   0.1322
B(  0-C ,  7-C ) :   1.2579 B(  0-C ,  8-H ) :   0.8482 B(  0-C ,  9-H ) :   0.8514
B(  0-C , 11-H ) :   0.2739 B(  0-C , 12-H ) :   0.2463 B(  0-C , 13-H ) :   0.2390
B(  1-C ,  2-H ) :   0.9041 B(  1-C ,  3-H ) :   0.9249 B(  1-C ,  4-S ) :   0.9839
B(  1-C ,  8-H ) :   0.1374 B(  1-C ,  9-H ) :   0.1442 B(  4-S ,  5-F ) :   0.6971
B(  4-S ,  6-O ) :   1.6332 B(  4-S , 10-O ) :   1.5289 B(  7-C ,  9-H ) :   0.1008
B(  7-C , 11-H ) :   0.7098 B(  7-C , 12-H ) :   0.6728 B(  7-C , 13-H ) :   0.6768
B( 11-H , 13-H ) :   0.1210

FINAL SINGLE POINT ENERGY      -765.595631268710

DIPOLE MOMENT
-------------
                                X             Y             Z
Electronic contribution:     -5.26377      10.13753      -5.32116
Nuclear contribution   :      6.51452     -11.35172       4.86721
                        -----------------------------------------
Total Dipole Moment    :      1.25075      -1.21419      -0.45395
                        -----------------------------------------
Magnitude (a.u.)       :      1.80131
Magnitude (Debye)      :      4.57856

Rotational constants in cm-1:     0.130386     0.053203     0.051661
Rotational constants in MHz :  3908.886819  1594.983443  1548.763987

                             ****ORCA TERMINATED NORMALLY****
TOTAL RUN TIME: 0 days 0 hours 0 minutes 16 seconds 668 msec
