                         Program Version 5.0.0 -  RELEASE  -
|  1> !LC-BLYP RIJCOSX def2-SVPD def2/J TightSCF
|  2> *xyz 0 1
|  3> C          4.49059        1.15590       -2.46929
|  4> C          4.30539        1.22276       -3.90832
|  5> C          4.63192        2.24637       -4.67096
|  6> N          4.54169        2.14399       -5.98714
|  7> N          5.08409        3.39358       -4.11855
|  8> H          4.92067        3.57050       -3.13587
|  9> H          5.25465        4.19739       -4.70696
| 10> H          3.82453        0.44911       -4.35093
| 11> H          4.34337        1.24932       -6.41665
| 12> H          4.67671        2.95662       -6.57411
| 13> C          5.94213        0.93950       -2.03689
| 14> H          3.86431        0.32853       -2.13661
| 15> H          4.07623        2.04999       -1.98901
| 16> C          6.55996       -0.35629       -2.55909
| 17> H          5.96798        0.95257       -0.94244
| 18> H          6.54718        1.78833       -2.36885
| 19> H          6.53022       -0.35990       -3.62867
| 20> H          6.00654       -1.19175       -2.18407
| 21> H          7.57588       -0.42487       -2.23029
| 22> *
| 23>
| 24> %MaxCore 64000
| 25>
| 26> %pal nprocs 8
| 27> end
| 28>
| 29> %scf
| 30>   MaxIter 150
| 31> end
| 32>
| 33>
| 34>                          ****END OF INPUT****

CARTESIAN COORDINATES (ANGSTROEM)
---------------------------------
  C      4.490590    1.155900   -2.469290
  C      4.305390    1.222760   -3.908320
  C      4.631920    2.246370   -4.670960
  N      4.541690    2.143990   -5.987140
  N      5.084090    3.393580   -4.118550
  H      4.920670    3.570500   -3.135870
  H      5.254650    4.197390   -4.706960
  H      3.824530    0.449110   -4.350930
  H      4.343370    1.249320   -6.416650
  H      4.676710    2.956620   -6.574110
  C      5.942130    0.939500   -2.036890
  H      3.864310    0.328530   -2.136610
  H      4.076230    2.049990   -1.989010
  C      6.559960   -0.356290   -2.559090
  H      5.967980    0.952570   -0.942440
  H      6.547180    1.788330   -2.368850
  H      6.530220   -0.359900   -3.628670
  H      6.006540   -1.191750   -2.184070
  H      7.575880   -0.424870   -2.230290

 Total Charge           Charge          ....    0
 Multiplicity           Mult            ....    1
 Number of Electrons    NEL             ....   56
 Basis Dimension        Dim             ....  236

ORBITAL ENERGIES
----------------

  NO   OCC          E(Eh)            E(eV)
   0   2.0000     -14.190177      -386.1344
   1   2.0000     -14.187903      -386.0725
   2   2.0000     -10.130644      -275.6688
   3   2.0000     -10.059289      -273.7272
   4   2.0000     -10.057391      -273.6755
   5   2.0000     -10.048913      -273.4448
   6   2.0000     -10.007418      -272.3157
   7   2.0000      -1.054808       -28.7028
   8   2.0000      -0.963373       -26.2147
   9   2.0000      -0.887509       -24.1504
  10   2.0000      -0.822943       -22.3934
  11   2.0000      -0.760568       -20.6961
  12   2.0000      -0.699574       -19.0364
  13   2.0000      -0.674321       -18.3492
  14   2.0000      -0.647876       -17.6296
  15   2.0000      -0.606655       -16.5079
  16   2.0000      -0.577112       -15.7040
  17   2.0000      -0.549206       -14.9447
  18   2.0000      -0.538130       -14.6433
  19   2.0000      -0.516716       -14.0605
  20   2.0000      -0.495662       -13.4876
  21   2.0000      -0.469959       -12.7882
  22   2.0000      -0.458717       -12.4823
  23   2.0000      -0.427923       -11.6444
  24   2.0000      -0.408045       -11.1035
  25   2.0000      -0.405946       -11.0464
  26   2.0000      -0.365252        -9.9390
  27   2.0000      -0.255177        -6.9437
  28   0.0000       0.069580         1.8934
  29   0.0000       0.093433         2.5424
  30   0.0000       0.098193         2.6720
  31   0.0000       0.111826         3.0429
  32   0.0000       0.122632         3.3370

MULLIKEN ATOMIC CHARGES
-----------------------
   0 C :    0.362221
   1 C :   -0.196534
   2 C :    0.776507
   3 N :    0.192966
   4 N :    0.170259
   5 H :   -0.068006
   6 H :   -0.299921
   7 H :   -0.566365
   8 H :   -0.075012
   9 H :   -0.208268
  10 C :   -0.190792
  11 H :   -0.070097
  12 H :   -0.156398
  13 C :    0.995480
  14 H :   -0.185185
  15 H :   -0.134387
  16 H :   -0.168381
  17 H :   -0.039468
  18 H :   -0.138618
Sum of atomic charges:   -0.0000000

LOEWDIN ATOMIC CHARGES
----------------------
   0 C :   -0.079268
   1 C :   -0.045939
   2 C :   -0.234132
   3 N :    0.188692
   4 N :    0.217215
   5 H :   -0.013802
   6 H :   -0.012539
   7 H :   -0.043553
   8 H :    0.008572
   9 H :   -0.009129
  10 C :   -0.091478
  11 H :    0.023052
  12 H :    0.010790
  13 C :    0.107587
  14 H :    0.018289
  15 H :    0.011885
  16 H :   -0.021949
  17 H :   -0.015359
  18 H :   -0.018932

  Mayer bond orders larger than 0.100000
B(  0-C ,  1-C ) :   1.1846 B(  0-C ,  7-H ) :   0.3177 B(  0-C , 10-C ) :   1.1493
B(  0-C , 11-H ) :   0.6301 B(  0-C , 12-H ) :   0.8597 B(  0-C , 14-H ) :   0.1434
B(  0-C , 15-H ) :   0.1553 B(  1-C ,  2-C ) :   1.5977 B(  1-C ,  3-N ) :   0.4113
B(  1-C ,  4-N ) :   0.2984 B(  1-C ,  7-H ) :   0.7879 B(  1-C , 11-H ) :   0.3955
B(  1-C , 12-H ) :   0.1777 B(  2-C ,  3-N ) :   0.9026 B(  2-C ,  4-N ) :   0.9822
B(  2-C ,  6-H ) :  -0.1619 B(  2-C ,  8-H ) :  -0.1120 B(  3-N ,  4-N ) :   0.1041
B(  3-N ,  7-H ) :   0.1008 B(  3-N ,  8-H ) :   1.1860 B(  3-N ,  9-H ) :   1.2310
B(  4-N ,  5-H ) :   1.0768 B(  4-N ,  6-H ) :   1.3039 B(  5-H ,  6-H ) :  -0.2013
B(  7-H , 11-H ) :  -0.1133 B(  8-H ,  9-H ) :  -0.1818 B( 10-C , 11-H ) :   0.1335
B( 10-C , 13-C ) :   1.3204 B( 10-C , 14-H ) :   0.9121 B( 10-C , 15-H ) :   0.8816
B( 10-C , 16-H ) :   0.2709 B( 10-C , 17-H ) :   0.2549 B( 10-C , 18-H ) :   0.2883
B( 13-C , 16-H ) :   0.7394 B( 13-C , 17-H ) :   0.7176 B( 13-C , 18-H ) :   0.6663

FINAL SINGLE POINT ENERGY      -306.186323243197

DIPOLE MOMENT
-------------
                                X             Y             Z
Electronic contribution:     -2.33344       3.66001      -4.15490
Nuclear contribution   :      2.29046      -2.89565       3.47129
                        -----------------------------------------
Total Dipole Moment    :     -0.04298       0.76436      -0.68361
                        -----------------------------------------
Magnitude (a.u.)       :      1.02636
Magnitude (Debye)      :      2.60880

Rotational constants in cm-1:     0.154384     0.050352     0.046525
Rotational constants in MHz :  4628.320816  1509.522910  1394.780903

                             ****ORCA TERMINATED NORMALLY****
TOTAL RUN TIME: 0 days 0 hours 0 minutes 22 seconds 592 msec
