                         Program Version 5.0.0 -  RELEASE  -
|  1> !LC-BLYP RIJCOSX def2-SVPD def2/J TightSCF
|  2> *xyz 0 1
|  3> C          4.90646       -3.10282       -5.95484
|  4> C          3.51177       -2.80621       -6.49228
|  5> H          2.73604       -3.37345       -5.97374
|  6> H          3.44490       -3.04083       -7.55528
|  7> S          3.00462       -1.09621       -6.38926
|  8> O          4.12886       -0.32965       -6.95372
|  9> F          1.78128       -1.00078       -7.13640
| 10> C          5.02498       -3.02568       -4.43762
| 11> H          5.20153       -4.10021       -6.29691
| 12> H          5.60592       -2.39782       -6.41337
| 13> O          2.85155       -0.78368       -4.95679
| 14> H          4.73604       -2.05011       -4.10644
| 15> H          6.03776       -3.21492       -4.14890
| 16> H          4.38436       -3.75784       -3.99214
| 17> *
| 18>
| 19> %MaxCore 64000
| 20>
| 21> %pal nprocs 8
| 22> end
| 23>
| 24> %scf
| 25>   MaxIter 150
| 26> end
| 27>
| 28>
| 29>                          ****END OF INPUT****

CARTESIAN COORDINATES (ANGSTROEM)
---------------------------------
  C      4.906460   -3.102820   -5.954840
  C      3.511770   -2.806210   -6.492280
  H      2.736040   -3.373450   -5.973740
  H      3.444900   -3.040830   -7.555280
  S      3.004620   -1.096210   -6.389260
  O      4.128860   -0.329650   -6.953720
  F      1.781280   -1.000780   -7.136400
  C      5.024980   -3.025680   -4.437620
  H      5.201530   -4.100210   -6.296910
  H      5.605920   -2.397820   -6.413370
  O      2.851550   -0.783680   -4.956790
  H      4.736040   -2.050110   -4.106440
  H      6.037760   -3.214920   -4.148900
  H      4.384360   -3.757840   -3.992140

 Total Charge           Charge          ....    0
 Multiplicity           Mult            ....    1
 Number of Electrons    NEL             ....   66
 Basis Dimension        Dim             ....  212

ORBITAL ENERGIES
----------------

  NO   OCC          E(Eh)            E(eV)
   0   2.0000     -88.567620     -2410.0475
   1   2.0000     -24.599775      -669.3939
   2   2.0000     -18.963906      -516.0341
   3   2.0000     -18.963836      -516.0322
   4   2.0000     -10.152188      -276.2551
   5   2.0000     -10.114979      -275.2426
   6   2.0000     -10.077608      -274.2257
   7   2.0000      -8.117381      -220.8852
   8   2.0000      -6.156268      -167.5206
   9   2.0000      -6.149346      -167.3322
  10   2.0000      -6.147792      -167.2899
  11   2.0000      -1.467347       -39.9285
  12   2.0000      -1.199528       -32.6408
  13   2.0000      -1.093486       -29.7553
  14   2.0000      -0.944075       -25.6896
  15   2.0000      -0.868179       -23.6243
  16   2.0000      -0.816439       -22.2164
  17   2.0000      -0.745829       -20.2950
  18   2.0000      -0.699837       -19.0435
  19   2.0000      -0.689824       -18.7711
  20   2.0000      -0.664132       -18.0719
  21   2.0000      -0.601462       -16.3666
  22   2.0000      -0.596430       -16.2297
  23   2.0000      -0.561386       -15.2761
  24   2.0000      -0.547000       -14.8846
  25   2.0000      -0.532694       -14.4953
  26   2.0000      -0.491285       -13.3685
  27   2.0000      -0.476238       -12.9591
  28   2.0000      -0.475327       -12.9343
  29   2.0000      -0.460274       -12.5247
  30   2.0000      -0.429954       -11.6997
  31   2.0000      -0.419944       -11.4273
  32   2.0000      -0.403518       -10.9803
  33   0.0000       0.045999         1.2517
  34   0.0000       0.070100         1.9075
  35   0.0000       0.077735         2.1153
  36   0.0000       0.082421         2.2428
  37   0.0000       0.105886         2.8813

MULLIKEN ATOMIC CHARGES
-----------------------
   0 C :   -0.024089
   1 C :    0.108576
   2 H :   -0.050476
   3 H :   -0.064954
   4 S :    1.315035
   5 O :   -0.606465
   6 F :   -0.364664
   7 C :    1.094628
   8 H :   -0.204684
   9 H :   -0.087346
  10 O :   -0.625709
  11 H :   -0.284565
  12 H :   -0.129723
  13 H :   -0.075563
Sum of atomic charges:    0.0000000

LOEWDIN ATOMIC CHARGES
----------------------
   0 C :   -0.072373
   1 C :   -0.077206
   2 H :    0.033632
   3 H :    0.027933
   4 S :    1.073130
   5 O :   -0.457968
   6 F :   -0.233644
   7 C :    0.131045
   8 H :    0.038736
   9 H :    0.032964
  10 O :   -0.458928
  11 H :   -0.026909
  12 H :   -0.005852
  13 H :   -0.004561

  Mayer bond orders larger than 0.100000
B(  0-C ,  1-C ) :   1.2503 B(  0-C ,  2-H ) :   0.1129 B(  0-C ,  3-H ) :   0.1470
B(  0-C ,  7-C ) :   1.2485 B(  0-C ,  8-H ) :   0.8471 B(  0-C ,  9-H ) :   0.8662
B(  0-C , 11-H ) :   0.2681 B(  0-C , 12-H ) :   0.2485 B(  0-C , 13-H ) :   0.2335
B(  1-C ,  2-H ) :   0.9037 B(  1-C ,  3-H ) :   0.8802 B(  1-C ,  4-S ) :   0.9508
B(  1-C ,  8-H ) :   0.1460 B(  1-C ,  9-H ) :   0.1542 B(  4-S ,  5-O ) :   1.5218
B(  4-S ,  6-F ) :   0.7692 B(  4-S , 10-O ) :   1.5008 B(  7-C ,  9-H ) :   0.1007
B(  7-C , 11-H ) :   0.7140 B(  7-C , 12-H ) :   0.6706 B(  7-C , 13-H ) :   0.6744
B( 11-H , 13-H ) :   0.1227

FINAL SINGLE POINT ENERGY      -765.580556573453

DIPOLE MOMENT
-------------
                                X             Y             Z
Electronic contribution:     -9.32602       9.00798      -5.65109
Nuclear contribution   :      9.03920     -10.62996       5.06367
                        -----------------------------------------
Total Dipole Moment    :     -0.28681      -1.62198      -0.58742
                        -----------------------------------------
Magnitude (a.u.)       :      1.74876
Magnitude (Debye)      :      4.44498

Rotational constants in cm-1:     0.135071     0.052485     0.050188
Rotational constants in MHz :  4049.321380  1573.451279  1504.609887

                             ****ORCA TERMINATED NORMALLY****
TOTAL RUN TIME: 0 days 0 hours 0 minutes 16 seconds 756 msec
