                         Program Version 5.0.0 -  RELEASE  -
|  1> !LC-BLYP RIJCOSX def2-SVPD def2/J TightSCF
|  2> *xyz 0 1
|  3> C          4.49059        1.15590       -2.46929
|  4> N          4.30539        1.22276       -3.90832
|  5> C          4.63192        2.24637       -4.67096
|  6> C          4.54169        2.14399       -5.98714
|  7> N          5.08409        3.39358       -4.11855
|  8> H          4.92067        3.57050       -3.13587
|  9> H          5.25465        4.19739       -4.70696
| 10> H          3.82453        0.44911       -4.35093
| 11> H          4.34337        1.24932       -6.41665
| 12> H          4.67671        2.95662       -6.57411
| 13> C          5.94213        0.93950       -2.03689
| 14> H          3.86431        0.32853       -2.13661
| 15> H          4.07623        2.04999       -1.98901
| 16> C          6.55996       -0.35629       -2.55909
| 17> H          5.96798        0.95257       -0.94244
| 18> H          6.54718        1.78833       -2.36885
| 19> H          6.53022       -0.35990       -3.62867
| 20> H          6.00654       -1.19175       -2.18407
| 21> H          7.57588       -0.42487       -2.23029
| 22> *
| 23>
| 24> %MaxCore 64000
| 25>
| 26> %pal nprocs 8
| 27> end
| 28>
| 29> %scf
| 30>   MaxIter 150
| 31> end
| 32>
| 33>
| 34>                          ****END OF INPUT****

CARTESIAN COORDINATES (ANGSTROEM)
---------------------------------
  C      4.490590    1.155900   -2.469290
  N      4.305390    1.222760   -3.908320
  C      4.631920    2.246370   -4.670960
  C      4.541690    2.143990   -5.987140
  N      5.084090    3.393580   -4.118550
  H      4.920670    3.570500   -3.135870
  H      5.254650    4.197390   -4.706960
  H      3.824530    0.449110   -4.350930
  H      4.343370    1.249320   -6.416650
  H      4.676710    2.956620   -6.574110
  C      5.942130    0.939500   -2.036890
  H      3.864310    0.328530   -2.136610
  H      4.076230    2.049990   -1.989010
  C      6.559960   -0.356290   -2.559090
  H      5.967980    0.952570   -0.942440
  H      6.547180    1.788330   -2.368850
  H      6.530220   -0.359900   -3.628670
  H      6.006540   -1.191750   -2.184070
  H      7.575880   -0.424870   -2.230290

 Total Charge           Charge          ....    0
 Multiplicity           Mult            ....    1
 Number of Electrons    NEL             ....   56
 Basis Dimension        Dim             ....  236

ORBITAL ENERGIES
----------------

  NO   OCC          E(Eh)            E(eV)
   0   2.0000     -14.188071      -386.0770
   1   2.0000     -14.187443      -386.0600
   2   2.0000     -10.132420      -275.7172
   3   2.0000     -10.122993      -275.4606
   4   2.0000     -10.083002      -274.3724
   5   2.0000     -10.068349      -273.9737
   6   2.0000      -9.996387      -272.0155
   7   2.0000      -1.063219       -28.9317
   8   2.0000      -0.975686       -26.5498
   9   2.0000      -0.891220       -24.2513
  10   2.0000      -0.827591       -22.5199
  11   2.0000      -0.771043       -20.9811
  12   2.0000      -0.718810       -19.5598
  13   2.0000      -0.688210       -18.7271
  14   2.0000      -0.638122       -17.3642
  15   2.0000      -0.605759       -16.4835
  16   2.0000      -0.582079       -15.8392
  17   2.0000      -0.567726       -15.4486
  18   2.0000      -0.543772       -14.7968
  19   2.0000      -0.506272       -13.7764
  20   2.0000      -0.501134       -13.6365
  21   2.0000      -0.492313       -13.3965
  22   2.0000      -0.469250       -12.7689
  23   2.0000      -0.450800       -12.2669
  24   2.0000      -0.444446       -12.0940
  25   2.0000      -0.435789       -11.8584
  26   2.0000      -0.353477        -9.6186
  27   2.0000      -0.257280        -7.0009
  28   0.0000       0.066610         1.8125
  29   0.0000       0.087889         2.3916
  30   0.0000       0.095940         2.6107
  31   0.0000       0.099469         2.7067
  32   0.0000       0.127342         3.4651

MULLIKEN ATOMIC CHARGES
-----------------------
   0 C :    0.804590
   1 N :   -0.275990
   2 C :    0.576501
   3 C :    0.491051
   4 N :    0.350190
   5 H :   -0.150500
   6 H :   -0.233694
   7 H :   -0.199368
   8 H :   -0.391526
   9 H :   -0.510264
  10 C :   -0.163355
  11 H :   -0.441441
  12 H :   -0.146225
  13 C :    0.960879
  14 H :   -0.255134
  15 H :   -0.058175
  16 H :   -0.166874
  17 H :   -0.025081
  18 H :   -0.165584
Sum of atomic charges:   -0.0000000

LOEWDIN ATOMIC CHARGES
----------------------
   0 C :    0.021380
   1 N :   -0.000228
   2 C :   -0.251332
   3 C :    0.133895
   4 N :    0.213787
   5 H :   -0.026849
   6 H :    0.004089
   7 H :    0.039775
   8 H :   -0.096793
   9 H :   -0.099313
  10 C :   -0.081936
  11 H :    0.028074
  12 H :    0.014555
  13 C :    0.111220
  14 H :    0.023411
  15 H :    0.014033
  16 H :   -0.017487
  17 H :   -0.015450
  18 H :   -0.014831

  Mayer bond orders larger than 0.100000
B(  0-C ,  1-N ) :   0.9791 B(  0-C ,  2-C ) :  -0.1027 B(  0-C ,  7-H ) :  -0.1841
B(  0-C , 10-C ) :   1.1297 B(  0-C , 11-H ) :   0.6599 B(  0-C , 12-H ) :   0.8824
B(  0-C , 15-H ) :   0.1336 B(  1-N ,  2-C ) :   1.0896 B(  1-N ,  3-C ) :   0.2799
B(  1-N ,  4-N ) :   0.2001 B(  1-N ,  7-H ) :   1.2462 B(  1-N , 11-H ) :   0.2868
B(  2-C ,  3-C ) :   1.2365 B(  2-C ,  4-N ) :   1.0235 B(  2-C ,  7-H ) :  -0.1969
B(  2-C ,  9-H ) :   0.1503 B(  3-C ,  4-N ) :   0.2022 B(  3-C ,  8-H ) :   0.8082
B(  3-C ,  9-H ) :   0.6750 B(  4-N ,  5-H ) :   1.0563 B(  4-N ,  6-H ) :   1.2034
B(  4-N , 12-H ) :   0.1039 B(  5-H ,  6-H ) :  -0.2062 B( 10-C , 11-H ) :   0.1389
B( 10-C , 13-C ) :   1.2918 B( 10-C , 14-H ) :   0.9976 B( 10-C , 15-H ) :   0.8667
B( 10-C , 16-H ) :   0.2404 B( 10-C , 17-H ) :   0.2236 B( 10-C , 18-H ) :   0.2678
B( 11-H , 12-H ) :  -0.1517 B( 13-C , 16-H ) :   0.7629 B( 13-C , 17-H ) :   0.7376
B( 13-C , 18-H ) :   0.7123

FINAL SINGLE POINT ENERGY      -306.178367334656

DIPOLE MOMENT
-------------
                                X             Y             Z
Electronic contribution:     -2.45467       2.74381      -1.98079
Nuclear contribution   :      2.34222      -2.69386       3.01591
                        -----------------------------------------
Total Dipole Moment    :     -0.11245       0.04995       1.03512
                        -----------------------------------------
Magnitude (a.u.)       :      1.04241
Magnitude (Debye)      :      2.64959

Rotational constants in cm-1:     0.155143     0.051710     0.048050
Rotational constants in MHz :  4651.080391  1550.217078  1440.507386

                             ****ORCA TERMINATED NORMALLY****
TOTAL RUN TIME: 0 days 0 hours 0 minutes 21 seconds 722 msec
