                         Program Version 5.0.0 -  RELEASE  -
|  1> !LC-BLYP RIJCOSX def2-SVPD def2/J TightSCF
|  2> *xyz 0 1
|  3> C          4.90646       -3.10282       -5.95484
|  4> C          3.51177       -2.80621       -6.49228
|  5> H          2.73604       -3.37345       -5.97374
|  6> H          3.44490       -3.04083       -7.55528
|  7> S          3.00462       -1.09621       -6.38926
|  8> O          4.12886       -0.32965       -6.95372
|  9> O          1.78128       -1.00078       -7.13640
| 10> C          5.02498       -3.02568       -4.43762
| 11> H          5.20153       -4.10021       -6.29691
| 12> H          5.60592       -2.39782       -6.41337
| 13> F          2.85155       -0.78368       -4.95679
| 14> H          4.73604       -2.05011       -4.10644
| 15> H          6.03776       -3.21492       -4.14890
| 16> H          4.38436       -3.75784       -3.99214
| 17> *
| 18>
| 19> %MaxCore 64000
| 20>
| 21> %pal nprocs 8
| 22> end
| 23>
| 24> %scf
| 25>   MaxIter 150
| 26> end
| 27>
| 28>
| 29>                          ****END OF INPUT****

CARTESIAN COORDINATES (ANGSTROEM)
---------------------------------
  C      4.906460   -3.102820   -5.954840
  C      3.511770   -2.806210   -6.492280
  H      2.736040   -3.373450   -5.973740
  H      3.444900   -3.040830   -7.555280
  S      3.004620   -1.096210   -6.389260
  O      4.128860   -0.329650   -6.953720
  O      1.781280   -1.000780   -7.136400
  C      5.024980   -3.025680   -4.437620
  H      5.201530   -4.100210   -6.296910
  H      5.605920   -2.397820   -6.413370
  F      2.851550   -0.783680   -4.956790
  H      4.736040   -2.050110   -4.106440
  H      6.037760   -3.214920   -4.148900
  H      4.384360   -3.757840   -3.992140

 Total Charge           Charge          ....    0
 Multiplicity           Mult            ....    1
 Number of Electrons    NEL             ....   66
 Basis Dimension        Dim             ....  212

ORBITAL ENERGIES
----------------

  NO   OCC          E(Eh)            E(eV)
   0   2.0000     -88.565252     -2409.9830
   1   2.0000     -24.580742      -668.8760
   2   2.0000     -18.975241      -516.3426
   3   2.0000     -18.963503      -516.0231
   4   2.0000     -10.150984      -276.2223
   5   2.0000     -10.116810      -275.2924
   6   2.0000     -10.093004      -274.6446
   7   2.0000      -8.114898      -220.8176
   8   2.0000      -6.153716      -167.4511
   9   2.0000      -6.146985      -167.2680
  10   2.0000      -6.145471      -167.2268
  11   2.0000      -1.435765       -39.0692
  12   2.0000      -1.210996       -32.9529
  13   2.0000      -1.107899       -30.1475
  14   2.0000      -0.947347       -25.7786
  15   2.0000      -0.863760       -23.5041
  16   2.0000      -0.809821       -22.0363
  17   2.0000      -0.749080       -20.3835
  18   2.0000      -0.687200       -18.6997
  19   2.0000      -0.675864       -18.3912
  20   2.0000      -0.655979       -17.8501
  21   2.0000      -0.602368       -16.3913
  22   2.0000      -0.593406       -16.1474
  23   2.0000      -0.570847       -15.5335
  24   2.0000      -0.557318       -15.1654
  25   2.0000      -0.539795       -14.6886
  26   2.0000      -0.502949       -13.6859
  27   2.0000      -0.489368       -13.3164
  28   2.0000      -0.472424       -12.8553
  29   2.0000      -0.465872       -12.6770
  30   2.0000      -0.437696       -11.9103
  31   2.0000      -0.429226       -11.6798
  32   2.0000      -0.415154       -11.2969
  33   0.0000       0.049216         1.3392
  34   0.0000       0.072056         1.9608
  35   0.0000       0.078134         2.1261
  36   0.0000       0.079765         2.1705
  37   0.0000       0.107066         2.9134

MULLIKEN ATOMIC CHARGES
-----------------------
   0 C :    0.022183
   1 C :    0.116784
   2 H :   -0.057235
   3 H :   -0.071079
   4 S :    1.262533
   5 O :   -0.618371
   6 O :   -0.564401
   7 C :    1.082473
   8 H :   -0.198065
   9 H :   -0.091455
  10 F :   -0.371836
  11 H :   -0.308339
  12 H :   -0.132444
  13 H :   -0.070748
Sum of atomic charges:    0.0000000

LOEWDIN ATOMIC CHARGES
----------------------
   0 C :   -0.084217
   1 C :   -0.067042
   2 H :    0.033879
   3 H :    0.042055
   4 S :    1.062979
   5 O :   -0.455965
   6 O :   -0.439811
   7 C :    0.126508
   8 H :    0.037938
   9 H :    0.031055
  10 F :   -0.252134
  11 H :   -0.026755
  12 H :   -0.003717
  13 H :   -0.004774

  Mayer bond orders larger than 0.100000
B(  0-C ,  1-C ) :   1.2285 B(  0-C ,  2-H ) :   0.1163 B(  0-C ,  3-H ) :   0.1305
B(  0-C ,  7-C ) :   1.2469 B(  0-C ,  8-H ) :   0.8338 B(  0-C ,  9-H ) :   0.8716
B(  0-C , 11-H ) :   0.2620 B(  0-C , 12-H ) :   0.2461 B(  0-C , 13-H ) :   0.2314
B(  1-C ,  2-H ) :   0.9090 B(  1-C ,  3-H ) :   0.9009 B(  1-C ,  4-S ) :   0.9892
B(  1-C ,  8-H ) :   0.1510 B(  1-C ,  9-H ) :   0.1585 B(  4-S ,  5-O ) :   1.5424
B(  4-S ,  6-O ) :   1.6270 B(  4-S , 10-F ) :   0.6923 B(  7-C ,  9-H ) :   0.1002
B(  7-C , 11-H ) :   0.7021 B(  7-C , 12-H ) :   0.6809 B(  7-C , 13-H ) :   0.6878
B( 11-H , 13-H ) :   0.1143

FINAL SINGLE POINT ENERGY      -765.596414129054

DIPOLE MOMENT
-------------
                                X             Y             Z
Electronic contribution:     -7.43665       9.32660      -1.87349
Nuclear contribution   :      7.88819     -10.86344       2.71963
                        -----------------------------------------
Total Dipole Moment    :      0.45154      -1.53684       0.84614
                        -----------------------------------------
Magnitude (a.u.)       :      1.81155
Magnitude (Debye)      :      4.60459

Rotational constants in cm-1:     0.130261     0.054435     0.050898
Rotational constants in MHz :  3905.114465  1631.935083  1525.880669

                             ****ORCA TERMINATED NORMALLY****
TOTAL RUN TIME: 0 days 0 hours 0 minutes 16 seconds 401 msec
