                         Program Version 5.0.0 -  RELEASE  -
|  1> !LC-BLYP RIJCOSX def2-SVPD def2/J TightSCF
|  2> *xyz 0 1
|  3> C          4.49059        1.15590       -2.46929
|  4> N          4.30539        1.22276       -3.90832
|  5> C          4.63192        2.24637       -4.67096
|  6> N          4.54169        2.14399       -5.98714
|  7> C          5.08409        3.39358       -4.11855
|  8> H          4.92067        3.57050       -3.13587
|  9> H          5.25465        4.19739       -4.70696
| 10> H          3.82453        0.44911       -4.35093
| 11> H          4.34337        1.24932       -6.41665
| 12> H          4.67671        2.95662       -6.57411
| 13> C          5.94213        0.93950       -2.03689
| 14> H          3.86431        0.32853       -2.13661
| 15> H          4.07623        2.04999       -1.98901
| 16> C          6.55996       -0.35629       -2.55909
| 17> H          5.96798        0.95257       -0.94244
| 18> H          6.54718        1.78833       -2.36885
| 19> H          6.53022       -0.35990       -3.62867
| 20> H          6.00654       -1.19175       -2.18407
| 21> H          7.57588       -0.42487       -2.23029
| 22> *
| 23>
| 24> %MaxCore 64000
| 25>
| 26> %pal nprocs 8
| 27> end
| 28>
| 29> %scf
| 30>   MaxIter 150
| 31> end
| 32>
| 33>
| 34>                          ****END OF INPUT****

CARTESIAN COORDINATES (ANGSTROEM)
---------------------------------
  C      4.490590    1.155900   -2.469290
  N      4.305390    1.222760   -3.908320
  C      4.631920    2.246370   -4.670960
  N      4.541690    2.143990   -5.987140
  C      5.084090    3.393580   -4.118550
  H      4.920670    3.570500   -3.135870
  H      5.254650    4.197390   -4.706960
  H      3.824530    0.449110   -4.350930
  H      4.343370    1.249320   -6.416650
  H      4.676710    2.956620   -6.574110
  C      5.942130    0.939500   -2.036890
  H      3.864310    0.328530   -2.136610
  H      4.076230    2.049990   -1.989010
  C      6.559960   -0.356290   -2.559090
  H      5.967980    0.952570   -0.942440
  H      6.547180    1.788330   -2.368850
  H      6.530220   -0.359900   -3.628670
  H      6.006540   -1.191750   -2.184070
  H      7.575880   -0.424870   -2.230290

 Total Charge           Charge          ....    0
 Multiplicity           Mult            ....    1
 Number of Electrons    NEL             ....   56
 Basis Dimension        Dim             ....  236

ORBITAL ENERGIES
----------------

  NO   OCC          E(Eh)            E(eV)
   0   2.0000     -14.192756      -386.2045
   1   2.0000     -14.190383      -386.1400
   2   2.0000     -10.135791      -275.8089
   3   2.0000     -10.114991      -275.2429
   4   2.0000     -10.073328      -274.1092
   5   2.0000     -10.063659      -273.8461
   6   2.0000      -9.997787      -272.0536
   7   2.0000      -1.067100       -29.0373
   8   2.0000      -0.983627       -26.7658
   9   2.0000      -0.878360       -23.9014
  10   2.0000      -0.812902       -22.1202
  11   2.0000      -0.792099       -21.5541
  12   2.0000      -0.710905       -19.3447
  13   2.0000      -0.661178       -17.9916
  14   2.0000      -0.654349       -17.8058
  15   2.0000      -0.624910       -17.0047
  16   2.0000      -0.581836       -15.8326
  17   2.0000      -0.557104       -15.1596
  18   2.0000      -0.533233       -14.5100
  19   2.0000      -0.503689       -13.7061
  20   2.0000      -0.499399       -13.5893
  21   2.0000      -0.486643       -13.2422
  22   2.0000      -0.467734       -12.7277
  23   2.0000      -0.447391       -12.1741
  24   2.0000      -0.437116       -11.8945
  25   2.0000      -0.427380       -11.6296
  26   2.0000      -0.349146        -9.5007
  27   2.0000      -0.258955        -7.0465
  28   0.0000       0.066295         1.8040
  29   0.0000       0.090054         2.4505
  30   0.0000       0.097571         2.6551
  31   0.0000       0.102024         2.7762
  32   0.0000       0.123990         3.3739

MULLIKEN ATOMIC CHARGES
-----------------------
   0 C :    0.786965
   1 N :   -0.385030
   2 C :    0.498619
   3 N :    0.296879
   4 C :    0.606541
   5 H :   -0.121127
   6 H :   -0.730183
   7 H :   -0.280620
   8 H :   -0.197681
   9 H :   -0.115169
  10 C :   -0.143533
  11 H :   -0.453919
  12 H :   -0.027674
  13 C :    0.947451
  14 H :   -0.230901
  15 H :   -0.074968
  16 H :   -0.170292
  17 H :   -0.037708
  18 H :   -0.167649
Sum of atomic charges:   -0.0000000

LOEWDIN ATOMIC CHARGES
----------------------
   0 C :    0.028605
   1 N :   -0.005065
   2 C :   -0.250865
   3 N :    0.194427
   4 C :    0.154452
   5 H :   -0.112711
   6 H :   -0.103582
   7 H :    0.026365
   8 H :   -0.006744
   9 H :    0.009294
  10 C :   -0.074193
  11 H :    0.026684
  12 H :    0.022096
  13 C :    0.107414
  14 H :    0.025421
  15 H :    0.014505
  16 H :   -0.022694
  17 H :   -0.017788
  18 H :   -0.015621

  Mayer bond orders larger than 0.100000
B(  0-C ,  1-N ) :   0.9964 B(  0-C ,  2-C ) :  -0.1098 B(  0-C ,  5-H ) :   0.1094
B(  0-C ,  7-H ) :  -0.1773 B(  0-C , 10-C ) :   1.1032 B(  0-C , 11-H ) :   0.7301
B(  0-C , 12-H ) :   0.8688 B(  0-C , 15-H ) :   0.1522 B(  1-N ,  2-C ) :   0.9550
B(  1-N ,  3-N ) :   0.2009 B(  1-N ,  4-C ) :   0.4164 B(  1-N ,  7-H ) :   1.3872
B(  1-N ,  8-H ) :   0.1163 B(  1-N ,  9-H ) :  -0.1101 B(  1-N , 11-H ) :   0.2102
B(  2-C ,  3-N ) :   0.9932 B(  2-C ,  4-C ) :   1.5959 B(  2-C ,  5-H ) :   0.2971
B(  2-C ,  6-H ) :   0.1840 B(  2-C ,  7-H ) :  -0.3310 B(  2-C , 11-H ) :   0.1324
B(  3-N ,  4-C ) :   0.2327 B(  3-N ,  8-H ) :   1.1788 B(  3-N ,  9-H ) :   1.2090
B(  4-C ,  5-H ) :   0.5938 B(  4-C ,  6-H ) :   0.7092 B(  5-H , 11-H ) :  -0.1389
B(  5-H , 12-H ) :   0.1144 B(  8-H ,  9-H ) :  -0.1838 B( 10-C , 11-H ) :   0.1488
B( 10-C , 13-C ) :   1.2820 B( 10-C , 14-H ) :   0.9906 B( 10-C , 15-H ) :   0.8795
B( 10-C , 16-H ) :   0.2325 B( 10-C , 17-H ) :   0.2225 B( 10-C , 18-H ) :   0.2664
B( 11-H , 12-H ) :  -0.1929 B( 13-C , 16-H ) :   0.7745 B( 13-C , 17-H ) :   0.7388
B( 13-C , 18-H ) :   0.7168

FINAL SINGLE POINT ENERGY      -306.177781213147

DIPOLE MOMENT
-------------
                                X             Y             Z
Electronic contribution:     -2.93663       1.56198      -3.86454
Nuclear contribution   :      2.46104      -2.42013       3.42523
                        -----------------------------------------
Total Dipole Moment    :     -0.47559      -0.85815      -0.43930
                        -----------------------------------------
Magnitude (a.u.)       :      1.07498
Magnitude (Debye)      :      2.73239

Rotational constants in cm-1:     0.157414     0.050835     0.047338
Rotational constants in MHz :  4719.163414  1524.007825  1419.164399

                             ****ORCA TERMINATED NORMALLY****
TOTAL RUN TIME: 0 days 0 hours 0 minutes 20 seconds 157 msec
