                         Program Version 5.0.0 -  RELEASE  -
|  1> !LC-BLYP RIJCOSX def2-SVPD def2/J TightSCF xyzfile
|  2>
|  3> *xyzfile 0 1 D1.xyz
|  4>
|  5> %MaxCore 64000
|  6>
|  7> %pal nprocs 4
|  8> end
|  9>
| 10> %scf
| 11>   MaxIter 150
| 12> end
| 13>
| 14>
| 15>                          ****END OF INPUT****

CARTESIAN COORDINATES (ANGSTROEM)
---------------------------------
  C      4.490588    1.155899   -2.469290
  C      4.305394    1.222762   -3.908317
  C      4.906458   -3.102816   -5.954844
  C      3.511771   -2.806215   -6.492283
  H      2.736044   -3.373445   -5.973736
  H      3.444904   -3.040831   -7.555281
  S      3.004618   -1.096206   -6.389259
  C      4.631918    2.246365   -4.670958
  N      4.541686    2.143990   -5.987139
  N      5.084086    3.393584   -4.118545
  H      4.920675    3.570501   -3.135870
  H      5.254652    4.197390   -4.706956
  H      3.824530    0.449113   -4.350926
  H      4.343373    1.249318   -6.416646
  H      4.676712    2.956624   -6.574113
  F      4.128856   -0.329647   -6.953717
  O      1.781285   -1.000779   -7.136399
  C      5.942129    0.939500   -2.036893
  H      3.864305    0.328532   -2.136611
  H      4.076233    2.049994   -1.989010
  C      6.462677   -3.117775   -3.944671
  C      5.024977   -3.025679   -4.437625
  H      4.423321   -3.818693   -3.977648
  H      4.579350   -2.087131   -4.108727
  H      5.201533   -4.100207   -6.296905
  H      5.605922   -2.397822   -6.413368
  C      6.559957   -0.356290   -2.559086
  H      5.967976    0.952567   -0.942444
  H      6.547184    1.788331   -2.368849
  C      6.006283   -1.615917   -1.899301
  H      7.642360   -0.318000   -2.402059
  H      6.414855   -0.403433   -3.642587
  C      6.608718   -2.917014   -2.435655
  H      6.190324   -1.561115   -0.820948
  H      4.919250   -1.651245   -2.016586
  H      7.066975   -2.374258   -4.475514
  H      6.887808   -4.089747   -4.215332
  H      6.135197   -3.755573   -1.915159
  H      7.671142   -2.955503   -2.172291
  O      2.851546   -0.783683   -4.956789

 Total Charge           Charge          ....    0
 Multiplicity           Mult            ....    1
 Number of Electrons    NEL             ....  144
 Basis Dimension        Dim             ....  540

ORBITAL ENERGIES
----------------

  NO   OCC          E(Eh)            E(eV)
   0   2.0000     -88.576028     -2410.2763
   1   2.0000     -24.601151      -669.4313
   2   2.0000     -18.983454      -516.5660
   3   2.0000     -18.969804      -516.1946
   4   2.0000     -14.177808      -385.7978
   5   2.0000     -14.172999      -385.6669
   6   2.0000     -10.154925      -276.3296
   7   2.0000     -10.117446      -275.3097
   8   2.0000     -10.113827      -275.2112
   9   2.0000     -10.085641      -274.4442
  10   2.0000     -10.080731      -274.3106
  11   2.0000     -10.073952      -274.1262
  12   2.0000     -10.064859      -273.8787
  13   2.0000     -10.057938      -273.6904
  14   2.0000     -10.052762      -273.5496
  15   2.0000     -10.045952      -273.3643
  16   2.0000      -9.980329      -271.5786
  17   2.0000      -8.124594      -221.0814
  18   2.0000      -6.163680      -167.7223
  19   2.0000      -6.156744      -167.5335
  20   2.0000      -6.154953      -167.4848
  21   2.0000      -1.457253       -39.6539
  22   2.0000      -1.220923       -33.2230
  23   2.0000      -1.117178       -30.4000
  24   2.0000      -1.041964       -28.3533
  25   2.0000      -0.956147       -26.0181
  26   2.0000      -0.950831       -25.8734
  27   2.0000      -0.913784       -24.8653
  28   2.0000      -0.884174       -24.0596
  29   2.0000      -0.859495       -23.3881
  30   2.0000      -0.833555       -22.6822
  31   2.0000      -0.808515       -22.0008
  32   2.0000      -0.777408       -21.1543
  33   2.0000      -0.747411       -20.3381
  34   2.0000      -0.724092       -19.7035
  35   2.0000      -0.717814       -19.5327
  36   2.0000      -0.702014       -19.1028
  37   2.0000      -0.688914       -18.7463
  38   2.0000      -0.669386       -18.2149
  39   2.0000      -0.666268       -18.1301
  40   2.0000      -0.647960       -17.6319
  41   2.0000      -0.633737       -17.2449
  42   2.0000      -0.610120       -16.6022
  43   2.0000      -0.599676       -16.3180
  44   2.0000      -0.593470       -16.1491
  45   2.0000      -0.581982       -15.8365
  46   2.0000      -0.569841       -15.5062
  47   2.0000      -0.558848       -15.2070
  48   2.0000      -0.557832       -15.1794
  49   2.0000      -0.553790       -15.0694
  50   2.0000      -0.532902       -14.5010
  51   2.0000      -0.524416       -14.2701
  52   2.0000      -0.523477       -14.2445
  53   2.0000      -0.511213       -13.9108
  54   2.0000      -0.496454       -13.5092
  55   2.0000      -0.487450       -13.2642
  56   2.0000      -0.484696       -13.1892
  57   2.0000      -0.472380       -12.8541
  58   2.0000      -0.470972       -12.8158
  59   2.0000      -0.456228       -12.4146
  60   2.0000      -0.451876       -12.2962
  61   2.0000      -0.443441       -12.0666
  62   2.0000      -0.437677       -11.9098
  63   2.0000      -0.422867       -11.5068
  64   2.0000      -0.421116       -11.4591
  65   2.0000      -0.413392       -11.2490
  66   2.0000      -0.406013       -11.0482
  67   2.0000      -0.397129       -10.8064
  68   2.0000      -0.389777       -10.6064
  69   2.0000      -0.373505       -10.1636
  70   2.0000      -0.353722        -9.6253
  71   2.0000      -0.239590        -6.5196
  72   0.0000       0.043499         1.1837
  73   0.0000       0.067566         1.8386
  74   0.0000       0.072943         1.9849
  75   0.0000       0.077090         2.0977
  76   0.0000       0.088763         2.4154

MULLIKEN ATOMIC CHARGES
-----------------------
   0 C :    0.345166
   1 C :    0.514111
   2 C :    0.510446
   3 C :    0.456046
   4 H :   -0.044823
   5 H :   -0.126457
   6 S :    1.213441
   7 C :    0.612146
   8 N :    0.591448
   9 N :    0.228452
  10 H :   -0.076989
  11 H :   -0.306226
  12 H :   -1.175637
  13 H :   -0.459903
  14 H :   -0.239147
  15 F :   -0.359269
  16 O :   -0.565061
  17 C :    0.600220
  18 H :    0.061290
  19 H :   -0.256852
  20 C :    0.213635
  21 C :    0.594504
  22 H :   -0.019294
  23 H :   -0.830608
  24 H :   -0.193553
  25 H :   -0.066626
  26 C :    0.313214
  27 H :   -0.152113
  28 H :   -0.224635
  29 C :    0.105831
  30 H :   -0.214148
  31 H :   -0.208204
  32 C :    0.816405
  33 H :   -0.442714
  34 H :    0.011453
  35 H :    0.051727
  36 H :   -0.447684
  37 H :   -0.127157
  38 H :   -0.072065
  39 O :   -0.630367
Sum of atomic charges:    0.0000000

LOEWDIN ATOMIC CHARGES
----------------------
   0 C :   -0.049917
   1 C :   -0.021672
   2 C :   -0.043532
   3 C :   -0.049336
   4 H :    0.050985
   5 H :    0.032048
   6 S :    1.109803
   7 C :   -0.210437
   8 N :    0.212861
   9 N :    0.214279
  10 H :   -0.015750
  11 H :   -0.015886
  12 H :   -0.149894
  13 H :   -0.087471
  14 H :   -0.004176
  15 F :   -0.239826
  16 O :   -0.420190
  17 C :   -0.039484
  18 H :    0.017837
  19 H :    0.013260
  20 C :   -0.047099
  21 C :   -0.036689
  22 H :    0.049083
  23 H :   -0.011717
  24 H :    0.043064
  25 H :    0.032287
  26 C :   -0.042339
  27 H :    0.021612
  28 H :    0.014737
  29 C :   -0.046211
  30 H :    0.029719
  31 H :    0.009893
  32 C :   -0.041300
  33 H :    0.029536
  34 H :    0.012848
  35 H :    0.022434
  36 H :    0.028323
  37 H :    0.026623
  38 H :    0.027777
  39 O :   -0.426081

  Mayer bond orders larger than 0.100000
B(  0-C ,  1-C ) :   1.1491 B(  0-C , 12-H ) :   0.9906 B(  0-C , 17-C ) :   1.0640
B(  0-C , 18-H ) :   0.6544 B(  0-C , 19-H ) :   0.7928 B(  0-C , 26-C ) :   0.1987
B(  0-C , 27-H ) :   0.2182 B(  0-C , 28-H ) :   0.1057 B(  0-C , 30-H ) :  -0.1408
B(  1-C ,  7-C ) :   1.7739 B(  1-C ,  8-N ) :   0.2851 B(  1-C ,  9-N ) :   0.3400
B(  1-C , 12-H ) :  -0.7811 B(  1-C , 17-C ) :   0.1421 B(  1-C , 18-H ) :   0.4934
B(  1-C , 19-H ) :   0.1854 B(  2-C ,  3-C ) :   1.1494 B(  2-C ,  5-H ) :   0.2875
B(  2-C , 20-C ) :   0.1682 B(  2-C , 21-C ) :   1.1018 B(  2-C , 22-H ) :   0.1172
B(  2-C , 24-H ) :   0.7447 B(  2-C , 25-H ) :   0.7847 B(  3-C ,  4-H ) :   0.8706
B(  3-C ,  5-H ) :   0.6738 B(  3-C ,  6-S ) :   1.0155 B(  3-C , 21-C ) :   0.1795
B(  5-H ,  6-S ) :   0.1043 B(  6-S , 15-F ) :   0.6331 B(  6-S , 16-O ) :   1.6111
B(  6-S , 39-O ) :   1.5736 B(  7-C ,  8-N ) :   0.9135 B(  7-C ,  9-N ) :   0.8977
B(  7-C , 11-H ) :  -0.1510 B(  7-C , 12-H ) :  -0.2233 B(  7-C , 13-H ) :  -0.2707
B(  7-C , 14-H ) :  -0.1198 B(  8-N , 13-H ) :   1.2258 B(  8-N , 14-H ) :   1.2628
B(  9-N , 10-H ) :   1.0808 B(  9-N , 11-H ) :   1.2899 B( 10-H , 11-H ) :  -0.2045
B( 12-H , 18-H ) :  -0.2665 B( 12-H , 39-O ) :   0.3284 B( 13-H , 14-H ) :  -0.2143
B( 13-H , 15-F ) :   0.1687 B( 16-O , 39-O ) :   0.1181 B( 17-C , 18-H ) :   0.1267
B( 17-C , 26-C ) :   1.2613 B( 17-C , 27-H ) :   0.7225 B( 17-C , 28-H ) :   0.6282
B( 17-C , 30-H ) :   0.1121 B( 17-C , 31-H ) :   0.1762 B( 18-H , 19-H ) :  -0.1198
B( 20-C , 21-C ) :   1.1967 B( 20-C , 22-H ) :   0.1155 B( 20-C , 23-H ) :   0.1515
B( 20-C , 29-C ) :   0.1900 B( 20-C , 32-C ) :   1.1103 B( 20-C , 35-H ) :   0.8234
B( 20-C , 36-H ) :   0.8661 B( 20-C , 38-H ) :   0.2778 B( 21-C , 22-H ) :   0.6469
B( 21-C , 23-H ) :   0.4011 B( 21-C , 24-H ) :   0.2049 B( 21-C , 25-H ) :   0.1109
B( 21-C , 35-H ) :   0.1097 B( 21-C , 36-H ) :   0.2144 B( 22-H , 23-H ) :   0.2247
B( 23-H , 34-H ) :   0.1449 B( 26-C , 27-H ) :   0.1220 B( 26-C , 28-H ) :   0.2829
B( 26-C , 29-C ) :   1.2091 B( 26-C , 30-H ) :   0.7615 B( 26-C , 31-H ) :   0.8213
B( 26-C , 33-H ) :   0.1454 B( 26-C , 34-H ) :   0.1218 B( 27-H , 28-H ) :  -0.1641
B( 29-C , 30-H ) :   0.1506 B( 29-C , 31-H ) :   0.1384 B( 29-C , 32-C ) :   1.1012
B( 29-C , 33-H ) :   0.9382 B( 29-C , 34-H ) :   0.8305 B( 29-C , 37-H ) :   0.3521
B( 29-C , 38-H ) :   0.1352 B( 32-C , 37-H ) :   0.5864 B( 32-C , 38-H ) :   0.6181
B( 37-H , 38-H ) :  -0.1420

FINAL SINGLE POINT ENERGY     -1188.102320368214

DIPOLE MOMENT
-------------
                                X             Y             Z
Electronic contribution:    -16.29133       4.77219     -21.38950
Nuclear contribution   :     17.24138      -5.45913      20.34076
                        -----------------------------------------
Total Dipole Moment    :      0.95005      -0.68694      -1.04874
                        -----------------------------------------
Magnitude (a.u.)       :      1.57300
Magnitude (Debye)      :      3.99826

Rotational constants in cm-1:     0.014201     0.012275     0.007453
Rotational constants in MHz :   425.728191   368.008875   223.435232

                             ****ORCA TERMINATED NORMALLY****
TOTAL RUN TIME: 0 days 0 hours 5 minutes 59 seconds 640 msec
