                         Program Version 5.0.0 -  RELEASE  -
|  1> !LC-BLYP RIJCOSX def2-SVPD def2/J TightSCF xyzfile
|  2>
|  3> *xyzfile 0 1 D2.xyz
|  4>
|  5> %MaxCore 64000
|  6>
|  7> %pal nprocs 4
|  8> end
|  9>
| 10> %scf
| 11>   MaxIter 150
| 12> end
| 13>
| 14>
| 15>                          ****END OF INPUT****

CARTESIAN COORDINATES (ANGSTROEM)
---------------------------------
  C      4.490588    1.155899   -2.469290
  N      4.305394    1.222762   -3.908317
  C      4.906458   -3.102816   -5.954844
  C      3.511771   -2.806215   -6.492283
  H      2.736044   -3.373445   -5.973736
  H      3.444904   -3.040831   -7.555281
  S      3.004618   -1.096206   -6.389259
  C      4.631918    2.246365   -4.670958
  C      4.541686    2.143990   -5.987139
  N      5.084086    3.393584   -4.118545
  H      4.920675    3.570501   -3.135870
  H      5.254652    4.197390   -4.706956
  H      3.824530    0.449113   -4.350926
  H      4.343373    1.249318   -6.416646
  H      4.676712    2.956624   -6.574113
  F      4.128856   -0.329647   -6.953717
  O      1.781285   -1.000779   -7.136399
  C      5.942129    0.939500   -2.036893
  H      3.864305    0.328532   -2.136611
  H      4.076233    2.049994   -1.989010
  C      6.462677   -3.117775   -3.944671
  C      5.024977   -3.025679   -4.437625
  H      4.423321   -3.818693   -3.977648
  H      4.579350   -2.087131   -4.108727
  H      5.201533   -4.100207   -6.296905
  H      5.605922   -2.397822   -6.413368
  C      6.559957   -0.356290   -2.559086
  H      5.967976    0.952567   -0.942444
  H      6.547184    1.788331   -2.368849
  C      6.006283   -1.615917   -1.899301
  H      7.642360   -0.318000   -2.402059
  H      6.414855   -0.403433   -3.642587
  C      6.608718   -2.917014   -2.435655
  H      6.190324   -1.561115   -0.820948
  H      4.919250   -1.651245   -2.016586
  H      7.066975   -2.374258   -4.475514
  H      6.887808   -4.089747   -4.215332
  H      6.135197   -3.755573   -1.915159
  H      7.671142   -2.955503   -2.172291
  O      2.851546   -0.783683   -4.956789

 Total Charge           Charge          ....    0
 Multiplicity           Mult            ....    1
 Number of Electrons    NEL             ....  144
 Basis Dimension        Dim             ....  540

ORBITAL ENERGIES
----------------

  NO   OCC          E(Eh)            E(eV)
   0   2.0000     -88.579011     -2410.3574
   1   2.0000     -24.587094      -669.0488
   2   2.0000     -18.983397      -516.5645
   3   2.0000     -18.980467      -516.4848
   4   2.0000     -14.176142      -385.7524
   5   2.0000     -14.158239      -385.2653
   6   2.0000     -10.156346      -276.3682
   7   2.0000     -10.120302      -275.3874
   8   2.0000     -10.118636      -275.3421
   9   2.0000     -10.107999      -275.0526
  10   2.0000     -10.092556      -274.6324
  11   2.0000     -10.087639      -274.4986
  12   2.0000     -10.083135      -274.3761
  13   2.0000     -10.078241      -274.2429
  14   2.0000     -10.074207      -274.1331
  15   2.0000     -10.073729      -274.1201
  16   2.0000      -9.980201      -271.5751
  17   2.0000      -8.127124      -221.1503
  18   2.0000      -6.166005      -167.7855
  19   2.0000      -6.159585      -167.6108
  20   2.0000      -6.157624      -167.5575
  21   2.0000      -1.445578       -39.3362
  22   2.0000      -1.222722       -33.2720
  23   2.0000      -1.123101       -30.5611
  24   2.0000      -1.046114       -28.4662
  25   2.0000      -0.961317       -26.1588
  26   2.0000      -0.957395       -26.0520
  27   2.0000      -0.920806       -25.0564
  28   2.0000      -0.890792       -24.2397
  29   2.0000      -0.856024       -23.2936
  30   2.0000      -0.834048       -22.6956
  31   2.0000      -0.807336       -21.9687
  32   2.0000      -0.784166       -21.3382
  33   2.0000      -0.753882       -20.5142
  34   2.0000      -0.732472       -19.9316
  35   2.0000      -0.709924       -19.3180
  36   2.0000      -0.701778       -19.0964
  37   2.0000      -0.691809       -18.8251
  38   2.0000      -0.686687       -18.6857
  39   2.0000      -0.662914       -18.0388
  40   2.0000      -0.659584       -17.9482
  41   2.0000      -0.624291       -16.9878
  42   2.0000      -0.610662       -16.6170
  43   2.0000      -0.600933       -16.3522
  44   2.0000      -0.592520       -16.1233
  45   2.0000      -0.586730       -15.9657
  46   2.0000      -0.575405       -15.6576
  47   2.0000      -0.570308       -15.5189
  48   2.0000      -0.566561       -15.4169
  49   2.0000      -0.546932       -14.8828
  50   2.0000      -0.543071       -14.7777
  51   2.0000      -0.537595       -14.6287
  52   2.0000      -0.526767       -14.3341
  53   2.0000      -0.505398       -13.7526
  54   2.0000      -0.498063       -13.5530
  55   2.0000      -0.497090       -13.5265
  56   2.0000      -0.485227       -13.2037
  57   2.0000      -0.477483       -12.9930
  58   2.0000      -0.471076       -12.8186
  59   2.0000      -0.465093       -12.6558
  60   2.0000      -0.458536       -12.4774
  61   2.0000      -0.451923       -12.2974
  62   2.0000      -0.443298       -12.0627
  63   2.0000      -0.441408       -12.0113
  64   2.0000      -0.434179       -11.8146
  65   2.0000      -0.426840       -11.6149
  66   2.0000      -0.423198       -11.5158
  67   2.0000      -0.412201       -11.2166
  68   2.0000      -0.409688       -11.1482
  69   2.0000      -0.405824       -11.0430
  70   2.0000      -0.337442        -9.1823
  71   2.0000      -0.244000        -6.6396
  72   0.0000       0.047251         1.2858
  73   0.0000       0.067860         1.8466
  74   0.0000       0.073671         2.0047
  75   0.0000       0.076922         2.0932
  76   0.0000       0.087738         2.3875

MULLIKEN ATOMIC CHARGES
-----------------------
   0 C :    1.152120
   1 N :    0.643323
   2 C :    0.491747
   3 C :    0.457045
   4 H :   -0.057099
   5 H :   -0.114033
   6 S :    1.190698
   7 C :    0.796259
   8 C :    0.922349
   9 N :    0.510994
  10 H :   -0.100423
  11 H :   -0.246581
  12 H :   -1.348483
  13 H :   -0.834043
  14 H :   -0.767269
  15 F :   -0.418687
  16 O :   -0.578455
  17 C :    0.539872
  18 H :   -0.429237
  19 H :   -0.282044
  20 C :    0.207061
  21 C :    0.536535
  22 H :   -0.013677
  23 H :   -0.779027
  24 H :   -0.191605
  25 H :   -0.056542
  26 C :    0.364542
  27 H :   -0.255473
  28 H :   -0.135258
  29 C :    0.031382
  30 H :   -0.262625
  31 H :   -0.245772
  32 C :    0.821877
  33 H :   -0.448124
  34 H :    0.056365
  35 H :    0.051643
  36 H :   -0.440206
  37 H :   -0.125946
  38 H :   -0.068722
  39 O :   -0.574483
Sum of atomic charges:    0.0000000

LOEWDIN ATOMIC CHARGES
----------------------
   0 C :    0.045283
   1 N :    0.027271
   2 C :   -0.042221
   3 C :   -0.049273
   4 H :    0.049957
   5 H :    0.034151
   6 S :    1.113587
   7 C :   -0.221809
   8 C :    0.161276
   9 N :    0.214069
  10 H :   -0.027320
  11 H :    0.001994
  12 H :   -0.100342
  13 H :   -0.170311
  14 H :   -0.093455
  15 F :   -0.248346
  16 O :   -0.414998
  17 C :   -0.031523
  18 H :    0.023184
  19 H :    0.015842
  20 C :   -0.045829
  21 C :   -0.038613
  22 H :    0.049260
  23 H :   -0.015544
  24 H :    0.043759
  25 H :    0.034339
  26 C :   -0.041468
  27 H :    0.026139
  28 H :    0.015747
  29 C :   -0.048465
  30 H :    0.032627
  31 H :    0.012789
  32 C :   -0.039453
  33 H :    0.030326
  34 H :    0.011052
  35 H :    0.023605
  36 H :    0.030019
  37 H :    0.027953
  38 H :    0.029172
  39 O :   -0.424431

  Mayer bond orders larger than 0.100000
B(  0-C ,  1-N ) :   1.0877 B(  0-C , 12-H ) :  -0.6091 B(  0-C , 17-C ) :   1.0834
B(  0-C , 18-H ) :   0.5231 B(  0-C , 19-H ) :   0.7994 B(  0-C , 26-C ) :   0.2173
B(  0-C , 27-H ) :   0.1271 B(  1-N ,  7-C ) :   1.3148 B(  1-N ,  8-C ) :   0.1111
B(  1-N ,  9-N ) :   0.3209 B(  1-N , 12-H ) :   0.6357 B(  1-N , 14-H ) :  -0.1032
B(  1-N , 18-H ) :   0.3047 B(  2-C ,  3-C ) :   1.1541 B(  2-C ,  5-H ) :   0.2815
B(  2-C , 20-C ) :   0.1710 B(  2-C , 21-C ) :   1.1123 B(  2-C , 22-H ) :   0.1223
B(  2-C , 24-H ) :   0.7464 B(  2-C , 25-H ) :   0.7964 B(  3-C ,  4-H ) :   0.8775
B(  3-C ,  5-H ) :   0.6794 B(  3-C ,  6-S ) :   1.0052 B(  3-C , 21-C ) :   0.1735
B(  5-H ,  6-S ) :   0.1190 B(  6-S , 15-F ) :   0.6805 B(  6-S , 16-O ) :   1.6030
B(  6-S , 39-O ) :   1.4458 B(  7-C ,  8-C ) :   1.3075 B(  7-C ,  9-N ) :   0.9258
B(  7-C , 12-H ) :  -0.9497 B(  7-C , 14-H ) :   0.2536 B(  8-C ,  9-N ) :   0.2873
B(  8-C , 12-H ) :   0.1141 B(  8-C , 13-H ) :   0.1248 B(  8-C , 14-H ) :   0.5151
B(  9-N , 10-H ) :   0.9668 B(  9-N , 11-H ) :   1.1726 B(  9-N , 18-H ) :  -0.1025
B(  9-N , 19-H ) :   0.1035 B( 10-H , 11-H ) :  -0.2001 B( 12-H , 18-H ) :   0.1419
B( 12-H , 39-O ) :   0.2175 B( 13-H , 14-H ) :  -0.2198 B( 13-H , 15-F ) :   0.2637
B( 16-O , 39-O ) :   0.1086 B( 17-C , 18-H ) :   0.1104 B( 17-C , 19-H ) :   0.1343
B( 17-C , 26-C ) :   1.1980 B( 17-C , 27-H ) :   0.8767 B( 17-C , 28-H ) :   0.6458
B( 17-C , 31-H ) :   0.1251 B( 17-C , 32-C ) :   0.1045 B( 18-H , 19-H ) :  -0.2373
B( 18-H , 26-C ) :  -0.1145 B( 20-C , 21-C ) :   1.2081 B( 20-C , 22-H ) :   0.1168
B( 20-C , 23-H ) :   0.1443 B( 20-C , 29-C ) :   0.1964 B( 20-C , 32-C ) :   1.1132
B( 20-C , 35-H ) :   0.8253 B( 20-C , 36-H ) :   0.8612 B( 20-C , 37-H ) :   0.1004
B( 20-C , 38-H ) :   0.2753 B( 21-C , 22-H ) :   0.6537 B( 21-C , 23-H ) :   0.4851
B( 21-C , 24-H ) :   0.2091 B( 21-C , 25-H ) :   0.1066 B( 21-C , 35-H ) :   0.1033
B( 21-C , 36-H ) :   0.2123 B( 22-H , 23-H ) :   0.2092 B( 23-H , 34-H ) :   0.1521
B( 26-C , 28-H ) :   0.2721 B( 26-C , 29-C ) :   1.2116 B( 26-C , 30-H ) :   0.7998
B( 26-C , 31-H ) :   0.8447 B( 26-C , 33-H ) :   0.1501 B( 26-C , 34-H ) :   0.1211
B( 27-H , 28-H ) :  -0.1433 B( 29-C , 30-H ) :   0.1682 B( 29-C , 31-H ) :   0.1480
B( 29-C , 32-C ) :   1.1065 B( 29-C , 33-H ) :   0.9489 B( 29-C , 34-H ) :   0.8301
B( 29-C , 37-H ) :   0.3505 B( 29-C , 38-H ) :   0.1351 B( 31-H , 35-H ) :   0.1069
B( 32-C , 37-H ) :   0.5814 B( 32-C , 38-H ) :   0.6210 B( 37-H , 38-H ) :  -0.1447

FINAL SINGLE POINT ENERGY     -1188.106960587713

DIPOLE MOMENT
-------------
                                X             Y             Z
Electronic contribution:    -16.34501       3.89768     -19.58907
Nuclear contribution   :     17.27667      -5.32157      20.03034
                        -----------------------------------------
Total Dipole Moment    :      0.93165      -1.42388       0.44126
                        -----------------------------------------
Magnitude (a.u.)       :      1.75788
Magnitude (Debye)      :      4.46817

Rotational constants in cm-1:     0.014355     0.012269     0.007481
Rotational constants in MHz :   430.360270   367.823451   224.273399

                             ****ORCA TERMINATED NORMALLY****
TOTAL RUN TIME: 0 days 0 hours 5 minutes 53 seconds 945 msec
