                         Program Version 5.0.0 -  RELEASE  -
|  1> !LC-BLYP RIJCOSX def2-SVPD def2/J TightSCF xyzfile
|  2>
|  3> *xyzfile 0 1 D3.xyz
|  4>
|  5> %MaxCore 64000
|  6>
|  7> %pal nprocs 4
|  8> end
|  9>
| 10> %scf
| 11>   MaxIter 150
| 12> end
| 13>
| 14>
| 15>                          ****END OF INPUT****

CARTESIAN COORDINATES (ANGSTROEM)
---------------------------------
  C      4.490588    1.155899   -2.469290
  N      4.305394    1.222762   -3.908317
  C      4.906458   -3.102816   -5.954844
  C      3.511771   -2.806215   -6.492283
  H      2.736044   -3.373445   -5.973736
  H      3.444904   -3.040831   -7.555281
  S      3.004618   -1.096206   -6.389259
  C      4.631918    2.246365   -4.670958
  N      4.541686    2.143990   -5.987139
  C      5.084086    3.393584   -4.118545
  H      4.920675    3.570501   -3.135870
  H      5.254652    4.197390   -4.706956
  H      3.824530    0.449113   -4.350926
  H      4.343373    1.249318   -6.416646
  H      4.676712    2.956624   -6.574113
  F      4.128856   -0.329647   -6.953717
  O      1.781285   -1.000779   -7.136399
  C      5.942129    0.939500   -2.036893
  H      3.864305    0.328532   -2.136611
  H      4.076233    2.049994   -1.989010
  C      6.462677   -3.117775   -3.944671
  C      5.024977   -3.025679   -4.437625
  H      4.423321   -3.818693   -3.977648
  H      4.579350   -2.087131   -4.108727
  H      5.201533   -4.100207   -6.296905
  H      5.605922   -2.397822   -6.413368
  C      6.559957   -0.356290   -2.559086
  H      5.967976    0.952567   -0.942444
  H      6.547184    1.788331   -2.368849
  C      6.006283   -1.615917   -1.899301
  H      7.642360   -0.318000   -2.402059
  H      6.414855   -0.403433   -3.642587
  C      6.608718   -2.917014   -2.435655
  H      6.190324   -1.561115   -0.820948
  H      4.919250   -1.651245   -2.016586
  H      7.066975   -2.374258   -4.475514
  H      6.887808   -4.089747   -4.215332
  H      6.135197   -3.755573   -1.915159
  H      7.671142   -2.955503   -2.172291
  O      2.851546   -0.783683   -4.956789

 Total Charge           Charge          ....    0
 Multiplicity           Mult            ....    1
 Number of Electrons    NEL             ....  144
 Basis Dimension        Dim             ....  540

ORBITAL ENERGIES
----------------

  NO   OCC          E(Eh)            E(eV)
   0   2.0000     -88.594491     -2410.7787
   1   2.0000     -24.615790      -669.8297
   2   2.0000     -18.999504      -517.0028
   3   2.0000     -18.995142      -516.8841
   4   2.0000     -14.174087      -385.6965
   5   2.0000     -14.160266      -385.3204
   6   2.0000     -10.168543      -276.7001
   7   2.0000     -10.129005      -275.6242
   8   2.0000     -10.118321      -275.3335
   9   2.0000     -10.099121      -274.8110
  10   2.0000     -10.097979      -274.7800
  11   2.0000     -10.090628      -274.5800
  12   2.0000     -10.083414      -274.3836
  13   2.0000     -10.076086      -274.1842
  14   2.0000     -10.069912      -274.0162
  15   2.0000     -10.063590      -273.8442
  16   2.0000      -9.981892      -271.6211
  17   2.0000      -8.143148      -221.5863
  18   2.0000      -6.182253      -168.2276
  19   2.0000      -6.175432      -168.0421
  20   2.0000      -6.173376      -167.9861
  21   2.0000      -1.472488       -40.0684
  22   2.0000      -1.239486       -33.7281
  23   2.0000      -1.138410       -30.9777
  24   2.0000      -1.048487       -28.5308
  25   2.0000      -0.969121       -26.3711
  26   2.0000      -0.966348       -26.2957
  27   2.0000      -0.923628       -25.1332
  28   2.0000      -0.888784       -24.1850
  29   2.0000      -0.863566       -23.4988
  30   2.0000      -0.835595       -22.7377
  31   2.0000      -0.804526       -21.8923
  32   2.0000      -0.793940       -21.6042
  33   2.0000      -0.764920       -20.8145
  34   2.0000      -0.740137       -20.1402
  35   2.0000      -0.726515       -19.7695
  36   2.0000      -0.717190       -19.5157
  37   2.0000      -0.700316       -19.0566
  38   2.0000      -0.688416       -18.7328
  39   2.0000      -0.667286       -18.1578
  40   2.0000      -0.645882       -17.5753
  41   2.0000      -0.634070       -17.2539
  42   2.0000      -0.626692       -17.0532
  43   2.0000      -0.610797       -16.6206
  44   2.0000      -0.604549       -16.4506
  45   2.0000      -0.590226       -16.0609
  46   2.0000      -0.583327       -15.8731
  47   2.0000      -0.574985       -15.6461
  48   2.0000      -0.563583       -15.3359
  49   2.0000      -0.552799       -15.0424
  50   2.0000      -0.542911       -14.7733
  51   2.0000      -0.539309       -14.6753
  52   2.0000      -0.526971       -14.3396
  53   2.0000      -0.513885       -13.9835
  54   2.0000      -0.499790       -13.6000
  55   2.0000      -0.492893       -13.4123
  56   2.0000      -0.490812       -13.3557
  57   2.0000      -0.481828       -13.1112
  58   2.0000      -0.471887       -12.8407
  59   2.0000      -0.469960       -12.7883
  60   2.0000      -0.461285       -12.5522
  61   2.0000      -0.453137       -12.3305
  62   2.0000      -0.450971       -12.2715
  63   2.0000      -0.443810       -12.0767
  64   2.0000      -0.436592       -11.8803
  65   2.0000      -0.432599       -11.7716
  66   2.0000      -0.427401       -11.6302
  67   2.0000      -0.411655       -11.2017
  68   2.0000      -0.408757       -11.1228
  69   2.0000      -0.400510       -10.8984
  70   2.0000      -0.331252        -9.0138
  71   2.0000      -0.243139        -6.6162
  72   0.0000       0.034445         0.9373
  73   0.0000       0.060036         1.6337
  74   0.0000       0.065939         1.7943
  75   0.0000       0.072275         1.9667
  76   0.0000       0.081302         2.2123

MULLIKEN ATOMIC CHARGES
-----------------------
   0 C :    1.099137
   1 N :    0.699139
   2 C :    0.492713
   3 C :    0.455736
   4 H :   -0.045180
   5 H :   -0.105170
   6 S :    1.152039
   7 C :    0.357462
   8 N :    0.975117
   9 C :    0.648911
  10 H :    0.028461
  11 H :   -0.821645
  12 H :   -1.482694
  13 H :   -0.623792
  14 H :   -0.225530
  15 F :   -0.402260
  16 O :   -0.560060
  17 C :    0.570569
  18 H :   -0.458390
  19 H :   -0.192572
  20 C :    0.197552
  21 C :    0.543543
  22 H :   -0.016423
  23 H :   -0.780246
  24 H :   -0.191327
  25 H :   -0.056088
  26 C :    0.332454
  27 H :   -0.219220
  28 H :   -0.158394
  29 C :    0.023243
  30 H :   -0.265786
  31 H :   -0.251140
  32 C :    0.829313
  33 H :   -0.443242
  34 H :    0.050081
  35 H :    0.059010
  36 H :   -0.444306
  37 H :   -0.127102
  38 H :   -0.067050
  39 O :   -0.576866
Sum of atomic charges:    0.0000000

LOEWDIN ATOMIC CHARGES
----------------------
   0 C :    0.051923
   1 N :    0.024283
   2 C :   -0.042201
   3 C :   -0.046471
   4 H :    0.052379
   5 H :    0.034894
   6 S :    1.114152
   7 C :   -0.229217
   8 N :    0.222703
   9 C :    0.149199
  10 H :   -0.114798
  11 H :   -0.108235
  12 H :   -0.108460
  13 H :   -0.097483
  14 H :    0.014196
  15 F :   -0.240614
  16 O :   -0.410569
  17 C :   -0.023972
  18 H :    0.021443
  19 H :    0.023300
  20 C :   -0.045837
  21 C :   -0.038295
  22 H :    0.049982
  23 H :   -0.015310
  24 H :    0.045176
  25 H :    0.033351
  26 C :   -0.043356
  27 H :    0.027996
  28 H :    0.016221
  29 C :   -0.049001
  30 H :    0.032311
  31 H :    0.008870
  32 C :   -0.039520
  33 H :    0.030928
  34 H :    0.010356
  35 H :    0.023182
  36 H :    0.029968
  37 H :    0.027686
  38 H :    0.029566
  39 O :   -0.420726

  Mayer bond orders larger than 0.100000
B(  0-C ,  1-N ) :   1.1518 B(  0-C , 10-H ) :   0.1262 B(  0-C , 12-H ) :  -0.6082
B(  0-C , 17-C ) :   1.0584 B(  0-C , 18-H ) :   0.5964 B(  0-C , 19-H ) :   0.8116
B(  0-C , 26-C ) :   0.2101 B(  0-C , 27-H ) :   0.1098 B(  1-N ,  7-C ) :   1.1265
B(  1-N ,  9-C ) :   0.2889 B(  1-N , 11-H ) :   0.1327 B(  1-N , 12-H ) :   0.3905
B(  1-N , 13-H ) :   0.1509 B(  1-N , 14-H ) :  -0.1310 B(  1-N , 18-H ) :   0.3346
B(  1-N , 28-H ) :   0.1086 B(  2-C ,  3-C ) :   1.1530 B(  2-C ,  5-H ) :   0.2902
B(  2-C , 20-C ) :   0.1718 B(  2-C , 21-C ) :   1.1063 B(  2-C , 22-H ) :   0.1181
B(  2-C , 24-H ) :   0.7543 B(  2-C , 25-H ) :   0.7867 B(  3-C ,  4-H ) :   0.8719
B(  3-C ,  5-H ) :   0.6699 B(  3-C ,  6-S ) :   1.0226 B(  3-C , 21-C ) :   0.1788
B(  5-H ,  6-S ) :   0.1134 B(  6-S , 15-F ) :   0.6477 B(  6-S , 16-O ) :   1.6371
B(  6-S , 39-O ) :   1.4727 B(  7-C ,  8-N ) :   1.0283 B(  7-C ,  9-C ) :   1.5679
B(  7-C , 10-H ) :   0.3971 B(  7-C , 11-H ) :   0.3931 B(  7-C , 12-H ) :  -0.8289
B(  7-C , 13-H ) :  -0.1770 B(  7-C , 18-H ) :   0.1646 B(  8-N ,  9-C ) :   0.1693
B(  8-N , 13-H ) :   0.8090 B(  8-N , 14-H ) :   1.1911 B(  9-C , 10-H ) :   0.5031
B(  9-C , 11-H ) :   0.4973 B( 10-H , 13-H ) :   0.1616 B( 10-H , 18-H ) :  -0.1461
B( 10-H , 19-H ) :   0.1393 B( 11-H , 12-H ) :  -0.1146 B( 12-H , 13-H ) :   0.1258
B( 12-H , 39-O ) :   0.2753 B( 13-H , 14-H ) :  -0.2309 B( 13-H , 15-F ) :   0.2163
B( 16-O , 39-O ) :   0.1142 B( 17-C , 18-H ) :   0.1099 B( 17-C , 19-H ) :   0.1086
B( 17-C , 26-C ) :   1.1630 B( 17-C , 27-H ) :   0.8566 B( 17-C , 28-H ) :   0.6850
B( 17-C , 31-H ) :   0.1298 B( 18-H , 19-H ) :  -0.2730 B( 20-C , 21-C ) :   1.2101
B( 20-C , 22-H ) :   0.1159 B( 20-C , 23-H ) :   0.1459 B( 20-C , 29-C ) :   0.1963
B( 20-C , 32-C ) :   1.1137 B( 20-C , 35-H ) :   0.8251 B( 20-C , 36-H ) :   0.8666
B( 20-C , 37-H ) :   0.1031 B( 20-C , 38-H ) :   0.2758 B( 21-C , 22-H ) :   0.6549
B( 21-C , 23-H ) :   0.4767 B( 21-C , 24-H ) :   0.2044 B( 21-C , 25-H ) :   0.1070
B( 21-C , 35-H ) :   0.1082 B( 21-C , 36-H ) :   0.2135 B( 22-H , 23-H ) :   0.2107
B( 23-H , 34-H ) :   0.1471 B( 24-H , 25-H ) :  -0.1006 B( 26-C , 28-H ) :   0.2790
B( 26-C , 29-C ) :   1.2107 B( 26-C , 30-H ) :   0.8116 B( 26-C , 31-H ) :   0.8474
B( 26-C , 33-H ) :   0.1513 B( 26-C , 34-H ) :   0.1268 B( 27-H , 28-H ) :  -0.1751
B( 29-C , 30-H ) :   0.1676 B( 29-C , 31-H ) :   0.1587 B( 29-C , 32-C ) :   1.1073
B( 29-C , 33-H ) :   0.9503 B( 29-C , 34-H ) :   0.8377 B( 29-C , 37-H ) :   0.3545
B( 29-C , 38-H ) :   0.1358 B( 31-H , 35-H ) :   0.1007 B( 32-C , 37-H ) :   0.5784
B( 32-C , 38-H ) :   0.6220 B( 37-H , 38-H ) :  -0.1452

FINAL SINGLE POINT ENERGY     -1188.109548204160

DIPOLE MOMENT
-------------
                                X             Y             Z
Electronic contribution:    -16.84972       2.62740     -21.30572
Nuclear contribution   :     17.35766      -5.13497      20.30937
                        -----------------------------------------
Total Dipole Moment    :      0.50794      -2.50757      -0.99636
                        -----------------------------------------
Magnitude (a.u.)       :      2.74566
Magnitude (Debye)      :      6.97891

Rotational constants in cm-1:     0.014431     0.012329     0.007535
Rotational constants in MHz :   432.628327   369.619539   225.898827

                             ****ORCA TERMINATED NORMALLY****
TOTAL RUN TIME: 0 days 0 hours 5 minutes 35 seconds 342 msec
