                         Program Version 5.0.0 -  RELEASE  -
|  1> !LC-BLYP RIJCOSX def2-SVPD def2/J TightSCF xyzfile
|  2>
|  3> *xyzfile 0 1 D4.xyz
|  4>
|  5> %MaxCore 64000
|  6>
|  7> %pal nprocs 4
|  8> end
|  9>
| 10> %scf
| 11>   MaxIter 150
| 12> end
| 13>
| 14>
| 15>                          ****END OF INPUT****

CARTESIAN COORDINATES (ANGSTROEM)
---------------------------------
  C      4.490588    1.155899   -2.469290
  C      4.305394    1.222762   -3.908317
  C      4.906458   -3.102816   -5.954844
  C      3.511771   -2.806215   -6.492283
  H      2.736044   -3.373445   -5.973736
  H      3.444904   -3.040831   -7.555281
  S      3.004618   -1.096206   -6.389259
  C      4.631918    2.246365   -4.670958
  N      4.541686    2.143990   -5.987139
  N      5.084086    3.393584   -4.118545
  H      4.920675    3.570501   -3.135870
  H      5.254652    4.197390   -4.706956
  H      3.824530    0.449113   -4.350926
  H      4.343373    1.249318   -6.416646
  H      4.676712    2.956624   -6.574113
  O      4.128856   -0.329647   -6.953717
  F      1.781285   -1.000779   -7.136399
  C      5.942129    0.939500   -2.036893
  H      3.864305    0.328532   -2.136611
  H      4.076233    2.049994   -1.989010
  C      6.462677   -3.117775   -3.944671
  C      5.024977   -3.025679   -4.437625
  H      4.423321   -3.818693   -3.977648
  H      4.579350   -2.087131   -4.108727
  H      5.201533   -4.100207   -6.296905
  H      5.605922   -2.397822   -6.413368
  C      6.559957   -0.356290   -2.559086
  H      5.967976    0.952567   -0.942444
  H      6.547184    1.788331   -2.368849
  C      6.006283   -1.615917   -1.899301
  H      7.642360   -0.318000   -2.402059
  H      6.414855   -0.403433   -3.642587
  C      6.608718   -2.917014   -2.435655
  H      6.190324   -1.561115   -0.820948
  H      4.919250   -1.651245   -2.016586
  H      7.066975   -2.374258   -4.475514
  H      6.887808   -4.089747   -4.215332
  H      6.135197   -3.755573   -1.915159
  H      7.671142   -2.955503   -2.172291
  O      2.851546   -0.783683   -4.956789

 Total Charge           Charge          ....    0
 Multiplicity           Mult            ....    1
 Number of Electrons    NEL             ....  144
 Basis Dimension        Dim             ....  540

ORBITAL ENERGIES
----------------

  NO   OCC          E(Eh)            E(eV)
   0   2.0000     -88.584420     -2410.5046
   1   2.0000     -24.611496      -669.7128
   2   2.0000     -18.984155      -516.5851
   3   2.0000     -18.975230      -516.3423
   4   2.0000     -14.165655      -385.4671
   5   2.0000     -14.144863      -384.9013
   6   2.0000     -10.159050      -276.4418
   7   2.0000     -10.114740      -275.2361
   8   2.0000     -10.099106      -274.8106
   9   2.0000     -10.082138      -274.3489
  10   2.0000     -10.076069      -274.1838
  11   2.0000     -10.069464      -274.0040
  12   2.0000     -10.059503      -273.7330
  13   2.0000     -10.050388      -273.4850
  14   2.0000     -10.044770      -273.3321
  15   2.0000     -10.037300      -273.1288
  16   2.0000      -9.967146      -271.2198
  17   2.0000      -8.132772      -221.3040
  18   2.0000      -6.171703      -167.9406
  19   2.0000      -6.165027      -167.7589
  20   2.0000      -6.163148      -167.7078
  21   2.0000      -1.478529       -40.2328
  22   2.0000      -1.218222       -33.1495
  23   2.0000      -1.112980       -30.2857
  24   2.0000      -1.024151       -27.8686
  25   2.0000      -0.953637       -25.9498
  26   2.0000      -0.932713       -25.3804
  27   2.0000      -0.910542       -24.7771
  28   2.0000      -0.880434       -23.9578
  29   2.0000      -0.860156       -23.4060
  30   2.0000      -0.829992       -22.5852
  31   2.0000      -0.803516       -21.8648
  32   2.0000      -0.770411       -20.9639
  33   2.0000      -0.742318       -20.1995
  34   2.0000      -0.720164       -19.5967
  35   2.0000      -0.713451       -19.4140
  36   2.0000      -0.697193       -18.9716
  37   2.0000      -0.692437       -18.8422
  38   2.0000      -0.675275       -18.3752
  39   2.0000      -0.656266       -17.8579
  40   2.0000      -0.640493       -17.4287
  41   2.0000      -0.625183       -17.0121
  42   2.0000      -0.612643       -16.6709
  43   2.0000      -0.603845       -16.4315
  44   2.0000      -0.584759       -15.9121
  45   2.0000      -0.576721       -15.6934
  46   2.0000      -0.571705       -15.5569
  47   2.0000      -0.559817       -15.2334
  48   2.0000      -0.552768       -15.0416
  49   2.0000      -0.535479       -14.5711
  50   2.0000      -0.527626       -14.3574
  51   2.0000      -0.517658       -14.0862
  52   2.0000      -0.515730       -14.0337
  53   2.0000      -0.510675       -13.8962
  54   2.0000      -0.485746       -13.2178
  55   2.0000      -0.481971       -13.1151
  56   2.0000      -0.477219       -12.9858
  57   2.0000      -0.467922       -12.7328
  58   2.0000      -0.459083       -12.4923
  59   2.0000      -0.450531       -12.2596
  60   2.0000      -0.445928       -12.1343
  61   2.0000      -0.435410       -11.8481
  62   2.0000      -0.428478       -11.6595
  63   2.0000      -0.420796       -11.4504
  64   2.0000      -0.416936       -11.3454
  65   2.0000      -0.413697       -11.2573
  66   2.0000      -0.400005       -10.8847
  67   2.0000      -0.391361       -10.6495
  68   2.0000      -0.382333       -10.4038
  69   2.0000      -0.366646        -9.9769
  70   2.0000      -0.336047        -9.1443
  71   2.0000      -0.224976        -6.1219
  72   0.0000       0.039193         1.0665
  73   0.0000       0.065900         1.7932
  74   0.0000       0.068255         1.8573
  75   0.0000       0.080351         2.1865
  76   0.0000       0.091548         2.4911

MULLIKEN ATOMIC CHARGES
-----------------------
   0 C :    0.328579
   1 C :    0.523248
   2 C :    0.433489
   3 C :    0.422251
   4 H :   -0.044200
   5 H :   -0.086488
   6 S :    1.394876
   7 C :    0.576067
   8 N :    0.551574
   9 N :    0.224095
  10 H :   -0.079877
  11 H :   -0.306551
  12 H :   -1.120839
  13 H :   -0.463132
  14 H :   -0.253651
  15 O :   -0.547221
  16 F :   -0.426564
  17 C :    0.594060
  18 H :    0.056715
  19 H :   -0.259221
  20 C :    0.209486
  21 C :    0.562650
  22 H :   -0.020367
  23 H :   -0.824271
  24 H :   -0.176322
  25 H :   -0.021928
  26 C :    0.323156
  27 H :   -0.154222
  28 H :   -0.222755
  29 C :    0.104697
  30 H :   -0.214434
  31 H :   -0.213975
  32 C :    0.816435
  33 H :   -0.446697
  34 H :    0.012014
  35 H :    0.056768
  36 H :   -0.449258
  37 H :   -0.128854
  38 H :   -0.069015
  39 O :   -0.660318
Sum of atomic charges:    0.0000000

LOEWDIN ATOMIC CHARGES
----------------------
   0 C :   -0.054446
   1 C :   -0.021936
   2 C :   -0.028782
   3 C :   -0.058982
   4 H :    0.038618
   5 H :    0.030186
   6 S :    1.148794
   7 C :   -0.210206
   8 N :    0.215969
   9 N :    0.211525
  10 H :   -0.018941
  11 H :   -0.017932
  12 H :   -0.145716
  13 H :   -0.127096
  14 H :   -0.009970
  15 O :   -0.421393
  16 F :   -0.218717
  17 C :   -0.040648
  18 H :    0.015348
  19 H :    0.010654
  20 C :   -0.045637
  21 C :   -0.034388
  22 H :    0.046983
  23 H :   -0.008671
  24 H :    0.045673
  25 H :    0.037627
  26 C :   -0.041463
  27 H :    0.019977
  28 H :    0.014730
  29 C :   -0.047200
  30 H :    0.029152
  31 H :    0.012616
  32 C :   -0.042071
  33 H :    0.028691
  34 H :    0.011991
  35 H :    0.024791
  36 H :    0.027804
  37 H :    0.025539
  38 H :    0.027537
  39 O :   -0.430012

  Mayer bond orders larger than 0.100000
B(  0-C ,  1-C ) :   1.1509 B(  0-C , 12-H ) :   0.9797 B(  0-C , 17-C ) :   1.0600
B(  0-C , 18-H ) :   0.6477 B(  0-C , 19-H ) :   0.8067 B(  0-C , 26-C ) :   0.1950
B(  0-C , 27-H ) :   0.2180 B(  0-C , 28-H ) :   0.1074 B(  0-C , 30-H ) :  -0.1393
B(  1-C ,  7-C ) :   1.7554 B(  1-C ,  8-N ) :   0.2984 B(  1-C ,  9-N ) :   0.3542
B(  1-C , 12-H ) :  -0.7788 B(  1-C , 17-C ) :   0.1444 B(  1-C , 18-H ) :   0.4853
B(  1-C , 19-H ) :   0.1811 B(  2-C ,  3-C ) :   1.2047 B(  2-C ,  5-H ) :   0.3224
B(  2-C , 20-C ) :   0.1757 B(  2-C , 21-C ) :   1.1162 B(  2-C , 22-H ) :   0.1165
B(  2-C , 24-H ) :   0.7280 B(  2-C , 25-H ) :   0.8080 B(  3-C ,  4-H ) :   0.8798
B(  3-C ,  5-H ) :   0.6054 B(  3-C ,  6-S ) :   0.9920 B(  3-C , 21-C ) :   0.2045
B(  3-C , 25-H ) :   0.1047 B(  6-S , 15-O ) :   1.4153 B(  6-S , 16-F ) :   0.6539
B(  6-S , 39-O ) :   1.5199 B(  7-C ,  8-N ) :   0.9238 B(  7-C ,  9-N ) :   0.8907
B(  7-C , 11-H ) :  -0.1424 B(  7-C , 12-H ) :  -0.1605 B(  7-C , 13-H ) :  -0.2819
B(  7-C , 14-H ) :  -0.1152 B(  8-N ,  9-N ) :   0.1001 B(  8-N , 13-H ) :   1.2386
B(  8-N , 14-H ) :   1.2737 B(  9-N , 10-H ) :   1.0824 B(  9-N , 11-H ) :   1.2896
B( 10-H , 11-H ) :  -0.2043 B( 12-H , 14-H ) :  -0.1002 B( 12-H , 18-H ) :  -0.2435
B( 12-H , 39-O ) :   0.3304 B( 13-H , 14-H ) :  -0.2471 B( 13-H , 15-O ) :   0.1878
B( 17-C , 18-H ) :   0.1272 B( 17-C , 26-C ) :   1.2598 B( 17-C , 27-H ) :   0.7262
B( 17-C , 28-H ) :   0.6278 B( 17-C , 30-H ) :   0.1126 B( 17-C , 31-H ) :   0.1768
B( 17-C , 32-C ) :   0.1000 B( 18-H , 19-H ) :  -0.1235 B( 20-C , 21-C ) :   1.2034
B( 20-C , 22-H ) :   0.1151 B( 20-C , 23-H ) :   0.1546 B( 20-C , 29-C ) :   0.1913
B( 20-C , 32-C ) :   1.1092 B( 20-C , 35-H ) :   0.8223 B( 20-C , 36-H ) :   0.8626
B( 20-C , 38-H ) :   0.2770 B( 21-C , 22-H ) :   0.6463 B( 21-C , 23-H ) :   0.4192
B( 21-C , 24-H ) :   0.2076 B( 21-C , 25-H ) :   0.1042 B( 21-C , 35-H ) :   0.1169
B( 21-C , 36-H ) :   0.2170 B( 22-H , 23-H ) :   0.2300 B( 23-H , 34-H ) :   0.1488
B( 26-C , 27-H ) :   0.1234 B( 26-C , 28-H ) :   0.2835 B( 26-C , 29-C ) :   1.2073
B( 26-C , 30-H ) :   0.7625 B( 26-C , 31-H ) :   0.8156 B( 26-C , 33-H ) :   0.1428
B( 26-C , 34-H ) :   0.1205 B( 27-H , 28-H ) :  -0.1637 B( 29-C , 30-H ) :   0.1522
B( 29-C , 31-H ) :   0.1368 B( 29-C , 32-C ) :   1.1004 B( 29-C , 33-H ) :   0.9409
B( 29-C , 34-H ) :   0.8305 B( 29-C , 37-H ) :   0.3525 B( 29-C , 38-H ) :   0.1361
B( 31-H , 35-H ) :   0.1041 B( 32-C , 37-H ) :   0.5857 B( 32-C , 38-H ) :   0.6186
B( 37-H , 38-H ) :  -0.1416

FINAL SINGLE POINT ENERGY     -1188.097555824939

DIPOLE MOMENT
-------------
                                X             Y             Z
Electronic contribution:    -20.57802       3.42852     -21.96389
Nuclear contribution   :     19.99734      -4.67125      20.55522
                        -----------------------------------------
Total Dipole Moment    :     -0.58068      -1.24273      -1.40867
                        -----------------------------------------
Magnitude (a.u.)       :      1.96619
Magnitude (Debye)      :      4.99766

Rotational constants in cm-1:     0.014213     0.012058     0.007367
Rotational constants in MHz :   426.102180   361.491761   220.844824

                             ****ORCA TERMINATED NORMALLY****
TOTAL RUN TIME: 0 days 0 hours 6 minutes 48 seconds 770 msec
