                         Program Version 5.0.0 -  RELEASE  -
|  1> !LC-BLYP RIJCOSX def2-SVPD def2/J TightSCF xyzfile
|  2>
|  3> *xyzfile 0 1 D8.xyz
|  4>
|  5> %MaxCore 64000
|  6>
|  7> %pal nprocs 4
|  8> end
|  9>
| 10> %scf
| 11>   MaxIter 150
| 12> end
| 13>
| 14>
| 15>                          ****END OF INPUT****

CARTESIAN COORDINATES (ANGSTROEM)
---------------------------------
  C      4.490588    1.155899   -2.469290
  N      4.305394    1.222762   -3.908317
  C      4.906458   -3.102816   -5.954844
  C      3.511771   -2.806215   -6.492283
  H      2.736044   -3.373445   -5.973736
  H      3.444904   -3.040831   -7.555281
  S      3.004618   -1.096206   -6.389259
  C      4.631918    2.246365   -4.670958
  C      4.541686    2.143990   -5.987139
  N      5.084086    3.393584   -4.118545
  H      4.920675    3.570501   -3.135870
  H      5.254652    4.197390   -4.706956
  H      3.824530    0.449113   -4.350926
  H      4.343373    1.249318   -6.416646
  H      4.676712    2.956624   -6.574113
  O      4.128856   -0.329647   -6.953717
  O      1.781285   -1.000779   -7.136399
  C      5.942129    0.939500   -2.036893
  H      3.864305    0.328532   -2.136611
  H      4.076233    2.049994   -1.989010
  C      6.462677   -3.117775   -3.944671
  C      5.024977   -3.025679   -4.437625
  H      4.423321   -3.818693   -3.977648
  H      4.579350   -2.087131   -4.108727
  H      5.201533   -4.100207   -6.296905
  H      5.605922   -2.397822   -6.413368
  C      6.559957   -0.356290   -2.559086
  H      5.967976    0.952567   -0.942444
  H      6.547184    1.788331   -2.368849
  C      6.006283   -1.615917   -1.899301
  H      7.642360   -0.318000   -2.402059
  H      6.414855   -0.403433   -3.642587
  C      6.608718   -2.917014   -2.435655
  H      6.190324   -1.561115   -0.820948
  H      4.919250   -1.651245   -2.016586
  H      7.066975   -2.374258   -4.475514
  H      6.887808   -4.089747   -4.215332
  H      6.135197   -3.755573   -1.915159
  H      7.671142   -2.955503   -2.172291
  F      2.851546   -0.783683   -4.956789

 Total Charge           Charge          ....    0
 Multiplicity           Mult            ....    1
 Number of Electrons    NEL             ....  144
 Basis Dimension        Dim             ....  540

ORBITAL ENERGIES
----------------

  NO   OCC          E(Eh)            E(eV)
   0   2.0000     -88.573847     -2410.2169
   1   2.0000     -24.598747      -669.3659
   2   2.0000     -18.981130      -516.5028
   3   2.0000     -18.967241      -516.1249
   4   2.0000     -14.173361      -385.6768
   5   2.0000     -14.171797      -385.6342
   6   2.0000     -10.154414      -276.3156
   7   2.0000     -10.116675      -275.2887
   8   2.0000     -10.115903      -275.2677
   9   2.0000     -10.113120      -275.1920
  10   2.0000     -10.101788      -274.8836
  11   2.0000     -10.091477      -274.6030
  12   2.0000     -10.087377      -274.4915
  13   2.0000     -10.084015      -274.4000
  14   2.0000     -10.078359      -274.2461
  15   2.0000     -10.078096      -274.2389
  16   2.0000      -9.966927      -271.2139
  17   2.0000      -8.122377      -221.0211
  18   2.0000      -6.161457      -167.6618
  19   2.0000      -6.154463      -167.4715
  20   2.0000      -6.152822      -167.4268
  21   2.0000      -1.454401       -39.5763
  22   2.0000      -1.218486       -33.1567
  23   2.0000      -1.115710       -30.3600
  24   2.0000      -1.050126       -28.5754
  25   2.0000      -0.964251       -26.2386
  26   2.0000      -0.956524       -26.0283
  27   2.0000      -0.923961       -25.1423
  28   2.0000      -0.894836       -24.3497
  29   2.0000      -0.859613       -23.3913
  30   2.0000      -0.837558       -22.7911
  31   2.0000      -0.815102       -22.1801
  32   2.0000      -0.781170       -21.2567
  33   2.0000      -0.758269       -20.6336
  34   2.0000      -0.739408       -20.1203
  35   2.0000      -0.718277       -19.5453
  36   2.0000      -0.704848       -19.1799
  37   2.0000      -0.696068       -18.9410
  38   2.0000      -0.677996       -18.4492
  39   2.0000      -0.667393       -18.1607
  40   2.0000      -0.661532       -18.0012
  41   2.0000      -0.624456       -16.9923
  42   2.0000      -0.612787       -16.6748
  43   2.0000      -0.599465       -16.3123
  44   2.0000      -0.593161       -16.1407
  45   2.0000      -0.589457       -16.0399
  46   2.0000      -0.578869       -15.7518
  47   2.0000      -0.573304       -15.6004
  48   2.0000      -0.566818       -15.4239
  49   2.0000      -0.550435       -14.9781
  50   2.0000      -0.547769       -14.9055
  51   2.0000      -0.538353       -14.6493
  52   2.0000      -0.521215       -14.1830
  53   2.0000      -0.509832       -13.8732
  54   2.0000      -0.498233       -13.5576
  55   2.0000      -0.493933       -13.4406
  56   2.0000      -0.488133       -13.2828
  57   2.0000      -0.480948       -13.0873
  58   2.0000      -0.471433       -12.8284
  59   2.0000      -0.466711       -12.6998
  60   2.0000      -0.464684       -12.6447
  61   2.0000      -0.449225       -12.2240
  62   2.0000      -0.446700       -12.1553
  63   2.0000      -0.439764       -11.9666
  64   2.0000      -0.437281       -11.8990
  65   2.0000      -0.422319       -11.4919
  66   2.0000      -0.419994       -11.4286
  67   2.0000      -0.416460       -11.3325
  68   2.0000      -0.411027       -11.1846
  69   2.0000      -0.392335       -10.6760
  70   2.0000      -0.341504        -9.2928
  71   2.0000      -0.238813        -6.4984
  72   0.0000       0.045962         1.2507
  73   0.0000       0.064014         1.7419
  74   0.0000       0.071822         1.9544
  75   0.0000       0.075188         2.0460
  76   0.0000       0.087470         2.3802

MULLIKEN ATOMIC CHARGES
-----------------------
   0 C :    1.165129
   1 N :    0.695882
   2 C :    0.464335
   3 C :    0.453210
   4 H :   -0.081846
   5 H :   -0.064708
   6 S :    1.220043
   7 C :    0.806891
   8 C :    0.791229
   9 N :    0.495169
  10 H :   -0.099959
  11 H :   -0.244989
  12 H :   -1.363349
  13 H :   -0.745159
  14 H :   -0.767257
  15 O :   -0.577260
  16 O :   -0.577889
  17 C :    0.533069
  18 H :   -0.449302
  19 H :   -0.282192
  20 C :    0.193784
  21 C :    0.494894
  22 H :   -0.013613
  23 H :   -0.804287
  24 H :   -0.165144
  25 H :   -0.006590
  26 C :    0.383492
  27 H :   -0.256572
  28 H :   -0.130879
  29 C :    0.040221
  30 H :   -0.259605
  31 H :   -0.250346
  32 C :    0.818885
  33 H :   -0.449689
  34 H :    0.040237
  35 H :    0.058310
  36 H :   -0.439267
  37 H :   -0.126433
  38 H :   -0.062610
  39 F :   -0.435837
Sum of atomic charges:    0.0000000

LOEWDIN ATOMIC CHARGES
----------------------
   0 C :    0.040567
   1 N :    0.020395
   2 C :   -0.041294
   3 C :   -0.051678
   4 H :    0.036443
   5 H :    0.045118
   6 S :    1.107078
   7 C :   -0.227685
   8 C :    0.170840
   9 N :    0.209677
  10 H :   -0.030476
  11 H :    0.002085
  12 H :   -0.062073
  13 H :   -0.196590
  14 H :   -0.088740
  15 O :   -0.424670
  16 O :   -0.417712
  17 C :   -0.030300
  18 H :    0.018680
  19 H :    0.016423
  20 C :   -0.042205
  21 C :   -0.042392
  22 H :    0.047075
  23 H :   -0.012684
  24 H :    0.044865
  25 H :    0.036951
  26 C :   -0.040275
  27 H :    0.026635
  28 H :    0.017581
  29 C :   -0.050794
  30 H :    0.034107
  31 H :    0.014703
  32 C :   -0.039250
  33 H :    0.030680
  34 H :    0.006767
  35 H :    0.026919
  36 H :    0.032447
  37 H :    0.027822
  38 H :    0.030302
  39 F :   -0.245340

  Mayer bond orders larger than 0.100000
B(  0-C ,  1-N ) :   1.0905 B(  0-C , 12-H ) :  -0.6044 B(  0-C , 17-C ) :   1.0867
B(  0-C , 18-H ) :   0.5016 B(  0-C , 19-H ) :   0.8065 B(  0-C , 26-C ) :   0.2196
B(  0-C , 27-H ) :   0.1255 B(  0-C , 28-H ) :   0.1013 B(  1-N ,  7-C ) :   1.3098
B(  1-N ,  8-C ) :   0.1280 B(  1-N ,  9-N ) :   0.3343 B(  1-N , 12-H ) :   0.4321
B(  1-N , 14-H ) :  -0.1011 B(  1-N , 18-H ) :   0.2963 B(  2-C ,  3-C ) :   1.1821
B(  2-C ,  5-H ) :   0.2946 B(  2-C , 20-C ) :   0.1736 B(  2-C , 21-C ) :   1.1433
B(  2-C , 22-H ) :   0.1186 B(  2-C , 24-H ) :   0.7269 B(  2-C , 25-H ) :   0.8295
B(  3-C ,  4-H ) :   0.8902 B(  3-C ,  5-H ) :   0.6418 B(  3-C ,  6-S ) :   0.9693
B(  3-C , 21-C ) :   0.1994 B(  3-C , 25-H ) :   0.1069 B(  6-S , 15-O ) :   1.5119
B(  6-S , 16-O ) :   1.6022 B(  6-S , 39-F ) :   0.6334 B(  7-C ,  8-C ) :   1.2691
B(  7-C ,  9-N ) :   0.9025 B(  7-C , 12-H ) :  -0.9099 B(  7-C , 14-H ) :   0.2114
B(  7-C , 17-C ) :   0.1086 B(  8-C ,  9-N ) :   0.3026 B(  8-C , 12-H ) :   0.1125
B(  8-C , 13-H ) :   0.4453 B(  8-C , 14-H ) :   0.5312 B(  9-N , 10-H ) :   0.9670
B(  9-N , 11-H ) :   1.1759 B(  9-N , 18-H ) :  -0.1010 B(  9-N , 19-H ) :   0.1032
B( 10-H , 11-H ) :  -0.2011 B( 12-H , 18-H ) :   0.1633 B( 12-H , 39-F ) :   0.2709
B( 13-H , 14-H ) :  -0.2063 B( 13-H , 15-O ) :   0.1647 B( 17-C , 18-H ) :   0.1143
B( 17-C , 19-H ) :   0.1316 B( 17-C , 26-C ) :   1.1981 B( 17-C , 27-H ) :   0.8831
B( 17-C , 28-H ) :   0.6478 B( 17-C , 31-H ) :   0.1267 B( 17-C , 32-C ) :   0.1051
B( 18-H , 19-H ) :  -0.2337 B( 18-H , 26-C ) :  -0.1166 B( 20-C , 21-C ) :   1.2254
B( 20-C , 22-H ) :   0.1170 B( 20-C , 23-H ) :   0.1616 B( 20-C , 29-C ) :   0.2042
B( 20-C , 32-C ) :   1.1102 B( 20-C , 35-H ) :   0.8262 B( 20-C , 36-H ) :   0.8590
B( 20-C , 38-H ) :   0.2764 B( 21-C , 22-H ) :   0.6534 B( 21-C , 23-H ) :   0.4444
B( 21-C , 24-H ) :   0.2124 B( 21-C , 25-H ) :   0.1068 B( 21-C , 35-H ) :   0.1052
B( 21-C , 36-H ) :   0.2152 B( 22-H , 23-H ) :   0.2265 B( 23-H , 34-H ) :   0.1614
B( 26-C , 28-H ) :   0.2691 B( 26-C , 29-C ) :   1.2061 B( 26-C , 30-H ) :   0.8002
B( 26-C , 31-H ) :   0.8382 B( 26-C , 33-H ) :   0.1470 B( 26-C , 34-H ) :   0.1176
B( 27-H , 28-H ) :  -0.1410 B( 29-C , 30-H ) :   0.1683 B( 29-C , 31-H ) :   0.1443
B( 29-C , 32-C ) :   1.1066 B( 29-C , 33-H ) :   0.9500 B( 29-C , 34-H ) :   0.8276
B( 29-C , 37-H ) :   0.3517 B( 29-C , 38-H ) :   0.1353 B( 31-H , 35-H ) :   0.1108
B( 32-C , 37-H ) :   0.5811 B( 32-C , 38-H ) :   0.6231 B( 37-H , 38-H ) :  -0.1443

FINAL SINGLE POINT ENERGY     -1188.093184444357

DIPOLE MOMENT
-------------
                                X             Y             Z
Electronic contribution:    -18.42303       3.11472     -16.16573
Nuclear contribution   :     18.77618      -4.78855      17.68602
                        -----------------------------------------
Total Dipole Moment    :      0.35315      -1.67382       1.52029
                        -----------------------------------------
Magnitude (a.u.)       :      2.28860
Magnitude (Debye)      :      5.81716

Rotational constants in cm-1:     0.014368     0.012319     0.007509
Rotational constants in MHz :   430.738566   369.302170   225.105103

                             ****ORCA TERMINATED NORMALLY****
TOTAL RUN TIME: 0 days 0 hours 5 minutes 35 seconds 579 msec
