                         Program Version 5.0.0 -  RELEASE  -
|  1> !PBE0 D3BJ RIJCOSX def2-SVP def2/J TightSCF
|  2> *xyz -1 1
|  3> C         -7.33044       -2.67899       -3.20681
|  4> S         -6.01966       -2.92697       -4.41913
|  5> O         -5.64583       -1.58838       -4.91931
|  6> O         -4.88196       -3.50370       -3.66724
|  7> O         -6.54927       -3.80515       -5.42507
|  8> C         -7.46900       -1.24615       -2.71383
|  9> H         -7.11825       -3.37982       -2.39805
| 10> H         -8.24184       -3.00474       -3.70651
| 11> H         -7.67580       -0.60214       -3.54292
| 12> H         -6.55749       -0.94096       -2.24382
| 13> H         -8.27114       -1.18777       -2.00810
| 14> *
| 15> %MaxCore 64000
| 16>
| 17> %pal nprocs 4
| 18> end
| 19>
| 20> %scf
| 21>   MaxIter 150
| 22> end
| 23>
| 24>
| 25>                          ****END OF INPUT****

CARTESIAN COORDINATES (ANGSTROEM)
---------------------------------
  C     -7.330440   -2.678990   -3.206810
  S     -6.019660   -2.926970   -4.419130
  O     -5.645830   -1.588380   -4.919310
  O     -4.881960   -3.503700   -3.667240
  O     -6.549270   -3.805150   -5.425070
  C     -7.469000   -1.246150   -2.713830
  H     -7.118250   -3.379820   -2.398050
  H     -8.241840   -3.004740   -3.706510
  H     -7.675800   -0.602140   -3.542920
  H     -6.557490   -0.940960   -2.243820
  H     -8.271140   -1.187770   -2.008100

 Total Charge           Charge          ....   -1
 Multiplicity           Mult            ....    1
 Number of Electrons    NEL             ....   58
 Basis Dimension        Dim             ....  113

ORBITAL ENERGIES
----------------

  NO   OCC          E(Eh)            E(eV)
   0   2.0000     -88.997061     -2421.7331
   1   2.0000     -18.963171      -516.0141
   2   2.0000     -18.952861      -515.7336
   3   2.0000     -18.946481      -515.5600
   4   2.0000     -10.083669      -274.3906
   5   2.0000     -10.081033      -274.3189
   6   2.0000      -7.963899      -216.7087
   7   2.0000      -5.905478      -160.6962
   8   2.0000      -5.905437      -160.6951
   9   2.0000      -5.905174      -160.6880
  10   2.0000      -0.925598       -25.1868
  11   2.0000      -0.783284       -21.3142
  12   2.0000      -0.759122       -20.6568
  13   2.0000      -0.642758       -17.4903
  14   2.0000      -0.513269       -13.9668
  15   2.0000      -0.380094       -10.3429
  16   2.0000      -0.325576        -8.8594
  17   2.0000      -0.311422        -8.4742
  18   2.0000      -0.275623        -7.5001
  19   2.0000      -0.253196        -6.8898
  20   2.0000      -0.249013        -6.7760
  21   2.0000      -0.228846        -6.2272
  22   2.0000      -0.220563        -6.0018
  23   2.0000      -0.131597        -3.5809
  24   2.0000      -0.130959        -3.5636
  25   2.0000      -0.098772        -2.6877
  26   2.0000      -0.092265        -2.5107
  27   2.0000      -0.081109        -2.2071
  28   2.0000      -0.044709        -1.2166
  29   0.0000       0.211416         5.7529
  30   0.0000       0.265627         7.2281
  31   0.0000       0.266950         7.2641
  32   0.0000       0.275490         7.4965
  33   0.0000       0.297676         8.1002

MULLIKEN ATOMIC CHARGES
-----------------------
   0 C :   -0.162354
   1 S :    0.897515
   2 O :   -0.610411
   3 O :   -0.627528
   4 O :   -0.578370
   5 C :   -0.023598
   6 H :    0.032167
   7 H :    0.024390
   8 H :    0.031333
   9 H :    0.031575
  10 H :   -0.014717
Sum of atomic charges:   -1.0000000

LOEWDIN ATOMIC CHARGES
----------------------
   0 C :   -0.196782
   1 S :    1.098751
   2 O :   -0.637369
   3 O :   -0.652738
   4 O :   -0.602445
   5 C :   -0.080519
   6 H :    0.014712
   7 H :    0.010371
   8 H :    0.020668
   9 H :    0.022115
  10 H :    0.003234

  Mayer bond orders larger than 0.100000
B(  0-C ,  1-S ) :   0.8756 B(  0-C ,  5-C ) :   1.0742 B(  0-C ,  6-H ) :   0.9449
B(  0-C ,  7-H ) :   0.9451 B(  1-S ,  2-O ) :   1.5951 B(  1-S ,  3-O ) :   1.5836
B(  1-S ,  4-O ) :   1.6378 B(  5-C ,  8-H ) :   0.9653 B(  5-C ,  9-H ) :   0.9690
B(  5-C , 10-H ) :   0.9588

Dispersion correction           -0.008239706
FINAL SINGLE POINT ENERGY      -702.260006717147

DIPOLE MOMENT
-------------
                                X             Y             Z
Electronic contribution:      4.76946      -3.55260      -5.18748
Nuclear contribution   :     -6.18165       4.01759       6.33106
                        -----------------------------------------
Total Dipole Moment    :     -1.41219       0.46499       1.14358
                        -----------------------------------------
Magnitude (a.u.)       :      1.87571
Magnitude (Debye)      :      4.76767

Rotational constants in cm-1:     0.161711     0.082788     0.081165
Rotational constants in MHz :  4847.971521  2481.906910  2433.276832

                             ****ORCA TERMINATED NORMALLY****
TOTAL RUN TIME: 0 days 0 hours 0 minutes 12 seconds 581 msec
