                         Program Version 5.0.0 -  RELEASE  -
|  1> !PBE0 D3BJ RIJCOSX def2-SVP def2/J TightSCF
|  2> *xyz 1 1
|  3> C         -2.16038       -1.36949       -3.46710
|  4> N         -3.03011       -1.91086       -4.54107
|  5> C         -2.04772        0.14658       -3.51177
|  6> H         -3.47744       -2.79151       -4.25710
|  7> H         -2.53801       -2.01786       -5.43808
|  8> H         -3.89159       -1.37604       -4.71437
|  9> H         -1.18444       -1.84400       -3.56639
| 10> H         -2.59819       -1.70838       -2.52848
| 11> H         -1.61525        0.44478       -4.44395
| 12> H         -1.42718        0.48198       -2.70720
| 13> H         -3.02145        0.57958       -3.41560
| 14> *
| 15> %MaxCore 64000
| 16>
| 17> %pal nprocs 4
| 18> end
| 19>
| 20> %scf
| 21>   MaxIter 150
| 22> end
| 23>
| 24>
| 25>                          ****END OF INPUT****

CARTESIAN COORDINATES (ANGSTROEM)
---------------------------------
  C     -2.160380   -1.369490   -3.467100
  N     -3.030110   -1.910860   -4.541070
  C     -2.047720    0.146580   -3.511770
  H     -3.477440   -2.791510   -4.257100
  H     -2.538010   -2.017860   -5.438080
  H     -3.891590   -1.376040   -4.714370
  H     -1.184440   -1.844000   -3.566390
  H     -2.598190   -1.708380   -2.528480
  H     -1.615250    0.444780   -4.443950
  H     -1.427180    0.481980   -2.707200
  H     -3.021450    0.579580   -3.415600

 Total Charge           Charge          ....    1
 Multiplicity           Mult            ....    1
 Number of Electrons    NEL             ....   26
 Basis Dimension        Dim             ....   82

ORBITAL ENERGIES
----------------

  NO   OCC          E(Eh)            E(eV)
   0   2.0000     -14.734598      -400.9488
   1   2.0000     -10.486504      -285.3523
   2   2.0000     -10.406357      -283.1714
   3   2.0000      -1.237741       -33.6806
   4   2.0000      -0.985103       -26.8060
   5   2.0000      -0.863004       -23.4835
   6   2.0000      -0.828269       -22.5384
   7   2.0000      -0.787868       -21.4390
   8   2.0000      -0.716860       -19.5067
   9   2.0000      -0.656737       -17.8707
  10   2.0000      -0.595514       -16.2048
  11   2.0000      -0.580090       -15.7851
  12   2.0000      -0.561296       -15.2736
  13   0.0000      -0.173884        -4.7316
  14   0.0000      -0.115486        -3.1425
  15   0.0000      -0.114063        -3.1038
  16   0.0000      -0.079447        -2.1619
  17   0.0000      -0.039122        -1.0646

MULLIKEN ATOMIC CHARGES
-----------------------
   0 C :   -0.070121
   1 N :   -0.020672
   2 C :   -0.081265
   3 H :    0.218375
   4 H :    0.228797
   5 H :    0.208934
   6 H :    0.123881
   7 H :    0.116512
   8 H :    0.081309
   9 H :    0.115189
  10 H :    0.079061
Sum of atomic charges:    1.0000000

LOEWDIN ATOMIC CHARGES
----------------------
   0 C :    0.044138
   1 N :    0.288745
   2 C :   -0.048449
   3 H :    0.150403
   4 H :    0.149310
   5 H :    0.145021
   6 H :    0.060005
   7 H :    0.056742
   8 H :    0.044058
   9 H :    0.067294
  10 H :    0.042732

  Mayer bond orders larger than 0.100000
B(  0-C ,  1-N ) :   0.9053 B(  0-C ,  2-C ) :   1.0927 B(  0-C ,  6-H ) :   0.9487
B(  0-C ,  7-H ) :   0.9520 B(  1-N ,  3-H ) :   0.9316 B(  1-N ,  4-H ) :   0.9295
B(  1-N ,  5-H ) :   0.9297 B(  2-C ,  8-H ) :   0.9694 B(  2-C ,  9-H ) :   0.9567
B(  2-C , 10-H ) :   0.9666

Dispersion correction           -0.004996590
FINAL SINGLE POINT ENERGY      -135.271941683609

DIPOLE MOMENT
-------------
                                X             Y             Z
Electronic contribution:     -0.67893      -1.52401      -0.80782
Nuclear contribution   :     -0.15215       0.37393      -0.04773
                        -----------------------------------------
Total Dipole Moment    :     -0.83108      -1.15007      -0.85555
                        -----------------------------------------
Magnitude (a.u.)       :      1.65690
Magnitude (Debye)      :      4.21151

Rotational constants in cm-1:     1.020762     0.277172     0.247319
Rotational constants in MHz : 30601.664035  8309.399682  7414.438136

                             ****ORCA TERMINATED NORMALLY****
TOTAL RUN TIME: 0 days 0 hours 0 minutes 9 seconds 43 msec
