                         Program Version 5.0.0 -  RELEASE  -
|  1> !PBE0 D3BJ RIJCOSX def2-TZVP def2/J TightSCF xyzfile
|  2>
|  3> *xyzfile 0 1 B.xyz
|  4>
|  5> %MaxCore 64000
|  6>
|  7> %pal nprocs 18
|  8> end
|  9>
| 10> %scf
| 11>   MaxIter 150
| 12> end
| 13>
| 14>
| 15>                          ****END OF INPUT****

CARTESIAN COORDINATES (ANGSTROEM)
---------------------------------
  C     -2.160376   -1.369486   -3.467104
  N     -3.030108   -1.910857   -4.541074
  C     -2.047717    0.146583   -3.511774
  C     -7.330440   -2.678991   -3.206811
  S     -6.019659   -2.926965   -4.419128
  H     -3.477443   -2.791513   -4.257096
  H     -2.538013   -2.017860   -5.438075
  H     -3.891589   -1.376039   -4.714365
  O     -5.645830   -1.588384   -4.919307
  O     -4.881961   -3.503697   -3.667235
  H     -1.184438   -1.843997   -3.566393
  H     -2.598195   -1.708376   -2.528477
  O     -6.549267   -3.805150   -5.425071
  C     -3.328755    0.875037   -3.103669
  H     -1.740034    0.452343   -4.517126
  H     -1.232611    0.434938   -2.842208
  C     -3.628487    0.771601   -1.609363
  H     -4.175106    0.490791   -3.682203
  H     -3.237812    1.928663   -3.381480
  C     -4.975718    1.361432   -1.190644
  H     -2.830700    1.276234   -1.054766
  H     -3.594312   -0.275838   -1.294603
  C     -6.184720    0.784347   -1.926464
  H     -4.956292    2.445725   -1.342200
  H     -5.097256    1.205252   -0.114136
  C     -6.286921   -0.735882   -1.893531
  H     -6.163994    1.100199   -2.974250
  H     -7.094530    1.223459   -1.504509
  C     -7.468999   -1.246153   -2.713833
  H     -6.360641   -1.090347   -0.859176
  H     -5.369848   -1.171853   -2.295982
  H     -7.601914   -0.601349   -3.585329
  H     -8.389791   -1.173436   -2.126922
  H     -7.118254   -3.379818   -2.398055
  H     -8.241838   -3.004745   -3.706513

 Total Charge           Charge          ....    0
 Multiplicity           Mult            ....    1
 Number of Electrons    NEL             ....  122
 Basis Dimension        Dim             ....  566

ORBITAL ENERGIES
----------------

  NO   OCC          E(Eh)            E(eV)
   0   2.0000     -89.166565     -2426.3456
   1   2.0000     -19.156316      -521.2698
   2   2.0000     -19.156146      -521.2652
   3   2.0000     -19.140051      -520.8273
   4   2.0000     -14.487028      -394.2121
   5   2.0000     -10.304332      -280.3951
   6   2.0000     -10.257686      -279.1258
   7   2.0000     -10.237500      -278.5765
   8   2.0000     -10.229140      -278.3491
   9   2.0000     -10.221169      -278.1321
  10   2.0000     -10.221076      -278.1296
  11   2.0000     -10.213281      -277.9175
  12   2.0000     -10.212055      -277.8842
  13   2.0000     -10.209146      -277.8050
  14   2.0000      -8.113021      -220.7665
  15   2.0000      -6.050116      -164.6320
  16   2.0000      -6.049404      -164.6126
  17   2.0000      -6.048455      -164.5868
  18   2.0000      -1.120188       -30.4819
  19   2.0000      -1.032244       -28.0888
  20   2.0000      -0.981431       -26.7061
  21   2.0000      -0.979621       -26.6568
  22   2.0000      -0.861355       -23.4387
  23   2.0000      -0.831573       -22.6283
  24   2.0000      -0.804732       -21.8979
  25   2.0000      -0.760526       -20.6950
  26   2.0000      -0.726713       -19.7749
  27   2.0000      -0.681854       -18.5542
  28   2.0000      -0.643471       -17.5097
  29   2.0000      -0.625399       -17.0180
  30   2.0000      -0.611538       -16.6408
  31   2.0000      -0.586090       -15.9483
  32   2.0000      -0.577826       -15.7234
  33   2.0000      -0.553914       -15.0728
  34   2.0000      -0.529771       -14.4158
  35   2.0000      -0.503028       -13.6881
  36   2.0000      -0.501900       -13.6574
  37   2.0000      -0.487729       -13.2718
  38   2.0000      -0.471305       -12.8249
  39   2.0000      -0.460608       -12.5338
  40   2.0000      -0.452605       -12.3160
  41   2.0000      -0.448707       -12.2099
  42   2.0000      -0.442513       -12.0414
  43   2.0000      -0.426964       -11.6183
  44   2.0000      -0.423107       -11.5133
  45   2.0000      -0.412629       -11.2282
  46   2.0000      -0.400005       -10.8847
  47   2.0000      -0.387490       -10.5441
  48   2.0000      -0.380858       -10.3637
  49   2.0000      -0.365919        -9.9572
  50   2.0000      -0.357716        -9.7340
  51   2.0000      -0.348919        -9.4946
  52   2.0000      -0.337220        -9.1762
  53   2.0000      -0.333324        -9.0702
  54   2.0000      -0.329149        -8.9566
  55   2.0000      -0.327305        -8.9064
  56   2.0000      -0.322589        -8.7781
  57   2.0000      -0.293689        -7.9917
  58   2.0000      -0.286925        -7.8076
  59   2.0000      -0.276895        -7.5347
  60   2.0000      -0.252143        -6.8611
  61   0.0000       0.000474         0.0129
  62   0.0000       0.036536         0.9942
  63   0.0000       0.044775         1.2184
  64   0.0000       0.048663         1.3242
  65   0.0000       0.062384         1.6975

MULLIKEN ATOMIC CHARGES
-----------------------
   0 C :   -0.211281
   1 N :   -0.271418
   2 C :   -0.151521
   3 C :   -0.259836
   4 S :    0.841315
   5 H :    0.307372
   6 H :    0.272430
   7 H :    0.287908
   8 O :   -0.589858
   9 O :   -0.589822
  10 H :    0.151221
  11 H :    0.166265
  12 O :   -0.479455
  13 C :   -0.285836
  14 H :    0.118788
  15 H :    0.116112
  16 C :   -0.253473
  17 H :    0.152256
  18 H :    0.117513
  19 C :   -0.134876
  20 H :    0.110525
  21 H :    0.112833
  22 C :   -0.229846
  23 H :    0.100307
  24 H :    0.102924
  25 C :   -0.274046
  26 H :    0.123883
  27 H :    0.105867
  28 C :   -0.136783
  29 H :    0.094879
  30 H :    0.094290
  31 H :    0.114848
  32 H :    0.104191
  33 H :    0.123335
  34 H :    0.148989
Sum of atomic charges:   -0.0000000

LOEWDIN ATOMIC CHARGES
----------------------
   0 C :   -0.274896
   1 N :    0.140172
   2 C :   -0.273606
   3 C :   -0.376793
   4 S :    0.452216
   5 H :    0.171197
   6 H :    0.195691
   7 H :    0.178348
   8 O :   -0.378637
   9 O :   -0.384918
  10 H :    0.138434
  11 H :    0.145468
  12 O :   -0.310669
  13 C :   -0.269260
  14 H :    0.140964
  15 H :    0.149603
  16 C :   -0.274660
  17 H :    0.143269
  18 H :    0.143276
  19 C :   -0.270200
  20 H :    0.137920
  21 H :    0.135578
  22 C :   -0.275227
  23 H :    0.138112
  24 H :    0.139321
  25 C :   -0.274656
  26 H :    0.140018
  27 H :    0.138892
  28 C :   -0.292393
  29 H :    0.134956
  30 H :    0.133353
  31 H :    0.145589
  32 H :    0.137968
  33 H :    0.136873
  34 H :    0.138694

  Mayer bond orders larger than 0.100000
B(  0-C ,  1-N ) :   0.9326 B(  0-C ,  2-C ) :   0.9938 B(  0-C , 10-H ) :   0.9590
B(  0-C , 11-H ) :   0.9614 B(  1-N ,  5-H ) :   0.7840 B(  1-N ,  6-H ) :   0.8947
B(  1-N ,  7-H ) :   0.8217 B(  2-C , 13-C ) :   0.9962 B(  2-C , 14-H ) :   0.9562
B(  2-C , 15-H ) :   0.9501 B(  3-C ,  4-S ) :   0.8954 B(  3-C , 28-C ) :   0.9993
B(  3-C , 33-H ) :   0.9456 B(  3-C , 34-H ) :   0.9472 B(  4-S ,  8-O ) :   1.5816
B(  4-S ,  9-O ) :   1.5545 B(  4-S , 12-O ) :   1.9439 B(  5-H ,  9-O ) :   0.1631
B(  7-H ,  8-O ) :   0.1241 B( 13-C , 16-C ) :   0.9768 B( 13-C , 17-H ) :   0.9734
B( 13-C , 18-H ) :   0.9500 B( 16-C , 19-C ) :   0.9995 B( 16-C , 20-H ) :   0.9478
B( 16-C , 21-H ) :   0.9756 B( 19-C , 22-C ) :   0.9974 B( 19-C , 23-H ) :   0.9614
B( 19-C , 24-H ) :   0.9593 B( 22-C , 25-C ) :   0.9902 B( 22-C , 26-H ) :   0.9731
B( 22-C , 27-H ) :   0.9551 B( 25-C , 28-C ) :   1.0072 B( 25-C , 29-H ) :   0.9498
B( 25-C , 30-H ) :   0.9714 B( 28-C , 31-H ) :   0.9550 B( 28-C , 32-H ) :   0.9422

Dispersion correction           -0.036611394
FINAL SINGLE POINT ENERGY     -1033.665927224649

DIPOLE MOMENT
-------------
                                X             Y             Z
Electronic contribution:     -5.95277     -15.23629     -11.46717
Nuclear contribution   :      8.59301      16.99497      12.41069
                        -----------------------------------------
Total Dipole Moment    :      2.64025       1.75868       0.94352
                        -----------------------------------------
Magnitude (a.u.)       :      3.30970
Magnitude (Debye)      :      8.41258

Rotational constants in cm-1:     0.025617     0.015295     0.010641
Rotational constants in MHz :   767.991150   458.522408   319.013093

                             ****ORCA TERMINATED NORMALLY****
TOTAL RUN TIME: 0 days 0 hours 1 minutes 1 seconds 431 msec
