                         Program Version 5.0.0 -  RELEASE  -
|  1> !PBE0 D3BJ RIJCOSX def2-SVP def2/J TightSCF
|  2> *xyz 0 1
|  3> C         -7.33044       -2.67899       -3.20681
|  4> S         -6.01966       -2.92697       -4.41913
|  5> F         -5.64583       -1.58838       -4.91931
|  6> O         -4.88196       -3.50370       -3.66724
|  7> O         -6.54927       -3.80515       -5.42507
|  8> C         -7.46900       -1.24615       -2.71383
|  9> H         -7.11825       -3.37982       -2.39805
| 10> H         -8.24184       -3.00474       -3.70651
| 11> H         -7.67580       -0.60214       -3.54292
| 12> H         -6.55749       -0.94096       -2.24382
| 13> H         -8.27114       -1.18777       -2.00810
| 14> *
| 15> %MaxCore 64000
| 16>
| 17> %pal nprocs 4
| 18> end
| 19>
| 20> %scf
| 21>   MaxIter 150
| 22> end
| 23>
| 24>
| 25>                          ****END OF INPUT****

CARTESIAN COORDINATES (ANGSTROEM)
---------------------------------
  C     -7.330440   -2.678990   -3.206810
  S     -6.019660   -2.926970   -4.419130
  F     -5.645830   -1.588380   -4.919310
  O     -4.881960   -3.503700   -3.667240
  O     -6.549270   -3.805150   -5.425070
  C     -7.469000   -1.246150   -2.713830
  H     -7.118250   -3.379820   -2.398050
  H     -8.241840   -3.004740   -3.706510
  H     -7.675800   -0.602140   -3.542920
  H     -6.557490   -0.940960   -2.243820
  H     -8.271140   -1.187770   -2.008100

 Total Charge           Charge          ....    0
 Multiplicity           Mult            ....    1
 Number of Electrons    NEL             ....   58
 Basis Dimension        Dim             ....  113

ORBITAL ENERGIES
----------------

  NO   OCC          E(Eh)            E(eV)
   0   2.0000     -89.269994     -2429.1600
   1   2.0000     -24.872180      -676.8064
   2   2.0000     -19.216066      -522.8957
   3   2.0000     -19.199894      -522.4557
   4   2.0000     -10.292974      -280.0861
   5   2.0000     -10.260871      -279.2125
   6   2.0000      -8.239179      -224.1995
   7   2.0000      -6.184704      -168.2944
   8   2.0000      -6.178411      -168.1231
   9   2.0000      -6.177299      -168.0929
  10   2.0000      -1.372836       -37.3568
  11   2.0000      -1.128572       -30.7100
  12   2.0000      -1.022465       -27.8227
  13   2.0000      -0.847629       -23.0651
  14   2.0000      -0.738607       -20.0985
  15   2.0000      -0.691861       -18.8265
  16   2.0000      -0.601388       -16.3646
  17   2.0000      -0.580179       -15.7875
  18   2.0000      -0.552109       -15.0237
  19   2.0000      -0.513557       -13.9746
  20   2.0000      -0.486063       -13.2264
  21   2.0000      -0.462867       -12.5952
  22   2.0000      -0.450436       -12.2570
  23   2.0000      -0.428185       -11.6515
  24   2.0000      -0.409852       -11.1526
  25   2.0000      -0.391301       -10.6479
  26   2.0000      -0.340135        -9.2555
  27   2.0000      -0.325282        -8.8514
  28   2.0000      -0.311768        -8.4836
  29   0.0000       0.024532         0.6675
  30   0.0000       0.068901         1.8749
  31   0.0000       0.085401         2.3239
  32   0.0000       0.093624         2.5476
  33   0.0000       0.108135         2.9425

MULLIKEN ATOMIC CHARGES
-----------------------
   0 C :   -0.188932
   1 S :    0.981252
   2 F :   -0.209533
   3 O :   -0.488944
   4 O :   -0.438967
   5 C :   -0.069656
   6 H :    0.118724
   7 H :    0.101558
   8 H :    0.059577
   9 H :    0.068352
  10 H :    0.066567
Sum of atomic charges:    0.0000000

LOEWDIN ATOMIC CHARGES
----------------------
   0 C :   -0.152732
   1 S :    1.164327
   2 F :   -0.149978
   3 O :   -0.524609
   4 O :   -0.473845
   5 C :   -0.071041
   6 H :    0.055632
   7 H :    0.044197
   8 H :    0.031076
   9 H :    0.035058
  10 H :    0.041914

  Mayer bond orders larger than 0.100000
B(  0-C ,  1-S ) :   0.9185 B(  0-C ,  5-C ) :   1.0558 B(  0-C ,  6-H ) :   0.9335
B(  0-C ,  7-H ) :   0.9360 B(  1-S ,  2-F ) :   0.9777 B(  1-S ,  3-O ) :   1.7394
B(  1-S ,  4-O ) :   1.7890 B(  5-C ,  8-H ) :   0.9722 B(  5-C ,  9-H ) :   0.9710
B(  5-C , 10-H ) :   0.9621

Dispersion correction           -0.007824341
FINAL SINGLE POINT ENERGY      -726.761525481406

DIPOLE MOMENT
-------------
                                X             Y             Z
Electronic contribution:      5.66910      -1.72793      -6.40713
Nuclear contribution   :     -6.81251       2.87933       7.15058
                        -----------------------------------------
Total Dipole Moment    :     -1.14341       1.15140       0.74344
                        -----------------------------------------
Magnitude (a.u.)       :      1.78489
Magnitude (Debye)      :      4.53682

Rotational constants in cm-1:     0.152543     0.082494     0.078987
Rotational constants in MHz :  4573.135887  2473.116216  2367.980829

                             ****ORCA TERMINATED NORMALLY****
TOTAL RUN TIME: 0 days 0 hours 0 minutes 12 seconds 647 msec
