                         Program Version 5.0.0 -  RELEASE  -
|  1> !PBE0 D3BJ RIJCOSX def2-SVP def2/J TightSCF
|  2> *xyz 0 1
|  3> C         -2.16038       -1.36949       -3.46710
|  4> C         -3.03011       -1.91086       -4.54107
|  5> C         -2.04772        0.14658       -3.51177
|  6> H         -3.47744       -2.79151       -4.25710
|  7> H         -2.53801       -2.01786       -5.43808
|  8> H         -3.89159       -1.37604       -4.71437
|  9> H         -1.18444       -1.84400       -3.56639
| 10> H         -2.59819       -1.70838       -2.52848
| 11> H         -1.61525        0.44478       -4.44395
| 12> H         -1.42718        0.48198       -2.70720
| 13> H         -3.02145        0.57958       -3.41560
| 14> *
| 15> %MaxCore 64000
| 16>
| 17> %pal nprocs 4
| 18> end
| 19>
| 20> %scf
| 21>   MaxIter 150
| 22> end
| 23>
| 24>
| 25>                          ****END OF INPUT****

CARTESIAN COORDINATES (ANGSTROEM)
---------------------------------
  C     -2.160380   -1.369490   -3.467100
  C     -3.030110   -1.910860   -4.541070
  C     -2.047720    0.146580   -3.511770
  H     -3.477440   -2.791510   -4.257100
  H     -2.538010   -2.017860   -5.438080
  H     -3.891590   -1.376040   -4.714370
  H     -1.184440   -1.844000   -3.566390
  H     -2.598190   -1.708380   -2.528480
  H     -1.615250    0.444780   -4.443950
  H     -1.427180    0.481980   -2.707200
  H     -3.021450    0.579580   -3.415600

 Total Charge           Charge          ....    0
 Multiplicity           Mult            ....    1
 Number of Electrons    NEL             ....   26
 Basis Dimension        Dim             ....   82

ORBITAL ENERGIES
----------------

  NO   OCC          E(Eh)            E(eV)
   0   2.0000     -10.217710      -278.0380
   1   2.0000     -10.209532      -277.8155
   2   2.0000     -10.192097      -277.3411
   3   2.0000      -0.806127       -21.9358
   4   2.0000      -0.704611       -19.1734
   5   2.0000      -0.599472       -16.3125
   6   2.0000      -0.481503       -13.1024
   7   2.0000      -0.451413       -12.2836
   8   2.0000      -0.413579       -11.2541
   9   2.0000      -0.404376       -11.0036
  10   2.0000      -0.350329        -9.5329
  11   2.0000      -0.337893        -9.1945
  12   2.0000      -0.336495        -9.1565
  13   0.0000       0.074771         2.0346
  14   0.0000       0.121331         3.3016
  15   0.0000       0.125132         3.4050
  16   0.0000       0.126795         3.4503
  17   0.0000       0.158068         4.3013

MULLIKEN ATOMIC CHARGES
-----------------------
   0 C :   -0.141052
   1 C :    0.009173
   2 C :   -0.047597
   3 H :    0.003718
   4 H :    0.019132
   5 H :   -0.002023
   6 H :    0.034123
   7 H :    0.030116
   8 H :    0.031475
   9 H :    0.031941
  10 H :    0.030995
Sum of atomic charges:   -0.0000000

LOEWDIN ATOMIC CHARGES
----------------------
   0 C :   -0.050854
   1 C :   -0.060023
   2 C :   -0.061664
   3 H :    0.020643
   4 H :    0.017164
   5 H :    0.017111
   6 H :    0.024756
   7 H :    0.023410
   8 H :    0.023209
   9 H :    0.023375
  10 H :    0.022873

  Mayer bond orders larger than 0.100000
B(  0-C ,  1-C ) :   1.0967 B(  0-C ,  2-C ) :   1.0935 B(  0-C ,  6-H ) :   0.9578
B(  0-C ,  7-H ) :   0.9601 B(  1-C ,  3-H ) :   0.9640 B(  1-C ,  4-H ) :   0.9738
B(  1-C ,  5-H ) :   0.9648 B(  2-C ,  8-H ) :   0.9763 B(  2-C ,  9-H ) :   0.9720
B(  2-C , 10-H ) :   0.9739

Dispersion correction           -0.005016279
FINAL SINGLE POINT ENERGY      -118.886102689653

DIPOLE MOMENT
-------------
                                X             Y             Z
Electronic contribution:      0.31269      -0.12313       0.26942
Nuclear contribution   :     -0.34625       0.09603      -0.26933
                        -----------------------------------------
Total Dipole Moment    :     -0.03355      -0.02710       0.00009
                        -----------------------------------------
Magnitude (a.u.)       :      0.04313
Magnitude (Debye)      :      0.10963

Rotational constants in cm-1:     1.028617     0.291238     0.258956
Rotational constants in MHz : 30837.159054  8731.095379  7763.318586

                             ****ORCA TERMINATED NORMALLY****
TOTAL RUN TIME: 0 days 0 hours 0 minutes 8 seconds 632 msec
