                         Program Version 5.0.0 -  RELEASE  -
|  1> !PBE0 D3BJ RIJCOSX def2-SVP def2/J TightSCF
|  2> *xyz 0 1
|  3> C         -7.33044       -2.67899       -3.20681
|  4> S         -6.01966       -2.92697       -4.41913
|  5> O         -5.64583       -1.58838       -4.91931
|  6> F         -4.88196       -3.50370       -3.66724
|  7> O         -6.54927       -3.80515       -5.42507
|  8> C         -7.46900       -1.24615       -2.71383
|  9> H         -7.11825       -3.37982       -2.39805
| 10> H         -8.24184       -3.00474       -3.70651
| 11> H         -7.67580       -0.60214       -3.54292
| 12> H         -6.55749       -0.94096       -2.24382
| 13> H         -8.27114       -1.18777       -2.00810
| 14> *
| 15> %MaxCore 64000
| 16>
| 17> %pal nprocs 4
| 18> end
| 19>
| 20> %scf
| 21>   MaxIter 150
| 22> end
| 23>
| 24>
| 25>                          ****END OF INPUT****

CARTESIAN COORDINATES (ANGSTROEM)
---------------------------------
  C     -7.330440   -2.678990   -3.206810
  S     -6.019660   -2.926970   -4.419130
  O     -5.645830   -1.588380   -4.919310
  F     -4.881960   -3.503700   -3.667240
  O     -6.549270   -3.805150   -5.425070
  C     -7.469000   -1.246150   -2.713830
  H     -7.118250   -3.379820   -2.398050
  H     -8.241840   -3.004740   -3.706510
  H     -7.675800   -0.602140   -3.542920
  H     -6.557490   -0.940960   -2.243820
  H     -8.271140   -1.187770   -2.008100

 Total Charge           Charge          ....    0
 Multiplicity           Mult            ....    1
 Number of Electrons    NEL             ....   58
 Basis Dimension        Dim             ....  113

ORBITAL ENERGIES
----------------

  NO   OCC          E(Eh)            E(eV)
   0   2.0000     -89.270774     -2429.1813
   1   2.0000     -24.868305      -676.7010
   2   2.0000     -19.216497      -522.9075
   3   2.0000     -19.205435      -522.6064
   4   2.0000     -10.293428      -280.0984
   5   2.0000     -10.251802      -278.9657
   6   2.0000      -8.239903      -224.2192
   7   2.0000      -6.185309      -168.3108
   8   2.0000      -6.179180      -168.1440
   9   2.0000      -6.178146      -168.1159
  10   2.0000      -1.368484       -37.2384
  11   2.0000      -1.130251       -30.7557
  12   2.0000      -1.027158       -27.9504
  13   2.0000      -0.843036       -22.9402
  14   2.0000      -0.739568       -20.1247
  15   2.0000      -0.684459       -18.6251
  16   2.0000      -0.591567       -16.0974
  17   2.0000      -0.575852       -15.6697
  18   2.0000      -0.561207       -15.2712
  19   2.0000      -0.507010       -13.7964
  20   2.0000      -0.493073       -13.4172
  21   2.0000      -0.464004       -12.6262
  22   2.0000      -0.439774       -11.9669
  23   2.0000      -0.416905       -11.3446
  24   2.0000      -0.408235       -11.1087
  25   2.0000      -0.390965       -10.6387
  26   2.0000      -0.340108        -9.2548
  27   2.0000      -0.332670        -9.0524
  28   2.0000      -0.315988        -8.5985
  29   0.0000       0.039262         1.0684
  30   0.0000       0.050768         1.3815
  31   0.0000       0.083370         2.2686
  32   0.0000       0.093107         2.5336
  33   0.0000       0.109182         2.9710

MULLIKEN ATOMIC CHARGES
-----------------------
   0 C :   -0.207703
   1 S :    0.985660
   2 O :   -0.478566
   3 F :   -0.216616
   4 O :   -0.441070
   5 C :   -0.036351
   6 H :    0.089898
   7 H :    0.112695
   8 H :    0.076810
   9 H :    0.058570
  10 H :    0.056674
Sum of atomic charges:   -0.0000000

LOEWDIN ATOMIC CHARGES
----------------------
   0 C :   -0.159667
   1 S :    1.164798
   2 O :   -0.512607
   3 F :   -0.158049
   4 O :   -0.474728
   5 C :   -0.062427
   6 H :    0.038016
   7 H :    0.052344
   8 H :    0.040013
   9 H :    0.034233
  10 H :    0.038073

  Mayer bond orders larger than 0.100000
B(  0-C ,  1-S ) :   0.9025 B(  0-C ,  5-C ) :   1.0651 B(  0-C ,  6-H ) :   0.9332
B(  0-C ,  7-H ) :   0.9359 B(  1-S ,  2-O ) :   1.7510 B(  1-S ,  3-F ) :   0.9712
B(  1-S ,  4-O ) :   1.7901 B(  5-C ,  8-H ) :   0.9665 B(  5-C ,  9-H ) :   0.9714
B(  5-C , 10-H ) :   0.9590

Dispersion correction           -0.007860089
FINAL SINGLE POINT ENERGY      -726.765538630220

DIPOLE MOMENT
-------------
                                X             Y             Z
Electronic contribution:      7.00431      -4.99722      -4.30675
Nuclear contribution   :     -7.60849       4.87515       5.84588
                        -----------------------------------------
Total Dipole Moment    :     -0.60418      -0.12207       1.53913
                        -----------------------------------------
Magnitude (a.u.)       :      1.65797
Magnitude (Debye)      :      4.21423

Rotational constants in cm-1:     0.153704     0.080342     0.079431
Rotational constants in MHz :  4607.928650  2408.599360  2381.267225

                             ****ORCA TERMINATED NORMALLY****
TOTAL RUN TIME: 0 days 0 hours 0 minutes 12 seconds 199 msec
