                         Program Version 5.0.0 -  RELEASE  -
|  1> !PBE0 D3BJ RIJCOSX def2-SVP def2/J TightSCF
|  2> *xyz 0 1
|  3> C         -7.33044       -2.67899       -3.20681
|  4> S         -6.01966       -2.92697       -4.41913
|  5> O         -5.64583       -1.58838       -4.91931
|  6> O         -4.88196       -3.50370       -3.66724
|  7> F         -6.54927       -3.80515       -5.42507
|  8> C         -7.46900       -1.24615       -2.71383
|  9> H         -7.11825       -3.37982       -2.39805
| 10> H         -8.24184       -3.00474       -3.70651
| 11> H         -7.67580       -0.60214       -3.54292
| 12> H         -6.55749       -0.94096       -2.24382
| 13> H         -8.27114       -1.18777       -2.00810
| 14> *
| 15> %MaxCore 64000
| 16>
| 17> %pal nprocs 4
| 18> end
| 19>
| 20> %scf
| 21>   MaxIter 150
| 22> end
| 23>
| 24>
| 25>                          ****END OF INPUT****

CARTESIAN COORDINATES (ANGSTROEM)
---------------------------------
  C     -7.330440   -2.678990   -3.206810
  S     -6.019660   -2.926970   -4.419130
  O     -5.645830   -1.588380   -4.919310
  O     -4.881960   -3.503700   -3.667240
  F     -6.549270   -3.805150   -5.425070
  C     -7.469000   -1.246150   -2.713830
  H     -7.118250   -3.379820   -2.398050
  H     -8.241840   -3.004740   -3.706510
  H     -7.675800   -0.602140   -3.542920
  H     -6.557490   -0.940960   -2.243820
  H     -8.271140   -1.187770   -2.008100

 Total Charge           Charge          ....    0
 Multiplicity           Mult            ....    1
 Number of Electrons    NEL             ....   58
 Basis Dimension        Dim             ....  113

ORBITAL ENERGIES
----------------

  NO   OCC          E(Eh)            E(eV)
   0   2.0000     -89.272108     -2429.2176
   1   2.0000     -24.890825      -677.3138
   2   2.0000     -19.204981      -522.5941
   3   2.0000     -19.200490      -522.4719
   4   2.0000     -10.294076      -280.1160
   5   2.0000     -10.251857      -278.9672
   6   2.0000      -8.241379      -224.2593
   7   2.0000      -6.187041      -168.3580
   8   2.0000      -6.180387      -168.1769
   9   2.0000      -6.179366      -168.1491
  10   2.0000      -1.406962       -38.2854
  11   2.0000      -1.113371       -30.2964
  12   2.0000      -1.008348       -27.4385
  13   2.0000      -0.843163       -22.9436
  14   2.0000      -0.754031       -20.5182
  15   2.0000      -0.692779       -18.8515
  16   2.0000      -0.605878       -16.4868
  17   2.0000      -0.603052       -16.4099
  18   2.0000      -0.566669       -15.4198
  19   2.0000      -0.509156       -13.8548
  20   2.0000      -0.490725       -13.3533
  21   2.0000      -0.453605       -12.3432
  22   2.0000      -0.436205       -11.8697
  23   2.0000      -0.418854       -11.3976
  24   2.0000      -0.401525       -10.9261
  25   2.0000      -0.383897       -10.4464
  26   2.0000      -0.330761        -9.0005
  27   2.0000      -0.323075        -8.7913
  28   2.0000      -0.301008        -8.1909
  29   0.0000       0.041357         1.1254
  30   0.0000       0.048964         1.3324
  31   0.0000       0.078248         2.1292
  32   0.0000       0.094449         2.5701
  33   0.0000       0.105868         2.8808

MULLIKEN ATOMIC CHARGES
-----------------------
   0 C :   -0.201261
   1 S :    0.974766
   2 O :   -0.473301
   3 O :   -0.484153
   4 F :   -0.171989
   5 C :   -0.032702
   6 H :    0.108016
   7 H :    0.080434
   8 H :    0.067219
   9 H :    0.074700
  10 H :    0.058272
Sum of atomic charges:    0.0000000

LOEWDIN ATOMIC CHARGES
----------------------
   0 C :   -0.158815
   1 S :    1.158050
   2 O :   -0.509165
   3 O :   -0.519677
   4 F :   -0.112384
   5 C :   -0.056721
   6 H :    0.048485
   7 H :    0.033133
   8 H :    0.037139
   9 H :    0.040876
  10 H :    0.039079

  Mayer bond orders larger than 0.100000
B(  0-C ,  1-S ) :   0.9040 B(  0-C ,  5-C ) :   1.0742 B(  0-C ,  6-H ) :   0.9320
B(  0-C ,  7-H ) :   0.9323 B(  1-S ,  2-O ) :   1.7456 B(  1-S ,  3-O ) :   1.7342
B(  1-S ,  4-F ) :   1.0236 B(  5-C ,  8-H ) :   0.9654 B(  5-C ,  9-H ) :   0.9702
B(  5-C , 10-H ) :   0.9597

Dispersion correction           -0.007873420
FINAL SINGLE POINT ENERGY      -726.745504031713

DIPOLE MOMENT
-------------
                                X             Y             Z
Electronic contribution:      4.16592      -5.49115      -7.30220
Nuclear contribution   :     -5.87110       5.18927       7.67759
                        -----------------------------------------
Total Dipole Moment    :     -1.70518      -0.30188       0.37540
                        -----------------------------------------
Magnitude (a.u.)       :      1.77192
Magnitude (Debye)      :      4.50385

Rotational constants in cm-1:     0.155988     0.080452     0.078187
Rotational constants in MHz :  4676.405251  2411.902056  2343.983816

                             ****ORCA TERMINATED NORMALLY****
TOTAL RUN TIME: 0 days 0 hours 0 minutes 12 seconds 532 msec
