                         Program Version 5.0.0 -  RELEASE  -
|  1> !PBE0 D3BJ RIJCOSX def2-TZVP def2/J TightSCF xyzfile
|  2>
|  3> *xyzfile 0 1 D1.xyz
|  4>
|  5> %MaxCore 64000
|  6>
|  7> %pal nprocs 18
|  8> end
|  9>
| 10> %scf
| 11>   MaxIter 150
| 12> end
| 13>
| 14>
| 15>                          ****END OF INPUT****

CARTESIAN COORDINATES (ANGSTROEM)
---------------------------------
  C     -2.160376   -1.369486   -3.467104
  C     -3.030108   -1.910857   -4.541074
  C     -2.047717    0.146583   -3.511774
  C     -7.330440   -2.678991   -3.206811
  S     -6.019659   -2.926965   -4.419128
  H     -3.477443   -2.791513   -4.257096
  H     -2.538013   -2.017860   -5.438075
  H     -3.891589   -1.376039   -4.714365
  F     -5.645830   -1.588384   -4.919307
  O     -4.881961   -3.503697   -3.667235
  H     -1.184438   -1.843997   -3.566393
  H     -2.598195   -1.708376   -2.528477
  O     -6.549267   -3.805150   -5.425071
  C     -3.328755    0.875037   -3.103669
  H     -1.740034    0.452343   -4.517126
  H     -1.232611    0.434938   -2.842208
  C     -3.628487    0.771601   -1.609363
  H     -4.175106    0.490791   -3.682203
  H     -3.237812    1.928663   -3.381480
  C     -4.975718    1.361432   -1.190644
  H     -2.830700    1.276234   -1.054766
  H     -3.594312   -0.275838   -1.294603
  C     -6.184720    0.784347   -1.926464
  H     -4.956292    2.445725   -1.342200
  H     -5.097256    1.205252   -0.114136
  C     -6.286921   -0.735882   -1.893531
  H     -6.163994    1.100199   -2.974250
  H     -7.094530    1.223459   -1.504509
  C     -7.468999   -1.246153   -2.713833
  H     -6.360641   -1.090347   -0.859176
  H     -5.369848   -1.171853   -2.295982
  H     -7.601914   -0.601349   -3.585329
  H     -8.389791   -1.173436   -2.126922
  H     -7.118254   -3.379818   -2.398055
  H     -8.241838   -3.004745   -3.706513

 Total Charge           Charge          ....    0
 Multiplicity           Mult            ....    1
 Number of Electrons    NEL             ....  122
 Basis Dimension        Dim             ....  566

ORBITAL ENERGIES
----------------

  NO   OCC          E(Eh)            E(eV)
   0   2.0000     -89.264892     -2429.0212
   1   2.0000     -24.880926      -677.0444
   2   2.0000     -19.225474      -523.1518
   3   2.0000     -19.211274      -522.7653
   4   2.0000     -10.285011      -279.8694
   5   2.0000     -10.254576      -279.0412
   6   2.0000     -10.233181      -278.4590
   7   2.0000     -10.225756      -278.2570
   8   2.0000     -10.218975      -278.0725
   9   2.0000     -10.212026      -277.8834
  10   2.0000     -10.209579      -277.8168
  11   2.0000     -10.202087      -277.6129
  12   2.0000     -10.191862      -277.3347
  13   2.0000     -10.142592      -275.9940
  14   2.0000      -8.211301      -223.4409
  15   2.0000      -6.151710      -167.3965
  16   2.0000      -6.145238      -167.2204
  17   2.0000      -6.145083      -167.2162
  18   2.0000      -1.396542       -38.0019
  19   2.0000      -1.141767       -31.0691
  20   2.0000      -1.045593       -28.4520
  21   2.0000      -0.871143       -23.7050
  22   2.0000      -0.839918       -22.8553
  23   2.0000      -0.811339       -22.0777
  24   2.0000      -0.783103       -21.3093
  25   2.0000      -0.743620       -20.2349
  26   2.0000      -0.727959       -19.8088
  27   2.0000      -0.691580       -18.8188
  28   2.0000      -0.656516       -17.8647
  29   2.0000      -0.639329       -17.3970
  30   2.0000      -0.608848       -16.5676
  31   2.0000      -0.600308       -16.3352
  32   2.0000      -0.585327       -15.9276
  33   2.0000      -0.569742       -15.5035
  34   2.0000      -0.562873       -15.3165
  35   2.0000      -0.512258       -13.9393
  36   2.0000      -0.505502       -13.7554
  37   2.0000      -0.492269       -13.3953
  38   2.0000      -0.482963       -13.1421
  39   2.0000      -0.477786       -13.0012
  40   2.0000      -0.464892       -12.6503
  41   2.0000      -0.451782       -12.2936
  42   2.0000      -0.446847       -12.1593
  43   2.0000      -0.440640       -11.9904
  44   2.0000      -0.424708       -11.5569
  45   2.0000      -0.409982       -11.1562
  46   2.0000      -0.403925       -10.9913
  47   2.0000      -0.401522       -10.9260
  48   2.0000      -0.388107       -10.5609
  49   2.0000      -0.378829       -10.3085
  50   2.0000      -0.368419       -10.0252
  51   2.0000      -0.365177        -9.9370
  52   2.0000      -0.352053        -9.5798
  53   2.0000      -0.347887        -9.4665
  54   2.0000      -0.341609        -9.2957
  55   2.0000      -0.335205        -9.1214
  56   2.0000      -0.328567        -8.9408
  57   2.0000      -0.325788        -8.8651
  58   2.0000      -0.315184        -8.5766
  59   2.0000      -0.312429        -8.5016
  60   2.0000      -0.288828        -7.8594
  61   0.0000       0.007068         0.1923
  62   0.0000       0.040424         1.1000
  63   0.0000       0.050184         1.3656
  64   0.0000       0.051875         1.4116
  65   0.0000       0.059232         1.6118

MULLIKEN ATOMIC CHARGES
-----------------------
   0 C :   -0.179843
   1 C :   -0.438352
   2 C :   -0.102048
   3 C :   -0.239561
   4 S :    0.862899
   5 H :    0.179339
   6 H :    0.108879
   7 H :    0.085324
   8 F :   -0.111777
   9 O :   -0.438906
  10 H :    0.096936
  11 H :    0.095914
  12 O :   -0.403882
  13 C :   -0.251021
  14 H :    0.093239
  15 H :    0.085556
  16 C :   -0.251982
  17 H :    0.092166
  18 H :    0.101448
  19 C :   -0.132673
  20 H :    0.107512
  21 H :    0.116403
  22 C :   -0.224346
  23 H :    0.100113
  24 H :    0.101268
  25 C :   -0.306039
  26 H :    0.116728
  27 H :    0.108299
  28 C :   -0.208574
  29 H :    0.110696
  30 H :    0.137022
  31 H :    0.127216
  32 H :    0.127702
  33 H :    0.160756
  34 H :    0.173591
Sum of atomic charges:   -0.0000000

LOEWDIN ATOMIC CHARGES
----------------------
   0 C :   -0.302743
   1 C :   -0.341780
   2 C :   -0.270285
   3 C :   -0.357468
   4 S :    0.563310
   5 H :    0.103755
   6 H :    0.104090
   7 H :    0.093255
   8 F :    0.077203
   9 O :   -0.274586
  10 H :    0.136209
  11 H :    0.134114
  12 O :   -0.248073
  13 C :   -0.269995
  14 H :    0.136980
  15 H :    0.135548
  16 C :   -0.273515
  17 H :    0.131301
  18 H :    0.136555
  19 C :   -0.270969
  20 H :    0.138718
  21 H :    0.136038
  22 C :   -0.275895
  23 H :    0.138831
  24 H :    0.137938
  25 C :   -0.273817
  26 H :    0.137282
  27 H :    0.138594
  28 C :   -0.292671
  29 H :    0.140950
  30 H :    0.140933
  31 H :    0.143250
  32 H :    0.147307
  33 H :    0.153143
  34 H :    0.146491

  Mayer bond orders larger than 0.100000
B(  0-C ,  1-C ) :   0.9796 B(  0-C ,  2-C ) :   0.9859 B(  0-C , 10-H ) :   0.9583
B(  0-C , 11-H ) :   0.9867 B(  1-C ,  5-H ) :   0.9574 B(  1-C ,  6-H ) :   0.9531
B(  1-C ,  7-H ) :   0.9956 B(  2-C , 13-C ) :   1.0117 B(  2-C , 14-H ) :   0.9526
B(  2-C , 15-H ) :   0.9556 B(  3-C ,  4-S ) :   0.9133 B(  3-C , 28-C ) :   0.9972
B(  3-C , 33-H ) :   0.9357 B(  3-C , 34-H ) :   0.9408 B(  4-S ,  8-F ) :   1.0911
B(  4-S ,  9-O ) :   1.8099 B(  4-S , 12-O ) :   1.9883 B( 13-C , 16-C ) :   0.9991
B( 13-C , 17-H ) :   0.9724 B( 13-C , 18-H ) :   0.9530 B( 16-C , 19-C ) :   0.9910
B( 16-C , 20-H ) :   0.9523 B( 16-C , 21-H ) :   0.9736 B( 19-C , 22-C ) :   1.0052
B( 19-C , 23-H ) :   0.9592 B( 19-C , 24-H ) :   0.9619 B( 22-C , 25-C ) :   0.9806
B( 22-C , 26-H ) :   0.9688 B( 22-C , 27-H ) :   0.9553 B( 25-C , 28-C ) :   0.9657
B( 25-C , 29-H ) :   0.9481 B( 25-C , 30-H ) :   0.9854 B( 28-C , 31-H ) :   0.9695
B( 28-C , 32-H ) :   0.9406

Dispersion correction           -0.035903492
FINAL SINGLE POINT ENERGY     -1041.556482426303

DIPOLE MOMENT
-------------
                                X             Y             Z
Electronic contribution:    -10.85912     -16.21063     -13.19409
Nuclear contribution   :      9.63012      17.20461      14.03552
                        -----------------------------------------
Total Dipole Moment    :     -1.22900       0.99397       0.84142
                        -----------------------------------------
Magnitude (a.u.)       :      1.79065
Magnitude (Debye)      :      4.55147

Rotational constants in cm-1:     0.025899     0.015189     0.010690
Rotational constants in MHz :   776.424978   455.369614   320.488876

                             ****ORCA TERMINATED NORMALLY****
TOTAL RUN TIME: 0 days 0 hours 1 minutes 1 seconds 735 msec
