                         Program Version 5.0.0 -  RELEASE  -
|  1> !PBE0 D3BJ RIJCOSX def2-TZVP def2/J TightSCF xyzfile
|  2>
|  3> *xyzfile 0 1 D2.xyz
|  4>
|  5> %MaxCore 64000
|  6>
|  7> %pal nprocs 18
|  8> end
|  9>
| 10> %scf
| 11>   MaxIter 150
| 12> end
| 13>
| 14>
| 15>                          ****END OF INPUT****

CARTESIAN COORDINATES (ANGSTROEM)
---------------------------------
  C     -2.160376   -1.369486   -3.467104
  C     -3.030108   -1.910857   -4.541074
  C     -2.047717    0.146583   -3.511774
  C     -7.330440   -2.678991   -3.206811
  S     -6.019659   -2.926965   -4.419128
  H     -3.477443   -2.791513   -4.257096
  H     -2.538013   -2.017860   -5.438075
  H     -3.891589   -1.376039   -4.714365
  O     -5.645830   -1.588384   -4.919307
  F     -4.881961   -3.503697   -3.667235
  H     -1.184438   -1.843997   -3.566393
  H     -2.598195   -1.708376   -2.528477
  O     -6.549267   -3.805150   -5.425071
  C     -3.328755    0.875037   -3.103669
  H     -1.740034    0.452343   -4.517126
  H     -1.232611    0.434938   -2.842208
  C     -3.628487    0.771601   -1.609363
  H     -4.175106    0.490791   -3.682203
  H     -3.237812    1.928663   -3.381480
  C     -4.975718    1.361432   -1.190644
  H     -2.830700    1.276234   -1.054766
  H     -3.594312   -0.275838   -1.294603
  C     -6.184720    0.784347   -1.926464
  H     -4.956292    2.445725   -1.342200
  H     -5.097256    1.205252   -0.114136
  C     -6.286921   -0.735882   -1.893531
  H     -6.163994    1.100199   -2.974250
  H     -7.094530    1.223459   -1.504509
  C     -7.468999   -1.246153   -2.713833
  H     -6.360641   -1.090347   -0.859176
  H     -5.369848   -1.171853   -2.295982
  H     -7.601914   -0.601349   -3.585329
  H     -8.389791   -1.173436   -2.126922
  H     -7.118254   -3.379818   -2.398055
  H     -8.241838   -3.004745   -3.706513

 Total Charge           Charge          ....    0
 Multiplicity           Mult            ....    1
 Number of Electrons    NEL             ....  122
 Basis Dimension        Dim             ....  566

ORBITAL ENERGIES
----------------

  NO   OCC          E(Eh)            E(eV)
   0   2.0000     -89.265113     -2429.0272
   1   2.0000     -24.878560      -676.9800
   2   2.0000     -19.225647      -523.1565
   3   2.0000     -19.214699      -522.8585
   4   2.0000     -10.285674      -279.8874
   5   2.0000     -10.247616      -278.8518
   6   2.0000     -10.229940      -278.3708
   7   2.0000     -10.220197      -278.1057
   8   2.0000     -10.215328      -277.9732
   9   2.0000     -10.209370      -277.8111
  10   2.0000     -10.203886      -277.6618
  11   2.0000     -10.201036      -277.5843
  12   2.0000     -10.194561      -277.4081
  13   2.0000     -10.145739      -276.0796
  14   2.0000      -8.211500      -223.4463
  15   2.0000      -6.151839      -167.4000
  16   2.0000      -6.145619      -167.2308
  17   2.0000      -6.145186      -167.2190
  18   2.0000      -1.394613       -37.9493
  19   2.0000      -1.142731       -31.0953
  20   2.0000      -1.047938       -28.5158
  21   2.0000      -0.866170       -23.5697
  22   2.0000      -0.837190       -22.7811
  23   2.0000      -0.810252       -22.0481
  24   2.0000      -0.783412       -21.3177
  25   2.0000      -0.743132       -20.2216
  26   2.0000      -0.727320       -19.7914
  27   2.0000      -0.688142       -18.7253
  28   2.0000      -0.653125       -17.7724
  29   2.0000      -0.638037       -17.3619
  30   2.0000      -0.599287       -16.3074
  31   2.0000      -0.594168       -16.1681
  32   2.0000      -0.589337       -16.0367
  33   2.0000      -0.575634       -15.6638
  34   2.0000      -0.560315       -15.2470
  35   2.0000      -0.517407       -14.0794
  36   2.0000      -0.499715       -13.5979
  37   2.0000      -0.490468       -13.3463
  38   2.0000      -0.484247       -13.1770
  39   2.0000      -0.478152       -13.0112
  40   2.0000      -0.458607       -12.4793
  41   2.0000      -0.447014       -12.1639
  42   2.0000      -0.444409       -12.0930
  43   2.0000      -0.440128       -11.9765
  44   2.0000      -0.419393       -11.4123
  45   2.0000      -0.412015       -11.2115
  46   2.0000      -0.401300       -10.9199
  47   2.0000      -0.394708       -10.7405
  48   2.0000      -0.385647       -10.4940
  49   2.0000      -0.376407       -10.2426
  50   2.0000      -0.369528       -10.0554
  51   2.0000      -0.356930        -9.7126
  52   2.0000      -0.349935        -9.5222
  53   2.0000      -0.345947        -9.4137
  54   2.0000      -0.340107        -9.2548
  55   2.0000      -0.337143        -9.1741
  56   2.0000      -0.329985        -8.9793
  57   2.0000      -0.324182        -8.8214
  58   2.0000      -0.312454        -8.5023
  59   2.0000      -0.310258        -8.4425
  60   2.0000      -0.297661        -8.0998
  61   0.0000       0.023024         0.6265
  62   0.0000       0.029701         0.8082
  63   0.0000       0.048781         1.3274
  64   0.0000       0.052135         1.4187
  65   0.0000       0.059375         1.6157

MULLIKEN ATOMIC CHARGES
-----------------------
   0 C :   -0.169882
   1 C :   -0.438974
   2 C :   -0.106602
   3 C :   -0.283714
   4 S :    0.865514
   5 H :    0.099288
   6 H :    0.113266
   7 H :    0.163187
   8 O :   -0.440352
   9 F :   -0.111019
  10 H :    0.096162
  11 H :    0.077435
  12 O :   -0.405309
  13 C :   -0.264280
  14 H :    0.095591
  15 H :    0.084420
  16 C :   -0.252265
  17 H :    0.133725
  18 H :    0.098514
  19 C :   -0.131861
  20 H :    0.105581
  21 H :    0.107823
  22 C :   -0.236713
  23 H :    0.099396
  24 H :    0.098135
  25 C :   -0.283124
  26 H :    0.129109
  27 H :    0.104915
  28 C :   -0.139200
  29 H :    0.105362
  30 H :    0.102498
  31 H :    0.134068
  32 H :    0.122456
  33 H :    0.145541
  34 H :    0.181309
Sum of atomic charges:    0.0000000

LOEWDIN ATOMIC CHARGES
----------------------
   0 C :   -0.306807
   1 C :   -0.339866
   2 C :   -0.268754
   3 C :   -0.365098
   4 S :    0.562295
   5 H :    0.094501
   6 H :    0.106330
   7 H :    0.105674
   8 O :   -0.267317
   9 F :    0.069006
  10 H :    0.134521
  11 H :    0.129646
  12 O :   -0.248579
  13 C :   -0.268922
  14 H :    0.138243
  15 H :    0.134988
  16 C :   -0.274588
  17 H :    0.140461
  18 H :    0.136454
  19 C :   -0.271422
  20 H :    0.137695
  21 H :    0.133083
  22 C :   -0.273284
  23 H :    0.138840
  24 H :    0.136687
  25 C :   -0.273682
  26 H :    0.142128
  27 H :    0.138120
  28 C :   -0.284381
  29 H :    0.137169
  30 H :    0.136879
  31 H :    0.151230
  32 H :    0.146118
  33 H :    0.140829
  34 H :    0.151805

  Mayer bond orders larger than 0.100000
B(  0-C ,  1-C ) :   0.9778 B(  0-C ,  2-C ) :   0.9995 B(  0-C , 10-H ) :   0.9589
B(  0-C , 11-H ) :   0.9788 B(  1-C ,  5-H ) :   0.9792 B(  1-C ,  6-H ) :   0.9590
B(  1-C ,  7-H ) :   0.9842 B(  2-C , 13-C ) :   1.0094 B(  2-C , 14-H ) :   0.9527
B(  2-C , 15-H ) :   0.9571 B(  3-C ,  4-S ) :   0.9061 B(  3-C , 28-C ) :   0.9804
B(  3-C , 33-H ) :   0.9404 B(  3-C , 34-H ) :   0.9388 B(  4-S ,  8-O ) :   1.8164
B(  4-S ,  9-F ) :   1.0843 B(  4-S , 12-O ) :   1.9858 B( 13-C , 16-C ) :   0.9971
B( 13-C , 17-H ) :   0.9699 B( 13-C , 18-H ) :   0.9517 B( 16-C , 19-C ) :   0.9933
B( 16-C , 20-H ) :   0.9525 B( 16-C , 21-H ) :   0.9747 B( 19-C , 22-C ) :   1.0024
B( 19-C , 23-H ) :   0.9586 B( 19-C , 24-H ) :   0.9623 B( 22-C , 25-C ) :   1.0006
B( 22-C , 26-H ) :   0.9692 B( 22-C , 27-H ) :   0.9551 B( 25-C , 28-C ) :   0.9916
B( 25-C , 29-H ) :   0.9482 B( 25-C , 30-H ) :   0.9775 B( 28-C , 31-H ) :   0.9539
B( 28-C , 32-H ) :   0.9357

Dispersion correction           -0.036007788
FINAL SINGLE POINT ENERGY     -1041.559798413047

DIPOLE MOMENT
-------------
                                X             Y             Z
Electronic contribution:     -9.52805     -19.51938     -11.11667
Nuclear contribution   :      8.71934      19.48829      12.54264
                        -----------------------------------------
Total Dipole Moment    :     -0.80871      -0.03109       1.42597
                        -----------------------------------------
Magnitude (a.u.)       :      1.63963
Magnitude (Debye)      :      4.16760

Rotational constants in cm-1:     0.025810     0.015137     0.010647
Rotational constants in MHz :   773.773140   453.802427   319.195213

                             ****ORCA TERMINATED NORMALLY****
TOTAL RUN TIME: 0 days 0 hours 1 minutes 17 seconds 322 msec
