                         Program Version 5.0.0 -  RELEASE  -
|  1> !PBE0 D3BJ RIJCOSX def2-TZVP def2/J TightSCF xyzfile
|  2>
|  3> *xyzfile 0 1 D3.xyz
|  4>
|  5> %MaxCore 64000
|  6>
|  7> %pal nprocs 18
|  8> end
|  9>
| 10> %scf
| 11>   MaxIter 150
| 12> end
| 13>
| 14>
| 15>                          ****END OF INPUT****

CARTESIAN COORDINATES (ANGSTROEM)
---------------------------------
  C     -2.160376   -1.369486   -3.467104
  C     -3.030108   -1.910857   -4.541074
  C     -2.047717    0.146583   -3.511774
  C     -7.330440   -2.678991   -3.206811
  S     -6.019659   -2.926965   -4.419128
  H     -3.477443   -2.791513   -4.257096
  H     -2.538013   -2.017860   -5.438075
  H     -3.891589   -1.376039   -4.714365
  O     -5.645830   -1.588384   -4.919307
  O     -4.881961   -3.503697   -3.667235
  H     -1.184438   -1.843997   -3.566393
  H     -2.598195   -1.708376   -2.528477
  F     -6.549267   -3.805150   -5.425071
  C     -3.328755    0.875037   -3.103669
  H     -1.740034    0.452343   -4.517126
  H     -1.232611    0.434938   -2.842208
  C     -3.628487    0.771601   -1.609363
  H     -4.175106    0.490791   -3.682203
  H     -3.237812    1.928663   -3.381480
  C     -4.975718    1.361432   -1.190644
  H     -2.830700    1.276234   -1.054766
  H     -3.594312   -0.275838   -1.294603
  C     -6.184720    0.784347   -1.926464
  H     -4.956292    2.445725   -1.342200
  H     -5.097256    1.205252   -0.114136
  C     -6.286921   -0.735882   -1.893531
  H     -6.163994    1.100199   -2.974250
  H     -7.094530    1.223459   -1.504509
  C     -7.468999   -1.246153   -2.713833
  H     -6.360641   -1.090347   -0.859176
  H     -5.369848   -1.171853   -2.295982
  H     -7.601914   -0.601349   -3.585329
  H     -8.389791   -1.173436   -2.126922
  H     -7.118254   -3.379818   -2.398055
  H     -8.241838   -3.004745   -3.706513

 Total Charge           Charge          ....    0
 Multiplicity           Mult            ....    1
 Number of Electrons    NEL             ....  122
 Basis Dimension        Dim             ....  566

ORBITAL ENERGIES
----------------

  NO   OCC          E(Eh)            E(eV)
   0   2.0000     -89.271320     -2429.1961
   1   2.0000     -24.902774      -677.6389
   2   2.0000     -19.219166      -522.9801
   3   2.0000     -19.216127      -522.8974
   4   2.0000     -10.287679      -279.9420
   5   2.0000     -10.248279      -278.8699
   6   2.0000     -10.222201      -278.1602
   7   2.0000     -10.214832      -277.9597
   8   2.0000     -10.209211      -277.8068
   9   2.0000     -10.201133      -277.5870
  10   2.0000     -10.195248      -277.4268
  11   2.0000     -10.189504      -277.2705
  12   2.0000     -10.178046      -276.9587
  13   2.0000     -10.121038      -275.4075
  14   2.0000      -8.217583      -223.6118
  15   2.0000      -6.157943      -167.5661
  16   2.0000      -6.151567      -167.3926
  17   2.0000      -6.151327      -167.3861
  18   2.0000      -1.428756       -38.8784
  19   2.0000      -1.134409       -30.8688
  20   2.0000      -1.036676       -28.2094
  21   2.0000      -0.864975       -23.5372
  22   2.0000      -0.830738       -22.6055
  23   2.0000      -0.801543       -21.8111
  24   2.0000      -0.780694       -21.2438
  25   2.0000      -0.746714       -20.3191
  26   2.0000      -0.720517       -19.6063
  27   2.0000      -0.683660       -18.6033
  28   2.0000      -0.647889       -17.6300
  29   2.0000      -0.627603       -17.0779
  30   2.0000      -0.617609       -16.8060
  31   2.0000      -0.608942       -16.5702
  32   2.0000      -0.583098       -15.8669
  33   2.0000      -0.577434       -15.7128
  34   2.0000      -0.549937       -14.9645
  35   2.0000      -0.514403       -13.9976
  36   2.0000      -0.503157       -13.6916
  37   2.0000      -0.486422       -13.2362
  38   2.0000      -0.482928       -13.1411
  39   2.0000      -0.472846       -12.8668
  40   2.0000      -0.459553       -12.5051
  41   2.0000      -0.445290       -12.1170
  42   2.0000      -0.433955       -11.8085
  43   2.0000      -0.429793       -11.6953
  44   2.0000      -0.417233       -11.3535
  45   2.0000      -0.400259       -10.8916
  46   2.0000      -0.395209       -10.7542
  47   2.0000      -0.389548       -10.6001
  48   2.0000      -0.376857       -10.2548
  49   2.0000      -0.365786        -9.9535
  50   2.0000      -0.359723        -9.7886
  51   2.0000      -0.349975        -9.5233
  52   2.0000      -0.345607        -9.4044
  53   2.0000      -0.342840        -9.3291
  54   2.0000      -0.334392        -9.0993
  55   2.0000      -0.324502        -8.8301
  56   2.0000      -0.318929        -8.6785
  57   2.0000      -0.314424        -8.5559
  58   2.0000      -0.299688        -8.1549
  59   2.0000      -0.290978        -7.9179
  60   2.0000      -0.276678        -7.5288
  61   0.0000       0.020589         0.5603
  62   0.0000       0.025301         0.6885
  63   0.0000       0.050888         1.3847
  64   0.0000       0.053239         1.4487
  65   0.0000       0.061187         1.6650

MULLIKEN ATOMIC CHARGES
-----------------------
   0 C :   -0.180593
   1 C :   -0.422914
   2 C :   -0.097456
   3 C :   -0.265330
   4 S :    0.864398
   5 H :    0.145152
   6 H :    0.093223
   7 H :    0.137189
   8 O :   -0.434369
   9 O :   -0.431387
  10 H :    0.087769
  11 H :    0.087841
  12 F :   -0.087263
  13 C :   -0.259065
  14 H :    0.088689
  15 H :    0.078894
  16 C :   -0.254101
  17 H :    0.126319
  18 H :    0.093570
  19 C :   -0.128402
  20 H :    0.102310
  21 H :    0.112676
  22 C :   -0.235696
  23 H :    0.096454
  24 H :    0.096427
  25 C :   -0.290148
  26 H :    0.125823
  27 H :    0.100691
  28 C :   -0.160695
  29 H :    0.102835
  30 H :    0.142142
  31 H :    0.127421
  32 H :    0.124289
  33 H :    0.158844
  34 H :    0.154461
Sum of atomic charges:    0.0000000

LOEWDIN ATOMIC CHARGES
----------------------
   0 C :   -0.306764
   1 C :   -0.341610
   2 C :   -0.271000
   3 C :   -0.368228
   4 S :    0.559909
   5 H :    0.100338
   6 H :    0.099859
   7 H :    0.102650
   8 O :   -0.265845
   9 O :   -0.272529
  10 H :    0.132630
  11 H :    0.131913
  12 F :    0.109548
  13 C :   -0.269479
  14 H :    0.136214
  15 H :    0.133082
  16 C :   -0.274255
  17 H :    0.139289
  18 H :    0.134658
  19 C :   -0.271877
  20 H :    0.136922
  21 H :    0.135128
  22 C :   -0.274740
  23 H :    0.137896
  24 H :    0.136208
  25 C :   -0.270609
  26 H :    0.140924
  27 H :    0.136321
  28 C :   -0.282464
  29 H :    0.137428
  30 H :    0.145360
  31 H :    0.149446
  32 H :    0.146756
  33 H :    0.149224
  34 H :    0.137696

  Mayer bond orders larger than 0.100000
B(  0-C ,  1-C ) :   0.9827 B(  0-C ,  2-C ) :   0.9920 B(  0-C , 10-H ) :   0.9579
B(  0-C , 11-H ) :   0.9858 B(  1-C ,  5-H ) :   0.9611 B(  1-C ,  6-H ) :   0.9574
B(  1-C ,  7-H ) :   0.9853 B(  2-C , 13-C ) :   1.0124 B(  2-C , 14-H ) :   0.9515
B(  2-C , 15-H ) :   0.9564 B(  3-C ,  4-S ) :   0.9093 B(  3-C , 28-C ) :   0.9919
B(  3-C , 33-H ) :   0.9332 B(  3-C , 34-H ) :   0.9383 B(  4-S ,  8-O ) :   1.8384
B(  4-S ,  9-O ) :   1.8353 B(  4-S , 12-F ) :   1.1633 B( 13-C , 16-C ) :   1.0024
B( 13-C , 17-H ) :   0.9686 B( 13-C , 18-H ) :   0.9520 B( 16-C , 19-C ) :   0.9925
B( 16-C , 20-H ) :   0.9529 B( 16-C , 21-H ) :   0.9732 B( 19-C , 22-C ) :   1.0062
B( 19-C , 23-H ) :   0.9587 B( 19-C , 24-H ) :   0.9621 B( 22-C , 25-C ) :   0.9962
B( 22-C , 26-H ) :   0.9684 B( 22-C , 27-H ) :   0.9549 B( 25-C , 28-C ) :   0.9952
B( 25-C , 29-H ) :   0.9500 B( 25-C , 30-H ) :   0.9739 B( 28-C , 31-H ) :   0.9550
B( 28-C , 32-H ) :   0.9383

Dispersion correction           -0.036243334
FINAL SINGLE POINT ENERGY     -1041.542167173429

DIPOLE MOMENT
-------------
                                X             Y             Z
Electronic contribution:    -12.64653     -20.28783     -14.32326
Nuclear contribution   :     10.70731      19.84772      14.63855
                        -----------------------------------------
Total Dipole Moment    :     -1.93922      -0.44012       0.31529
                        -----------------------------------------
Magnitude (a.u.)       :      2.01337
Magnitude (Debye)      :      5.11759

Rotational constants in cm-1:     0.026014     0.014812     0.010477
Rotational constants in MHz :   779.874765   444.063394   314.081855

                             ****ORCA TERMINATED NORMALLY****
TOTAL RUN TIME: 0 days 0 hours 1 minutes 5 seconds 590 msec
