                         Program Version 5.0.0 -  RELEASE  -
|  1> !M062X D3Zero RIJCOSX def2-SVPD def2/J TightSCF
|  2> *xyz -1 1
|  3> C          3.90595        2.81985       -3.75292
|  4> C          3.80351        1.37472       -3.26081
|  5> C          3.93993        0.32036       -4.36773
|  6> H          4.10504       -0.65508       -3.90773
|  7> H          3.02280        0.28052       -4.95712
|  8> C          5.10585        0.66802       -5.30546
|  9> H          4.57483        1.21516       -2.50044
| 10> H          2.84351        1.26085       -2.75146
| 11> O          4.80913        1.15019       -6.41436
| 12> O          6.26737        0.56500       -4.81948
| 13> H          3.15892        2.99660       -4.49832
| 14> H          4.87575        2.98549       -4.17357
| 15> H          3.75481        3.48808       -2.93101
| 16> *
| 17>
| 18> %MaxCore 64000
| 19>
| 20> %pal nprocs 4
| 21> end
| 22>
| 23> %scf
| 24>   MaxIter 150
| 25> end
| 26>
| 27>
| 28>                          ****END OF INPUT****

CARTESIAN COORDINATES (ANGSTROEM)
---------------------------------
  C      3.905950    2.819850   -3.752920
  C      3.803510    1.374720   -3.260810
  C      3.939930    0.320360   -4.367730
  H      4.105040   -0.655080   -3.907730
  H      3.022800    0.280520   -4.957120
  C      5.105850    0.668020   -5.305460
  H      4.574830    1.215160   -2.500440
  H      2.843510    1.260850   -2.751460
  O      4.809130    1.150190   -6.414360
  O      6.267370    0.565000   -4.819480
  H      3.158920    2.996600   -4.498320
  H      4.875750    2.985490   -4.173570
  H      3.754810    3.488080   -2.931010

 Total Charge           Charge          ....   -1
 Multiplicity           Mult            ....    1
 Number of Electrons    NEL             ....   48
 Basis Dimension        Dim             ....  182

ORBITAL ENERGIES
----------------

  NO   OCC          E(Eh)            E(eV)
   0   2.0000     -19.377969      -527.3014
   1   2.0000     -19.373997      -527.1933
   2   2.0000     -10.440903      -284.1114
   3   2.0000     -10.402593      -283.0689
   4   2.0000     -10.390028      -282.7270
   5   2.0000     -10.375304      -282.3264
   6   2.0000      -0.933885       -25.4123
   7   2.0000      -0.834209       -22.7000
   8   2.0000      -0.725646       -19.7458
   9   2.0000      -0.622870       -16.9492
  10   2.0000      -0.520931       -14.1753
  11   2.0000      -0.399283       -10.8650
  12   2.0000      -0.372646       -10.1402
  13   2.0000      -0.363103        -9.8805
  14   2.0000      -0.320688        -8.7264
  15   2.0000      -0.310535        -8.4501
  16   2.0000      -0.278979        -7.5914
  17   2.0000      -0.275191        -7.4883
  18   2.0000      -0.261752        -7.1226
  19   2.0000      -0.237004        -6.4492
  20   2.0000      -0.232056        -6.3146
  21   2.0000      -0.116163        -3.1610
  22   2.0000      -0.111007        -3.0207
  23   2.0000      -0.107312        -2.9201
  24   0.0000       0.166080         4.5193
  25   0.0000       0.188760         5.1364
  26   0.0000       0.203520         5.5381
  27   0.0000       0.218126         5.9355
  28   0.0000       0.242622         6.6021

MULLIKEN ATOMIC CHARGES
-----------------------
   0 C :    0.656518
   1 C :   -0.443508
   2 C :    0.246303
   3 H :   -0.067484
   4 H :   -0.017365
   5 C :    0.517000
   6 H :   -0.036250
   7 H :   -0.191791
   8 O :   -0.710679
   9 O :   -0.781350
  10 H :   -0.043884
  11 H :   -0.000366
  12 H :   -0.127145
Sum of atomic charges:   -1.0000000

LOEWDIN ATOMIC CHARGES
----------------------
   0 C :    0.113049
   1 C :   -0.087891
   2 C :    0.000545
   3 H :    0.003962
   4 H :    0.003210
   5 C :   -0.302339
   6 H :    0.013617
   7 H :   -0.004345
   8 O :   -0.325285
   9 O :   -0.340228
  10 H :   -0.018878
  11 H :   -0.017245
  12 H :   -0.038172

  Mayer bond orders larger than 0.100000
B(  0-C ,  1-C ) :   1.3318 B(  0-C ,  7-H ) :   0.1013 B(  0-C , 10-H ) :   0.7764
B(  0-C , 11-H ) :   0.8152 B(  0-C , 12-H ) :   0.7743 B(  1-C ,  2-C ) :   1.1821
B(  1-C ,  3-H ) :   0.1342 B(  1-C ,  4-H ) :   0.1516 B(  1-C ,  6-H ) :   0.9327
B(  1-C ,  7-H ) :   0.9878 B(  1-C , 10-H ) :   0.2120 B(  1-C , 11-H ) :   0.2243
B(  1-C , 12-H ) :   0.2161 B(  2-C ,  3-H ) :   0.8570 B(  2-C ,  4-H ) :   0.8657
B(  2-C ,  5-C ) :   0.9653 B(  2-C ,  6-H ) :   0.1020 B(  3-H ,  5-C ) :   0.1182
B(  4-H ,  5-C ) :   0.1711 B(  5-C ,  8-O ) :   1.4119 B(  5-C ,  9-O ) :   1.3795

Dispersion correction           -0.000186323
FINAL SINGLE POINT ENERGY      -306.799679328130

DIPOLE MOMENT
-------------
                                X             Y             Z
Electronic contribution:      4.14953      -2.84421      -4.81941
Nuclear contribution   :     -5.80393       3.20473       6.46101
                        -----------------------------------------
Total Dipole Moment    :     -1.65440       0.36052       1.64160
                        -----------------------------------------
Magnitude (a.u.)       :      2.35837
Magnitude (Debye)      :      5.99449

Rotational constants in cm-1:     0.184459     0.088019     0.082330
Rotational constants in MHz :  5529.929668  2638.753248  2468.201746

                             ****ORCA TERMINATED NORMALLY****
TOTAL RUN TIME: 0 days 0 hours 0 minutes 19 seconds 927 msec
