                         Program Version 5.0.0 -  RELEASE  -
|  1> !M062X D3Zero RIJCOSX def2-SVPD def2/J TightSCF
|  2> *xyz 1 1
|  3> C          3.90595        2.81985       -3.75292
|  4> N          5.29562        3.13151       -4.10533
|  5> C          3.80351        1.37472       -3.26081
|  6> C          3.93993        0.32036       -4.36773
|  7> C          5.70862        3.46889       -5.32419
|  8> N          6.90470        3.03895       -5.71708
|  9> N          4.98188        4.29357       -6.09746
| 10> H          5.00055        4.10131       -7.08776
| 11> H          4.08469        4.59690       -5.73965
| 12> H          5.96336        2.52611       -3.64239
| 13> H          7.04716        2.06686       -5.47360
| 14> H          7.19815        3.30799       -6.64523
| 15> H          3.28202        2.94919       -4.64026
| 16> H          3.56525        3.51457       -2.98252
| 17> H          4.57483        1.21516       -2.50044
| 18> H          2.84351        1.26085       -2.75146
| 19> H          3.18417        0.48061       -5.10803
| 20> H          3.82485       -0.65632       -3.94614
| 21> H          4.90589        0.40174       -4.82073
| 22> *
| 23>
| 24> %MaxCore 64000
| 25>
| 26> %pal nprocs 4
| 27> end
| 28>
| 29> %scf
| 30>   MaxIter 150
| 31> end
| 32>
| 33>
| 34>                          ****END OF INPUT****

CARTESIAN COORDINATES (ANGSTROEM)
---------------------------------
  C      3.905950    2.819850   -3.752920
  N      5.295620    3.131510   -4.105330
  C      3.803510    1.374720   -3.260810
  C      3.939930    0.320360   -4.367730
  C      5.708620    3.468890   -5.324190
  N      6.904700    3.038950   -5.717080
  N      4.981880    4.293570   -6.097460
  H      5.000550    4.101310   -7.087760
  H      4.084690    4.596900   -5.739650
  H      5.963360    2.526110   -3.642390
  H      7.047160    2.066860   -5.473600
  H      7.198150    3.307990   -6.645230
  H      3.282020    2.949190   -4.640260
  H      3.565250    3.514570   -2.982520
  H      4.574830    1.215160   -2.500440
  H      2.843510    1.260850   -2.751460
  H      3.184170    0.480610   -5.108030
  H      3.824850   -0.656320   -3.946140
  H      4.905890    0.401740   -4.820730

 Total Charge           Charge          ....    1
 Multiplicity           Mult            ....    1
 Number of Electrons    NEL             ....   56
 Basis Dimension        Dim             ....  236

ORBITAL ENERGIES
----------------

  NO   OCC          E(Eh)            E(eV)
   0   2.0000     -14.988858      -407.8676
   1   2.0000     -14.987591      -407.8331
   2   2.0000     -14.987344      -407.8264
   3   2.0000     -10.892404      -296.3974
   4   2.0000     -10.758123      -292.7434
   5   2.0000     -10.702228      -291.2224
   6   2.0000     -10.677666      -290.5541
   7   2.0000      -1.323449       -36.0129
   8   2.0000      -1.202307       -32.7164
   9   2.0000      -1.193076       -32.4652
  10   2.0000      -1.034936       -28.1621
  11   2.0000      -0.950369       -25.8609
  12   2.0000      -0.901051       -24.5189
  13   2.0000      -0.860024       -23.4024
  14   2.0000      -0.842474       -22.9249
  15   2.0000      -0.812513       -22.1096
  16   2.0000      -0.772653       -21.0250
  17   2.0000      -0.756294       -20.5798
  18   2.0000      -0.719136       -19.5687
  19   2.0000      -0.701323       -19.0840
  20   2.0000      -0.661138       -17.9905
  21   2.0000      -0.651890       -17.7388
  22   2.0000      -0.623916       -16.9776
  23   2.0000      -0.577346       -15.7104
  24   2.0000      -0.558961       -15.2101
  25   2.0000      -0.556336       -15.1387
  26   2.0000      -0.549460       -14.9516
  27   2.0000      -0.515549       -14.0288
  28   0.0000      -0.153800        -4.1851
  29   0.0000      -0.130223        -3.5435
  30   0.0000      -0.100431        -2.7329
  31   0.0000      -0.085423        -2.3245
  32   0.0000      -0.069430        -1.8893

MULLIKEN ATOMIC CHARGES
-----------------------
   0 C :    0.730523
   1 N :   -0.419896
   2 C :   -0.346508
   3 C :    0.815957
   4 C :    0.959019
   5 N :   -0.008559
   6 N :   -0.046775
   7 H :   -0.006507
   8 H :    0.028481
   9 H :   -0.099546
  10 H :    0.001985
  11 H :    0.020008
  12 H :   -0.002070
  13 H :   -0.308872
  14 H :   -0.028637
  15 H :   -0.086609
  16 H :    0.066741
  17 H :   -0.009091
  18 H :   -0.259644
Sum of atomic charges:    1.0000000

LOEWDIN ATOMIC CHARGES
----------------------
   0 C :    0.076171
   1 N :    0.051570
   2 C :   -0.046736
   3 C :    0.147798
   4 C :   -0.043953
   5 N :    0.267667
   6 N :    0.277603
   7 H :    0.039578
   8 H :    0.025690
   9 H :    0.043966
  10 H :    0.033357
  11 H :    0.038747
  12 H :    0.025131
  13 H :    0.037501
  14 H :    0.029163
  15 H :    0.038712
  16 H :   -0.007543
  17 H :   -0.000162
  18 H :   -0.034260

  Mayer bond orders larger than 0.100000
B(  0-C ,  1-N ) :   0.8741 B(  0-C ,  2-C ) :   1.1244 B(  0-C , 12-H ) :   0.7419
B(  0-C , 13-H ) :   0.9958 B(  0-C , 15-H ) :   0.1357 B(  1-N ,  4-C ) :   1.1738
B(  1-N ,  5-N ) :   0.1774 B(  1-N ,  9-H ) :   1.1242 B(  1-N , 12-H ) :   0.1214
B(  1-N , 13-H ) :   0.1042 B(  2-C ,  3-C ) :   1.2323 B(  2-C , 14-H ) :   0.9354
B(  2-C , 15-H ) :   1.0070 B(  2-C , 16-H ) :   0.2054 B(  2-C , 17-H ) :   0.2020
B(  2-C , 18-H ) :   0.2285 B(  3-C , 16-H ) :   0.7360 B(  3-C , 17-H ) :   0.7772
B(  3-C , 18-H ) :   0.8184 B(  4-C ,  5-N ) :   0.9628 B(  4-C ,  6-N ) :   0.9742
B(  4-C ,  9-H ) :  -0.1741 B(  5-N ,  6-N ) :   0.1069 B(  5-N , 10-H ) :   1.0140
B(  5-N , 11-H ) :   0.9844 B(  6-N ,  7-H ) :   1.1342 B(  6-N ,  8-H ) :   0.9549
B(  7-H ,  8-H ) :  -0.1259 B( 12-H , 13-H ) :  -0.1410 B( 16-H , 18-H ) :   0.1123

Dispersion correction           -0.000511426
FINAL SINGLE POINT ENERGY      -323.322278830261

DIPOLE MOMENT
-------------
                                X             Y             Z
Electronic contribution:      4.00812       5.68094      -2.04920
Nuclear contribution   :     -3.60155      -5.39511       0.90505
                        -----------------------------------------
Total Dipole Moment    :      0.40658       0.28583      -1.14415
                        -----------------------------------------
Magnitude (a.u.)       :      1.24743
Magnitude (Debye)      :      3.17072

Rotational constants in cm-1:     0.145371     0.050507     0.045444
Rotational constants in MHz :  4358.114605  1514.164418  1362.368391

                             ****ORCA TERMINATED NORMALLY****
TOTAL RUN TIME: 0 days 0 hours 0 minutes 33 seconds 696 msec
