                         Program Version 5.0.0 -  RELEASE  -
|  1> !M062X D3Zero RIJCOSX def2-SVPD def2/J TightSCF
|  2> *xyz 0 1
|  3> C          3.90595        2.81985       -3.75292
|  4> C          3.80351        1.37472       -3.26081
|  5> C          3.93993        0.32036       -4.36773
|  6> H          4.10504       -0.65508       -3.90773
|  7> H          3.02280        0.28052       -4.95712
|  8> C          5.10585        0.66802       -5.30546
|  9> H          4.57483        1.21516       -2.50044
| 10> H          2.84351        1.26085       -2.75146
| 11> F          4.80913        1.15019       -6.41436
| 12> O          6.26737        0.56500       -4.81948
| 13> H          3.15892        2.99660       -4.49832
| 14> H          4.87575        2.98549       -4.17357
| 15> H          3.75481        3.48808       -2.93101
| 16> *
| 17>
| 18> %MaxCore 64000
| 19>
| 20> %pal nprocs 4
| 21> end
| 22>
| 23> %scf
| 24>   MaxIter 150
| 25> end
| 26>
| 27>
| 28>                          ****END OF INPUT****

CARTESIAN COORDINATES (ANGSTROEM)
---------------------------------
  C      3.905950    2.819850   -3.752920
  C      3.803510    1.374720   -3.260810
  C      3.939930    0.320360   -4.367730
  H      4.105040   -0.655080   -3.907730
  H      3.022800    0.280520   -4.957120
  C      5.105850    0.668020   -5.305460
  H      4.574830    1.215160   -2.500440
  H      2.843510    1.260850   -2.751460
  F      4.809130    1.150190   -6.414360
  O      6.267370    0.565000   -4.819480
  H      3.158920    2.996600   -4.498320
  H      4.875750    2.985490   -4.173570
  H      3.754810    3.488080   -2.931010

 Total Charge           Charge          ....    0
 Multiplicity           Mult            ....    1
 Number of Electrons    NEL             ....   48
 Basis Dimension        Dim             ....  182

ORBITAL ENERGIES
----------------

  NO   OCC          E(Eh)            E(eV)
   0   2.0000     -25.334359      -689.3830
   1   2.0000     -19.648366      -534.6592
   2   2.0000     -10.740295      -292.2583
   3   2.0000     -10.581393      -287.9343
   4   2.0000     -10.568115      -287.5730
   5   2.0000     -10.546016      -286.9717
   6   2.0000      -1.454683       -39.5839
   7   2.0000      -1.139735       -31.0138
   8   2.0000      -0.907568       -24.6962
   9   2.0000      -0.818416       -22.2702
  10   2.0000      -0.762538       -20.7497
  11   2.0000      -0.697430       -18.9780
  12   2.0000      -0.650538       -17.7020
  13   2.0000      -0.631132       -17.1740
  14   2.0000      -0.590682       -16.0733
  15   2.0000      -0.539723       -14.6866
  16   2.0000      -0.530109       -14.4250
  17   2.0000      -0.487332       -13.2610
  18   2.0000      -0.479428       -13.0459
  19   2.0000      -0.441224       -12.0063
  20   2.0000      -0.422552       -11.4982
  21   2.0000      -0.410927       -11.1819
  22   2.0000      -0.409027       -11.1302
  23   2.0000      -0.367675       -10.0049
  24   0.0000       0.008512         0.2316
  25   0.0000       0.030558         0.8315
  26   0.0000       0.057663         1.5691
  27   0.0000       0.061706         1.6791
  28   0.0000       0.077563         2.1106

MULLIKEN ATOMIC CHARGES
-----------------------
   0 C :    0.632531
   1 C :   -0.393607
   2 C :    0.130565
   3 H :   -0.001693
   4 H :    0.037399
   5 C :    0.839588
   6 H :   -0.008233
   7 H :   -0.136156
   8 F :   -0.387936
   9 O :   -0.575055
  10 H :   -0.038886
  11 H :   -0.021279
  12 H :   -0.077238
Sum of atomic charges:   -0.0000000

LOEWDIN ATOMIC CHARGES
----------------------
   0 C :    0.129669
   1 C :   -0.060083
   2 C :    0.046968
   3 H :    0.036164
   4 H :    0.025027
   5 C :   -0.001448
   6 H :    0.030830
   7 H :    0.022315
   8 F :   -0.038962
   9 O :   -0.147960
  10 H :   -0.011518
  11 H :   -0.017521
  12 H :   -0.013480

  Mayer bond orders larger than 0.100000
B(  0-C ,  1-C ) :   1.3494 B(  0-C , 10-H ) :   0.7907 B(  0-C , 11-H ) :   0.8271
B(  0-C , 12-H ) :   0.7967 B(  1-C ,  2-C ) :   1.2012 B(  1-C ,  3-H ) :   0.1224
B(  1-C ,  4-H ) :   0.1382 B(  1-C ,  6-H ) :   0.9375 B(  1-C ,  7-H ) :   0.9909
B(  1-C , 10-H ) :   0.1927 B(  1-C , 11-H ) :   0.2050 B(  1-C , 12-H ) :   0.1989
B(  2-C ,  3-H ) :   0.8743 B(  2-C ,  4-H ) :   0.8803 B(  2-C ,  5-C ) :   1.0513
B(  5-C ,  8-F ) :   0.6532 B(  5-C ,  9-O ) :   1.7437

Dispersion correction           -0.000187825
FINAL SINGLE POINT ENERGY      -331.325841479090

DIPOLE MOMENT
-------------
                                X             Y             Z
Electronic contribution:      4.79003      -3.19567      -8.21949
Nuclear contribution   :     -5.98367       3.22001       8.44002
                        -----------------------------------------
Total Dipole Moment    :     -1.19364       0.02434       0.22053
                        -----------------------------------------
Magnitude (a.u.)       :      1.21409
Magnitude (Debye)      :      3.08597

Rotational constants in cm-1:     0.177409     0.085514     0.078973
Rotational constants in MHz :  5318.577687  2563.657993  2367.557452

                             ****ORCA TERMINATED NORMALLY****
TOTAL RUN TIME: 0 days 0 hours 0 minutes 20 seconds 792 msec
