                         Program Version 5.0.0 -  RELEASE  -
|  1> !M062X D3Zero RIJCOSX def2-SVPD def2/J TightSCF
|  2> *xyz 0 1
|  3> C          3.90595        2.81985       -3.75292
|  4> C          5.29562        3.13151       -4.10533
|  5> C          3.80351        1.37472       -3.26081
|  6> C          3.93993        0.32036       -4.36773
|  7> C          5.70862        3.46889       -5.32419
|  8> N          6.90470        3.03895       -5.71708
|  9> N          4.98188        4.29357       -6.09746
| 10> H          5.00055        4.10131       -7.08776
| 11> H          4.08469        4.59690       -5.73965
| 12> H          5.96336        2.52611       -3.64239
| 13> H          7.04716        2.06686       -5.47360
| 14> H          7.19815        3.30799       -6.64523
| 15> H          3.28202        2.94919       -4.64026
| 16> H          3.56525        3.51457       -2.98252
| 17> H          4.57483        1.21516       -2.50044
| 18> H          2.84351        1.26085       -2.75146
| 19> H          3.18417        0.48061       -5.10803
| 20> H          3.82485       -0.65632       -3.94614
| 21> H          4.90589        0.40174       -4.82073
| 22> *
| 23>
| 24> %MaxCore 64000
| 25>
| 26> %pal nprocs 4
| 27> end
| 28>
| 29> %scf
| 30>   MaxIter 150
| 31> end
| 32>
| 33>
| 34>                          ****END OF INPUT****

CARTESIAN COORDINATES (ANGSTROEM)
---------------------------------
  C      3.905950    2.819850   -3.752920
  C      5.295620    3.131510   -4.105330
  C      3.803510    1.374720   -3.260810
  C      3.939930    0.320360   -4.367730
  C      5.708620    3.468890   -5.324190
  N      6.904700    3.038950   -5.717080
  N      4.981880    4.293570   -6.097460
  H      5.000550    4.101310   -7.087760
  H      4.084690    4.596900   -5.739650
  H      5.963360    2.526110   -3.642390
  H      7.047160    2.066860   -5.473600
  H      7.198150    3.307990   -6.645230
  H      3.282020    2.949190   -4.640260
  H      3.565250    3.514570   -2.982520
  H      4.574830    1.215160   -2.500440
  H      2.843510    1.260850   -2.751460
  H      3.184170    0.480610   -5.108030
  H      3.824850   -0.656320   -3.946140
  H      4.905890    0.401740   -4.820730

 Total Charge           Charge          ....    0
 Multiplicity           Mult            ....    1
 Number of Electrons    NEL             ....   56
 Basis Dimension        Dim             ....  236

ORBITAL ENERGIES
----------------

  NO   OCC          E(Eh)            E(eV)
   0   2.0000     -14.766721      -401.8229
   1   2.0000     -14.763335      -401.7308
   2   2.0000     -10.596234      -288.3382
   3   2.0000     -10.534126      -286.6481
   4   2.0000     -10.527959      -286.4803
   5   2.0000     -10.527610      -286.4708
   6   2.0000     -10.478714      -285.1403
   7   2.0000      -1.066891       -29.0316
   8   2.0000      -0.970433       -26.4068
   9   2.0000      -0.882479       -24.0135
  10   2.0000      -0.811173       -22.0731
  11   2.0000      -0.744108       -20.2482
  12   2.0000      -0.671485       -18.2720
  13   2.0000      -0.646600       -17.5949
  14   2.0000      -0.609979       -16.5984
  15   2.0000      -0.586160       -15.9502
  16   2.0000      -0.548818       -14.9341
  17   2.0000      -0.516114       -14.0442
  18   2.0000      -0.507446       -13.8083
  19   2.0000      -0.483627       -13.1602
  20   2.0000      -0.451783       -12.2936
  21   2.0000      -0.440094       -11.9756
  22   2.0000      -0.415739       -11.3128
  23   2.0000      -0.394244       -10.7279
  24   2.0000      -0.380426       -10.3519
  25   2.0000      -0.375533       -10.2188
  26   2.0000      -0.340614        -9.2686
  27   2.0000      -0.223412        -6.0793
  28   0.0000       0.031045         0.8448
  29   0.0000       0.056975         1.5504
  30   0.0000       0.061790         1.6814
  31   0.0000       0.075967         2.0672
  32   0.0000       0.082725         2.2511

MULLIKEN ATOMIC CHARGES
-----------------------
   0 C :    0.337636
   1 C :    0.059122
   2 C :   -0.235012
   3 C :    0.858476
   4 C :    0.256406
   5 N :    0.050395
   6 N :   -0.047638
   7 H :   -0.079495
   8 H :    0.027634
   9 H :   -0.257268
  10 H :   -0.001950
  11 H :   -0.091911
  12 H :   -0.196432
  13 H :   -0.215808
  14 H :   -0.065361
  15 H :   -0.143474
  16 H :    0.037318
  17 H :   -0.024757
  18 H :   -0.267883
Sum of atomic charges:    0.0000000

LOEWDIN ATOMIC CHARGES
----------------------
   0 C :   -0.068895
   1 C :   -0.011212
   2 C :   -0.078668
   3 C :    0.130214
   4 C :   -0.239658
   5 N :    0.182776
   6 N :    0.191465
   7 H :   -0.008429
   8 H :   -0.004830
   9 H :   -0.056494
  10 H :   -0.000015
  11 H :   -0.008261
  12 H :    0.003887
  13 H :    0.009020
  14 H :    0.018747
  15 H :    0.013354
  16 H :   -0.018655
  17 H :   -0.021595
  18 H :   -0.032753

  Mayer bond orders larger than 0.100000
B(  0-C ,  1-C ) :   0.9286 B(  0-C ,  2-C ) :   1.1720 B(  0-C ,  9-H ) :   0.2108
B(  0-C , 12-H ) :   0.7888 B(  0-C , 13-H ) :   0.9016 B(  0-C , 14-H ) :   0.1383
B(  0-C , 15-H ) :   0.1805 B(  1-C ,  4-C ) :   1.9342 B(  1-C ,  5-N ) :   0.3040
B(  1-C ,  6-N ) :   0.1429 B(  1-C ,  9-H ) :   0.4447 B(  1-C , 12-H ) :   0.1030
B(  1-C , 13-H ) :   0.1399 B(  2-C ,  3-C ) :   1.2141 B(  2-C , 14-H ) :   0.9335
B(  2-C , 15-H ) :   0.9417 B(  2-C , 16-H ) :   0.2115 B(  2-C , 17-H ) :   0.1991
B(  2-C , 18-H ) :   0.2556 B(  3-C , 16-H ) :   0.7343 B(  3-C , 17-H ) :   0.7448
B(  3-C , 18-H ) :   0.8273 B(  4-C ,  5-N ) :   0.9147 B(  4-C ,  6-N ) :   0.9539
B(  4-C ,  9-H ) :   0.3774 B(  5-N , 10-H ) :   0.9968 B(  5-N , 11-H ) :   0.9368
B(  6-N ,  7-H ) :   1.0993 B(  6-N ,  8-H ) :   0.9680 B(  7-H ,  8-H ) :  -0.1039
B( 16-H , 18-H ) :   0.1084

Dispersion correction           -0.000507550
FINAL SINGLE POINT ENERGY      -306.858377789478

DIPOLE MOMENT
-------------
                                X             Y             Z
Electronic contribution:      3.40410       4.92500      -2.11263
Nuclear contribution   :     -3.52450      -5.28471       1.03374
                        -----------------------------------------
Total Dipole Moment    :     -0.12040      -0.35971      -1.07888
                        -----------------------------------------
Magnitude (a.u.)       :      1.14363
Magnitude (Debye)      :      2.90687

Rotational constants in cm-1:     0.147126     0.050704     0.045476
Rotational constants in MHz :  4410.719889  1520.080198  1363.327077

                             ****ORCA TERMINATED NORMALLY****
TOTAL RUN TIME: 0 days 0 hours 0 minutes 34 seconds 416 msec
