                         Program Version 5.0.0 -  RELEASE  -
|  1> !M062X D3Zero RIJCOSX def2-SVPD def2/J TightSCF
|  2> *xyz 0 1
|  3> C          3.90595        2.81985       -3.75292
|  4> C          3.80351        1.37472       -3.26081
|  5> C          3.93993        0.32036       -4.36773
|  6> H          4.10504       -0.65508       -3.90773
|  7> H          3.02280        0.28052       -4.95712
|  8> C          5.10585        0.66802       -5.30546
|  9> H          4.57483        1.21516       -2.50044
| 10> H          2.84351        1.26085       -2.75146
| 11> O          4.80913        1.15019       -6.41436
| 12> F          6.26737        0.56500       -4.81948
| 13> H          3.15892        2.99660       -4.49832
| 14> H          4.87575        2.98549       -4.17357
| 15> H          3.75481        3.48808       -2.93101
| 16> *
| 17>
| 18> %MaxCore 64000
| 19>
| 20> %pal nprocs 4
| 21> end
| 22>
| 23> %scf
| 24>   MaxIter 150
| 25> end
| 26>
| 27>
| 28>                          ****END OF INPUT****

CARTESIAN COORDINATES (ANGSTROEM)
---------------------------------
  C      3.905950    2.819850   -3.752920
  C      3.803510    1.374720   -3.260810
  C      3.939930    0.320360   -4.367730
  H      4.105040   -0.655080   -3.907730
  H      3.022800    0.280520   -4.957120
  C      5.105850    0.668020   -5.305460
  H      4.574830    1.215160   -2.500440
  H      2.843510    1.260850   -2.751460
  O      4.809130    1.150190   -6.414360
  F      6.267370    0.565000   -4.819480
  H      3.158920    2.996600   -4.498320
  H      4.875750    2.985490   -4.173570
  H      3.754810    3.488080   -2.931010

 Total Charge           Charge          ....    0
 Multiplicity           Mult            ....    1
 Number of Electrons    NEL             ....   48
 Basis Dimension        Dim             ....  182

ORBITAL ENERGIES
----------------

  NO   OCC          E(Eh)            E(eV)
   0   2.0000     -25.327759      -689.2034
   1   2.0000     -19.651263      -534.7381
   2   2.0000     -10.738054      -292.1973
   3   2.0000     -10.580738      -287.9165
   4   2.0000     -10.570124      -287.6277
   5   2.0000     -10.544525      -286.9311
   6   2.0000      -1.440764       -39.2052
   7   2.0000      -1.151388       -31.3309
   8   2.0000      -0.908584       -24.7238
   9   2.0000      -0.816071       -22.2064
  10   2.0000      -0.754497       -20.5309
  11   2.0000      -0.695744       -18.9322
  12   2.0000      -0.643766       -17.5178
  13   2.0000      -0.630939       -17.1687
  14   2.0000      -0.581220       -15.8158
  15   2.0000      -0.546241       -14.8640
  16   2.0000      -0.529967       -14.4211
  17   2.0000      -0.492178       -13.3928
  18   2.0000      -0.472608       -12.8603
  19   2.0000      -0.441961       -12.0264
  20   2.0000      -0.431482       -11.7412
  21   2.0000      -0.415954       -11.3187
  22   2.0000      -0.410052       -11.1581
  23   2.0000      -0.366909        -9.9841
  24   0.0000       0.013077         0.3558
  25   0.0000       0.029050         0.7905
  26   0.0000       0.058651         1.5960
  27   0.0000       0.064394         1.7522
  28   0.0000       0.071908         1.9567

MULLIKEN ATOMIC CHARGES
-----------------------
   0 C :    0.651903
   1 C :   -0.433416
   2 C :    0.153032
   3 H :   -0.003765
   4 H :    0.029052
   5 C :    0.837114
   6 H :   -0.027556
   7 H :   -0.134781
   8 O :   -0.516370
   9 F :   -0.438558
  10 H :   -0.015288
  11 H :   -0.010337
  12 H :   -0.091031
Sum of atomic charges:    0.0000000

LOEWDIN ATOMIC CHARGES
----------------------
   0 C :    0.131065
   1 C :   -0.065754
   2 C :    0.049410
   3 H :    0.028552
   4 H :    0.036220
   5 C :   -0.002256
   6 H :    0.024713
   7 H :    0.023007
   8 O :   -0.136643
   9 F :   -0.049739
  10 H :   -0.005844
  11 H :   -0.018050
  12 H :   -0.014680

  Mayer bond orders larger than 0.100000
B(  0-C ,  1-C ) :   1.3517 B(  0-C , 10-H ) :   0.7879 B(  0-C , 11-H ) :   0.8225
B(  0-C , 12-H ) :   0.7875 B(  1-C ,  2-C ) :   1.1808 B(  1-C ,  3-H ) :   0.1254
B(  1-C ,  4-H ) :   0.1347 B(  1-C ,  6-H ) :   0.9404 B(  1-C ,  7-H ) :   0.9880
B(  1-C , 10-H ) :   0.2000 B(  1-C , 11-H ) :   0.2043 B(  1-C , 12-H ) :   0.2070
B(  2-C ,  3-H ) :   0.8770 B(  2-C ,  4-H ) :   0.8980 B(  2-C ,  5-C ) :   1.0237
B(  4-H ,  5-C ) :   0.1178 B(  5-C ,  8-O ) :   1.7762 B(  5-C ,  9-F ) :   0.6151

Dispersion correction           -0.000188133
FINAL SINGLE POINT ENERGY      -331.331198220494

DIPOLE MOMENT
-------------
                                X             Y             Z
Electronic contribution:      7.24009      -4.18271      -5.53454
Nuclear contribution   :     -7.63086       3.88103       6.63849
                        -----------------------------------------
Total Dipole Moment    :     -0.39077      -0.30169       1.10395
                        -----------------------------------------
Magnitude (a.u.)       :      1.20930
Magnitude (Debye)      :      3.07381

Rotational constants in cm-1:     0.177064     0.085023     0.079676
Rotational constants in MHz :  5308.232158  2548.918275  2388.614336

                             ****ORCA TERMINATED NORMALLY****
TOTAL RUN TIME: 0 days 0 hours 0 minutes 20 seconds 651 msec
