                         Program Version 5.0.0 -  RELEASE  -
|  1> !M062X D3Zero RIJCOSX def2-SVPD def2/J TightSCF
|  2> *xyz 0 1
|  3> C          3.90595        2.81985       -3.75292
|  4> N          5.29562        3.13151       -4.10533
|  5> C          3.80351        1.37472       -3.26081
|  6> C          3.93993        0.32036       -4.36773
|  7> C          5.70862        3.46889       -5.32419
|  8> C          6.90470        3.03895       -5.71708
|  9> N          4.98188        4.29357       -6.09746
| 10> H          5.00055        4.10131       -7.08776
| 11> H          4.08469        4.59690       -5.73965
| 12> H          5.96336        2.52611       -3.64239
| 13> H          7.04716        2.06686       -5.47360
| 14> H          7.19815        3.30799       -6.64523
| 15> H          3.28202        2.94919       -4.64026
| 16> H          3.56525        3.51457       -2.98252
| 17> H          4.57483        1.21516       -2.50044
| 18> H          2.84351        1.26085       -2.75146
| 19> H          3.18417        0.48061       -5.10803
| 20> H          3.82485       -0.65632       -3.94614
| 21> H          4.90589        0.40174       -4.82073
| 22> *
| 23>
| 24> %MaxCore 64000
| 25>
| 26> %pal nprocs 4
| 27> end
| 28>
| 29> %scf
| 30>   MaxIter 150
| 31> end
| 32>
| 33>
| 34>                          ****END OF INPUT****

CARTESIAN COORDINATES (ANGSTROEM)
---------------------------------
  C      3.905950    2.819850   -3.752920
  N      5.295620    3.131510   -4.105330
  C      3.803510    1.374720   -3.260810
  C      3.939930    0.320360   -4.367730
  C      5.708620    3.468890   -5.324190
  C      6.904700    3.038950   -5.717080
  N      4.981880    4.293570   -6.097460
  H      5.000550    4.101310   -7.087760
  H      4.084690    4.596900   -5.739650
  H      5.963360    2.526110   -3.642390
  H      7.047160    2.066860   -5.473600
  H      7.198150    3.307990   -6.645230
  H      3.282020    2.949190   -4.640260
  H      3.565250    3.514570   -2.982520
  H      4.574830    1.215160   -2.500440
  H      2.843510    1.260850   -2.751460
  H      3.184170    0.480610   -5.108030
  H      3.824850   -0.656320   -3.946140
  H      4.905890    0.401740   -4.820730

 Total Charge           Charge          ....    0
 Multiplicity           Mult            ....    1
 Number of Electrons    NEL             ....   56
 Basis Dimension        Dim             ....  236

ORBITAL ENERGIES
----------------

  NO   OCC          E(Eh)            E(eV)
   0   2.0000     -14.765633      -401.7933
   1   2.0000     -14.763625      -401.7387
   2   2.0000     -10.600763      -288.4614
   3   2.0000     -10.589822      -288.1637
   4   2.0000     -10.560549      -287.3672
   5   2.0000     -10.543400      -286.9005
   6   2.0000     -10.464207      -284.7455
   7   2.0000      -1.071678       -29.1618
   8   2.0000      -0.982987       -26.7484
   9   2.0000      -0.882357       -24.0102
  10   2.0000      -0.815865       -22.2008
  11   2.0000      -0.758049       -20.6276
  12   2.0000      -0.682916       -18.5831
  13   2.0000      -0.672998       -18.3132
  14   2.0000      -0.609111       -16.5748
  15   2.0000      -0.570118       -15.5137
  16   2.0000      -0.549375       -14.9492
  17   2.0000      -0.534070       -14.5328
  18   2.0000      -0.515225       -14.0200
  19   2.0000      -0.474018       -12.8987
  20   2.0000      -0.467569       -12.7232
  21   2.0000      -0.452965       -12.3258
  22   2.0000      -0.429659       -11.6916
  23   2.0000      -0.416412       -11.3312
  24   2.0000      -0.413837       -11.2611
  25   2.0000      -0.400474       -10.8975
  26   2.0000      -0.324230        -8.8227
  27   2.0000      -0.226937        -6.1753
  28   0.0000       0.031166         0.8481
  29   0.0000       0.050163         1.3650
  30   0.0000       0.057435         1.5629
  31   0.0000       0.069909         1.9023
  32   0.0000       0.082359         2.2411

MULLIKEN ATOMIC CHARGES
-----------------------
   0 C :    0.720897
   1 N :   -0.434719
   2 C :   -0.344566
   3 C :    0.828421
   4 C :    0.269914
   5 C :    0.536584
   6 N :   -0.009301
   7 H :   -0.023614
   8 H :   -0.052520
   9 H :   -0.076160
  10 H :   -0.311399
  11 H :   -0.300601
  12 H :   -0.033802
  13 H :   -0.354884
  14 H :   -0.051102
  15 H :   -0.136204
  16 H :    0.055443
  17 H :   -0.034119
  18 H :   -0.248269
Sum of atomic charges:   -0.0000000

LOEWDIN ATOMIC CHARGES
----------------------
   0 C :    0.044557
   1 N :   -0.011939
   2 C :   -0.068061
   3 C :    0.136654
   4 C :   -0.245749
   5 C :    0.150871
   6 N :    0.194941
   7 H :    0.006605
   8 H :   -0.017311
   9 H :    0.017341
  10 H :   -0.107891
  11 H :   -0.103491
  12 H :    0.012344
  13 H :    0.013295
  14 H :    0.019176
  15 H :    0.018145
  16 H :   -0.016145
  17 H :   -0.017661
  18 H :   -0.025683

  Mayer bond orders larger than 0.100000
B(  0-C ,  1-N ) :   0.8993 B(  0-C ,  2-C ) :   1.1269 B(  0-C , 12-H ) :   0.7373
B(  0-C , 13-H ) :   0.9761 B(  0-C , 15-H ) :   0.1390 B(  1-N ,  4-C ) :   1.1056
B(  1-N ,  5-C ) :   0.2092 B(  1-N ,  9-H ) :   1.0608 B(  1-N , 12-H ) :   0.1351
B(  2-C ,  3-C ) :   1.2372 B(  2-C , 14-H ) :   0.9239 B(  2-C , 15-H ) :   1.0053
B(  2-C , 16-H ) :   0.2104 B(  2-C , 17-H ) :   0.2137 B(  2-C , 18-H ) :   0.2455
B(  3-C , 16-H ) :   0.7148 B(  3-C , 17-H ) :   0.7482 B(  3-C , 18-H ) :   0.8343
B(  4-C ,  5-C ) :   1.8594 B(  4-C ,  6-N ) :   0.9008 B(  4-C ,  9-H ) :  -0.1480
B(  4-C , 10-H ) :   0.2082 B(  4-C , 11-H ) :   0.3730 B(  5-C ,  6-N ) :   0.2414
B(  5-C , 10-H ) :   0.8435 B(  5-C , 11-H ) :   0.4938 B(  6-N ,  7-H ) :   1.0908
B(  6-N ,  8-H ) :   0.9125 B(  6-N , 11-H ) :   0.1017 B(  7-H ,  8-H ) :  -0.1261
B( 10-H , 11-H ) :   0.1108 B( 12-H , 13-H ) :  -0.1455 B( 16-H , 18-H ) :   0.1446

Dispersion correction           -0.000505320
FINAL SINGLE POINT ENERGY      -306.847063810002

DIPOLE MOMENT
-------------
                                X             Y             Z
Electronic contribution:      1.77963       4.86344      -0.59352
Nuclear contribution   :     -3.17203      -5.30499       0.68068
                        -----------------------------------------
Total Dipole Moment    :     -1.39240      -0.44154       0.08716
                        -----------------------------------------
Magnitude (a.u.)       :      1.46333
Magnitude (Debye)      :      3.71948

Rotational constants in cm-1:     0.149640     0.051631     0.046708
Rotational constants in MHz :  4486.107270  1547.846261  1400.277765

                             ****ORCA TERMINATED NORMALLY****
TOTAL RUN TIME: 0 days 0 hours 0 minutes 36 seconds 668 msec
