                         Program Version 5.0.0 -  RELEASE  -
|  1> !M062X D3Zero RIJCOSX def2-SVPD def2/J TightSCF
|  2> *xyz 0 1
|  3> C          3.90595        2.81985       -3.75292
|  4> N          5.29562        3.13151       -4.10533
|  5> C          3.80351        1.37472       -3.26081
|  6> C          3.93993        0.32036       -4.36773
|  7> C          5.70862        3.46889       -5.32419
|  8> N          6.90470        3.03895       -5.71708
|  9> C          4.98188        4.29357       -6.09746
| 10> H          5.00055        4.10131       -7.08776
| 11> H          4.08469        4.59690       -5.73965
| 12> H          5.96336        2.52611       -3.64239
| 13> H          7.04716        2.06686       -5.47360
| 14> H          7.19815        3.30799       -6.64523
| 15> H          3.28202        2.94919       -4.64026
| 16> H          3.56525        3.51457       -2.98252
| 17> H          4.57483        1.21516       -2.50044
| 18> H          2.84351        1.26085       -2.75146
| 19> H          3.18417        0.48061       -5.10803
| 20> H          3.82485       -0.65632       -3.94614
| 21> H          4.90589        0.40174       -4.82073
| 22> *
| 23>
| 24> %MaxCore 64000
| 25>
| 26> %pal nprocs 4
| 27> end
| 28>
| 29> %scf
| 30>   MaxIter 150
| 31> end
| 32>
| 33>
| 34>                          ****END OF INPUT****

CARTESIAN COORDINATES (ANGSTROEM)
---------------------------------
  C      3.905950    2.819850   -3.752920
  N      5.295620    3.131510   -4.105330
  C      3.803510    1.374720   -3.260810
  C      3.939930    0.320360   -4.367730
  C      5.708620    3.468890   -5.324190
  N      6.904700    3.038950   -5.717080
  C      4.981880    4.293570   -6.097460
  H      5.000550    4.101310   -7.087760
  H      4.084690    4.596900   -5.739650
  H      5.963360    2.526110   -3.642390
  H      7.047160    2.066860   -5.473600
  H      7.198150    3.307990   -6.645230
  H      3.282020    2.949190   -4.640260
  H      3.565250    3.514570   -2.982520
  H      4.574830    1.215160   -2.500440
  H      2.843510    1.260850   -2.751460
  H      3.184170    0.480610   -5.108030
  H      3.824850   -0.656320   -3.946140
  H      4.905890    0.401740   -4.820730

 Total Charge           Charge          ....    0
 Multiplicity           Mult            ....    1
 Number of Electrons    NEL             ....   56
 Basis Dimension        Dim             ....  236

ORBITAL ENERGIES
----------------

  NO   OCC          E(Eh)            E(eV)
   0   2.0000     -14.765579      -401.7918
   1   2.0000     -14.764634      -401.7661
   2   2.0000     -10.599606      -288.4299
   3   2.0000     -10.584277      -288.0128
   4   2.0000     -10.558935      -287.3232
   5   2.0000     -10.545150      -286.9481
   6   2.0000     -10.469686      -284.8946
   7   2.0000      -1.076687       -29.2981
   8   2.0000      -0.985105       -26.8061
   9   2.0000      -0.877082       -23.8666
  10   2.0000      -0.801686       -21.8150
  11   2.0000      -0.776869       -21.1397
  12   2.0000      -0.688739       -18.7415
  13   2.0000      -0.644600       -17.5405
  14   2.0000      -0.610017       -16.5994
  15   2.0000      -0.590717       -16.0742
  16   2.0000      -0.544721       -14.8226
  17   2.0000      -0.537605       -14.6290
  18   2.0000      -0.501619       -13.6497
  19   2.0000      -0.482506       -13.1296
  20   2.0000      -0.466046       -12.6818
  21   2.0000      -0.448139       -12.1945
  22   2.0000      -0.432310       -11.7637
  23   2.0000      -0.418018       -11.3748
  24   2.0000      -0.411440       -11.1959
  25   2.0000      -0.400593       -10.9007
  26   2.0000      -0.322009        -8.7623
  27   2.0000      -0.229831        -6.2540
  28   0.0000       0.029553         0.8042
  29   0.0000       0.053957         1.4683
  30   0.0000       0.062092         1.6896
  31   0.0000       0.065536         1.7833
  32   0.0000       0.084915         2.3106

MULLIKEN ATOMIC CHARGES
-----------------------
   0 C :    0.722474
   1 N :   -0.330149
   2 C :   -0.285778
   3 C :    0.825651
   4 C :    0.151811
   5 N :   -0.036457
   6 C :    0.467129
   7 H :   -0.383955
   8 H :   -0.084014
   9 H :   -0.198515
  10 H :   -0.052770
  11 H :    0.028217
  12 H :    0.020008
  13 H :   -0.406717
  14 H :   -0.077742
  15 H :   -0.121302
  16 H :    0.045136
  17 H :   -0.030201
  18 H :   -0.252826
Sum of atomic charges:    0.0000000

LOEWDIN ATOMIC CHARGES
----------------------
   0 C :    0.056191
   1 N :   -0.011044
   2 C :   -0.068687
   3 C :    0.133851
   4 C :   -0.258464
   5 N :    0.184075
   6 C :    0.168268
   7 H :   -0.103486
   8 H :   -0.109327
   9 H :    0.008181
  10 H :   -0.012143
  11 H :    0.005675
  12 H :    0.017455
  13 H :    0.018022
  14 H :    0.015842
  15 H :    0.019415
  16 H :   -0.014075
  17 H :   -0.018182
  18 H :   -0.031565

  Mayer bond orders larger than 0.100000
B(  0-C ,  1-N ) :   0.9424 B(  0-C ,  2-C ) :   1.1112 B(  0-C , 12-H ) :   0.7672
B(  0-C , 13-H ) :   0.9886 B(  0-C , 15-H ) :   0.1473 B(  1-N ,  4-C ) :   1.1305
B(  1-N ,  5-N ) :   0.1520 B(  1-N ,  6-C ) :   0.1870 B(  1-N ,  9-H ) :   1.0170
B(  1-N , 12-H ) :   0.1323 B(  2-C ,  3-C ) :   1.2290 B(  2-C , 14-H ) :   0.9297
B(  2-C , 15-H ) :   0.9894 B(  2-C , 16-H ) :   0.2137 B(  2-C , 17-H ) :   0.2094
B(  2-C , 18-H ) :   0.2391 B(  3-C , 16-H ) :   0.7362 B(  3-C , 17-H ) :   0.7527
B(  3-C , 18-H ) :   0.8292 B(  4-C ,  5-N ) :   0.9753 B(  4-C ,  6-C ) :   1.9730
B(  4-C ,  7-H ) :   0.2010 B(  4-C ,  8-H ) :   0.3199 B(  5-N ,  6-C ) :   0.1171
B(  5-N , 10-H ) :   0.9360 B(  5-N , 11-H ) :   0.9717 B(  6-C ,  7-H ) :   0.8479
B(  6-C ,  8-H ) :   0.4799 B(  7-H ,  8-H ) :   0.2391 B( 12-H , 13-H ) :  -0.1359
B( 16-H , 18-H ) :   0.1146

Dispersion correction           -0.000505688
FINAL SINGLE POINT ENERGY      -306.851569082315

DIPOLE MOMENT
-------------
                                X             Y             Z
Electronic contribution:      3.60165       3.70743      -0.30013
Nuclear contribution   :     -3.59323      -5.03016       0.59736
                        -----------------------------------------
Total Dipole Moment    :      0.00842      -1.32273       0.29723
                        -----------------------------------------
Magnitude (a.u.)       :      1.35574
Magnitude (Debye)      :      3.44601

Rotational constants in cm-1:     0.148888     0.051791     0.046487
Rotational constants in MHz :  4463.542717  1552.665696  1393.643356

                             ****ORCA TERMINATED NORMALLY****
TOTAL RUN TIME: 0 days 0 hours 0 minutes 34 seconds 309 msec
