                         Program Version 5.0.0 -  RELEASE  -
|  1> !M062X D3Zero RIJCOSX def2-SVPD def2/J TightSCF xyzfile
|  2>
|  3> *xyzfile 0 1 D4.xyz
|  4>
|  5> %MaxCore 64000
|  6>
|  7> %pal nprocs 4
|  8> end
|  9>
| 10> %scf
| 11>   MaxIter 150
| 12> end
| 13>
| 14>
| 15>                          ****END OF INPUT****

CARTESIAN COORDINATES (ANGSTROEM)
---------------------------------
  C      3.905947    2.819855   -3.752920
  C      5.295615    3.131515   -4.105334
  C      3.803511    1.374716   -3.260807
  C      3.939934    0.320362   -4.367729
  H      4.105043   -0.655085   -3.907733
  H      3.022801    0.280517   -4.957117
  C      5.105846    0.668022   -5.305463
  C      5.708619    3.468885   -5.324190
  N      6.904696    3.038954   -5.717084
  N      4.981884    4.293570   -6.097457
  H      5.000546    4.101311   -7.087761
  H      4.084693    4.596899   -5.739652
  H      5.963358    2.526112   -3.642391
  H      7.047164    2.066861   -5.473604
  H      7.198145    3.307994   -6.645225
  H      3.282025    2.949187   -4.640259
  H      3.565254    3.514574   -2.982523
  H      4.574833    1.215157   -2.500443
  H      2.843514    1.260845   -2.751465
  O      4.809132    1.150187   -6.414361
  F      6.267366    0.564999   -4.819481

 Total Charge           Charge          ....    0
 Multiplicity           Mult            ....    1
 Number of Electrons    NEL             ....   78
 Basis Dimension        Dim             ....  294

ORBITAL ENERGIES
----------------

  NO   OCC          E(Eh)            E(eV)
   0   2.0000     -25.337430      -689.4665
   1   2.0000     -19.650365      -534.7136
   2   2.0000     -14.763558      -401.7368
   3   2.0000     -14.752892      -401.4466
   4   2.0000     -10.740916      -292.2752
   5   2.0000     -10.597868      -288.3827
   6   2.0000     -10.578040      -287.8431
   7   2.0000     -10.559938      -287.3505
   8   2.0000     -10.538859      -286.7769
   9   2.0000     -10.479547      -285.1630
  10   2.0000      -1.452942       -39.5366
  11   2.0000      -1.153813       -31.3968
  12   2.0000      -1.062331       -28.9075
  13   2.0000      -0.965634       -26.2762
  14   2.0000      -0.911625       -24.8066
  15   2.0000      -0.841375       -22.8950
  16   2.0000      -0.785446       -21.3731
  17   2.0000      -0.750722       -20.4282
  18   2.0000      -0.690924       -18.8010
  19   2.0000      -0.675774       -18.3888
  20   2.0000      -0.650536       -17.7020
  21   2.0000      -0.631396       -17.1812
  22   2.0000      -0.605891       -16.4871
  23   2.0000      -0.584686       -15.9101
  24   2.0000      -0.583243       -15.8708
  25   2.0000      -0.541457       -14.7338
  26   2.0000      -0.537042       -14.6136
  27   2.0000      -0.515180       -14.0188
  28   2.0000      -0.502501       -13.6737
  29   2.0000      -0.473797       -12.8927
  30   2.0000      -0.455008       -12.3814
  31   2.0000      -0.441006       -12.0004
  32   2.0000      -0.430686       -11.7196
  33   2.0000      -0.410812       -11.1788
  34   2.0000      -0.404387       -11.0039
  35   2.0000      -0.390694       -10.6313
  36   2.0000      -0.365213        -9.9380
  37   2.0000      -0.332203        -9.0397
  38   2.0000      -0.225838        -6.1454
  39   0.0000       0.011304         0.3076
  40   0.0000       0.031079         0.8457
  41   0.0000       0.049030         1.3342
  42   0.0000       0.057020         1.5516
  43   0.0000       0.067299         1.8313

MULLIKEN ATOMIC CHARGES
-----------------------
   0 C :    0.407929
   1 C :    0.018862
   2 C :    0.186353
   3 C :    0.298150
   4 H :   -0.077640
   5 H :    0.028913
   6 C :    0.748148
   7 C :    0.207170
   8 N :    0.180408
   9 N :   -0.050869
  10 H :   -0.035323
  11 H :    0.020093
  12 H :   -0.263403
  13 H :   -0.116926
  14 H :   -0.000155
  15 H :   -0.158384
  16 H :   -0.243542
  17 H :    0.016053
  18 H :   -0.185487
  19 O :   -0.504279
  20 F :   -0.476070
Sum of atomic charges:    0.0000000

LOEWDIN ATOMIC CHARGES
----------------------
   0 C :   -0.045365
   1 C :   -0.017812
   2 C :   -0.019240
   3 C :    0.068453
   4 H :    0.029670
   5 H :    0.036886
   6 C :    0.008355
   7 C :   -0.245191
   8 N :    0.212858
   9 N :    0.211868
  10 H :   -0.001599
  11 H :   -0.001983
  12 H :   -0.059370
  13 H :   -0.048128
  14 H :    0.005362
  15 H :    0.012444
  16 H :    0.011719
  17 H :    0.028183
  18 H :    0.022029
  19 O :   -0.145037
  20 F :   -0.064103

  Mayer bond orders larger than 0.100000
B(  0-C ,  1-C ) :   0.9909 B(  0-C ,  2-C ) :   1.1913 B(  0-C , 12-H ) :   0.1938
B(  0-C , 15-H ) :   0.7863 B(  0-C , 16-H ) :   0.8341 B(  0-C , 18-H ) :   0.1995
B(  1-C ,  2-C ) :   0.1460 B(  1-C ,  7-C ) :   1.8271 B(  1-C ,  8-N ) :   0.3525
B(  1-C ,  9-N ) :   0.1305 B(  1-C , 12-H ) :   0.3692 B(  1-C , 15-H ) :   0.1048
B(  1-C , 16-H ) :   0.1604 B(  2-C ,  3-C ) :   1.1668 B(  2-C ,  4-H ) :   0.1755
B(  2-C ,  5-H ) :   0.1096 B(  2-C , 17-H ) :   0.8365 B(  2-C , 18-H ) :   0.9023
B(  3-C ,  4-H ) :   0.8370 B(  3-C ,  5-H ) :   0.8548 B(  3-C ,  6-C ) :   1.0985
B(  4-H ,  6-C ) :   0.1018 B(  5-H ,  6-C ) :   0.1940 B(  6-C , 19-O ) :   1.7152
B(  6-C , 20-F ) :   0.5098 B(  7-C ,  8-N ) :   0.8436 B(  7-C ,  9-N ) :   0.9428
B(  7-C , 12-H ) :   0.3113 B(  7-C , 14-H ) :   0.1942 B(  8-N ,  9-N ) :   0.1174
B(  8-N , 13-H ) :   0.9280 B(  8-N , 14-H ) :   0.8142 B(  9-N , 10-H ) :   1.0623
B(  9-N , 11-H ) :   0.9658 B( 10-H , 11-H ) :  -0.1145 B( 15-H , 16-H ) :  -0.1365
B( 17-H , 18-H ) :  -0.1143

Dispersion correction           -0.000691211
FINAL SINGLE POINT ENERGY      -519.211867901717

DIPOLE MOMENT
-------------
                                X             Y             Z
Electronic contribution:      5.79688      -4.53656      -3.89431
Nuclear contribution   :     -6.25608       3.89116       3.75052
                        -----------------------------------------
Total Dipole Moment    :     -0.45920      -0.64540      -0.14379
                        -----------------------------------------
Magnitude (a.u.)       :      0.80504
Magnitude (Debye)      :      2.04624

Rotational constants in cm-1:     0.061229     0.042568     0.033282
Rotational constants in MHz :  1835.590871  1276.154029   997.769927

                             ****ORCA TERMINATED NORMALLY****
TOTAL RUN TIME: 0 days 0 hours 1 minutes 17 seconds 829 msec
