                         Program Version 5.0.0 -  RELEASE  -
|  1> !LC-PBE RIJCOSX def2-SVPD def2/J TightSCF
|  2> *xyz -1 1
|  3> C          2.09343        1.86104       -4.65684
|  4> S          1.87964        0.07859       -4.46297
|  5> O          3.20757       -0.46611       -4.42026
|  6> O          1.07506       -0.05616       -3.26876
|  7> O          1.13166       -0.31996       -5.67903
|  8> H          2.68437        2.05681       -5.52711
|  9> H          2.58708        2.25699       -3.79404
| 10> H          1.13553        2.32556       -4.76426
| 11> *
| 12>
| 13> %MaxCore 64000
| 14>
| 15> %pal nprocs 8
| 16> end
| 17>
| 18> %scf
| 19>   MaxIter 150
| 20> end
| 21>
| 22>
| 23>                          ****END OF INPUT****

CARTESIAN COORDINATES (ANGSTROEM)
---------------------------------
  C      2.093430    1.861040   -4.656840
  S      1.879640    0.078590   -4.462970
  O      3.207570   -0.466110   -4.420260
  O      1.075060   -0.056160   -3.268760
  O      1.131660   -0.319960   -5.679030
  H      2.684370    2.056810   -5.527110
  H      2.587080    2.256990   -3.794040
  H      1.135530    2.325560   -4.764260

 Total Charge           Charge          ....   -1
 Multiplicity           Mult            ....    1
 Number of Electrons    NEL             ....   50
 Basis Dimension        Dim             ....  140

ORBITAL ENERGIES
----------------

  NO   OCC          E(Eh)            E(eV)
   0   2.0000     -88.315851     -2403.1965
   1   2.0000     -18.776944      -510.9466
   2   2.0000     -18.772581      -510.8279
   3   2.0000     -18.760865      -510.5091
   4   2.0000      -9.978565      -271.5306
   5   2.0000      -7.937545      -215.9916
   6   2.0000      -5.959840      -162.1755
   7   2.0000      -5.959750      -162.1730
   8   2.0000      -5.959607      -162.1692
   9   2.0000      -1.111358       -30.2416
  10   2.0000      -0.958239       -26.0750
  11   2.0000      -0.932262       -25.3681
  12   2.0000      -0.750832       -20.4312
  13   2.0000      -0.538706       -14.6589
  14   2.0000      -0.458474       -12.4757
  15   2.0000      -0.436242       -11.8707
  16   2.0000      -0.435136       -11.8406
  17   2.0000      -0.392789       -10.6883
  18   2.0000      -0.391039       -10.6407
  19   2.0000      -0.297124        -8.0852
  20   2.0000      -0.294532        -8.0146
  21   2.0000      -0.255316        -6.9475
  22   2.0000      -0.243326        -6.6212
  23   2.0000      -0.234942        -6.3931
  24   2.0000      -0.199727        -5.4349
  25   0.0000       0.211912         5.7664
  26   0.0000       0.232620         6.3299
  27   0.0000       0.232966         6.3393
  28   0.0000       0.236831         6.4445
  29   0.0000       0.272621         7.4184

MULLIKEN ATOMIC CHARGES
-----------------------
   0 C :    0.228476
   1 S :    0.990826
   2 O :   -0.716749
   3 O :   -0.730340
   4 O :   -0.770165
   5 H :   -0.002910
   6 H :   -0.002531
   7 H :    0.003394
Sum of atomic charges:   -1.0000000

LOEWDIN ATOMIC CHARGES
----------------------
   0 C :    0.022043
   1 S :    0.814170
   2 O :   -0.574866
   3 O :   -0.582316
   4 O :   -0.602024
   5 H :   -0.025591
   6 H :   -0.026893
   7 H :   -0.024524

  Mayer bond orders larger than 0.100000
B(  0-C ,  1-S ) :   0.9728 B(  0-C ,  5-H ) :   0.9428 B(  0-C ,  6-H ) :   0.9404
B(  0-C ,  7-H ) :   0.9418 B(  1-S ,  2-O ) :   1.3808 B(  1-S ,  3-O ) :   1.3713
B(  1-S ,  4-O ) :   1.3402 B(  1-S ,  7-H ) :   0.1009

FINAL SINGLE POINT ENERGY      -662.427973758760

DIPOLE MOMENT
-------------
                                X             Y             Z
Electronic contribution:     -0.40831      -4.19901       0.56140
Nuclear contribution   :      0.72475       5.67579      -0.57287
                        -----------------------------------------
Total Dipole Moment    :      0.31644       1.47679      -0.01147
                        -----------------------------------------
Magnitude (a.u.)       :      1.51035
Magnitude (Debye)      :      3.83901

Rotational constants in cm-1:     0.171646     0.157781     0.155534
Rotational constants in MHz :  5145.813281  4730.160232  4662.792719

                             ****ORCA TERMINATED NORMALLY****
TOTAL RUN TIME: 0 days 0 hours 0 minutes 7 seconds 152 msec
