                         Program Version 5.0.0 -  RELEASE  -
|  1> !LC-PBE RIJCOSX def2-SVPD def2/J TightSCF
|  2> *xyz 1 1
|  3> C         -0.46129        2.23469       -4.98962
|  4> C         -0.42384        2.39877       -6.47432
|  5> N         -0.95947        3.49265       -7.00740
|  6> N          0.14558        1.48689       -7.20399
|  7> H          0.56537        0.69681       -6.72386
|  8> H          0.22068        1.58177       -8.20752
|  9> H         -1.40624        4.18151       -6.40326
| 10> H         -0.93421        3.68160       -7.99947
| 11> H          0.00645        1.31059       -4.72100
| 12> H         -1.47822        2.22967       -4.65687
| 13> H          0.06109        3.04632       -4.52779
| 14> *
| 15>
| 16> %MaxCore 64000
| 17>
| 18> %pal nprocs 8
| 19> end
| 20>
| 21> %scf
| 22>   MaxIter 150
| 23> end
| 24>
| 25>
| 26>                          ****END OF INPUT****

CARTESIAN COORDINATES (ANGSTROEM)
---------------------------------
  C     -0.461290    2.234690   -4.989620
  C     -0.423840    2.398770   -6.474320
  N     -0.959470    3.492650   -7.007400
  N      0.145580    1.486890   -7.203990
  H      0.565370    0.696810   -6.723860
  H      0.220680    1.581770   -8.207520
  H     -1.406240    4.181510   -6.403260
  H     -0.934210    3.681600   -7.999470
  H      0.006450    1.310590   -4.721000
  H     -1.478220    2.229670   -4.656870
  H      0.061090    3.046320   -4.527790

 Total Charge           Charge          ....    1
 Multiplicity           Mult            ....    1
 Number of Electrons    NEL             ....   32
 Basis Dimension        Dim             ....  136

ORBITAL ENERGIES
----------------

  NO   OCC          E(Eh)            E(eV)
   0   2.0000     -14.485945      -394.1826
   1   2.0000     -14.478294      -393.9744
   2   2.0000     -10.470287      -284.9110
   3   2.0000     -10.326723      -281.0044
   4   2.0000      -1.382839       -37.6290
   5   2.0000      -1.276865       -34.7453
   6   2.0000      -1.125277       -30.6204
   7   2.0000      -0.998026       -27.1577
   8   2.0000      -0.936477       -25.4828
   9   2.0000      -0.920515       -25.0485
  10   2.0000      -0.847669       -23.0662
  11   2.0000      -0.816775       -22.2256
  12   2.0000      -0.756834       -20.5945
  13   2.0000      -0.741258       -20.1707
  14   2.0000      -0.716356       -19.4930
  15   2.0000      -0.630943       -17.1688
  16   0.0000      -0.121887        -3.3167
  17   0.0000      -0.082899        -2.2558
  18   0.0000      -0.039151        -1.0654
  19   0.0000      -0.035530        -0.9668
  20   0.0000      -0.013534        -0.3683

MULLIKEN ATOMIC CHARGES
-----------------------
   0 C :    0.285836
   1 C :    0.384885
   2 N :    0.007401
   3 N :   -0.051212
   4 H :    0.141958
   5 H :   -0.074986
   6 H :    0.081103
   7 H :   -0.102756
   8 H :    0.111466
   9 H :    0.112481
  10 H :    0.103825
Sum of atomic charges:    1.0000000

LOEWDIN ATOMIC CHARGES
----------------------
   0 C :    0.200891
   1 C :   -0.065389
   2 N :    0.257799
   3 N :    0.266925
   4 H :    0.065264
   5 H :    0.063994
   6 H :    0.067922
   7 H :    0.053007
   8 H :    0.017774
   9 H :    0.035625
  10 H :    0.036187

  Mayer bond orders larger than 0.100000
B(  0-C ,  1-C ) :   1.2711 B(  0-C ,  8-H ) :   0.8228 B(  0-C ,  9-H ) :   0.7947
B(  0-C , 10-H ) :   0.8135 B(  1-C ,  2-N ) :   1.1337 B(  1-C ,  3-N ) :   1.0916
B(  1-C ,  5-H ) :  -0.2184 B(  1-C ,  7-H ) :  -0.1660 B(  1-C ,  8-H ) :   0.1793
B(  1-C ,  9-H ) :   0.1395 B(  1-C , 10-H ) :   0.1286 B(  2-N ,  3-N ) :   0.1452
B(  2-N ,  6-H ) :   1.0881 B(  2-N ,  7-H ) :   1.2650 B(  3-N ,  4-H ) :   1.0178
B(  3-N ,  5-H ) :   1.3369 B(  4-H ,  5-H ) :  -0.1649 B(  6-H ,  7-H ) :  -0.1549

FINAL SINGLE POINT ENERGY      -188.987431973440

DIPOLE MOMENT
-------------
                                X             Y             Z
Electronic contribution:      0.06492       0.17236      -2.16800
Nuclear contribution   :     -0.00094      -0.11553       1.69525
                        -----------------------------------------
Total Dipole Moment    :      0.06398       0.05682      -0.47274
                        -----------------------------------------
Magnitude (a.u.)       :      0.48043
Magnitude (Debye)      :      1.22115

Rotational constants in cm-1:     0.329971     0.303414     0.162776
Rotational constants in MHz :  9892.292308  9096.128349  4879.901854

                             ****ORCA TERMINATED NORMALLY****
TOTAL RUN TIME: 0 days 0 hours 0 minutes 8 seconds 73 msec
