                         Program Version 5.0.0 -  RELEASE  -
|  1> !LC-PBE RIJCOSX def2-SVPD def2/J TightSCF xyzfile
|  2>
|  3> *xyzfile 0 1 B.xyz
|  4>
|  5> %MaxCore 64000
|  6>
|  7> %pal nprocs 4
|  8> end
|  9>
| 10> %scf
| 11>   MaxIter 150
| 12> end
| 13>
| 14>
| 15>                          ****END OF INPUT****

CARTESIAN COORDINATES (ANGSTROEM)
---------------------------------
  C     -0.461293    2.234686   -4.989619
  C      0.848883    2.667967   -4.302351
  C      2.093434    1.861037   -4.656845
  H      2.444814    2.041567   -5.674990
  H      2.901748    2.137864   -3.980338
  S      1.879644    0.078594   -4.462965
  C     -0.423841    2.398772   -6.474317
  N     -0.959467    3.492647   -7.007401
  N      0.145585    1.486891   -7.203987
  H      0.565371    0.696807   -6.723858
  H      0.220682    1.581768   -8.207520
  H     -1.406243    4.181507   -6.403261
  H     -0.934215    3.681601   -7.999468
  O      3.207574   -0.466111   -4.420259
  O      1.075064   -0.056160   -3.268758
  O      1.131661   -0.319960   -5.679031
  H      0.668432    2.559427   -3.232850
  H      1.034074    3.729426   -4.497081
  H     -1.288884    2.826737   -4.594997
  H     -0.651696    1.186343   -4.756552

 Total Charge           Charge          ....    0
 Multiplicity           Mult            ....    1
 Number of Electrons    NEL             ....   88
 Basis Dimension        Dim             ....  296

ORBITAL ENERGIES
----------------

  NO   OCC          E(Eh)            E(eV)
   0   2.0000     -88.468526     -2407.3510
   1   2.0000     -18.934594      -515.2365
   2   2.0000     -18.919711      -514.8315
   3   2.0000     -18.917792      -514.7793
   4   2.0000     -14.342707      -390.2849
   5   2.0000     -14.309822      -389.3901
   6   2.0000     -10.314724      -280.6779
   7   2.0000     -10.182640      -277.0837
   8   2.0000     -10.163669      -276.5675
   9   2.0000     -10.140555      -275.9385
  10   2.0000      -8.089446      -220.1250
  11   2.0000      -6.112461      -166.3285
  12   2.0000      -6.111545      -166.3036
  13   2.0000      -6.110968      -166.2879
  14   2.0000      -1.265185       -34.4274
  15   2.0000      -1.231805       -33.5191
  16   2.0000      -1.128924       -30.7196
  17   2.0000      -1.102656       -30.0048
  18   2.0000      -1.099167       -29.9099
  19   2.0000      -1.012048       -27.5392
  20   2.0000      -0.927497       -25.2385
  21   2.0000      -0.853251       -23.2181
  22   2.0000      -0.812606       -22.1121
  23   2.0000      -0.785955       -21.3869
  24   2.0000      -0.759381       -20.6638
  25   2.0000      -0.712440       -19.3865
  26   2.0000      -0.674139       -18.3443
  27   2.0000      -0.670080       -18.2338
  28   2.0000      -0.635118       -17.2824
  29   2.0000      -0.621619       -16.9151
  30   2.0000      -0.594513       -16.1775
  31   2.0000      -0.587049       -15.9744
  32   2.0000      -0.564589       -15.3632
  33   2.0000      -0.556778       -15.1507
  34   2.0000      -0.528174       -14.3723
  35   2.0000      -0.513542       -13.9742
  36   2.0000      -0.493261       -13.4223
  37   2.0000      -0.479450       -13.0465
  38   2.0000      -0.449186       -12.2230
  39   2.0000      -0.444255       -12.0888
  40   2.0000      -0.407967       -11.1013
  41   2.0000      -0.398828       -10.8526
  42   2.0000      -0.382377       -10.4050
  43   2.0000      -0.355961        -9.6862
  44   0.0000       0.022708         0.6179
  45   0.0000       0.036236         0.9860
  46   0.0000       0.072454         1.9716
  47   0.0000       0.090355         2.4587
  48   0.0000       0.099499         2.7075

MULLIKEN ATOMIC CHARGES
-----------------------
   0 C :   -0.063002
   1 C :    0.009179
   2 C :   -0.047199
   3 H :    0.151644
   4 H :   -0.018353
   5 S :    1.278822
   6 C :    0.690763
   7 N :   -0.070024
   8 N :    0.308516
   9 H :   -0.163497
  10 H :   -0.111506
  11 H :    0.050520
  12 H :   -0.117111
  13 O :   -0.720249
  14 O :   -0.750748
  15 O :   -0.801249
  16 H :    0.234729
  17 H :   -0.091166
  18 H :    0.022237
  19 H :    0.207692
Sum of atomic charges:    0.0000000

LOEWDIN ATOMIC CHARGES
----------------------
   0 C :    0.033888
   1 C :   -0.035460
   2 C :   -0.089205
   3 H :    0.022399
   4 H :    0.031939
   5 S :    0.916105
   6 C :   -0.036742
   7 N :    0.233018
   8 N :    0.297434
   9 H :   -0.118041
  10 H :    0.055009
  11 H :    0.045612
  12 H :    0.036069
  13 O :   -0.510511
  14 O :   -0.521583
  15 O :   -0.525585
  16 H :    0.045175
  17 H :    0.035711
  18 H :    0.042932
  19 H :    0.041833

  Mayer bond orders larger than 0.100000
B(  0-C ,  1-C ) :   1.2123 B(  0-C ,  6-C ) :   1.1052 B(  0-C , 16-H ) :   0.1165
B(  0-C , 18-H ) :   0.8447 B(  0-C , 19-H ) :   0.8514 B(  1-C ,  2-C ) :   1.3200
B(  1-C ,  3-H ) :   0.1067 B(  1-C ,  4-H ) :   0.1488 B(  1-C , 16-H ) :   0.8112
B(  1-C , 17-H ) :   0.9307 B(  1-C , 18-H ) :   0.1377 B(  1-C , 19-H ) :   0.1179
B(  2-C ,  3-H ) :   0.8970 B(  2-C ,  4-H ) :   0.8906 B(  2-C ,  5-S ) :   0.9085
B(  2-C , 15-O ) :   0.1154 B(  2-C , 16-H ) :   0.1138 B(  2-C , 17-H ) :   0.1040
B(  5-S , 13-O ) :   1.4700 B(  5-S , 14-O ) :   1.3885 B(  5-S , 15-O ) :   1.1762
B(  6-C ,  7-N ) :   0.9808 B(  6-C ,  8-N ) :   1.1516 B(  6-C , 10-H ) :  -0.2236
B(  6-C , 11-H ) :  -0.1131 B(  6-C , 12-H ) :  -0.1554 B(  7-N ,  8-N ) :   0.1359
B(  7-N , 11-H ) :   1.1329 B(  7-N , 12-H ) :   1.3069 B(  8-N ,  9-H ) :   1.1197
B(  8-N , 10-H ) :   1.2978 B(  9-H , 10-H ) :  -0.2187 B(  9-H , 15-O ) :   0.2531
B( 11-H , 12-H ) :  -0.1703

FINAL SINGLE POINT ENERGY      -889.534495548456

DIPOLE MOMENT
-------------
                                X             Y             Z
Electronic contribution:      3.05306      -7.48667       1.02991
Nuclear contribution   :     -5.91573      12.15027      -4.18945
                        -----------------------------------------
Total Dipole Moment    :     -2.86266       4.66361      -3.15954
                        -----------------------------------------
Magnitude (a.u.)       :      6.31877
Magnitude (Debye)      :     16.06103

Rotational constants in cm-1:     0.082044     0.024757     0.022371
Rotational constants in MHz :  2459.631375   742.181961   670.660570

                             ****ORCA TERMINATED NORMALLY****
TOTAL RUN TIME: 0 days 0 hours 1 minutes 22 seconds 275 msec
