                         Program Version 5.0.0 -  RELEASE  -
|  1> !LC-PBE RIJCOSX def2-SVPD def2/J TightSCF
|  2> *xyz 0 1
|  3> C          2.09343        1.86104       -4.65684
|  4> S          1.87964        0.07859       -4.46297
|  5> F          3.20757       -0.46611       -4.42026
|  6> O          1.07506       -0.05616       -3.26876
|  7> O          1.13166       -0.31996       -5.67903
|  8> H          2.68437        2.05681       -5.52711
|  9> H          2.58708        2.25699       -3.79404
| 10> H          1.13553        2.32556       -4.76426
| 11> *
| 12>
| 13> %MaxCore 64000
| 14>
| 15> %pal nprocs 8
| 16> end
| 17>
| 18> %scf
| 19>   MaxIter 150
| 20> end
| 21>
| 22>
| 23>                          ****END OF INPUT****

CARTESIAN COORDINATES (ANGSTROEM)
---------------------------------
  C      2.093430    1.861040   -4.656840
  S      1.879640    0.078590   -4.462970
  F      3.207570   -0.466110   -4.420260
  O      1.075060   -0.056160   -3.268760
  O      1.131660   -0.319960   -5.679030
  H      2.684370    2.056810   -5.527110
  H      2.587080    2.256990   -3.794040
  H      1.135530    2.325560   -4.764260

 Total Charge           Charge          ....    0
 Multiplicity           Mult            ....    1
 Number of Electrons    NEL             ....   50
 Basis Dimension        Dim             ....  140

ORBITAL ENERGIES
----------------

  NO   OCC          E(Eh)            E(eV)
   0   2.0000     -88.584553     -2410.5082
   1   2.0000     -24.641501      -670.5293
   2   2.0000     -19.013391      -517.3807
   3   2.0000     -19.001362      -517.0534
   4   2.0000     -10.189784      -277.2781
   5   2.0000      -8.206905      -223.3212
   6   2.0000      -6.234015      -169.6362
   7   2.0000      -6.226514      -169.4321
   8   2.0000      -6.225733      -169.4108
   9   2.0000      -1.554901       -42.3110
  10   2.0000      -1.287022       -35.0216
  11   2.0000      -1.173634       -31.9362
  12   2.0000      -0.975393       -26.5418
  13   2.0000      -0.887715       -24.1559
  14   2.0000      -0.773253       -21.0413
  15   2.0000      -0.758160       -20.6306
  16   2.0000      -0.712122       -19.3778
  17   2.0000      -0.630201       -17.1486
  18   2.0000      -0.625187       -17.0122
  19   2.0000      -0.611302       -16.6344
  20   2.0000      -0.583273       -15.8717
  21   2.0000      -0.536879       -14.6092
  22   2.0000      -0.478490       -13.0204
  23   2.0000      -0.466329       -12.6895
  24   2.0000      -0.449073       -12.2199
  25   0.0000       0.057614         1.5678
  26   0.0000       0.088153         2.3988
  27   0.0000       0.094326         2.5667
  28   0.0000       0.096708         2.6316
  29   0.0000       0.119457         3.2506

MULLIKEN ATOMIC CHARGES
-----------------------
   0 C :    0.177082
   1 S :    1.158744
   2 F :   -0.327779
   3 O :   -0.588317
   4 O :   -0.626794
   5 H :    0.067211
   6 H :    0.070542
   7 H :    0.069311
Sum of atomic charges:   -0.0000000

LOEWDIN ATOMIC CHARGES
----------------------
   0 C :    0.091969
   1 S :    1.083774
   2 F :   -0.238448
   3 O :   -0.464611
   4 O :   -0.483142
   5 H :   -0.001054
   6 H :   -0.001571
   7 H :    0.013083

  Mayer bond orders larger than 0.100000
B(  0-C ,  1-S ) :   1.0257 B(  0-C ,  5-H ) :   0.9321 B(  0-C ,  6-H ) :   0.9300
B(  0-C ,  7-H ) :   0.9341 B(  1-S ,  2-F ) :   0.7592 B(  1-S ,  3-O ) :   1.5790
B(  1-S ,  4-O ) :   1.5482

FINAL SINGLE POINT ENERGY      -686.876737683898

DIPOLE MOMENT
-------------
                                X             Y             Z
Electronic contribution:      1.85741      -5.11690       0.65760
Nuclear contribution   :     -0.60459       6.33153      -0.64388
                        -----------------------------------------
Total Dipole Moment    :      1.25282       1.21463       0.01373
                        -----------------------------------------
Magnitude (a.u.)       :      1.74502
Magnitude (Debye)      :      4.43548

Rotational constants in cm-1:     0.163601     0.155191     0.147098
Rotational constants in MHz :  4904.622287  4652.507792  4409.891356

                             ****ORCA TERMINATED NORMALLY****
TOTAL RUN TIME: 0 days 0 hours 0 minutes 7 seconds 483 msec
