                         Program Version 5.0.0 -  RELEASE  -
|  1> !LC-PBE RIJCOSX def2-SVPD def2/J TightSCF
|  2> *xyz 0 1
|  3> C         -0.46129        2.23469       -4.98962
|  4> C         -0.42384        2.39877       -6.47432
|  5> C         -0.95947        3.49265       -7.00740
|  6> N          0.14558        1.48689       -7.20399
|  7> H          0.56537        0.69681       -6.72386
|  8> H          0.22068        1.58177       -8.20752
|  9> H         -1.40624        4.18151       -6.40326
| 10> H         -0.93421        3.68160       -7.99947
| 11> H          0.00645        1.31059       -4.72100
| 12> H         -1.47822        2.22967       -4.65687
| 13> H          0.06109        3.04632       -4.52779
| 14> *
| 15>
| 16> %MaxCore 64000
| 17>
| 18> %pal nprocs 8
| 19> end
| 20>
| 21> %scf
| 22>   MaxIter 150
| 23> end
| 24>
| 25>
| 26>                          ****END OF INPUT****

CARTESIAN COORDINATES (ANGSTROEM)
---------------------------------
  C     -0.461290    2.234690   -4.989620
  C     -0.423840    2.398770   -6.474320
  C     -0.959470    3.492650   -7.007400
  N      0.145580    1.486890   -7.203990
  H      0.565370    0.696810   -6.723860
  H      0.220680    1.581770   -8.207520
  H     -1.406240    4.181510   -6.403260
  H     -0.934210    3.681600   -7.999470
  H      0.006450    1.310590   -4.721000
  H     -1.478220    2.229670   -4.656870
  H      0.061090    3.046320   -4.527790

 Total Charge           Charge          ....    0
 Multiplicity           Mult            ....    1
 Number of Electrons    NEL             ....   32
 Basis Dimension        Dim             ....  136

ORBITAL ENERGIES
----------------

  NO   OCC          E(Eh)            E(eV)
   0   2.0000     -14.232341      -387.2817
   1   2.0000     -10.155093      -276.3341
   2   2.0000     -10.117538      -275.3122
   3   2.0000     -10.054107      -273.5862
   4   2.0000      -1.103967       -30.0405
   5   2.0000      -0.923887       -25.1403
   6   2.0000      -0.850269       -23.1370
   7   2.0000      -0.725913       -19.7531
   8   2.0000      -0.678504       -18.4630
   9   2.0000      -0.619581       -16.8597
  10   2.0000      -0.578202       -15.7337
  11   2.0000      -0.533571       -14.5192
  12   2.0000      -0.524739       -14.2789
  13   2.0000      -0.485634       -13.2148
  14   2.0000      -0.480438       -13.0734
  15   2.0000      -0.304087        -8.2746
  16   0.0000       0.090819         2.4713
  17   0.0000       0.124053         3.3756
  18   0.0000       0.129146         3.5143
  19   0.0000       0.132417         3.6032
  20   0.0000       0.162442         4.4203

MULLIKEN ATOMIC CHARGES
-----------------------
   0 C :    0.518165
   1 C :   -0.315712
   2 C :    0.229923
   3 N :    0.115037
   4 H :   -0.015967
   5 H :   -0.133990
   6 H :   -0.142177
   7 H :   -0.367080
   8 H :   -0.041829
   9 H :    0.084520
  10 H :    0.069109
Sum of atomic charges:   -0.0000000

LOEWDIN ATOMIC CHARGES
----------------------
   0 C :    0.134521
   1 C :   -0.298513
   2 C :    0.130964
   3 N :    0.146026
   4 H :    0.011107
   5 H :    0.023139
   6 H :   -0.066750
   7 H :   -0.080696
   8 H :   -0.015357
   9 H :    0.007654
  10 H :    0.007904

  Mayer bond orders larger than 0.100000
B(  0-C ,  1-C ) :   1.1167 B(  0-C ,  8-H ) :   0.7855 B(  0-C ,  9-H ) :   0.7725
B(  0-C , 10-H ) :   0.7964 B(  1-C ,  2-C ) :   1.8578 B(  1-C ,  3-N ) :   1.1033
B(  1-C ,  5-H ) :  -0.1394 B(  1-C ,  7-H ) :   0.1403 B(  1-C ,  8-H ) :   0.2214
B(  1-C ,  9-H ) :   0.1531 B(  1-C , 10-H ) :   0.1399 B(  2-C ,  3-N ) :   0.2248
B(  2-C ,  6-H ) :   0.8882 B(  2-C ,  7-H ) :   0.8720 B(  3-N ,  4-H ) :   1.0701
B(  3-N ,  5-H ) :   1.2934 B(  4-H ,  5-H ) :  -0.1469

FINAL SINGLE POINT ENERGY      -172.547063129293

DIPOLE MOMENT
-------------
                                X             Y             Z
Electronic contribution:      0.54139      -0.81974      -1.51712
Nuclear contribution   :     -0.12116       0.12783       1.56719
                        -----------------------------------------
Total Dipole Moment    :      0.42023      -0.69191       0.05007
                        -----------------------------------------
Magnitude (a.u.)       :      0.81107
Magnitude (Debye)      :      2.06158

Rotational constants in cm-1:     0.350065     0.307664     0.168807
Rotational constants in MHz : 10494.676477  9223.531181  5060.697310

                             ****ORCA TERMINATED NORMALLY****
TOTAL RUN TIME: 0 days 0 hours 0 minutes 7 seconds 817 msec
