                         Program Version 5.0.0 -  RELEASE  -
|  1> !LC-PBE RIJCOSX def2-SVPD def2/J TightSCF
|  2> *xyz 0 1
|  3> C          2.09343        1.86104       -4.65684
|  4> S          1.87964        0.07859       -4.46297
|  5> O          3.20757       -0.46611       -4.42026
|  6> F          1.07506       -0.05616       -3.26876
|  7> O          1.13166       -0.31996       -5.67903
|  8> H          2.68437        2.05681       -5.52711
|  9> H          2.58708        2.25699       -3.79404
| 10> H          1.13553        2.32556       -4.76426
| 11> *
| 12>
| 13> %MaxCore 64000
| 14>
| 15> %pal nprocs 8
| 16> end
| 17>
| 18> %scf
| 19>   MaxIter 150
| 20> end
| 21>
| 22>
| 23>                          ****END OF INPUT****

CARTESIAN COORDINATES (ANGSTROEM)
---------------------------------
  C      2.093430    1.861040   -4.656840
  S      1.879640    0.078590   -4.462970
  O      3.207570   -0.466110   -4.420260
  F      1.075060   -0.056160   -3.268760
  O      1.131660   -0.319960   -5.679030
  H      2.684370    2.056810   -5.527110
  H      2.587080    2.256990   -3.794040
  H      1.135530    2.325560   -4.764260

 Total Charge           Charge          ....    0
 Multiplicity           Mult            ....    1
 Number of Electrons    NEL             ....   50
 Basis Dimension        Dim             ....  140

ORBITAL ENERGIES
----------------

  NO   OCC          E(Eh)            E(eV)
   0   2.0000     -88.584052     -2410.4946
   1   2.0000     -24.635568      -670.3679
   2   2.0000     -19.017671      -517.4972
   3   2.0000     -19.001167      -517.0481
   4   2.0000     -10.189596      -277.2730
   5   2.0000      -8.206372      -223.3067
   6   2.0000      -6.233433      -169.6203
   7   2.0000      -6.226065      -169.4198
   8   2.0000      -6.225238      -169.3973
   9   2.0000      -1.545599       -42.0579
  10   2.0000      -1.291297       -35.1380
  11   2.0000      -1.177209       -32.0335
  12   2.0000      -0.975379       -26.5414
  13   2.0000      -0.882725       -24.0202
  14   2.0000      -0.768129       -20.9019
  15   2.0000      -0.751507       -20.4496
  16   2.0000      -0.711863       -19.3708
  17   2.0000      -0.631981       -17.1971
  18   2.0000      -0.625463       -17.0197
  19   2.0000      -0.610385       -16.6094
  20   2.0000      -0.585510       -15.9325
  21   2.0000      -0.539448       -14.6791
  22   2.0000      -0.482918       -13.1409
  23   2.0000      -0.466908       -12.7052
  24   2.0000      -0.451947       -12.2981
  25   0.0000       0.058395         1.5890
  26   0.0000       0.088550         2.4096
  27   0.0000       0.094636         2.5752
  28   0.0000       0.096657         2.6302
  29   0.0000       0.120203         3.2709

MULLIKEN ATOMIC CHARGES
-----------------------
   0 C :    0.176100
   1 S :    1.159876
   2 O :   -0.577948
   3 F :   -0.334316
   4 O :   -0.629838
   5 H :    0.063674
   6 H :    0.068962
   7 H :    0.073489
Sum of atomic charges:    0.0000000

LOEWDIN ATOMIC CHARGES
----------------------
   0 C :    0.092076
   1 S :    1.082839
   2 O :   -0.457649
   3 F :   -0.244499
   4 O :   -0.483276
   5 H :    0.012320
   6 H :   -0.002052
   7 H :    0.000241

  Mayer bond orders larger than 0.100000
B(  0-C ,  1-S ) :   1.0250 B(  0-C ,  5-H ) :   0.9355 B(  0-C ,  6-H ) :   0.9295
B(  0-C ,  7-H ) :   0.9321 B(  1-S ,  2-O ) :   1.5878 B(  1-S ,  3-F ) :   0.7490
B(  1-S ,  4-O ) :   1.5481

FINAL SINGLE POINT ENERGY      -686.882083941982

DIPOLE MOMENT
-------------
                                X             Y             Z
Electronic contribution:     -1.74530      -4.42617       2.60770
Nuclear contribution   :      1.52593       5.92196      -1.79430
                        -----------------------------------------
Total Dipole Moment    :     -0.21937       1.49579       0.81340
                        -----------------------------------------
Magnitude (a.u.)       :      1.71672
Magnitude (Debye)      :      4.36356

Rotational constants in cm-1:     0.162837     0.155564     0.147443
Rotational constants in MHz :  4881.731197  4663.686927  4420.233103

                             ****ORCA TERMINATED NORMALLY****
TOTAL RUN TIME: 0 days 0 hours 0 minutes 7 seconds 517 msec
