                         Program Version 5.0.0 -  RELEASE  -
|  1> !LC-PBE RIJCOSX def2-SVPD def2/J TightSCF
|  2> *xyz 0 1
|  3> C         -0.46129        2.23469       -4.98962
|  4> C         -0.42384        2.39877       -6.47432
|  5> N         -0.95947        3.49265       -7.00740
|  6> C          0.14558        1.48689       -7.20399
|  7> H          0.56537        0.69681       -6.72386
|  8> H          0.22068        1.58177       -8.20752
|  9> H         -1.40624        4.18151       -6.40326
| 10> H         -0.93421        3.68160       -7.99947
| 11> H          0.00645        1.31059       -4.72100
| 12> H         -1.47822        2.22967       -4.65687
| 13> H          0.06109        3.04632       -4.52779
| 14> *
| 15>
| 16> %MaxCore 64000
| 17>
| 18> %pal nprocs 8
| 19> end
| 20>
| 21> %scf
| 22>   MaxIter 150
| 23> end
| 24>
| 25>
| 26>                          ****END OF INPUT****

CARTESIAN COORDINATES (ANGSTROEM)
---------------------------------
  C     -0.461290    2.234690   -4.989620
  C     -0.423840    2.398770   -6.474320
  N     -0.959470    3.492650   -7.007400
  C      0.145580    1.486890   -7.203990
  H      0.565370    0.696810   -6.723860
  H      0.220680    1.581770   -8.207520
  H     -1.406240    4.181510   -6.403260
  H     -0.934210    3.681600   -7.999470
  H      0.006450    1.310590   -4.721000
  H     -1.478220    2.229670   -4.656870
  H      0.061090    3.046320   -4.527790

 Total Charge           Charge          ....    0
 Multiplicity           Mult            ....    1
 Number of Electrons    NEL             ....   32
 Basis Dimension        Dim             ....  136

ORBITAL ENERGIES
----------------

  NO   OCC          E(Eh)            E(eV)
   0   2.0000     -14.227443      -387.1484
   1   2.0000     -10.152921      -276.2750
   2   2.0000     -10.116020      -275.2709
   3   2.0000     -10.058688      -273.7108
   4   2.0000      -1.091263       -29.6948
   5   2.0000      -0.927502       -25.2386
   6   2.0000      -0.854039       -23.2396
   7   2.0000      -0.721786       -19.6408
   8   2.0000      -0.668232       -18.1835
   9   2.0000      -0.622326       -16.9343
  10   2.0000      -0.577994       -15.7280
  11   2.0000      -0.531635       -14.4665
  12   2.0000      -0.530490       -14.4354
  13   2.0000      -0.485802       -13.2193
  14   2.0000      -0.472365       -12.8537
  15   2.0000      -0.314771        -8.5654
  16   0.0000       0.091453         2.4886
  17   0.0000       0.125311         3.4099
  18   0.0000       0.129619         3.5271
  19   0.0000       0.138437         3.7671
  20   0.0000       0.167741         4.5645

MULLIKEN ATOMIC CHARGES
-----------------------
   0 C :    0.561723
   1 C :   -0.398512
   2 N :    0.147629
   3 C :    0.213363
   4 H :   -0.046459
   5 H :   -0.354219
   6 H :   -0.094825
   7 H :   -0.165787
   8 H :    0.095172
   9 H :    0.025345
  10 H :    0.016570
Sum of atomic charges:    0.0000000

LOEWDIN ATOMIC CHARGES
----------------------
   0 C :    0.131789
   1 C :   -0.302629
   2 N :    0.143291
   3 C :    0.136932
   4 H :   -0.066815
   5 H :   -0.066958
   6 H :    0.012543
   7 H :    0.011436
   8 H :   -0.002731
   9 H :    0.001145
  10 H :    0.001996

  Mayer bond orders larger than 0.100000
B(  0-C ,  1-C ) :   1.2978 B(  0-C ,  8-H ) :   0.8289 B(  0-C ,  9-H ) :   0.7259
B(  0-C , 10-H ) :   0.7275 B(  1-C ,  2-N ) :   1.1334 B(  1-C ,  3-C ) :   1.8577
B(  1-C ,  5-H ) :   0.1545 B(  1-C ,  8-H ) :   0.1697 B(  1-C ,  9-H ) :   0.2236
B(  1-C , 10-H ) :   0.2270 B(  2-N ,  3-C ) :   0.2341 B(  2-N ,  6-H ) :   1.1539
B(  2-N ,  7-H ) :   1.2326 B(  3-C ,  4-H ) :   0.9545 B(  3-C ,  5-H ) :   0.8150
B(  6-H ,  7-H ) :  -0.1363

FINAL SINGLE POINT ENERGY      -172.551256742231

DIPOLE MOMENT
-------------
                                X             Y             Z
Electronic contribution:     -0.44110       0.94655      -1.37851
Nuclear contribution   :      0.12666      -0.32199       1.52310
                        -----------------------------------------
Total Dipole Moment    :     -0.31444       0.62456       0.14459
                        -----------------------------------------
Magnitude (a.u.)       :      0.71404
Magnitude (Debye)      :      1.81493

Rotational constants in cm-1:     0.352483     0.305471     0.168700
Rotational constants in MHz : 10567.165953  9157.779739  5057.501411

                             ****ORCA TERMINATED NORMALLY****
TOTAL RUN TIME: 0 days 0 hours 0 minutes 7 seconds 430 msec
