                         Program Version 5.0.0 -  RELEASE  -
|  1> !LC-PBE RIJCOSX def2-SVPD def2/J TightSCF
|  2> *xyz 0 1
|  3> C          2.09343        1.86104       -4.65684
|  4> S          1.87964        0.07859       -4.46297
|  5> O          3.20757       -0.46611       -4.42026
|  6> O          1.07506       -0.05616       -3.26876
|  7> F          1.13166       -0.31996       -5.67903
|  8> H          2.68437        2.05681       -5.52711
|  9> H          2.58708        2.25699       -3.79404
| 10> H          1.13553        2.32556       -4.76426
| 11> *
| 12>
| 13> %MaxCore 64000
| 14>
| 15> %pal nprocs 8
| 16> end
| 17>
| 18> %scf
| 19>   MaxIter 150
| 20> end
| 21>
| 22>
| 23>                          ****END OF INPUT****

CARTESIAN COORDINATES (ANGSTROEM)
---------------------------------
  C      2.093430    1.861040   -4.656840
  S      1.879640    0.078590   -4.462970
  O      3.207570   -0.466110   -4.420260
  O      1.075060   -0.056160   -3.268760
  F      1.131660   -0.319960   -5.679030
  H      2.684370    2.056810   -5.527110
  H      2.587080    2.256990   -3.794040
  H      1.135530    2.325560   -4.764260

 Total Charge           Charge          ....    0
 Multiplicity           Mult            ....    1
 Number of Electrons    NEL             ....   50
 Basis Dimension        Dim             ....  140

ORBITAL ENERGIES
----------------

  NO   OCC          E(Eh)            E(eV)
   0   2.0000     -88.582293     -2410.4467
   1   2.0000     -24.617704      -669.8818
   2   2.0000     -19.017354      -517.4885
   3   2.0000     -19.012830      -517.3654
   4   2.0000     -10.188667      -277.2477
   5   2.0000      -8.204500      -223.2558
   6   2.0000      -6.231374      -169.5643
   7   2.0000      -6.224359      -169.3734
   8   2.0000      -6.223591      -169.3525
   9   2.0000      -1.516006       -41.2526
  10   2.0000      -1.298361       -35.3302
  11   2.0000      -1.195680       -32.5361
  12   2.0000      -0.973211       -26.4824
  13   2.0000      -0.867620       -23.6091
  14   2.0000      -0.753813       -20.5123
  15   2.0000      -0.730437       -19.8762
  16   2.0000      -0.709656       -19.3107
  17   2.0000      -0.633769       -17.2457
  18   2.0000      -0.626019       -17.0349
  19   2.0000      -0.608942       -16.5701
  20   2.0000      -0.590856       -16.0780
  21   2.0000      -0.543980       -14.8025
  22   2.0000      -0.488717       -13.2987
  23   2.0000      -0.476024       -12.9533
  24   2.0000      -0.465289       -12.6612
  25   0.0000       0.060612         1.6493
  26   0.0000       0.089856         2.4451
  27   0.0000       0.095592         2.6012
  28   0.0000       0.096153         2.6165
  29   0.0000       0.119933         3.2635

MULLIKEN ATOMIC CHARGES
-----------------------
   0 C :    0.175088
   1 S :    1.166835
   2 O :   -0.588492
   3 O :   -0.601365
   4 F :   -0.356239
   5 H :    0.067465
   6 H :    0.064783
   7 H :    0.071924
Sum of atomic charges:    0.0000000

LOEWDIN ATOMIC CHARGES
----------------------
   0 C :    0.092228
   1 S :    1.080592
   2 O :   -0.457859
   3 O :   -0.465174
   4 F :   -0.260064
   5 H :   -0.000818
   6 H :    0.011325
   7 H :   -0.000230

  Mayer bond orders larger than 0.100000
B(  0-C ,  1-S ) :   1.0254 B(  0-C ,  5-H ) :   0.9346 B(  0-C ,  6-H ) :   0.9317
B(  0-C ,  7-H ) :   0.9320 B(  1-S ,  2-O ) :   1.5851 B(  1-S ,  3-O ) :   1.5769
B(  1-S ,  4-F ) :   0.7093

FINAL SINGLE POINT ENERGY      -686.897488307395

DIPOLE MOMENT
-------------
                                X             Y             Z
Electronic contribution:     -1.66129      -4.87717      -1.49360
Nuclear contribution   :      1.46938       6.18552       0.61372
                        -----------------------------------------
Total Dipole Moment    :     -0.19191       1.30835      -0.87988
                        -----------------------------------------
Magnitude (a.u.)       :      1.58833
Magnitude (Debye)      :      4.03723

Rotational constants in cm-1:     0.163578     0.153284     0.148718
Rotational constants in MHz :  4903.939615  4595.352658  4458.447794

                             ****ORCA TERMINATED NORMALLY****
TOTAL RUN TIME: 0 days 0 hours 0 minutes 7 seconds 398 msec
