                         Program Version 5.0.0 -  RELEASE  -
|  1> !LC-PBE RIJCOSX def2-SVPD def2/J TightSCF xyzfile
|  2>
|  3> *xyzfile 0 1 D1.xyz
|  4>
|  5> %MaxCore 64000
|  6>
|  7> %pal nprocs 4
|  8> end
|  9>
| 10> %scf
| 11>   MaxIter 150
| 12> end
| 13>
| 14>
| 15>                          ****END OF INPUT****

CARTESIAN COORDINATES (ANGSTROEM)
---------------------------------
  C     -0.461293    2.234686   -4.989619
  C      0.848883    2.667967   -4.302351
  C      2.093434    1.861037   -4.656845
  H      2.444814    2.041567   -5.674990
  H      2.901748    2.137864   -3.980338
  S      1.879644    0.078594   -4.462965
  C     -0.423841    2.398772   -6.474317
  C     -0.959467    3.492647   -7.007401
  N      0.145585    1.486891   -7.203987
  H      0.565371    0.696807   -6.723858
  H      0.220682    1.581768   -8.207520
  H     -1.406243    4.181507   -6.403261
  H     -0.934215    3.681601   -7.999468
  F      3.207574   -0.466111   -4.420259
  O      1.075064   -0.056160   -3.268758
  O      1.131661   -0.319960   -5.679031
  H      0.668432    2.559427   -3.232850
  H      1.034074    3.729426   -4.497081
  H     -1.288884    2.826737   -4.594997
  H     -0.651696    1.186343   -4.756552

 Total Charge           Charge          ....    0
 Multiplicity           Mult            ....    1
 Number of Electrons    NEL             ....   88
 Basis Dimension        Dim             ....  296

ORBITAL ENERGIES
----------------

  NO   OCC          E(Eh)            E(eV)
   0   2.0000     -88.598118     -2410.8773
   1   2.0000     -24.653863      -670.8657
   2   2.0000     -19.027729      -517.7708
   3   2.0000     -19.024153      -517.6735
   4   2.0000     -14.201616      -386.4456
   5   2.0000     -10.201589      -277.5993
   6   2.0000     -10.160331      -276.4767
   7   2.0000     -10.146284      -276.0944
   8   2.0000     -10.130822      -275.6737
   9   2.0000     -10.050712      -273.4938
  10   2.0000      -8.220081      -223.6798
  11   2.0000      -6.247040      -169.9906
  12   2.0000      -6.240249      -169.8058
  13   2.0000      -6.238474      -169.7575
  14   2.0000      -1.566614       -42.6297
  15   2.0000      -1.305521       -35.5250
  16   2.0000      -1.197191       -32.5772
  17   2.0000      -1.088852       -29.6292
  18   2.0000      -1.013974       -27.5916
  19   2.0000      -0.940590       -25.5948
  20   2.0000      -0.904659       -24.6170
  21   2.0000      -0.859395       -23.3853
  22   2.0000      -0.812661       -22.1136
  23   2.0000      -0.773254       -21.0413
  24   2.0000      -0.758374       -20.6364
  25   2.0000      -0.736088       -20.0300
  26   2.0000      -0.709375       -19.3031
  27   2.0000      -0.678372       -18.4594
  28   2.0000      -0.655761       -17.8442
  29   2.0000      -0.641857       -17.4658
  30   2.0000      -0.624559       -16.9951
  31   2.0000      -0.601741       -16.3742
  32   2.0000      -0.592969       -16.1355
  33   2.0000      -0.560056       -15.2399
  34   2.0000      -0.539097       -14.6696
  35   2.0000      -0.534935       -14.5563
  36   2.0000      -0.518485       -14.1087
  37   2.0000      -0.497414       -13.5353
  38   2.0000      -0.489879       -13.3303
  39   2.0000      -0.482080       -13.1181
  40   2.0000      -0.469070       -12.7640
  41   2.0000      -0.460810       -12.5393
  42   2.0000      -0.451560       -12.2876
  43   2.0000      -0.296258        -8.0616
  44   0.0000       0.054718         1.4890
  45   0.0000       0.079072         2.1517
  46   0.0000       0.081485         2.2173
  47   0.0000       0.094581         2.5737
  48   0.0000       0.109742         2.9862

MULLIKEN ATOMIC CHARGES
-----------------------
   0 C :    0.268739
   1 C :   -0.024261
   2 C :   -0.106040
   3 H :    0.228303
   4 H :    0.010641
   5 S :    1.490078
   6 C :   -0.086586
   7 C :    0.164675
   8 N :    0.551646
   9 H :   -0.384665
  10 H :   -0.173022
  11 H :   -0.076282
  12 H :   -0.353107
  13 F :   -0.411708
  14 O :   -0.631230
  15 O :   -0.737901
  16 H :    0.232962
  17 H :   -0.085085
  18 H :    0.114931
  19 H :    0.007912
Sum of atomic charges:   -0.0000000

LOEWDIN ATOMIC CHARGES
----------------------
   0 C :    0.009263
   1 C :   -0.024957
   2 C :   -0.060091
   3 H :    0.038416
   4 H :    0.030892
   5 S :    1.154124
   6 C :   -0.252940
   7 C :    0.140210
   8 N :    0.184718
   9 H :   -0.136003
  10 H :    0.028032
  11 H :   -0.074572
  12 H :   -0.079239
  13 F :   -0.225784
  14 O :   -0.440532
  15 O :   -0.450710
  16 H :    0.038101
  17 H :    0.052076
  18 H :    0.044135
  19 H :    0.024859

  Mayer bond orders larger than 0.100000
B(  0-C ,  1-C ) :   1.1764 B(  0-C ,  6-C ) :   1.1702 B(  0-C ,  8-N ) :   0.1176
B(  0-C , 16-H ) :   0.1213 B(  0-C , 18-H ) :   0.7744 B(  0-C , 19-H ) :   0.7778
B(  1-C ,  2-C ) :   1.3688 B(  1-C ,  3-H ) :   0.1096 B(  1-C ,  4-H ) :   0.1807
B(  1-C , 16-H ) :   0.7897 B(  1-C , 17-H ) :   0.9608 B(  1-C , 18-H ) :   0.1203
B(  1-C , 19-H ) :   0.1363 B(  2-C ,  3-H ) :   0.8719 B(  2-C ,  4-H ) :   0.8421
B(  2-C ,  5-S ) :   0.9489 B(  2-C , 15-O ) :   0.1115 B(  2-C , 16-H ) :   0.1021
B(  5-S , 13-F ) :   0.7243 B(  5-S , 14-O ) :   1.5837 B(  5-S , 15-O ) :   1.3982
B(  6-C ,  7-C ) :   1.7691 B(  6-C ,  8-N ) :   1.1201 B(  6-C , 10-H ) :  -0.1297
B(  6-C , 12-H ) :   0.1528 B(  6-C , 18-H ) :   0.1395 B(  6-C , 19-H ) :   0.1669
B(  7-C ,  8-N ) :   0.1602 B(  7-C , 11-H ) :   0.9634 B(  7-C , 12-H ) :   0.7283
B(  8-N ,  9-H ) :   1.0142 B(  8-N , 10-H ) :   1.2267 B(  9-H , 10-H ) :  -0.2023
B(  9-H , 15-O ) :   0.1888

FINAL SINGLE POINT ENERGY      -897.396651618934

DIPOLE MOMENT
-------------
                                X             Y             Z
Electronic contribution:     10.21036     -13.83974       5.47880
Nuclear contribution   :     -8.53047      14.15581      -5.17613
                        -----------------------------------------
Total Dipole Moment    :      1.67989       0.31607       0.30267
                        -----------------------------------------
Magnitude (a.u.)       :      1.73595
Magnitude (Debye)      :      4.41244

Rotational constants in cm-1:     0.081196     0.024861     0.022477
Rotational constants in MHz :  2434.181666   745.320670   673.846846

                             ****ORCA TERMINATED NORMALLY****
TOTAL RUN TIME: 0 days 0 hours 1 minutes 21 seconds 76 msec
