                         Program Version 5.0.0 -  RELEASE  -
|  1> !LC-PBE RIJCOSX def2-SVPD def2/J TightSCF xyzfile
|  2>
|  3> *xyzfile 0 1 D2.xyz
|  4>
|  5> %MaxCore 64000
|  6>
|  7> %pal nprocs 4
|  8> end
|  9>
| 10> %scf
| 11>   MaxIter 150
| 12> end
| 13>
| 14>
| 15>                          ****END OF INPUT****

CARTESIAN COORDINATES (ANGSTROEM)
---------------------------------
  C     -0.461293    2.234686   -4.989619
  C      0.848883    2.667967   -4.302351
  C      2.093434    1.861037   -4.656845
  H      2.444814    2.041567   -5.674990
  H      2.901748    2.137864   -3.980338
  S      1.879644    0.078594   -4.462965
  C     -0.423841    2.398772   -6.474317
  N     -0.959467    3.492647   -7.007401
  C      0.145585    1.486891   -7.203987
  H      0.565371    0.696807   -6.723858
  H      0.220682    1.581768   -8.207520
  H     -1.406243    4.181507   -6.403261
  H     -0.934215    3.681601   -7.999468
  F      3.207574   -0.466111   -4.420259
  O      1.075064   -0.056160   -3.268758
  O      1.131661   -0.319960   -5.679031
  H      0.668432    2.559427   -3.232850
  H      1.034074    3.729426   -4.497081
  H     -1.288884    2.826737   -4.594997
  H     -0.651696    1.186343   -4.756552

 Total Charge           Charge          ....    0
 Multiplicity           Mult            ....    1
 Number of Electrons    NEL             ....   88
 Basis Dimension        Dim             ....  296

ORBITAL ENERGIES
----------------

  NO   OCC          E(Eh)            E(eV)
   0   2.0000     -88.580747     -2410.4047
   1   2.0000     -24.638797      -670.4557
   2   2.0000     -19.012807      -517.3648
   3   2.0000     -19.001121      -517.0468
   4   2.0000     -14.222218      -387.0062
   5   2.0000     -10.190520      -277.2982
   6   2.0000     -10.157532      -276.4005
   7   2.0000     -10.140900      -275.9479
   8   2.0000     -10.130416      -275.6626
   9   2.0000     -10.034165      -273.0435
  10   2.0000      -8.202660      -223.2057
  11   2.0000      -6.229725      -169.5194
  12   2.0000      -6.222745      -169.3295
  13   2.0000      -6.221070      -169.2839
  14   2.0000      -1.551466       -42.2175
  15   2.0000      -1.288137       -35.0520
  16   2.0000      -1.177585       -32.0437
  17   2.0000      -1.086899       -29.5760
  18   2.0000      -1.006796       -27.3963
  19   2.0000      -0.937743       -25.5173
  20   2.0000      -0.888840       -24.1866
  21   2.0000      -0.867398       -23.6031
  22   2.0000      -0.803503       -21.8644
  23   2.0000      -0.758117       -20.6294
  24   2.0000      -0.748145       -20.3581
  25   2.0000      -0.717870       -19.5342
  26   2.0000      -0.713599       -19.4180
  27   2.0000      -0.661214       -17.9925
  28   2.0000      -0.649309       -17.6686
  29   2.0000      -0.637490       -17.3470
  30   2.0000      -0.621777       -16.9194
  31   2.0000      -0.603232       -16.4148
  32   2.0000      -0.585885       -15.9427
  33   2.0000      -0.550576       -14.9819
  34   2.0000      -0.538817       -14.6620
  35   2.0000      -0.531414       -14.4605
  36   2.0000      -0.512831       -13.9548
  37   2.0000      -0.492854       -13.4112
  38   2.0000      -0.475583       -12.9413
  39   2.0000      -0.471074       -12.8186
  40   2.0000      -0.455956       -12.4072
  41   2.0000      -0.452495       -12.3130
  42   2.0000      -0.424662       -11.5556
  43   2.0000      -0.303008        -8.2453
  44   0.0000       0.063384         1.7248
  45   0.0000       0.082743         2.2515
  46   0.0000       0.088937         2.4201
  47   0.0000       0.096201         2.6178
  48   0.0000       0.115381         3.1397

MULLIKEN ATOMIC CHARGES
-----------------------
   0 C :    0.147414
   1 C :    0.000000
   2 C :   -0.136570
   3 H :    0.288275
   4 H :   -0.025510
   5 S :    1.467559
   6 C :    0.132703
   7 N :   -0.029511
   8 C :    0.727661
   9 H :   -0.262579
  10 H :   -0.554393
  11 H :   -0.054645
  12 H :   -0.150321
  13 F :   -0.414655
  14 O :   -0.647947
  15 O :   -0.722399
  16 H :    0.218303
  17 H :   -0.091607
  18 H :   -0.070348
  19 H :    0.178573
Sum of atomic charges:   -0.0000000

LOEWDIN ATOMIC CHARGES
----------------------
   0 C :    0.008987
   1 C :   -0.028969
   2 C :   -0.059833
   3 H :    0.037269
   4 H :    0.029024
   5 S :    1.148886
   6 C :   -0.243229
   7 N :    0.144418
   8 C :    0.175751
   9 H :   -0.181418
  10 H :   -0.056961
  11 H :    0.005398
  12 H :    0.010931
  13 F :   -0.231240
  14 O :   -0.450613
  15 O :   -0.458325
  16 H :    0.037040
  17 H :    0.048418
  18 H :    0.034400
  19 H :    0.030067

  Mayer bond orders larger than 0.100000
B(  0-C ,  1-C ) :   1.1888 B(  0-C ,  6-C ) :   1.1028 B(  0-C ,  7-N ) :   0.1189
B(  0-C ,  8-C ) :   0.1758 B(  0-C , 16-H ) :   0.1050 B(  0-C , 18-H ) :   0.8285
B(  0-C , 19-H ) :   0.8590 B(  1-C ,  2-C ) :   1.3704 B(  1-C ,  3-H ) :   0.1025
B(  1-C ,  4-H ) :   0.1776 B(  1-C , 16-H ) :   0.7809 B(  1-C , 17-H ) :   0.9420
B(  1-C , 18-H ) :   0.1362 B(  1-C , 19-H ) :   0.1252 B(  2-C ,  3-H ) :   0.8519
B(  2-C ,  4-H ) :   0.8647 B(  2-C ,  5-S ) :   0.9619 B(  2-C , 15-O ) :   0.1317
B(  5-S , 13-F ) :   0.7190 B(  5-S , 14-O ) :   1.5673 B(  5-S , 15-O ) :   1.4325
B(  6-C ,  7-N ) :   0.9686 B(  6-C ,  8-C ) :   1.9705 B(  6-C ,  9-H ) :   0.2817
B(  6-C , 10-H ) :   0.2090 B(  6-C , 12-H ) :  -0.1274 B(  6-C , 18-H ) :   0.1249
B(  7-N ,  8-C ) :   0.2871 B(  7-N , 11-H ) :   1.1500 B(  7-N , 12-H ) :   1.3263
B(  8-C ,  9-H ) :   0.6391 B(  8-C , 10-H ) :   0.7723 B(  9-H , 10-H ) :  -0.2154
B(  9-H , 15-O ) :   0.1996 B( 11-H , 12-H ) :  -0.1524

FINAL SINGLE POINT ENERGY      -897.376658116437

DIPOLE MOMENT
-------------
                                X             Y             Z
Electronic contribution:      9.31792     -12.38566       5.41496
Nuclear contribution   :     -8.42493      13.96425      -5.19491
                        -----------------------------------------
Total Dipole Moment    :      0.89299       1.57859       0.22005
                        -----------------------------------------
Magnitude (a.u.)       :      1.82696
Magnitude (Debye)      :      4.64377

Rotational constants in cm-1:     0.082815     0.024151     0.022015
Rotational constants in MHz :  2482.732265   724.035221   660.002136

                             ****ORCA TERMINATED NORMALLY****
TOTAL RUN TIME: 0 days 0 hours 1 minutes 21 seconds 49 msec
