                         Program Version 5.0.0 -  RELEASE  -
|  1> !LC-PBE RIJCOSX def2-SVPD def2/J TightSCF xyzfile
|  2>
|  3> *xyzfile 0 1 D5.xyz
|  4>
|  5> %MaxCore 64000
|  6>
|  7> %pal nprocs 4
|  8> end
|  9>
| 10> %scf
| 11>   MaxIter 150
| 12> end
| 13>
| 14>
| 15>                          ****END OF INPUT****

CARTESIAN COORDINATES (ANGSTROEM)
---------------------------------
  C     -0.461293    2.234686   -4.989619
  C      0.848883    2.667967   -4.302351
  C      2.093434    1.861037   -4.656845
  H      2.444814    2.041567   -5.674990
  H      2.901748    2.137864   -3.980338
  S      1.879644    0.078594   -4.462965
  C     -0.423841    2.398772   -6.474317
  C     -0.959467    3.492647   -7.007401
  N      0.145585    1.486891   -7.203987
  H      0.565371    0.696807   -6.723858
  H      0.220682    1.581768   -8.207520
  H     -1.406243    4.181507   -6.403261
  H     -0.934215    3.681601   -7.999468
  O      3.207574   -0.466111   -4.420259
  O      1.075064   -0.056160   -3.268758
  F      1.131661   -0.319960   -5.679031
  H      0.668432    2.559427   -3.232850
  H      1.034074    3.729426   -4.497081
  H     -1.288884    2.826737   -4.594997
  H     -0.651696    1.186343   -4.756552

 Total Charge           Charge          ....    0
 Multiplicity           Mult            ....    1
 Number of Electrons    NEL             ....   88
 Basis Dimension        Dim             ....  296

ORBITAL ENERGIES
----------------

  NO   OCC          E(Eh)            E(eV)
   0   2.0000     -88.588204     -2410.6076
   1   2.0000     -24.639503      -670.4750
   2   2.0000     -19.025670      -517.7148
   3   2.0000     -19.021594      -517.6039
   4   2.0000     -14.234168      -387.3314
   5   2.0000     -10.197793      -277.4961
   6   2.0000     -10.164355      -276.5862
   7   2.0000     -10.161355      -276.5045
   8   2.0000     -10.145671      -276.0778
   9   2.0000     -10.068959      -273.9903
  10   2.0000      -8.210344      -223.4148
  11   2.0000      -6.237718      -169.7369
  12   2.0000      -6.230171      -169.5316
  13   2.0000      -6.228738      -169.4926
  14   2.0000      -1.539559       -41.8935
  15   2.0000      -1.308606       -35.6090
  16   2.0000      -1.203885       -32.7594
  17   2.0000      -1.116058       -30.3695
  18   2.0000      -1.016394       -27.6575
  19   2.0000      -0.943130       -25.6639
  20   2.0000      -0.914417       -24.8825
  21   2.0000      -0.865662       -23.5558
  22   2.0000      -0.824609       -22.4387
  23   2.0000      -0.764776       -20.8106
  24   2.0000      -0.753185       -20.4952
  25   2.0000      -0.728654       -19.8277
  26   2.0000      -0.711038       -19.3483
  27   2.0000      -0.689862       -18.7721
  28   2.0000      -0.654358       -17.8060
  29   2.0000      -0.639219       -17.3940
  30   2.0000      -0.625383       -17.0175
  31   2.0000      -0.619691       -16.8626
  32   2.0000      -0.595096       -16.1934
  33   2.0000      -0.570481       -15.5236
  34   2.0000      -0.548821       -14.9342
  35   2.0000      -0.538997       -14.6669
  36   2.0000      -0.527859       -14.3638
  37   2.0000      -0.514323       -13.9954
  38   2.0000      -0.493678       -13.4337
  39   2.0000      -0.489075       -13.3084
  40   2.0000      -0.476896       -12.9770
  41   2.0000      -0.472018       -12.8443
  42   2.0000      -0.463615       -12.6156
  43   2.0000      -0.317255        -8.6330
  44   0.0000       0.064730         1.7614
  45   0.0000       0.080952         2.2028
  46   0.0000       0.084200         2.2912
  47   0.0000       0.093761         2.5514
  48   0.0000       0.112658         3.0656

MULLIKEN ATOMIC CHARGES
-----------------------
   0 C :    0.250843
   1 C :    0.023063
   2 C :   -0.077682
   3 H :    0.218698
   4 H :    0.000956
   5 S :    1.357221
   6 C :   -0.032577
   7 C :    0.165902
   8 N :    0.549856
   9 H :   -0.357207
  10 H :   -0.158296
  11 H :   -0.065334
  12 H :   -0.352239
  13 O :   -0.620571
  14 O :   -0.653449
  15 F :   -0.480110
  16 H :    0.238021
  17 H :   -0.081876
  18 H :    0.116378
  19 H :   -0.041596
Sum of atomic charges:    0.0000000

LOEWDIN ATOMIC CHARGES
----------------------
   0 C :    0.005633
   1 C :   -0.034119
   2 C :   -0.054487
   3 H :    0.036057
   4 H :    0.044047
   5 S :    1.111203
   6 C :   -0.254289
   7 C :    0.151399
   8 N :    0.182393
   9 H :   -0.090697
  10 H :    0.032856
  11 H :   -0.067831
  12 H :   -0.074516
  13 O :   -0.441502
  14 O :   -0.443898
  15 F :   -0.258662
  16 H :    0.039031
  17 H :    0.049745
  18 H :    0.046241
  19 H :    0.021396

  Mayer bond orders larger than 0.100000
B(  0-C ,  1-C ) :   1.1852 B(  0-C ,  6-C ) :   1.1567 B(  0-C ,  8-N ) :   0.1138
B(  0-C , 16-H ) :   0.1182 B(  0-C , 17-H ) :   0.1009 B(  0-C , 18-H ) :   0.7823
B(  0-C , 19-H ) :   0.7980 B(  1-C ,  2-C ) :   1.3468 B(  1-C ,  3-H ) :   0.1124
B(  1-C ,  4-H ) :   0.1527 B(  1-C , 16-H ) :   0.7928 B(  1-C , 17-H ) :   0.9447
B(  1-C , 18-H ) :   0.1171 B(  1-C , 19-H ) :   0.1377 B(  2-C ,  3-H ) :   0.8754
B(  2-C ,  4-H ) :   0.8829 B(  2-C ,  5-S ) :   0.9977 B(  2-C , 16-H ) :   0.1095
B(  5-S , 13-O ) :   1.6195 B(  5-S , 14-O ) :   1.5867 B(  5-S , 15-F ) :   0.6846
B(  6-C ,  7-C ) :   1.7690 B(  6-C ,  8-N ) :   1.0983 B(  6-C , 10-H ) :  -0.1347
B(  6-C , 12-H ) :   0.1437 B(  6-C , 18-H ) :   0.1439 B(  6-C , 19-H ) :   0.1501
B(  7-C ,  8-N ) :   0.1659 B(  7-C , 11-H ) :   0.9700 B(  7-C , 12-H ) :   0.7314
B(  8-N ,  9-H ) :   1.0163 B(  8-N , 10-H ) :   1.2322 B(  9-H , 10-H ) :  -0.1888
B(  9-H , 15-F ) :   0.1416

FINAL SINGLE POINT ENERGY      -897.405007990342

DIPOLE MOMENT
-------------
                                X             Y             Z
Electronic contribution:      6.40066     -13.32268       3.13453
Nuclear contribution   :     -6.26130      13.99605      -3.80018
                        -----------------------------------------
Total Dipole Moment    :      0.13936       0.67337      -0.66564
                        -----------------------------------------
Magnitude (a.u.)       :      0.95704
Magnitude (Debye)      :      2.43261

Rotational constants in cm-1:     0.079895     0.025630     0.022948
Rotational constants in MHz :  2395.188639   768.373696   687.955250

                             ****ORCA TERMINATED NORMALLY****
TOTAL RUN TIME: 0 days 0 hours 1 minutes 18 seconds 661 msec
