                         Program Version 5.0.0 -  RELEASE  -
|  1> !LC-PBE RIJCOSX def2-SVPD def2/J TightSCF xyzfile
|  2>
|  3> *xyzfile 0 1 D6.xyz
|  4>
|  5> %MaxCore 64000
|  6>
|  7> %pal nprocs 4
|  8> end
|  9>
| 10> %scf
| 11>   MaxIter 150
| 12> end
| 13>
| 14>
| 15>                          ****END OF INPUT****

CARTESIAN COORDINATES (ANGSTROEM)
---------------------------------
  C     -0.461293    2.234686   -4.989619
  C      0.848883    2.667967   -4.302351
  C      2.093434    1.861037   -4.656845
  H      2.444814    2.041567   -5.674990
  H      2.901748    2.137864   -3.980338
  S      1.879644    0.078594   -4.462965
  C     -0.423841    2.398772   -6.474317
  N     -0.959467    3.492647   -7.007401
  C      0.145585    1.486891   -7.203987
  H      0.565371    0.696807   -6.723858
  H      0.220682    1.581768   -8.207520
  H     -1.406243    4.181507   -6.403261
  H     -0.934215    3.681601   -7.999468
  O      3.207574   -0.466111   -4.420259
  O      1.075064   -0.056160   -3.268758
  F      1.131661   -0.319960   -5.679031
  H      0.668432    2.559427   -3.232850
  H      1.034074    3.729426   -4.497081
  H     -1.288884    2.826737   -4.594997
  H     -0.651696    1.186343   -4.756552

 Total Charge           Charge          ....    0
 Multiplicity           Mult            ....    1
 Number of Electrons    NEL             ....   88
 Basis Dimension        Dim             ....  296

ORBITAL ENERGIES
----------------

  NO   OCC          E(Eh)            E(eV)
   0   2.0000     -88.575410     -2410.2594
   1   2.0000     -24.614205      -669.7866
   2   2.0000     -19.012799      -517.3646
   3   2.0000     -19.009705      -517.2804
   4   2.0000     -14.239599      -387.4792
   5   2.0000     -10.187519      -277.2165
   6   2.0000     -10.163215      -276.5551
   7   2.0000     -10.159748      -276.4608
   8   2.0000     -10.145868      -276.0831
   9   2.0000     -10.062323      -273.8097
  10   2.0000      -8.197149      -223.0558
  11   2.0000      -6.224272      -169.3711
  12   2.0000      -6.217146      -169.1772
  13   2.0000      -6.215808      -169.1407
  14   2.0000      -1.516386       -41.2629
  15   2.0000      -1.294942       -35.2372
  16   2.0000      -1.191754       -32.4293
  17   2.0000      -1.104913       -30.0662
  18   2.0000      -1.011756       -27.5313
  19   2.0000      -0.941727       -25.6257
  20   2.0000      -0.892418       -24.2839
  21   2.0000      -0.877847       -23.8874
  22   2.0000      -0.804298       -21.8861
  23   2.0000      -0.760473       -20.6935
  24   2.0000      -0.730733       -19.8843
  25   2.0000      -0.711774       -19.3684
  26   2.0000      -0.704949       -19.1826
  27   2.0000      -0.683251       -18.5922
  28   2.0000      -0.651622       -17.7315
  29   2.0000      -0.638692       -17.3797
  30   2.0000      -0.619635       -16.8611
  31   2.0000      -0.606711       -16.5094
  32   2.0000      -0.596337       -16.2272
  33   2.0000      -0.557290       -15.1646
  34   2.0000      -0.545852       -14.8534
  35   2.0000      -0.537059       -14.6141
  36   2.0000      -0.517800       -14.0901
  37   2.0000      -0.510610       -13.8944
  38   2.0000      -0.486831       -13.2474
  39   2.0000      -0.477244       -12.9865
  40   2.0000      -0.472225       -12.8499
  41   2.0000      -0.461182       -12.5494
  42   2.0000      -0.458508       -12.4766
  43   2.0000      -0.324720        -8.8361
  44   0.0000       0.072701         1.9783
  45   0.0000       0.085533         2.3275
  46   0.0000       0.089070         2.4237
  47   0.0000       0.093148         2.5347
  48   0.0000       0.117486         3.1970

MULLIKEN ATOMIC CHARGES
-----------------------
   0 C :    0.137562
   1 C :    0.036856
   2 C :   -0.086888
   3 H :    0.289629
   4 H :   -0.045551
   5 S :    1.350633
   6 C :    0.199684
   7 N :   -0.026706
   8 C :    0.784374
   9 H :   -0.293907
  10 H :   -0.547218
  11 H :   -0.046642
  12 H :   -0.147577
  13 O :   -0.633117
  14 O :   -0.670851
  15 F :   -0.503293
  16 H :    0.223947
  17 H :   -0.086881
  18 H :   -0.067329
  19 H :    0.133275
Sum of atomic charges:    0.0000000

LOEWDIN ATOMIC CHARGES
----------------------
   0 C :    0.005745
   1 C :   -0.037155
   2 C :   -0.053549
   3 H :    0.035796
   4 H :    0.042320
   5 S :    1.111720
   6 C :   -0.239522
   7 N :    0.153421
   8 C :    0.172569
   9 H :   -0.143677
  10 H :   -0.054799
  11 H :    0.011057
  12 H :    0.015033
  13 O :   -0.446592
  14 O :   -0.450909
  15 F :   -0.269921
  16 H :    0.038295
  17 H :    0.046249
  18 H :    0.036846
  19 H :    0.027071

  Mayer bond orders larger than 0.100000
B(  0-C ,  1-C ) :   1.1902 B(  0-C ,  6-C ) :   1.0919 B(  0-C ,  7-N ) :   0.1191
B(  0-C ,  8-C ) :   0.1522 B(  0-C , 16-H ) :   0.1020 B(  0-C , 18-H ) :   0.8412
B(  0-C , 19-H ) :   0.8781 B(  1-C ,  2-C ) :   1.3436 B(  1-C ,  3-H ) :   0.1096
B(  1-C ,  4-H ) :   0.1516 B(  1-C , 16-H ) :   0.7825 B(  1-C , 17-H ) :   0.9312
B(  1-C , 18-H ) :   0.1338 B(  1-C , 19-H ) :   0.1259 B(  2-C ,  3-H ) :   0.8482
B(  2-C ,  4-H ) :   0.9037 B(  2-C ,  5-S ) :   1.0131 B(  2-C , 15-F ) :   0.1111
B(  2-C , 16-H ) :   0.1022 B(  5-S , 13-O ) :   1.6028 B(  5-S , 14-O ) :   1.5697
B(  5-S , 15-F ) :   0.7183 B(  6-C ,  7-N ) :   0.9834 B(  6-C ,  8-C ) :   1.9379
B(  6-C ,  9-H ) :   0.2868 B(  6-C , 10-H ) :   0.2219 B(  6-C , 12-H ) :  -0.1287
B(  6-C , 18-H ) :   0.1234 B(  7-N ,  8-C ) :   0.2753 B(  7-N , 11-H ) :   1.1436
B(  7-N , 12-H ) :   1.3260 B(  8-C ,  9-H ) :   0.5038 B(  8-C , 10-H ) :   0.7899
B(  9-H , 10-H ) :  -0.2484 B(  9-H , 15-F ) :   0.1582 B( 11-H , 12-H ) :  -0.1530

FINAL SINGLE POINT ENERGY      -897.397431288183

DIPOLE MOMENT
-------------
                                X             Y             Z
Electronic contribution:      5.53264     -11.88905       3.14621
Nuclear contribution   :     -6.15577      13.80449      -3.81895
                        -----------------------------------------
Total Dipole Moment    :     -0.62312       1.91545      -0.67274
                        -----------------------------------------
Magnitude (a.u.)       :      2.12363
Magnitude (Debye)      :      5.39783

Rotational constants in cm-1:     0.081431     0.024887     0.022470
Rotational constants in MHz :  2441.231544   746.086417   673.646914

                             ****ORCA TERMINATED NORMALLY****
TOTAL RUN TIME: 0 days 0 hours 1 minutes 15 seconds 302 msec
