                         Program Version 5.0.0 -  RELEASE  -
|  1> !BLYP D3BJ RIJCOSX def2-SVPD def2/J TightSCF
|  2> *xyz -1 1
|  3> C         -0.77894        0.17197        1.80496
|  4> C         -0.60249       -0.63071        0.49224
|  5> H          0.31389       -1.24035        0.60350
|  6> H         -0.36383        0.11332       -0.30117
|  7> O         -1.71206       -1.37684        0.20253
|  8> H         -1.65864        0.77733        1.73736
|  9> H          0.07466        0.79896        1.95712
| 10> H         -0.87474       -0.50584        2.62734
| 11> *
| 12> %MaxCore 64000
| 13>
| 14> %pal nprocs 4
| 15> end
| 16>
| 17> %scf
| 18>   MaxIter 150
| 19> end
| 20>
| 21>
| 22>                          ****END OF INPUT****

CARTESIAN COORDINATES (ANGSTROEM)
---------------------------------
  C     -0.778940    0.171970    1.804960
  C     -0.602490   -0.630710    0.492240
  H      0.313890   -1.240350    0.603500
  H     -0.363830    0.113320   -0.301170
  O     -1.712060   -1.376840    0.202530
  H     -1.658640    0.777330    1.737360
  H      0.074660    0.798960    1.957120
  H     -0.874740   -0.505840    2.627340

 Total Charge           Charge          ....   -1
 Multiplicity           Mult            ....    1
 Number of Electrons    NEL             ....   26
 Basis Dimension        Dim             ....  103

ORBITAL ENERGIES
----------------

  NO   OCC          E(Eh)            E(eV)
   0   2.0000     -18.470971      -502.6207
   1   2.0000      -9.740484      -265.0521
   2   2.0000      -9.715751      -264.3790
   3   2.0000      -0.588041       -16.0014
   4   2.0000      -0.443975       -12.0812
   5   2.0000      -0.305794        -8.3211
   6   2.0000      -0.199186        -5.4201
   7   2.0000      -0.176856        -4.8125
   8   2.0000      -0.127742        -3.4760
   9   2.0000      -0.113721        -3.0945
  10   2.0000      -0.070064        -1.9065
  11   2.0000       0.067660         1.8411
  12   2.0000       0.070139         1.9086
  13   0.0000       0.162937         4.4337
  14   0.0000       0.191897         5.2218
  15   0.0000       0.222929         6.0662
  16   0.0000       0.235702         6.4138
  17   0.0000       0.254803         6.9335

MULLIKEN ATOMIC CHARGES
-----------------------
   0 C :    0.584429
   1 C :    0.345646
   2 H :   -0.294072
   3 H :   -0.263426
   4 O :   -0.812382
   5 H :   -0.200354
   6 H :   -0.164173
   7 H :   -0.195668
Sum of atomic charges:   -1.0000000

LOEWDIN ATOMIC CHARGES
----------------------
   0 C :    0.074741
   1 C :   -0.256440
   2 H :   -0.046702
   3 H :   -0.045083
   4 O :   -0.543076
   5 H :   -0.052483
   6 H :   -0.076415
   7 H :   -0.054541

  Mayer bond orders larger than 0.100000
B(  0-C ,  1-C ) :   1.1464 B(  0-C ,  2-H ) :   0.1849 B(  0-C ,  3-H ) :   0.1901
B(  0-C ,  4-O ) :   0.3078 B(  0-C ,  5-H ) :   0.8539 B(  0-C ,  6-H ) :   0.8895
B(  0-C ,  7-H ) :   0.8577 B(  1-C ,  2-H ) :   0.9228 B(  1-C ,  3-H ) :   0.9161
B(  1-C ,  4-O ) :   1.1574 B(  1-C ,  5-H ) :   0.2270 B(  1-C ,  6-H ) :   0.1718
B(  1-C ,  7-H ) :   0.2129 B(  2-H ,  3-H ) :   0.1078

Dispersion correction           -0.007743466
FINAL SINGLE POINT ENERGY      -154.268466132100

DIPOLE MOMENT
-------------
                                X             Y             Z
Electronic contribution:     -1.67901      -1.92791      -1.57689
Nuclear contribution   :      2.47835       2.80827       2.30058
                        -----------------------------------------
Total Dipole Moment    :      0.79933       0.88037       0.72370
                        -----------------------------------------
Magnitude (a.u.)       :      1.39202
Magnitude (Debye)      :      3.53823

Rotational constants in cm-1:     1.255775     0.327783     0.287473
Rotational constants in MHz : 37647.186859  9826.677683  8618.224821

                             ****ORCA TERMINATED NORMALLY****
TOTAL RUN TIME: 0 days 0 hours 0 minutes 7 seconds 346 msec
