                         Program Version 5.0.0 -  RELEASE  -
|  1> !BLYP D3BJ RIJCOSX def2-SVPD def2/J TightSCF
|  2> *xyz 0 1
|  3> C         -0.77894        0.17197        1.80496
|  4> C         -0.60249       -0.63071        0.49224
|  5> H          0.31389       -1.24035        0.60350
|  6> H         -0.36383        0.11332       -0.30117
|  7> F         -1.71206       -1.37684        0.20253
|  8> H         -1.65864        0.77733        1.73736
|  9> H          0.07466        0.79896        1.95712
| 10> H         -0.87474       -0.50584        2.62734
| 11> *
| 12> %MaxCore 64000
| 13>
| 14> %pal nprocs 4
| 15> end
| 16>
| 17> %scf
| 18>   MaxIter 150
| 19> end
| 20>
| 21>
| 22>                          ****END OF INPUT****

CARTESIAN COORDINATES (ANGSTROEM)
---------------------------------
  C     -0.778940    0.171970    1.804960
  C     -0.602490   -0.630710    0.492240
  H      0.313890   -1.240350    0.603500
  H     -0.363830    0.113320   -0.301170
  F     -1.712060   -1.376840    0.202530
  H     -1.658640    0.777330    1.737360
  H      0.074660    0.798960    1.957120
  H     -0.874740   -0.505840    2.627340

 Total Charge           Charge          ....    0
 Multiplicity           Mult            ....    1
 Number of Electrons    NEL             ....   26
 Basis Dimension        Dim             ....  103

ORBITAL ENERGIES
----------------

  NO   OCC          E(Eh)            E(eV)
   0   2.0000     -24.295746      -661.1209
   1   2.0000     -10.003030      -272.1963
   2   2.0000      -9.920753      -269.9574
   3   2.0000      -1.079894       -29.3854
   4   2.0000      -0.679890       -18.5008
   5   2.0000      -0.560159       -15.2427
   6   2.0000      -0.454612       -12.3706
   7   2.0000      -0.438280       -11.9262
   8   2.0000      -0.401412       -10.9230
   9   2.0000      -0.353839        -9.6284
  10   2.0000      -0.352625        -9.5954
  11   2.0000      -0.286763        -7.8032
  12   2.0000      -0.284535        -7.7426
  13   0.0000       0.003681         0.1002
  14   0.0000       0.034847         0.9482
  15   0.0000       0.048723         1.3258
  16   0.0000       0.058967         1.6046
  17   0.0000       0.083393         2.2692

MULLIKEN ATOMIC CHARGES
-----------------------
   0 C :    0.729487
   1 C :    0.625063
   2 H :   -0.211317
   3 H :   -0.182349
   4 F :   -0.387730
   5 H :   -0.201090
   6 H :   -0.177404
   7 H :   -0.194660
Sum of atomic charges:   -0.0000000

LOEWDIN ATOMIC CHARGES
----------------------
   0 C :    0.153087
   1 C :    0.058875
   2 H :    0.022127
   3 H :    0.025032
   4 F :   -0.193932
   5 H :   -0.021418
   6 H :   -0.021071
   7 H :   -0.022702

  Mayer bond orders larger than 0.100000
B(  0-C ,  1-C ) :   1.3212 B(  0-C ,  2-H ) :   0.1161 B(  0-C ,  3-H ) :   0.1199
B(  0-C ,  5-H ) :   0.8138 B(  0-C ,  6-H ) :   0.7882 B(  0-C ,  7-H ) :   0.8190
B(  1-C ,  2-H ) :   0.8753 B(  1-C ,  3-H ) :   0.8725 B(  1-C ,  4-F ) :   0.8230
B(  1-C ,  5-H ) :   0.1866 B(  1-C ,  6-H ) :   0.1567 B(  1-C ,  7-H ) :   0.1751

Dispersion correction           -0.007133688
FINAL SINGLE POINT ENERGY      -178.880070027502

DIPOLE MOMENT
-------------
                                X             Y             Z
Electronic contribution:     -2.74585      -3.29729      -2.82611
Nuclear contribution   :      3.27800       3.70743       3.04146
                        -----------------------------------------
Total Dipole Moment    :      0.53216       0.41014       0.21535
                        -----------------------------------------
Magnitude (a.u.)       :      0.70554
Magnitude (Debye)      :      1.79333

Rotational constants in cm-1:     1.234437     0.305084     0.268865
Rotational constants in MHz : 37007.496448  9146.194083  8060.380630

                             ****ORCA TERMINATED NORMALLY****
TOTAL RUN TIME: 0 days 0 hours 0 minutes 6 seconds 921 msec
