                         Program Version 5.0.0 -  RELEASE  -
|  1> !BLYP D3BJ RIJCOSX def2-SVPD def2/J TightSCF
|  2> *xyz 0 1
|  3> C         -2.12050        0.88520        1.78951
|  4> C         -0.77894        0.17197        1.80496
|  5> H         -2.32419        1.47265        2.68608
|  6> H         -2.18770        1.54127        0.91948
|  7> C         -3.17690       -0.15948        1.61070
|  8> H         -4.06474        0.23127        1.28675
|  9> H         -3.34407       -0.67151        2.48493
| 10> H         -2.71686       -0.78189        0.93588
| 11> H         -0.65708       -0.37837        0.89547
| 12> H         -0.74207       -0.50050        2.63642
| 13> H          0.00707        0.89251        1.89389
| 14> *
| 15> %MaxCore 64000
| 16>
| 17> %pal nprocs 4
| 18> end
| 19>
| 20> %scf
| 21>   MaxIter 150
| 22> end
| 23>
| 24>
| 25>                          ****END OF INPUT****

CARTESIAN COORDINATES (ANGSTROEM)
---------------------------------
  C     -2.120500    0.885200    1.789510
  C     -0.778940    0.171970    1.804960
  H     -2.324190    1.472650    2.686080
  H     -2.187700    1.541270    0.919480
  C     -3.176900   -0.159480    1.610700
  H     -4.064740    0.231270    1.286750
  H     -3.344070   -0.671510    2.484930
  H     -2.716860   -0.781890    0.935880
  H     -0.657080   -0.378370    0.895470
  H     -0.742070   -0.500500    2.636420
  H      0.007070    0.892510    1.893890

 Total Charge           Charge          ....    0
 Multiplicity           Mult            ....    1
 Number of Electrons    NEL             ....   26
 Basis Dimension        Dim             ....  124

ORBITAL ENERGIES
----------------

  NO   OCC          E(Eh)            E(eV)
   0   2.0000      -9.909837      -269.6604
   1   2.0000      -9.903053      -269.4758
   2   2.0000      -9.885238      -268.9910
   3   2.0000      -0.710036       -19.3211
   4   2.0000      -0.607821       -16.5397
   5   2.0000      -0.516318       -14.0497
   6   2.0000      -0.417942       -11.3728
   7   2.0000      -0.400492       -10.8980
   8   2.0000      -0.351273        -9.5586
   9   2.0000      -0.337180        -9.1751
  10   2.0000      -0.296543        -8.0693
  11   2.0000      -0.288402        -7.8478
  12   2.0000      -0.284437        -7.7399
  13   0.0000       0.009027         0.2456
  14   0.0000       0.037948         1.0326
  15   0.0000       0.043600         1.1864
  16   0.0000       0.061569         1.6754
  17   0.0000       0.081372         2.2143

MULLIKEN ATOMIC CHARGES
-----------------------
   0 C :   -0.229526
   1 C :    0.949708
   2 H :   -0.306823
   3 H :   -0.177604
   4 C :    1.386937
   5 H :   -0.441632
   6 H :   -0.294953
   7 H :   -0.309420
   8 H :   -0.130974
   9 H :   -0.142961
  10 H :   -0.302752
Sum of atomic charges:    0.0000000

LOEWDIN ATOMIC CHARGES
----------------------
   0 C :   -0.104840
   1 C :    0.124018
   2 H :    0.015066
   3 H :    0.017573
   4 C :    0.132704
   5 H :   -0.039131
   6 H :   -0.032545
   7 H :   -0.046527
   8 H :   -0.021808
   9 H :   -0.016777
  10 H :   -0.027732

  Mayer bond orders larger than 0.100000
B(  0-C ,  1-C ) :   1.2623 B(  0-C ,  2-H ) :   0.8927 B(  0-C ,  3-H ) :   0.8131
B(  0-C ,  4-C ) :   1.2197 B(  0-C ,  5-H ) :   0.2367 B(  0-C ,  6-H ) :   0.2646
B(  0-C ,  7-H ) :   0.3279 B(  0-C ,  8-H ) :   0.1924 B(  0-C ,  9-H ) :   0.1991
B(  0-C , 10-H ) :   0.2287 B(  1-C ,  4-C ) :   0.1159 B(  1-C ,  8-H ) :   0.7798
B(  1-C ,  9-H ) :   0.7455 B(  1-C , 10-H ) :   0.7470 B(  2-H ,  4-C ) :   0.1120
B(  3-H ,  4-C ) :   0.1081 B(  4-C ,  5-H ) :   0.5795 B(  4-C ,  6-H ) :   0.5617
B(  4-C ,  7-H ) :   0.5971 B(  6-H ,  7-H ) :   0.1061

Dispersion correction           -0.012707502
FINAL SINGLE POINT ENERGY      -118.957829639859

DIPOLE MOMENT
-------------
                                X             Y             Z
Electronic contribution:     -0.14557       0.47414       0.11283
Nuclear contribution   :      0.13334      -0.45108      -0.10852
                        -----------------------------------------
Total Dipole Moment    :     -0.01223       0.02306       0.00432
                        -----------------------------------------
Magnitude (a.u.)       :      0.02646
Magnitude (Debye)      :      0.06725

Rotational constants in cm-1:     0.972269     0.310387     0.269029
Rotational constants in MHz : 29147.878530  9305.178981  8065.286472

                             ****ORCA TERMINATED NORMALLY****
TOTAL RUN TIME: 0 days 0 hours 0 minutes 7 seconds 472 msec
