                         Program Version 5.0.0 -  RELEASE  -
|  1> !wB97X-D3 RIJCOSX def2-TZVP def2/J TightSCF
|  2> *xyz -1 1
|  3> C          1.44442        5.26658       -0.97546
|  4> O          1.56525        4.23349       -1.86489
|  5> C         -1.07389        4.84473       -0.97990
|  6> C          0.14812        5.21087       -0.13809
|  7> H          1.47425        6.26464       -1.47692
|  8> H          2.28962        5.30327       -0.26445
|  9> H          0.26183        4.45094        0.64071
| 10> H         -0.00252        6.17103        0.37148
| 11> H         -1.20745        5.57445       -1.75098
| 12> H         -1.94291        4.82190       -0.35605
| 13> H         -0.92683        3.88150       -1.42201
| 14> *
| 15> %MaxCore 64000
| 16>
| 17> %pal nprocs 8
| 18> end
| 19>
| 20> %scf
| 21>   MaxIter 150
| 22> end
| 23>
| 24>
| 25>                          ****END OF INPUT****

CARTESIAN COORDINATES (ANGSTROEM)
---------------------------------
  C      1.444420    5.266580   -0.975460
  O      1.565250    4.233490   -1.864890
  C     -1.073890    4.844730   -0.979900
  C      0.148120    5.210870   -0.138090
  H      1.474250    6.264640   -1.476920
  H      2.289620    5.303270   -0.264450
  H      0.261830    4.450940    0.640710
  H     -0.002520    6.171030    0.371480
  H     -1.207450    5.574450   -1.750980
  H     -1.942910    4.821900   -0.356050
  H     -0.926830    3.881500   -1.422010

 Total Charge           Charge          ....   -1
 Multiplicity           Mult            ....    1
 Number of Electrons    NEL             ....   34
 Basis Dimension        Dim             ....  166

ORBITAL ENERGIES
----------------

  NO   OCC          E(Eh)            E(eV)
   0   2.0000     -18.877497      -513.6828
   1   2.0000     -10.081698      -274.3369
   2   2.0000     -10.081592      -274.3341
   3   2.0000     -10.077523      -274.2234
   4   2.0000      -0.786938       -21.4137
   5   2.0000      -0.690853       -18.7991
   6   2.0000      -0.574124       -15.6227
   7   2.0000      -0.464412       -12.6373
   8   2.0000      -0.371973       -10.1219
   9   2.0000      -0.359134        -9.7725
  10   2.0000      -0.304359        -8.2820
  11   2.0000      -0.279725        -7.6117
  12   2.0000      -0.247863        -6.7447
  13   2.0000      -0.236894        -6.4462
  14   2.0000      -0.196030        -5.3343
  15   2.0000      -0.052857        -1.4383
  16   2.0000      -0.048902        -1.3307
  17   0.0000       0.276224         7.5164
  18   0.0000       0.307368         8.3639
  19   0.0000       0.322810         8.7841
  20   0.0000       0.340561         9.2671
  21   0.0000       0.350511         9.5379

MULLIKEN ATOMIC CHARGES
-----------------------
   0 C :    0.083747
   1 O :   -0.791908
   2 C :   -0.279387
   3 C :   -0.053153
   4 H :   -0.082459
   5 H :   -0.065528
   6 H :    0.013899
   7 H :   -0.017628
   8 H :    0.058215
   9 H :    0.035917
  10 H :    0.098285
Sum of atomic charges:   -1.0000000

LOEWDIN ATOMIC CHARGES
----------------------
   0 C :   -0.524417
   1 O :   -0.427044
   2 C :   -0.337044
   3 C :   -0.329760
   4 H :    0.054137
   5 H :    0.060354
   6 H :    0.106436
   7 H :    0.096467
   8 H :    0.102480
   9 H :    0.086413
  10 H :    0.111978

  Mayer bond orders larger than 0.100000
B(  0-C ,  1-O ) :   1.5519 B(  0-C ,  3-C ) :   0.9331 B(  0-C ,  4-H ) :   0.9199
B(  0-C ,  5-H ) :   0.9361 B(  1-O ,  3-C ) :  -0.1376 B(  2-C ,  3-C ) :   0.9788
B(  2-C ,  8-H ) :   0.9771 B(  2-C ,  9-H ) :   0.9749 B(  2-C , 10-H ) :   0.9695
B(  3-C ,  6-H ) :   0.9695 B(  3-C ,  7-H ) :   0.9518

Dispersion correction           -0.001934484
FINAL SINGLE POINT ENERGY      -193.751899956317

DIPOLE MOMENT
-------------
                                X             Y             Z
Electronic contribution:      2.11718      -1.44809      -1.52893
Nuclear contribution   :     -3.50495       2.13585       2.58010
                        -----------------------------------------
Total Dipole Moment    :     -1.38777       0.68777       1.05117
                        -----------------------------------------
Magnitude (a.u.)       :      1.87187
Magnitude (Debye)      :      4.75791

Rotational constants in cm-1:     0.478988     0.188199     0.150738
Rotational constants in MHz : 14359.706344  5642.078771  4519.011003

                             ****ORCA TERMINATED NORMALLY****
TOTAL RUN TIME: 0 days 0 hours 0 minutes 13 seconds 153 msec
