                         Program Version 5.0.0 -  RELEASE  -
|  1> !wB97X-D3 RIJCOSX def2-TZVP def2/J TightSCF
|  2> *xyz 1 1
|  3> C         -0.70169        4.07250       -4.00392
|  4> N          0.68053        4.61482       -4.04800
|  5> H          0.69993        5.58489       -4.38827
|  6> H          1.27804        4.05598       -4.66824
|  7> H          1.08573        4.53358       -3.10652
|  8> C         -1.70347        5.09320       -3.47740
|  9> H         -0.99590        3.74039       -5.00065
| 10> H         -0.64358        3.20191       -3.35153
| 11> C         -1.31400        5.78600       -2.16927
| 12> H         -1.87706        5.85010       -4.25115
| 13> H         -2.65326        4.56448       -3.35480
| 14> H         -0.38448        6.29945       -2.30062
| 15> H         -1.21111        5.05451       -1.39516
| 16> H         -2.07413        6.48833       -1.89758
| 17> *
| 18> %MaxCore 64000
| 19>
| 20> %pal nprocs 8
| 21> end
| 22>
| 23> %scf
| 24>   MaxIter 150
| 25> end
| 26>
| 27>
| 28>                          ****END OF INPUT****

CARTESIAN COORDINATES (ANGSTROEM)
---------------------------------
  C     -0.701690    4.072500   -4.003920
  N      0.680530    4.614820   -4.048000
  H      0.699930    5.584890   -4.388270
  H      1.278040    4.055980   -4.668240
  H      1.085730    4.533580   -3.106520
  C     -1.703470    5.093200   -3.477400
  H     -0.995900    3.740390   -5.000650
  H     -0.643580    3.201910   -3.351530
  C     -1.314000    5.786000   -2.169270
  H     -1.877060    5.850100   -4.251150
  H     -2.653260    4.564480   -3.354800
  H     -0.384480    6.299450   -2.300620
  H     -1.211110    5.054510   -1.395160
  H     -2.074130    6.488330   -1.897580

 Total Charge           Charge          ....    1
 Multiplicity           Mult            ....    1
 Number of Electrons    NEL             ....   34
 Basis Dimension        Dim             ....  184

ORBITAL ENERGIES
----------------

  NO   OCC          E(Eh)            E(eV)
   0   2.0000     -14.752806      -401.4443
   1   2.0000     -10.521557      -286.3061
   2   2.0000     -10.452284      -284.4211
   3   2.0000     -10.420582      -283.5584
   4   2.0000      -1.329448       -36.1761
   5   2.0000      -1.088782       -29.6273
   6   2.0000      -0.998305       -27.1653
   7   2.0000      -0.911420       -24.8010
   8   2.0000      -0.891974       -24.2718
   9   2.0000      -0.878844       -23.9146
  10   2.0000      -0.785757       -21.3815
  11   2.0000      -0.735342       -20.0097
  12   2.0000      -0.706147       -19.2152
  13   2.0000      -0.682705       -18.5773
  14   2.0000      -0.621489       -16.9116
  15   2.0000      -0.618217       -16.8225
  16   2.0000      -0.604218       -16.4416
  17   0.0000      -0.104816        -2.8522
  18   0.0000      -0.045987        -1.2514
  19   0.0000      -0.042670        -1.1611
  20   0.0000      -0.024750        -0.6735
  21   0.0000       0.006893         0.1876

MULLIKEN ATOMIC CHARGES
-----------------------
   0 C :   -0.218188
   1 N :   -0.332225
   2 H :    0.338140
   3 H :    0.341344
   4 H :    0.345963
   5 C :   -0.250537
   6 H :    0.200637
   7 H :    0.197525
   8 C :   -0.371511
   9 H :    0.157582
  10 H :    0.168020
  11 H :    0.092949
  12 H :    0.152230
  13 H :    0.178071
Sum of atomic charges:    1.0000000

LOEWDIN ATOMIC CHARGES
----------------------
   0 C :   -0.261379
   1 N :    0.169583
   2 H :    0.224191
   3 H :    0.223337
   4 H :    0.226625
   5 C :   -0.288523
   6 H :    0.154701
   7 H :    0.152696
   8 C :   -0.288405
   9 H :    0.149224
  10 H :    0.162958
  11 H :    0.108711
  12 H :    0.127053
  13 H :    0.139230

  Mayer bond orders larger than 0.100000
B(  0-C ,  1-N ) :   0.8479 B(  0-C ,  5-C ) :   0.9795 B(  0-C ,  6-H ) :   0.9553
B(  0-C ,  7-H ) :   0.9643 B(  1-N ,  2-H ) :   0.8680 B(  1-N ,  3-H ) :   0.8740
B(  1-N ,  4-H ) :   0.8729 B(  5-C ,  8-C ) :   0.9495 B(  5-C ,  9-H ) :   0.9607
B(  5-C , 10-H ) :   0.9568 B(  8-C , 11-H ) :   0.9715 B(  8-C , 12-H ) :   0.9699
B(  8-C , 13-H ) :   0.9659

Dispersion correction           -0.002864036
FINAL SINGLE POINT ENERGY      -174.868865385064

DIPOLE MOMENT
-------------
                                X             Y             Z
Electronic contribution:      1.55456      -0.91583      -1.47169
Nuclear contribution   :      0.19992       0.44181       0.60618
                        -----------------------------------------
Total Dipole Moment    :      1.75448      -0.47402      -0.86551
                        -----------------------------------------
Magnitude (a.u.)       :      2.01295
Magnitude (Debye)      :      5.11652

Rotational constants in cm-1:     0.427003     0.166237     0.135950
Rotational constants in MHz : 12801.234133  4983.663157  4075.681698

                             ****ORCA TERMINATED NORMALLY****
TOTAL RUN TIME: 0 days 0 hours 0 minutes 15 seconds 837 msec
